      -----------------------------------------------------------      
     |                   =====================                   |     
     |                           x T B                           |     
     |                   =====================                   |     
     |                         S. Grimme                         |     
     |          Mulliken Center for Theoretical Chemistry        |     
     |                    University of Bonn                     |     
      -----------------------------------------------------------      

   * xtb version 6.4.1 (bd6e46d) compiled by 'conda@4901f00b25ba' on 2021-06-10

   xtb is free software: you can redistribute it and/or modify it under
   the terms of the GNU Lesser General Public License as published by
   the Free Software Foundation, either version 3 of the License, or
   (at your option) any later version.
   
   xtb is distributed in the hope that it will be useful,
   but WITHOUT ANY WARRANTY; without even the implied warranty of
   MERCHANTABILITY or FITNESS FOR A PARTICULAR PURPOSE.  See the
   GNU Lesser General Public License for more details.
   
   Cite this work as:
   * C. Bannwarth, E. Caldeweyher, S. Ehlert, A. Hansen, P. Pracht,
     J. Seibert, S. Spicher, S. Grimme, WIREs Comput. Mol. Sci., 2020, 11,
     e01493. DOI: 10.1002/wcms.1493
   
   for GFN2-xTB:
   * C. Bannwarth, S. Ehlert and S. Grimme., J. Chem. Theory Comput., 2019,
     15, 1652-1671. DOI: 10.1021/acs.jctc.8b01176
   for GFN1-xTB:
   * S. Grimme, C. Bannwarth, P. Shushkov, J. Chem. Theory Comput., 2017,
     13, 1989-2009. DOI: 10.1021/acs.jctc.7b00118
   for GFN0-xTB:
   * P. Pracht, E. Caldeweyher, S. Ehlert, S. Grimme, ChemRxiv, 2019, preprint.
     DOI: 10.26434/chemrxiv.8326202.v1
   for GFN-FF:
   * S. Spicher and S. Grimme, Angew. Chem. Int. Ed., 2020, 59, 15665-15673.
     DOI: 10.1002/anie.202004239
   
   for DFT-D4:
   * E. Caldeweyher, C. Bannwarth and S. Grimme, J. Chem. Phys., 2017,
     147, 034112. DOI: 10.1063/1.4993215
   * E. Caldeweyher, S. Ehlert, A. Hansen, H. Neugebauer, S. Spicher,
     C. Bannwarth and S. Grimme, J. Chem. Phys., 2019, 150, 154122.
     DOI: 10.1063/1.5090222
   * E. Caldeweyher, J.-M. Mewes, S. Ehlert and S. Grimme, Phys. Chem. Chem. Phys.
     2020, 22, 8499-8512. DOI: 10.1039/D0CP00502A
   
   for sTDA-xTB:
   * S. Grimme and C. Bannwarth, J. Chem. Phys., 2016, 145, 054103.
     DOI: 10.1063/1.4959605
   
   in the mass-spec context:
   * V. Asgeirsson, C. Bauer and S. Grimme, Chem. Sci., 2017, 8, 4879.
     DOI: 10.1039/c7sc00601b
   * J. Koopman and S. Grimme, ACS Omega 2019, 4, 12, 15120-15133.
     DOI: 10.1021/acsomega.9b02011
   
   for metadynamics refer to:
   * S. Grimme, J. Chem. Theory Comput., 2019, 155, 2847-2862
     DOI: 10.1021/acs.jctc.9b00143
   
   for SPH calculations refer to:
   * S. Spicher and S. Grimme, J. Chem. Theory Comput., 2021, 17, 1701-1714
     DOI: 10.1021/acs.jctc.0c01306
   
   with help from (in alphabetical order)
   P. Atkinson, C. Bannwarth, F. Bohle, G. Brandenburg, E. Caldeweyher
   M. Checinski, S. Dohm, S. Ehlert, S. Ehrlich, I. Gerasimov, J. Koopman
   C. Lavigne, S. Lehtola, F. März, M. Müller, F. Musil, H. Neugebauer
   J. Pisarek, C. Plett, P. Pracht, J. Seibert, P. Shushkov, S. Spicher
   M. Stahn, M. Steiner, T. Strunk, J. Stückrath, T. Rose, and J. Unsleber
   
 * started run on 2021/11/19 at 13:38:30.859     

           -------------------------------------------------
          |                Calculation Setup                |
           -------------------------------------------------

          program call               : /home/jeff/miniconda3/bin/xtb input_structure_1.xyz --gfn 2 --ohess normal --parallel 1 --etemp 300 --chrg 0 --uhf 0 -I det_control.in
          hostname                   : jelfscompute1
          coordinate file            : input_structure_1.xyz
          omp threads                :                     1
          number of atoms            :                   266
          number of electrons        :                   834
          charge                     :                     0
          spin                       :                   0.0
          first test random number   :      0.18874597313773

   ID    Z sym.   atoms
    1    6 C      1-8, 10-14, 16-20, 22, 23, 38-45, 47-51, 53-57, 59, 60,
                  75-94, 96-100, 102-106, 108, 109, 123-130, 132-136,
                  138-142, 144, 145, 159-166, 168-172, 174-178, 180, 181,
                  195-202, 204-208, 210-214, 216, 217, 231-238, 240-244,
                  246-250, 252, 253
    2    7 N      9, 15, 21, 24, 46, 52, 58, 61, 95, 101, 107, 110, 131, 137,
                  143, 146, 167, 173, 179, 182, 203, 209, 215, 218, 239, 245,
                  251, 254
    3    1 H      25-37, 62-74, 111-122, 147-158, 183-194, 219-230, 255-266

molecular fragmentation (1/2 indicates fragments):
111111111111111111111111111111111111122222222222222222222222222222222222
222222222222222222222222222222222222222222222222222222222222222222222222
222222222222222222222222222222222222222222222222222222222222222222222222
22222222222222222222222222222222222222222222222222
# atoms in fragment 1/2:    37   229
 fragment masses (1/2) :      309.34     1995.16
CMA distance (Bohr)    :  69.417
constraining FC (au)   :  0.0500

           -------------------------------------------------
          |                 G F N 2 - x T B                 |
           -------------------------------------------------

        Reference                      10.1021/acs.jctc.8b01176
      * Hamiltonian:
        H0-scaling (s, p, d)           1.850000    2.230000    2.230000
        zeta-weighting                 0.500000
      * Dispersion:
        s8                             2.700000
        a1                             0.520000
        a2                             5.000000
        s9                             5.000000
      * Repulsion:
        kExp                           1.500000    1.000000
        rExp                           1.000000
      * Coulomb:
        alpha                          2.000000
        third order                    shell-resolved
        anisotropic                    true
        a3                             3.000000
        a5                             4.000000
        cn-shift                       1.200000
        cn-exp                         4.000000
        max-rad                        5.000000


          ...................................................
          :                      SETUP                      :
          :.................................................:
          :  # basis functions                 806          :
          :  # atomic orbitals                 806          :
          :  # shells                          446          :
          :  # electrons                       834          :
          :  max. iterations                   250          :
          :  Hamiltonian                  GFN2-xTB          :
          :  restarted?                      false          :
          :  GBSA solvation                  false          :
          :  PC potential                    false          :
          :  electronic temp.          300.0000000     K    :
          :  accuracy                    1.0000000          :
          :  -> integral cutoff          0.2500000E+02      :
          :  -> integral neglect         0.1000000E-07      :
          :  -> SCF convergence          0.1000000E-05 Eh   :
          :  -> wf. convergence          0.1000000E-03 e    :
          :  Broyden damping             0.4000000          :
          ...................................................

 iter      E             dE          RMSdq      gap      omega  full diag
   1   -457.3491666 -0.457349E+03  0.468E+00    0.03       0.0  T
   2   -457.7859937 -0.436827E+00  0.309E+00    0.36       1.0  T
   3   -440.6945643  0.170914E+02  0.339E+00    0.07       1.0  T
   4   -270.3739399  0.170321E+03  0.820E+00    0.02       1.0  T
   5   -434.5663378 -0.164192E+03  0.371E+00    0.01       1.0  T
   6   -456.6611253 -0.220948E+02  0.201E+00    0.11       1.0  T
   7   -457.6436327 -0.982507E+00  0.121E+00    0.26       1.0  T
   8   -457.9949463 -0.351314E+00  0.915E-01    0.07       1.0  T
   9   -457.9954112 -0.464907E-03  0.814E-01    0.26       1.0  T
  10   -458.0870520 -0.916408E-01  0.644E-01    0.21       1.0  T
  11   -458.1035537 -0.165017E-01  0.605E-01    0.17       1.0  T
  12   -458.1550580 -0.515042E-01  0.465E-01    0.13       1.0  T
  13   -458.2235492 -0.684913E-01  0.331E-01    0.03       1.0  T
  14   -458.2393547 -0.158055E-01  0.207E-01    0.05       1.0  T
  15   -458.2073672  0.319875E-01  0.371E-01    0.04       1.0  T
  16   -458.2123887 -0.502151E-02  0.354E-01    0.03       1.0  T
  17   -458.2129339 -0.545240E-03  0.344E-01    0.05       1.0  T
  18   -458.2316058 -0.186718E-01  0.278E-01    0.04       1.0  T
  19   -458.2487947 -0.171889E-01  0.180E-01    0.03       1.0  T
  20   -458.2590192 -0.102245E-01  0.713E-02    0.02       1.0  T
  21   -458.2599166 -0.897423E-03  0.483E-02    0.02       1.0  T
  22   -458.2597694  0.147156E-03  0.462E-02    0.03       1.0  T
  23   -458.2605108 -0.741402E-03  0.283E-02    0.02       1.0  T
  24   -458.2598255  0.685315E-03  0.378E-02    0.03       1.0  T
  25   -458.2607735 -0.947944E-03  0.159E-02    0.02       1.0  T
  26   -458.2607990 -0.254951E-04  0.137E-02    0.02       1.0  T
  27   -458.2608581 -0.591092E-04  0.105E-02    0.02       1.0  T
  28   -458.2609224 -0.643057E-04  0.554E-03    0.02       1.1  T
  29   -458.2609285 -0.617218E-05  0.395E-03    0.02       1.6  T
  30   -458.2609311 -0.255113E-05  0.321E-03    0.02       1.9  T
  31   -458.2609373 -0.619033E-05  0.964E-04    0.02       6.4  T
  32   -458.2609372  0.948365E-07  0.100E-03    0.02       6.1  T
  33   -458.2609377 -0.530577E-06  0.297E-04    0.02      20.6  T
  34   -458.2609377 -0.271110E-07  0.173E-04    0.02      35.4  T

   *** convergence criteria satisfied after 34 iterations ***

         #    Occupation            Energy/Eh            Energy/eV
      -------------------------------------------------------------
         1        2.0000           -0.6921555             -18.8345
       ...           ...                  ...                  ...
       411        2.0000           -0.3554872              -9.6733
       412        2.0000           -0.3550971              -9.6627
       413        2.0000           -0.3477224              -9.4620
       414        2.0000           -0.3465275              -9.4295
       415        2.0000           -0.3459735              -9.4144
       416        2.0000           -0.3388633              -9.2209
       417        1.2343           -0.3208729              -8.7314 (HOMO)
       418        0.7656           -0.3199656              -8.7067 (LUMO)
       419        0.0001           -0.3104308              -8.4473
       420        0.0000           -0.3101273              -8.4390
       421        0.0000           -0.3052954              -8.3075
       422                         -0.2993731              -8.1464
       ...                                ...                  ...
       806                          2.5957968              70.6352
      -------------------------------------------------------------
                  HL-Gap            0.0009073 Eh            0.0247 eV
             Fermi-level           -0.3204194 Eh           -8.7191 eV

 SCC (total)                   0 d,  0 h,  0 min,  7.427 sec
 SCC setup                      ...        0 min,  0.014 sec (  0.189%)
 Dispersion                     ...        0 min,  0.028 sec (  0.383%)
 classical contributions        ...        0 min,  0.003 sec (  0.039%)
 integral evaluation            ...        0 min,  0.183 sec (  2.470%)
 iterations                     ...        0 min,  6.605 sec ( 88.931%)
 molecular gradient             ...        0 min,  0.567 sec (  7.640%)
 printout                       ...        0 min,  0.026 sec (  0.347%)

         :::::::::::::::::::::::::::::::::::::::::::::::::::::
         ::                     SUMMARY                     ::
         :::::::::::::::::::::::::::::::::::::::::::::::::::::
         :: total energy            -448.569394137715 Eh    ::
         :: gradient norm              2.284067433058 Eh/a0 ::
         :: HOMO-LUMO gap              0.024688576098 eV    ::
         ::.................................................::
         :: SCC energy              -458.260937746879 Eh    ::
         :: -> isotropic ES            0.267609292635 Eh    ::
         :: -> anisotropic ES         -0.018020411893 Eh    ::
         :: -> anisotropic XC          0.308037988338 Eh    ::
         :: -> dispersion             -0.397026486201 Eh    ::
         :: repulsion energy           9.695410859338 Eh    ::
         :: add. restraining           0.000000000000 Eh    ::
         :: total charge               0.000000000002 e     ::
         :::::::::::::::::::::::::::::::::::::::::::::::::::::

      ----------------------------------------------------------- 
     |                   =====================                   |
     |                        A N C O P T                        |
     |                   =====================                   |
     |               Approximate Normal Coordinate               |
     |                Rational Function Optimizer                |
      ----------------------------------------------------------- 

          ...................................................
          :                      SETUP                      :
          :.................................................:
          :   optimization level            normal          :
          :   max. optcycles                   798          :
          :   ANC micro-cycles                  20          :
          :   degrees of freedom               792          :
          :.................................................:
          :   RF solver                   davidson          :
          :   write xtbopt.log                true          :
          :   linear?                        false          :
          :   energy convergence         0.5000000E-05 Eh   :
          :   grad. convergence          0.1000000E-02 Eh/α :
          :   maximium RF displ.         1.0000000          :
          :   Hlow (freq-cutoff)         0.1000000E-01      :
          :   Hmax (freq-cutoff)         5.0000000          :
          :   S6 in model hess.         20.0000000          :
          ...................................................

generating ANC from model Hessian ...
Using Lindh-Hessian (1995)
 Shifting diagonal of input Hessian by    1.0046440073442629E-002
 Lowest  eigenvalues of input Hessian
    0.010000    0.010013    0.010026    0.010031    0.010042    0.010044
    0.010044    0.010046    0.000000    0.000000    0.000000    0.000000
    0.000000    0.000000    0.010049    0.010052    0.010053    0.010060
 Highest eigenvalues
    3.402591    3.490119    3.830655    3.830655    3.830656    3.830656


........................................................................
.............................. CYCLE    1 ..............................
........................................................................
   1   -458.2609377 -0.458261E+03  0.182E-04    0.02       0.0  T
   2   -458.2609294  0.828943E-05  0.315E-03    0.02       1.9  T
   3   -458.2609367 -0.721002E-05  0.117E-03    0.02       5.3  T
   4   -458.2609371 -0.434282E-06  0.913E-04    0.02       6.7  T
   5   -458.2609374 -0.316104E-06  0.658E-04    0.02       9.3  T
     SCC iter.                  ...        0 min,  0.984 sec
     gradient                   ...        0 min,  0.579 sec
 * total energy  :  -448.5693938 Eh     change        0.3367616E-06 Eh
   gradient norm :     2.2840657 Eh/α   predicted     0.0000000E+00 (-100.00%)
   displ. norm   :     0.6217278 α      lambda       -0.1290261E+01
   maximum displ.:     0.2820727 α      in ANC's #792, #790, #788, ...

........................................................................
.............................. CYCLE    2 ..............................
........................................................................
   1   -458.4407860 -0.458441E+03  0.401E-01    0.13       0.0  T
   2   -458.4159135  0.248726E-01  0.320E-01    0.13       1.0  T
   3   -458.2878294  0.128084E+00  0.459E-01    0.36       1.0  T
   4   -458.3671309 -0.793015E-01  0.340E-01    0.22       1.0  T
   5   -458.4106816 -0.435507E-01  0.239E-01    0.16       1.0  T
   6   -458.4501693 -0.394876E-01  0.833E-02    0.12       1.0  T
   7   -458.4493697  0.799613E-03  0.686E-02    0.12       1.0  T
   8   -458.4524794 -0.310976E-02  0.292E-02    0.12       1.0  T
   9   -458.4526913 -0.211892E-03  0.171E-02    0.12       1.0  T
  10   -458.4520144  0.676914E-03  0.294E-02    0.12       1.0  T
  11   -458.4527633 -0.748948E-03  0.597E-03    0.11       1.0  T
  12   -458.4527797 -0.163854E-04  0.197E-03    0.11       3.1  T
  13   -458.4527791  0.597818E-06  0.171E-03    0.11       3.6  T
  14   -458.4527811 -0.193162E-05  0.801E-04    0.11       7.7  T
  15   -458.4527810  0.155633E-07  0.598E-04    0.11      10.3  T
  16   -458.4527812 -0.187157E-06  0.169E-04    0.11      36.2  T
     SCC iter.                  ...        0 min,  3.115 sec
     gradient                   ...        0 min,  0.566 sec
 * total energy  :  -449.4082775 Eh     change       -0.8388837E+00 Eh
   gradient norm :     0.7828676 Eh/α   predicted    -0.8945176E+00 (   6.63%)
   displ. norm   :     0.6907265 α      lambda       -0.4653179E+00
   maximum displ.:     0.1774231 α      in ANC's #494, #450, #454, ...

........................................................................
.............................. CYCLE    3 ..............................
........................................................................
   1   -458.5011449 -0.458501E+03  0.318E-01    0.14       0.0  T
   2   -458.4951961  0.594879E-02  0.252E-01    0.15       1.0  T
   3   -458.4488652  0.463310E-01  0.292E-01    0.20       1.0  T
   4   -458.3851997  0.636654E-01  0.386E-01    0.33       1.0  T
   5   -458.5019309 -0.116731E+00  0.101E-01    0.15       1.0  T
   6   -458.5047347 -0.280374E-02  0.641E-02    0.15       1.0  T
   7   -458.5066424 -0.190766E-02  0.255E-02    0.14       1.0  T
   8   -458.5068054 -0.163015E-03  0.200E-02    0.14       1.0  T
   9   -458.5069064 -0.101030E-03  0.123E-02    0.14       1.0  T
  10   -458.5068960  0.103513E-04  0.101E-02    0.14       1.0  T
  11   -458.5069536 -0.576020E-04  0.375E-03    0.14       1.6  T
  12   -458.5069649 -0.112868E-04  0.128E-03    0.14       4.8  T
  13   -458.5069659 -0.931540E-06  0.423E-04    0.14      14.5  T
  14   -458.5069659 -0.219756E-07  0.291E-04    0.14      21.1  T
     SCC iter.                  ...        0 min,  2.732 sec
     gradient                   ...        0 min,  0.566 sec
 * total energy  :  -449.7769174 Eh     change       -0.3686399E+00 Eh
   gradient norm :     0.4705543 Eh/α   predicted    -0.3436618E+00 (  -6.78%)
   displ. norm   :     0.7515230 α      lambda       -0.2955720E+00
   maximum displ.:     0.1874207 α      in ANC's #494, #165, #397, ...

........................................................................
.............................. CYCLE    4 ..............................
........................................................................
   1   -458.6291552 -0.458629E+03  0.290E-01    0.19       0.0  T
   2   -458.6254289  0.372622E-02  0.236E-01    0.19       1.0  T
   3   -458.6261048 -0.675834E-03  0.165E-01    0.19       1.0  T
   4   -458.6040172  0.220875E-01  0.201E-01    0.22       1.0  T
   5   -458.6272449 -0.232276E-01  0.988E-02    0.20       1.0  T
   6   -458.6320542 -0.480935E-02  0.560E-02    0.19       1.0  T
   7   -458.6341786 -0.212438E-02  0.105E-02    0.19       1.0  T
   8   -458.6342051 -0.265142E-04  0.622E-03    0.19       1.0  T
   9   -458.6342057 -0.535822E-06  0.530E-03    0.19       1.2  T
  10   -458.6342113 -0.560237E-05  0.301E-03    0.19       2.0  T
  11   -458.6342128 -0.157935E-05  0.131E-03    0.19       4.7  T
  12   -458.6342135 -0.657588E-06  0.304E-04    0.19      20.2  T
  13   -458.6342135 -0.724015E-08  0.201E-04    0.19      30.6  T
     SCC iter.                  ...        0 min,  2.539 sec
     gradient                   ...        0 min,  0.566 sec
 * total energy  :  -450.0173523 Eh     change       -0.2404350E+00 Eh
   gradient norm :     0.2669354 Eh/α   predicted    -0.2312538E+00 (  -3.82%)
   displ. norm   :     0.8305840 α      lambda       -0.2022095E+00
   maximum displ.:     0.2010788 α      in ANC's #165, #77, #201, ...

........................................................................
.............................. CYCLE    5 ..............................
........................................................................
   1   -458.6853848 -0.458685E+03  0.245E-01    0.23       0.0  T
   2   -458.6820798  0.330492E-02  0.215E-01    0.22       1.0  T
   3   -458.6851845 -0.310467E-02  0.127E-01    0.22       1.0  T
   4   -458.6842467  0.937798E-03  0.887E-02    0.23       1.0  T
   5   -458.6879783 -0.373164E-02  0.395E-02    0.22       1.0  T
   6   -458.6886064 -0.628041E-03  0.173E-02    0.22       1.0  T
   7   -458.6887415 -0.135089E-03  0.895E-03    0.22       1.0  T
   8   -458.6887733 -0.318662E-04  0.459E-03    0.22       1.3  T
   9   -458.6887765 -0.317241E-05  0.332E-03    0.22       1.8  T
  10   -458.6887807 -0.420713E-05  0.147E-03    0.22       4.2  T
  11   -458.6887814 -0.705557E-06  0.417E-04    0.22      14.7  T
  12   -458.6887815 -0.489608E-07  0.217E-04    0.22      28.3  T
     SCC iter.                  ...        0 min,  2.343 sec
     gradient                   ...        0 min,  0.566 sec
 * total energy  :  -450.1894836 Eh     change       -0.1721312E+00 Eh
   gradient norm :     0.1897398 Eh/α   predicted    -0.1708538E+00 (  -0.74%)
   displ. norm   :     0.8370619 α      lambda       -0.1405271E+00
   maximum displ.:     0.2480213 α      in ANC's #77, #165, #201, ...

........................................................................
.............................. CYCLE    6 ..............................
........................................................................
   1   -458.7241019 -0.458724E+03  0.212E-01    0.25       0.0  T
   2   -458.7216978  0.240414E-02  0.189E-01    0.25       1.0  T
   3   -458.7245042 -0.280645E-02  0.104E-01    0.25       1.0  T
   4   -458.7251083 -0.604098E-03  0.557E-02    0.25       1.0  T
   5   -458.7262628 -0.115447E-02  0.276E-02    0.25       1.0  T
   6   -458.7265463 -0.283452E-03  0.591E-03    0.25       1.0  T
   7   -458.7265454  0.814754E-06  0.494E-03    0.25       1.2  T
   8   -458.7265515 -0.608027E-05  0.320E-03    0.25       1.9  T
   9   -458.7265548 -0.324189E-05  0.142E-03    0.25       4.3  T
  10   -458.7265555 -0.695765E-06  0.510E-04    0.25      12.0  T
  11   -458.7265555 -0.760078E-07  0.340E-04    0.25      18.0  T
     SCC iter.                  ...        0 min,  2.148 sec
     gradient                   ...        0 min,  0.566 sec
 * total energy  :  -450.3008936 Eh     change       -0.1114100E+00 Eh
   gradient norm :     0.1320573 Eh/α   predicted    -0.1194956E+00 (   7.26%)
   displ. norm   :     0.8175165 α      lambda       -0.8654772E-01
   maximum displ.:     0.2472059 α      in ANC's #165, #201, #140, ...

........................................................................
.............................. CYCLE    7 ..............................
........................................................................
   1   -458.7559793 -0.458756E+03  0.173E-01    0.28       0.0  T
   2   -458.7556221  0.357129E-03  0.117E-01    0.27       1.0  T
   3   -458.7485214  0.710077E-02  0.121E-01    0.27       1.0  T
   4   -458.7555493 -0.702798E-02  0.441E-02    0.27       1.0  T
   5   -458.7564817 -0.932359E-03  0.146E-02    0.27       1.0  T
   6   -458.7565848 -0.103080E-03  0.381E-03    0.27       1.6  T
   7   -458.7565880 -0.325483E-05  0.240E-03    0.27       2.5  T
   8   -458.7565889 -0.854628E-06  0.160E-03    0.27       3.8  T
   9   -458.7565898 -0.889539E-06  0.796E-04    0.27       7.7  T
  10   -458.7565900 -0.233094E-06  0.317E-04    0.27      19.4  T
     SCC iter.                  ...        0 min,  1.955 sec
     gradient                   ...        0 min,  0.566 sec
 * total energy  :  -450.3759997 Eh     change       -0.7510606E-01 Eh
   gradient norm :     0.1037490 Eh/α   predicted    -0.7219533E-01 (  -3.88%)
   displ. norm   :     0.8546976 α      lambda       -0.6929385E-01
   maximum displ.:     0.2444218 α      in ANC's #77, #90, #140, ...

........................................................................
.............................. CYCLE    8 ..............................
........................................................................
   1   -458.7983392 -0.458798E+03  0.156E-01    0.31       0.0  T
   2   -458.7981066  0.232633E-03  0.102E-01    0.30       1.0  T
   3   -458.7909667  0.713986E-02  0.113E-01    0.31       1.0  T
   4   -458.7982164 -0.724971E-02  0.345E-02    0.31       1.0  T
   5   -458.7987494 -0.532963E-03  0.875E-03    0.31       1.0  T
   6   -458.7987759 -0.265293E-04  0.353E-03    0.31       1.7  T
   7   -458.7987794 -0.344172E-05  0.183E-03    0.31       3.3  T
   8   -458.7987797 -0.307706E-06  0.135E-03    0.31       4.6  T
   9   -458.7987805 -0.852607E-06  0.475E-04    0.31      12.9  T
  10   -458.7987806 -0.700531E-07  0.175E-04    0.31      35.1  T
     SCC iter.                  ...        0 min,  1.951 sec
     gradient                   ...        0 min,  0.565 sec
 * total energy  :  -450.4370567 Eh     change       -0.6105699E-01 Eh
   gradient norm :     0.0745182 Eh/α   predicted    -0.5995699E-01 (  -1.80%)
   displ. norm   :     0.8885177 α      lambda       -0.5553145E-01
   maximum displ.:     0.2915197 α      in ANC's #77, #90, #58, ...

........................................................................
.............................. CYCLE    9 ..............................
........................................................................
   1   -458.8235463 -0.458824E+03  0.134E-01    0.34       0.0  T
   2   -458.8234060  0.140361E-03  0.863E-02    0.33       1.0  T
   3   -458.8190699  0.433607E-02  0.916E-02    0.34       1.0  T
   4   -458.8235213 -0.445136E-02  0.237E-02    0.34       1.0  T
   5   -458.8237775 -0.256228E-03  0.608E-03    0.34       1.0  T
   6   -458.8237893 -0.118408E-04  0.241E-03    0.34       2.5  T
   7   -458.8237904 -0.110218E-05  0.129E-03    0.34       4.8  T
   8   -458.8237904 -0.548346E-08  0.973E-04    0.34       6.3  T
   9   -458.8237909 -0.456638E-06  0.326E-04    0.34      18.8  T
     SCC iter.                  ...        0 min,  1.757 sec
     gradient                   ...        0 min,  0.566 sec
 * total energy  :  -450.4871412 Eh     change       -0.5008457E-01 Eh
   gradient norm :     0.0582772 Eh/α   predicted    -0.4968577E-01 (  -0.80%)
   displ. norm   :     0.9023720 α      lambda       -0.4670441E-01
   maximum displ.:     0.2654631 α      in ANC's #77, #58, #90, ...

........................................................................
.............................. CYCLE   10 ..............................
........................................................................
   1   -458.8522199 -0.458852E+03  0.126E-01    0.37       0.0  T
   2   -458.8520998  0.120046E-03  0.800E-02    0.36       1.0  T
   3   -458.8488886  0.321118E-02  0.820E-02    0.37       1.0  T
   4   -458.8522357 -0.334707E-02  0.208E-02    0.37       1.0  T
   5   -458.8524302 -0.194531E-03  0.511E-03    0.36       1.2  T
   6   -458.8524383 -0.805123E-05  0.211E-03    0.36       2.9  T
   7   -458.8524391 -0.800530E-06  0.115E-03    0.36       5.3  T
   8   -458.8524392 -0.925075E-07  0.861E-04    0.36       7.1  T
   9   -458.8524395 -0.297966E-06  0.227E-04    0.36      27.0  T
     SCC iter.                  ...        0 min,  1.762 sec
     gradient                   ...        0 min,  0.566 sec
 * total energy  :  -450.5294465 Eh     change       -0.4230524E-01 Eh
   gradient norm :     0.0517275 Eh/α   predicted    -0.4236734E-01 (   0.15%)
   displ. norm   :     0.9218269 α      lambda       -0.4117082E-01
   maximum displ.:     0.2840347 α      in ANC's #77, #58, #50, ...

........................................................................
.............................. CYCLE   11 ..............................
........................................................................
   1   -458.8862023 -0.458886E+03  0.121E-01    0.39       0.0  T
   2   -458.8860870  0.115333E-03  0.787E-02    0.39       1.0  T
   3   -458.8841429  0.194405E-02  0.729E-02    0.39       1.0  T
   4   -458.8862445 -0.210155E-02  0.195E-02    0.39       1.0  T
   5   -458.8864237 -0.179237E-03  0.529E-03    0.39       1.2  T
   6   -458.8864343 -0.105673E-04  0.200E-03    0.39       3.1  T
   7   -458.8864349 -0.651344E-06  0.110E-03    0.39       5.6  T
   8   -458.8864351 -0.191834E-06  0.570E-04    0.39      10.8  T
   9   -458.8864352 -0.101651E-06  0.215E-04    0.39      28.5  T
     SCC iter.                  ...        0 min,  1.760 sec
     gradient                   ...        0 min,  0.565 sec
 * total energy  :  -450.5660693 Eh     change       -0.3662283E-01 Eh
   gradient norm :     0.0533218 Eh/α   predicted    -0.3807821E-01 (   3.97%)
   displ. norm   :     0.9205277 α      lambda       -0.3677621E-01
   maximum displ.:     0.3066637 α      in ANC's #58, #50, #77, ...

........................................................................
.............................. CYCLE   12 ..............................
........................................................................
   1   -458.9133778 -0.458913E+03  0.117E-01    0.41       0.0  T
   2   -458.9132755  0.102309E-03  0.763E-02    0.41       1.0  T
   3   -458.9117255  0.154995E-02  0.687E-02    0.41       1.0  T
   4   -458.9134639 -0.173836E-02  0.167E-02    0.41       1.0  T
   5   -458.9135909 -0.126979E-03  0.478E-03    0.41       1.3  T
   6   -458.9136001 -0.922220E-05  0.197E-03    0.41       3.1  T
   7   -458.9136008 -0.752639E-06  0.103E-03    0.41       6.0  T
   8   -458.9136010 -0.184544E-06  0.519E-04    0.41      11.8  T
   9   -458.9136011 -0.903028E-07  0.194E-04    0.41      31.5  T
     SCC iter.                  ...        0 min,  1.763 sec
     gradient                   ...        0 min,  0.564 sec
 * total energy  :  -450.5985968 Eh     change       -0.3252752E-01 Eh
   gradient norm :     0.0453936 Eh/α   predicted    -0.3396965E-01 (   4.43%)
   displ. norm   :     0.9176639 α      lambda       -0.3159502E-01
   maximum displ.:     0.3361030 α      in ANC's #58, #50, #57, ...

........................................................................
.............................. CYCLE   13 ..............................
........................................................................
   1   -458.9382548 -0.458938E+03  0.116E-01    0.43       0.0  T
   2   -458.9381932  0.616051E-04  0.719E-02    0.43       1.0  T
   3   -458.9365081  0.168504E-02  0.661E-02    0.43       1.0  T
   4   -458.9383144 -0.180624E-02  0.145E-02    0.43       1.0  T
   5   -458.9384092 -0.948049E-04  0.426E-03    0.43       1.4  T
   6   -458.9384162 -0.700677E-05  0.175E-03    0.43       3.5  T
   7   -458.9384168 -0.572002E-06  0.903E-04    0.43       6.8  T
   8   -458.9384169 -0.149738E-06  0.492E-04    0.43      12.5  T
     SCC iter.                  ...        0 min,  1.568 sec
     gradient                   ...        0 min,  0.566 sec
 * total energy  :  -450.6273753 Eh     change       -0.2877846E-01 Eh
   gradient norm :     0.0391798 Eh/α   predicted    -0.2910069E-01 (   1.12%)
   displ. norm   :     0.9287474 α      lambda       -0.2836462E-01
   maximum displ.:     0.3592890 α      in ANC's #58, #50, #57, ...

........................................................................
.............................. CYCLE   14 ..............................
........................................................................
   1   -458.9726098 -0.458973E+03  0.111E-01    0.45       0.0  T
   2   -458.9725716  0.381438E-04  0.677E-02    0.44       1.0  T
   3   -458.9711565  0.141513E-02  0.599E-02    0.45       1.0  T
   4   -458.9726488 -0.149229E-02  0.124E-02    0.44       1.0  T
   5   -458.9727229 -0.741463E-04  0.343E-03    0.44       1.8  T
   6   -458.9727274 -0.447801E-05  0.158E-03    0.44       3.9  T
   7   -458.9727280 -0.530819E-06  0.844E-04    0.44       7.3  T
   8   -458.9727281 -0.161834E-06  0.401E-04    0.44      15.3  T
     SCC iter.                  ...        0 min,  1.565 sec
     gradient                   ...        0 min,  0.564 sec
 * total energy  :  -450.6535251 Eh     change       -0.2614979E-01 Eh
   gradient norm :     0.0349593 Eh/α   predicted    -0.2641555E-01 (   1.02%)
   displ. norm   :     0.9342222 α      lambda       -0.2535395E-01
   maximum displ.:     0.3989626 α      in ANC's #58, #50, #57, ...

........................................................................
.............................. CYCLE   15 ..............................
........................................................................
   1   -458.9908587 -0.458991E+03  0.111E-01    0.46       0.0  T
   2   -458.9908594 -0.728677E-06  0.649E-02    0.46       1.0  T
   3   -458.9898292  0.103029E-02  0.473E-02    0.46       1.0  T
   4   -458.9908770 -0.104784E-02  0.116E-02    0.46       1.0  T
   5   -458.9909412 -0.642362E-04  0.308E-03    0.46       2.0  T
   6   -458.9909449 -0.362619E-05  0.145E-03    0.46       4.2  T
   7   -458.9909454 -0.521824E-06  0.661E-04    0.46       9.3  T
   8   -458.9909454 -0.236701E-07  0.406E-04    0.46      15.1  T
     SCC iter.                  ...        0 min,  1.566 sec
     gradient                   ...        0 min,  0.565 sec
 * total energy  :  -450.6773468 Eh     change       -0.2382176E-01 Eh
   gradient norm :     0.0305241 Eh/α   predicted    -0.2374106E-01 (  -0.34%)
   displ. norm   :     0.9367748 α      lambda       -0.2294690E-01
   maximum displ.:     0.4143495 α      in ANC's #58, #50, #57, ...

........................................................................
.............................. CYCLE   16 ..............................
........................................................................
   1   -459.0162010 -0.459016E+03  0.112E-01    0.48       0.0  T
   2   -459.0162024 -0.133143E-05  0.654E-02    0.48       1.0  T
   3   -459.0151960  0.100642E-02  0.453E-02    0.48       1.0  T
   4   -459.0162202 -0.102424E-02  0.106E-02    0.48       1.0  T
   5   -459.0162749 -0.546944E-04  0.287E-03    0.48       2.1  T
   6   -459.0162781 -0.316730E-05  0.138E-03    0.48       4.4  T
   7   -459.0162785 -0.470087E-06  0.667E-04    0.48       9.2  T
   8   -459.0162786 -0.388690E-07  0.422E-04    0.48      14.5  T
     SCC iter.                  ...        0 min,  1.569 sec
     gradient                   ...        0 min,  0.564 sec
 * total energy  :  -450.6990189 Eh     change       -0.2167201E-01 Eh
   gradient norm :     0.0274195 Eh/α   predicted    -0.2154193E-01 (  -0.60%)
   displ. norm   :     0.9395856 α      lambda       -0.2091328E-01
   maximum displ.:     0.4344517 α      in ANC's #58, #50, #57, ...

........................................................................
.............................. CYCLE   17 ..............................
........................................................................
   1   -459.0360639 -0.459036E+03  0.117E-01    0.49       0.0  T
   2   -459.0360751 -0.111929E-04  0.681E-02    0.49       1.0  T
   3   -459.0353400  0.735104E-03  0.387E-02    0.49       1.0  T
   4   -459.0360811 -0.741041E-03  0.961E-03    0.49       1.0  T
   5   -459.0361257 -0.446605E-04  0.272E-03    0.49       2.3  T
   6   -459.0361287 -0.293771E-05  0.134E-03    0.49       4.6  T
   7   -459.0361291 -0.449359E-06  0.605E-04    0.49      10.1  T
   8   -459.0361291 -0.198171E-07  0.370E-04    0.49      16.6  T
     SCC iter.                  ...        0 min,  1.568 sec
     gradient                   ...        0 min,  0.564 sec
 * total energy  :  -450.7186727 Eh     change       -0.1965381E-01 Eh
   gradient norm :     0.0282345 Eh/α   predicted    -0.1968798E-01 (   0.17%)
   displ. norm   :     0.9407692 α      lambda       -0.1915080E-01
   maximum displ.:     0.4398876 α      in ANC's #58, #50, #57, ...

........................................................................
.............................. CYCLE   18 ..............................
........................................................................
   1   -459.0496998 -0.459050E+03  0.125E-01    0.51       0.0  T
   2   -459.0497073 -0.742044E-05  0.731E-02    0.51       1.0  T
   3   -459.0489067  0.800609E-03  0.404E-02    0.51       1.0  T
   4   -459.0497204 -0.813739E-03  0.881E-03    0.51       1.0  T
   5   -459.0497580 -0.376046E-04  0.274E-03    0.51       2.2  T
   6   -459.0497609 -0.289690E-05  0.134E-03    0.51       4.6  T
   7   -459.0497613 -0.383630E-06  0.645E-04    0.51       9.5  T
   8   -459.0497613 -0.489558E-07  0.376E-04    0.51      16.3  T
     SCC iter.                  ...        0 min,  1.564 sec
     gradient                   ...        0 min,  0.564 sec
 * total energy  :  -450.7363323 Eh     change       -0.1765964E-01 Eh
   gradient norm :     0.0288690 Eh/α   predicted    -0.1805008E-01 (   2.21%)
   displ. norm   :     0.9332743 α      lambda       -0.1744341E-01
   maximum displ.:     0.4373510 α      in ANC's #58, #50, #57, ...

........................................................................
.............................. CYCLE   19 ..............................
........................................................................
   1   -459.0715816 -0.459072E+03  0.123E-01    0.52       0.0  T
   2   -459.0715944 -0.128165E-04  0.720E-02    0.52       1.0  T
   3   -459.0710502  0.544206E-03  0.329E-02    0.53       1.0  T
   4   -459.0715940 -0.543760E-03  0.828E-03    0.52       1.0  T
   5   -459.0716290 -0.349585E-04  0.233E-03    0.52       2.6  T
   6   -459.0716307 -0.175986E-05  0.130E-03    0.52       4.7  T
   7   -459.0716311 -0.391147E-06  0.558E-04    0.52      11.0  T
   8   -459.0716311 -0.338525E-07  0.308E-04    0.52      19.9  T
     SCC iter.                  ...        0 min,  1.570 sec
     gradient                   ...        0 min,  0.563 sec
 * total energy  :  -450.7522327 Eh     change       -0.1590037E-01 Eh
   gradient norm :     0.0272347 Eh/α   predicted    -0.1631829E-01 (   2.63%)
   displ. norm   :     0.9219332 α      lambda       -0.1522506E-01
   maximum displ.:     0.4377155 α      in ANC's #58, #50, #57, ...

........................................................................
.............................. CYCLE   20 ..............................
........................................................................
   1   -459.0766469 -0.459077E+03  0.127E-01    0.54       0.0  T
   2   -459.0766555 -0.867865E-05  0.738E-02    0.54       1.0  T
   3   -459.0762020  0.453542E-03  0.302E-02    0.54       1.0  T
   4   -459.0766620 -0.459951E-03  0.661E-03    0.54       1.0  T
   5   -459.0766833 -0.213431E-04  0.201E-03    0.54       3.1  T
   6   -459.0766843 -0.101130E-05  0.124E-03    0.54       5.0  T
   7   -459.0766847 -0.359650E-06  0.527E-04    0.54      11.6  T
   8   -459.0766847 -0.640958E-07  0.251E-04    0.54      24.4  T
     SCC iter.                  ...        0 min,  1.569 sec
     gradient                   ...        0 min,  0.563 sec
 * total energy  :  -450.7663068 Eh     change       -0.1407413E-01 Eh
   gradient norm :     0.0259275 Eh/α   predicted    -0.1408287E-01 (   0.06%)
   displ. norm   :     0.9171405 α      lambda       -0.1357481E-01
   maximum displ.:     0.4185078 α      in ANC's #58, #50, #57, ...
 * RMSD in coord.:     0.8594628 α      energy gain  -0.2196913E+01 Eh

generating ANC from model Hessian ...
Using Lindh-Hessian (1995)
 Shifting diagonal of input Hessian by    1.0026858218743159E-002
 Lowest  eigenvalues of input Hessian
    0.010000    0.010004    0.010013    0.010019    0.010026    0.010026
    0.000000    0.000000    0.000000    0.000000    0.000000    0.000000
    0.010028    0.010030    0.010031    0.010039    0.010042    0.010042
 Highest eigenvalues
    2.664353    2.666612    2.696760    2.697054    2.709500    2.711745


........................................................................
.............................. CYCLE   21 ..............................
........................................................................
   1   -459.0967515 -0.459097E+03  0.121E-01    0.56       0.0  T
   2   -459.0967626 -0.110955E-04  0.705E-02    0.55       1.0  T
   3   -459.0964327  0.329945E-03  0.255E-02    0.56       1.0  T
   4   -459.0967577 -0.325001E-03  0.682E-03    0.55       1.0  T
   5   -459.0967834 -0.257861E-04  0.172E-03    0.55       3.6  T
   6   -459.0967839 -0.408894E-06  0.118E-03    0.55       5.2  T
   7   -459.0967842 -0.342646E-06  0.425E-04    0.55      14.4  T
   8   -459.0967842 -0.418435E-07  0.207E-04    0.55      29.6  T
     SCC iter.                  ...        0 min,  1.569 sec
     gradient                   ...        0 min,  0.563 sec
 * total energy  :  -450.7786792 Eh     change       -0.1237238E-01 Eh
   gradient norm :     0.0255989 Eh/α   predicted     0.0000000E+00 (-100.00%)
   displ. norm   :     0.5827985 α      lambda       -0.8516465E-02
   maximum displ.:     0.2716380 α      in ANC's #59, #57, #53, ...

........................................................................
.............................. CYCLE   22 ..............................
........................................................................
   1   -459.0995846 -0.459100E+03  0.118E-01    0.57       0.0  T
   2   -459.0995958 -0.111990E-04  0.697E-02    0.56       1.0  T
   3   -459.0995461  0.497754E-04  0.105E-02    0.56       1.0  T
   4   -459.0995886 -0.425252E-04  0.482E-03    0.56       1.3  T
   5   -459.0996008 -0.122437E-04  0.139E-03    0.56       4.4  T
   6   -459.0996010 -0.131424E-06  0.909E-04    0.56       6.7  T
   7   -459.0996011 -0.180998E-06  0.447E-04    0.56      13.7  T
     SCC iter.                  ...        0 min,  1.374 sec
     gradient                   ...        0 min,  0.563 sec
 * total energy  :  -450.7861815 Eh     change       -0.7502280E-02 Eh
   gradient norm :     0.0197781 Eh/α   predicted    -0.5704589E-02 ( -23.96%)
   displ. norm   :     0.8629233 α      lambda       -0.1005017E-01
   maximum displ.:     0.4236345 α      in ANC's #59, #57, #53, ...

........................................................................
.............................. CYCLE   23 ..............................
........................................................................
   1   -459.1029698 -0.459103E+03  0.127E-01    0.58       0.0  T
   2   -459.1029866 -0.167807E-04  0.740E-02    0.58       1.0  T
   3   -459.1029187  0.678799E-04  0.131E-02    0.58       1.0  T
   4   -459.1029827 -0.640739E-04  0.507E-03    0.58       1.2  T
   5   -459.1029958 -0.130683E-04  0.159E-03    0.58       3.9  T
   6   -459.1029961 -0.245833E-06  0.923E-04    0.58       6.6  T
   7   -459.1029962 -0.178628E-06  0.449E-04    0.58      13.7  T
     SCC iter.                  ...        0 min,  1.372 sec
     gradient                   ...        0 min,  0.564 sec
 * total energy  :  -450.7953277 Eh     change       -0.9146197E-02 Eh
   gradient norm :     0.0174146 Eh/α   predicted    -0.8766945E-02 (  -4.15%)
   displ. norm   :     0.8859139 α      lambda       -0.8899768E-02
   maximum displ.:     0.4411821 α      in ANC's #59, #57, #53, ...

........................................................................
.............................. CYCLE   24 ..............................
........................................................................
   1   -459.1101414 -0.459110E+03  0.115E-01    0.60       0.0  T
   2   -459.1101589 -0.175304E-04  0.665E-02    0.60       1.0  T
   3   -459.1101105  0.483639E-04  0.124E-02    0.60       1.0  T
   4   -459.1101623 -0.518137E-04  0.371E-03    0.60       1.7  T
   5   -459.1101680 -0.561833E-05  0.156E-03    0.60       3.9  T
   6   -459.1101683 -0.347278E-06  0.898E-04    0.60       6.8  T
   7   -459.1101686 -0.251409E-06  0.351E-04    0.60      17.5  T
     SCC iter.                  ...        0 min,  1.373 sec
     gradient                   ...        0 min,  0.563 sec
 * total energy  :  -450.8033765 Eh     change       -0.8048877E-02 Eh
   gradient norm :     0.0141620 Eh/α   predicted    -0.7942349E-02 (  -1.32%)
   displ. norm   :     0.8803622 α      lambda       -0.7357992E-02
   maximum displ.:     0.4364043 α      in ANC's #59, #57, #53, ...

........................................................................
.............................. CYCLE   25 ..............................
........................................................................
   1   -459.1121891 -0.459112E+03  0.113E-01    0.61       0.0  T
   2   -459.1122038 -0.146443E-04  0.654E-02    0.61       1.0  T
   3   -459.1121650  0.387606E-04  0.110E-02    0.61       1.0  T
   4   -459.1122062 -0.411963E-04  0.357E-03    0.61       1.7  T
   5   -459.1122110 -0.484028E-05  0.150E-03    0.61       4.1  T
   6   -459.1122113 -0.240653E-06  0.892E-04    0.61       6.9  T
   7   -459.1122115 -0.252247E-06  0.364E-04    0.61      16.9  T
     SCC iter.                  ...        0 min,  1.371 sec
     gradient                   ...        0 min,  0.563 sec
 * total energy  :  -450.8099397 Eh     change       -0.6563218E-02 Eh
   gradient norm :     0.0114183 Eh/α   predicted    -0.6530357E-02 (  -0.50%)
   displ. norm   :     0.8566784 α      lambda       -0.5872574E-02
   maximum displ.:     0.4149092 α      in ANC's #59, #57, #53, ...

........................................................................
.............................. CYCLE   26 ..............................
........................................................................
   1   -459.1222583 -0.459122E+03  0.105E-01    0.62       0.0  T
   2   -459.1222687 -0.103915E-04  0.614E-02    0.62       1.0  T
   3   -459.1222238  0.449174E-04  0.109E-02    0.62       1.0  T
   4   -459.1222711 -0.473206E-04  0.328E-03    0.62       1.9  T
   5   -459.1222751 -0.398871E-05  0.139E-03    0.62       4.4  T
   6   -459.1222752 -0.102267E-06  0.875E-04    0.62       7.0  T
   7   -459.1222755 -0.289339E-06  0.288E-04    0.62      21.3  T
     SCC iter.                  ...        0 min,  1.371 sec
     gradient                   ...        0 min,  0.563 sec
 * total energy  :  -450.8150401 Eh     change       -0.5100366E-02 Eh
   gradient norm :     0.0152870 Eh/α   predicted    -0.5091280E-02 (  -0.18%)
   displ. norm   :     0.8304429 α      lambda       -0.4555613E-02
   maximum displ.:     0.3855110 α      in ANC's #59, #57, #53, ...

........................................................................
.............................. CYCLE   27 ..............................
........................................................................
   1   -459.1244516 -0.459124E+03  0.103E-01    0.62       0.0  T
   2   -459.1244609 -0.930968E-05  0.602E-02    0.62       1.0  T
   3   -459.1244353  0.256260E-04  0.817E-03    0.62       1.0  T
   4   -459.1244622 -0.269177E-04  0.298E-03    0.62       2.1  T
   5   -459.1244654 -0.322693E-05  0.136E-03    0.62       4.5  T
   6   -459.1244656 -0.231360E-06  0.770E-04    0.62       8.0  T
   7   -459.1244658 -0.208053E-06  0.320E-04    0.62      19.2  T
     SCC iter.                  ...        0 min,  1.373 sec
     gradient                   ...        0 min,  0.563 sec
 * total energy  :  -450.8188233 Eh     change       -0.3783164E-02 Eh
   gradient norm :     0.0156417 Eh/α   predicted    -0.3848664E-02 (   1.73%)
   displ. norm   :     0.7926125 α      lambda       -0.3388026E-02
   maximum displ.:     0.3475808 α      in ANC's #59, #53, #57, ...

........................................................................
.............................. CYCLE   28 ..............................
........................................................................
   1   -459.1324371 -0.459132E+03  0.946E-02    0.62       0.0  T
   2   -459.1324445 -0.742329E-05  0.553E-02    0.62       1.0  T
   3   -459.1324099  0.346187E-04  0.890E-03    0.62       1.0  T
   4   -459.1324466 -0.367117E-04  0.263E-03    0.62       2.3  T
   5   -459.1324488 -0.226566E-05  0.124E-03    0.62       5.0  T
   6   -459.1324489 -0.106840E-06  0.739E-04    0.62       8.3  T
   7   -459.1324492 -0.210978E-06  0.297E-04    0.62      20.6  T
     SCC iter.                  ...        0 min,  1.375 sec
     gradient                   ...        0 min,  0.562 sec
 * total energy  :  -450.8215199 Eh     change       -0.2696670E-02 Eh
   gradient norm :     0.0116019 Eh/α   predicted    -0.2758251E-02 (   2.28%)
   displ. norm   :     0.7347307 α      lambda       -0.2238852E-02
   maximum displ.:     0.2946056 α      in ANC's #59, #17, #53, ...

........................................................................
.............................. CYCLE   29 ..............................
........................................................................
   1   -459.1367399 -0.459137E+03  0.822E-02    0.61       0.0  T
   2   -459.1367454 -0.551404E-05  0.481E-02    0.61       1.0  T
   3   -459.1367319  0.135216E-04  0.648E-03    0.61       1.0  T
   4   -459.1367473 -0.154473E-04  0.197E-03    0.61       3.1  T
   5   -459.1367481 -0.766518E-06  0.114E-03    0.61       5.4  T
   6   -459.1367483 -0.208964E-06  0.619E-04    0.61       9.9  T
   7   -459.1367485 -0.170705E-06  0.213E-04    0.61      28.8  T
     SCC iter.                  ...        0 min,  1.371 sec
     gradient                   ...        0 min,  0.562 sec
 * total energy  :  -450.8233148 Eh     change       -0.1794857E-02 Eh
   gradient norm :     0.0060648 Eh/α   predicted    -0.1723737E-02 (  -3.96%)
   displ. norm   :     0.6720490 α      lambda       -0.1433031E-02
   maximum displ.:     0.3129721 α      in ANC's #17, #59, #19, ...

........................................................................
.............................. CYCLE   30 ..............................
........................................................................
   1   -459.1418049 -0.459142E+03  0.672E-02    0.61       0.0  T
   2   -459.1418086 -0.376651E-05  0.393E-02    0.61       1.0  T
   3   -459.1417941  0.144998E-04  0.679E-03    0.61       1.0  T
   4   -459.1418106 -0.164961E-04  0.152E-03    0.61       4.0  T
   5   -459.1418108 -0.222380E-06  0.956E-04    0.61       6.4  T
   6   -459.1418110 -0.130827E-06  0.548E-04    0.61      11.2  T
     SCC iter.                  ...        0 min,  1.181 sec
     gradient                   ...        0 min,  0.562 sec
 * total energy  :  -450.8244743 Eh     change       -0.1159500E-02 Eh
   gradient norm :     0.0045203 Eh/α   predicted    -0.1040130E-02 ( -10.29%)
   displ. norm   :     0.6053709 α      lambda       -0.9908550E-03
   maximum displ.:     0.3383490 α      in ANC's #17, #19, #37, ...

........................................................................
.............................. CYCLE   31 ..............................
........................................................................
   1   -459.1486760 -0.459149E+03  0.533E-02    0.61       0.0  T
   2   -459.1486784 -0.237453E-05  0.312E-02    0.61       1.0  T
   3   -459.1486667  0.116940E-04  0.595E-03    0.61       1.0  T
   4   -459.1486796 -0.129877E-04  0.130E-03    0.61       4.7  T
   5   -459.1486799 -0.280113E-06  0.725E-04    0.61       8.5  T
   6   -459.1486799 -0.184140E-07  0.495E-04    0.61      12.4  T
     SCC iter.                  ...        0 min,  1.179 sec
     gradient                   ...        0 min,  0.562 sec
 * total energy  :  -450.8252970 Eh     change       -0.8227360E-03 Eh
   gradient norm :     0.0055034 Eh/α   predicted    -0.6769897E-03 ( -17.71%)
   displ. norm   :     0.5551981 α      lambda       -0.8148312E-03
   maximum displ.:     0.3464148 α      in ANC's #17, #19, #37, ...

........................................................................
.............................. CYCLE   32 ..............................
........................................................................
   1   -459.1519385 -0.459152E+03  0.417E-02    0.61       0.0  T
   2   -459.1519400 -0.151726E-05  0.244E-02    0.61       1.0  T
   3   -459.1519233  0.167596E-04  0.672E-03    0.61       1.0  T
   4   -459.1519412 -0.179573E-04  0.119E-03    0.61       5.1  T
   5   -459.1519415 -0.303664E-06  0.629E-04    0.61       9.7  T
   6   -459.1519416 -0.401643E-07  0.427E-04    0.61      14.4  T
     SCC iter.                  ...        0 min,  1.178 sec
     gradient                   ...        0 min,  0.561 sec
 * total energy  :  -450.8260018 Eh     change       -0.7047271E-03 Eh
   gradient norm :     0.0070261 Eh/α   predicted    -0.5330047E-03 ( -24.37%)
   displ. norm   :     0.5567466 α      lambda       -0.8426070E-03
   maximum displ.:     0.3649545 α      in ANC's #17, #19, #18, ...

........................................................................
.............................. CYCLE   33 ..............................
........................................................................
   1   -459.1541665 -0.459154E+03  0.362E-02    0.61       0.0  T
   2   -459.1541675 -0.932939E-06  0.213E-02    0.61       1.0  T
   3   -459.1541435  0.239454E-04  0.740E-03    0.61       1.0  T
   4   -459.1541684 -0.249108E-04  0.133E-03    0.61       4.6  T
   5   -459.1541690 -0.611418E-06  0.650E-04    0.61       9.4  T
   6   -459.1541692 -0.131835E-06  0.340E-04    0.61      18.0  T
     SCC iter.                  ...        0 min,  1.179 sec
     gradient                   ...        0 min,  0.561 sec
 * total energy  :  -450.8267651 Eh     change       -0.7633677E-03 Eh
   gradient norm :     0.0063019 Eh/α   predicted    -0.5518955E-03 ( -27.70%)
   displ. norm   :     0.6163834 α      lambda       -0.9747358E-03
   maximum displ.:     0.4083970 α      in ANC's #17, #19, #18, ...

........................................................................
.............................. CYCLE   34 ..............................
........................................................................
   1   -459.1546007 -0.459155E+03  0.388E-02    0.61       0.0  T
   2   -459.1546016 -0.976306E-06  0.228E-02    0.61       1.0  T
   3   -459.1545805  0.211579E-04  0.712E-03    0.61       1.0  T
   4   -459.1546026 -0.220604E-04  0.135E-03    0.61       4.5  T
   5   -459.1546032 -0.613332E-06  0.585E-04    0.61      10.5  T
   6   -459.1546032 -0.758449E-07  0.347E-04    0.61      17.7  T
     SCC iter.                  ...        0 min,  1.181 sec
     gradient                   ...        0 min,  0.560 sec
 * total energy  :  -450.8276768 Eh     change       -0.9116567E-03 Eh
   gradient norm :     0.0058772 Eh/α   predicted    -0.6725343E-03 ( -26.23%)
   displ. norm   :     0.6970553 α      lambda       -0.1115238E-02
   maximum displ.:     0.4577262 α      in ANC's #17, #19, #18, ...

........................................................................
.............................. CYCLE   35 ..............................
........................................................................
   1   -459.1496313 -0.459150E+03  0.430E-02    0.62       0.0  T
   2   -459.1496327 -0.139514E-05  0.253E-02    0.62       1.0  T
   3   -459.1496074  0.253341E-04  0.773E-03    0.62       1.0  T
   4   -459.1496336 -0.262536E-04  0.162E-03    0.62       3.8  T
   5   -459.1496346 -0.946903E-06  0.656E-04    0.62       9.3  T
   6   -459.1496346 -0.825308E-07  0.398E-04    0.62      15.4  T
     SCC iter.                  ...        0 min,  1.176 sec
     gradient                   ...        0 min,  0.561 sec
 * total energy  :  -450.8287123 Eh     change       -0.1035536E-02 Eh
   gradient norm :     0.0055103 Eh/α   predicted    -0.8285600E-03 ( -19.99%)
   displ. norm   :     0.7491792 α      lambda       -0.1142040E-02
   maximum displ.:     0.4908103 α      in ANC's #17, #19, #18, ...

........................................................................
.............................. CYCLE   36 ..............................
........................................................................
   1   -459.1470829 -0.459147E+03  0.458E-02    0.62       0.0  T
   2   -459.1470844 -0.143212E-05  0.269E-02    0.62       1.0  T
   3   -459.1470616  0.227888E-04  0.720E-03    0.62       1.0  T
   4   -459.1470852 -0.236615E-04  0.157E-03    0.62       3.9  T
   5   -459.1470861 -0.873006E-06  0.669E-04    0.62       9.2  T
   6   -459.1470862 -0.467167E-07  0.422E-04    0.62      14.5  T
     SCC iter.                  ...        0 min,  1.181 sec
     gradient                   ...        0 min,  0.559 sec
 * total energy  :  -450.8297636 Eh     change       -0.1051269E-02 Eh
   gradient norm :     0.0058443 Eh/α   predicted    -0.8915197E-03 ( -15.20%)
   displ. norm   :     0.7570500 α      lambda       -0.1079793E-02
   maximum displ.:     0.5004348 α      in ANC's #17, #19, #18, ...

........................................................................
.............................. CYCLE   37 ..............................
........................................................................
   1   -459.1434755 -0.459143E+03  0.410E-02    0.62       0.0  T
   2   -459.1434768 -0.132624E-05  0.240E-02    0.62       1.0  T
   3   -459.1434581  0.187113E-04  0.666E-03    0.62       1.0  T
   4   -459.1434777 -0.195443E-04  0.147E-03    0.62       4.2  T
   5   -459.1434784 -0.711603E-06  0.599E-04    0.62      10.2  T
   6   -459.1434784 -0.130690E-07  0.404E-04    0.62      15.2  T
     SCC iter.                  ...        0 min,  1.181 sec
     gradient                   ...        0 min,  0.559 sec
 * total energy  :  -450.8307591 Eh     change       -0.9955023E-03 Eh
   gradient norm :     0.0057370 Eh/α   predicted    -0.8493293E-03 ( -14.68%)
   displ. norm   :     0.7537549 α      lambda       -0.1021159E-02
   maximum displ.:     0.5020835 α      in ANC's #17, #19, #18, ...

........................................................................
.............................. CYCLE   38 ..............................
........................................................................
   1   -459.1433451 -0.459143E+03  0.356E-02    0.62       0.0  T
   2   -459.1433461 -0.993022E-06  0.208E-02    0.62       1.0  T
   3   -459.1433271  0.190135E-04  0.652E-03    0.62       1.0  T
   4   -459.1433470 -0.199310E-04  0.130E-03    0.62       4.7  T
   5   -459.1433475 -0.538938E-06  0.555E-04    0.62      11.0  T
   6   -459.1433475 -0.158300E-07  0.356E-04    0.62      17.2  T
     SCC iter.                  ...        0 min,  1.179 sec
     gradient                   ...        0 min,  0.558 sec
 * total energy  :  -450.8317133 Eh     change       -0.9541630E-03 Eh
   gradient norm :     0.0053681 Eh/α   predicted    -0.8006642E-03 ( -16.09%)
   displ. norm   :     0.7553913 α      lambda       -0.9989663E-03
   maximum displ.:     0.5064320 α      in ANC's #17, #19, #18, ...

........................................................................
.............................. CYCLE   39 ..............................
........................................................................
   1   -459.1450157 -0.459145E+03  0.307E-02    0.62       0.0  T
   2   -459.1450165 -0.802515E-06  0.180E-02    0.62       1.0  T
   3   -459.1449986  0.178828E-04  0.641E-03    0.62       1.0  T
   4   -459.1450175 -0.188021E-04  0.120E-03    0.62       5.1  T
   5   -459.1450179 -0.446838E-06  0.529E-04    0.62      11.6  T
   6   -459.1450179 -0.162863E-07  0.337E-04    0.62      18.2  T
     SCC iter.                  ...        0 min,  1.179 sec
     gradient                   ...        0 min,  0.558 sec
 * total energy  :  -450.8326592 Eh     change       -0.9459494E-03 Eh
   gradient norm :     0.0045707 Eh/α   predicted    -0.7844971E-03 ( -17.07%)
   displ. norm   :     0.7704967 α      lambda       -0.1011968E-02
   maximum displ.:     0.5172411 α      in ANC's #17, #19, #18, ...

........................................................................
.............................. CYCLE   40 ..............................
........................................................................
   1   -459.1475962 -0.459148E+03  0.293E-02    0.62       0.0  T
   2   -459.1475969 -0.694527E-06  0.172E-02    0.62       1.0  T
   3   -459.1475781  0.188556E-04  0.660E-03    0.62       1.0  T
   4   -459.1475979 -0.198833E-04  0.111E-03    0.62       5.5  T
   5   -459.1475983 -0.347495E-06  0.548E-04    0.62      11.2  T
   6   -459.1475983 -0.383752E-07  0.331E-04    0.62      18.5  T
     SCC iter.                  ...        0 min,  1.180 sec
     gradient                   ...        0 min,  0.556 sec
 * total energy  :  -450.8336248 Eh     change       -0.9656337E-03 Eh
   gradient norm :     0.0045427 Eh/α   predicted    -0.8063698E-03 ( -16.49%)
   displ. norm   :     0.7910606 α      lambda       -0.1038268E-02
   maximum displ.:     0.5319037 α      in ANC's #17, #19, #18, ...

........................................................................
.............................. CYCLE   41 ..............................
........................................................................
   1   -459.1503500 -0.459150E+03  0.303E-02    0.62       0.0  T
   2   -459.1503508 -0.714816E-06  0.178E-02    0.62       1.0  T
   3   -459.1503313  0.194699E-04  0.681E-03    0.62       1.0  T
   4   -459.1503519 -0.206466E-04  0.104E-03    0.62       5.9  T
   5   -459.1503522 -0.252235E-06  0.587E-04    0.62      10.4  T
   6   -459.1503523 -0.638699E-07  0.329E-04    0.62      18.6  T
     SCC iter.                  ...        0 min,  1.180 sec
     gradient                   ...        0 min,  0.556 sec
 * total energy  :  -450.8346184 Eh     change       -0.9935804E-03 Eh
   gradient norm :     0.0048005 Eh/α   predicted    -0.8439984E-03 ( -15.05%)
   displ. norm   :     0.8076870 α      lambda       -0.1057397E-02
   maximum displ.:     0.5452526 α      in ANC's #17, #19, #18, ...

........................................................................
.............................. CYCLE   42 ..............................
........................................................................
   1   -459.1530525 -0.459153E+03  0.322E-02    0.62       0.0  T
   2   -459.1530532 -0.728009E-06  0.190E-02    0.62       1.0  T
   3   -459.1530283  0.249605E-04  0.749E-03    0.62       1.0  T
   4   -459.1530546 -0.263287E-04  0.113E-03    0.62       5.4  T
   5   -459.1530549 -0.318110E-06  0.677E-04    0.62       9.1  T
   6   -459.1530550 -0.133661E-06  0.341E-04    0.62      18.0  T
     SCC iter.                  ...        0 min,  1.178 sec
     gradient                   ...        0 min,  0.556 sec
 * total energy  :  -450.8356300 Eh     change       -0.1011526E-02 Eh
   gradient norm :     0.0050275 Eh/α   predicted    -0.8736012E-03 ( -13.64%)
   displ. norm   :     0.8155667 α      lambda       -0.1057471E-02
   maximum displ.:     0.5542597 α      in ANC's #17, #19, #18, ...
 * RMSD in coord.:     0.7928941 α      energy gain  -0.6932315E-01 Eh

generating ANC from model Hessian ...
Using Lindh-Hessian (1995)
 Shifting diagonal of input Hessian by    1.0039486023056963E-002
 Lowest  eigenvalues of input Hessian
    0.010000    0.010010    0.010021    0.010025    0.010034    0.010039
    0.000000    0.000000    0.000000    0.000000    0.000000    0.000000
    0.010040    0.010040    0.010043    0.010047    0.010050    0.010063
 Highest eigenvalues
    2.673278    2.673682    2.675655    2.676892    2.678055    2.678586


........................................................................
.............................. CYCLE   43 ..............................
........................................................................
   1   -459.1542486 -0.459154E+03  0.339E-02    0.62       0.0  T
   2   -459.1542495 -0.868563E-06  0.200E-02    0.62       1.0  T
   3   -459.1542189  0.305749E-04  0.833E-03    0.62       1.0  T
   4   -459.1542511 -0.322302E-04  0.127E-03    0.62       4.8  T
   5   -459.1542516 -0.445891E-06  0.730E-04    0.62       8.4  T
   6   -459.1542517 -0.174033E-06  0.367E-04    0.62      16.7  T
     SCC iter.                  ...        0 min,  1.181 sec
     gradient                   ...        0 min,  0.554 sec
 * total energy  :  -450.8366409 Eh     change       -0.1010916E-02 Eh
   gradient norm :     0.0045489 Eh/α   predicted     0.0000000E+00 (-100.00%)
   displ. norm   :     0.1330436 α      lambda       -0.2256661E-03
   maximum displ.:     0.0865491 α      in ANC's #17, #18, #16, ...

........................................................................
.............................. CYCLE   44 ..............................
........................................................................
   1   -459.1527756 -0.459153E+03  0.111E-02    0.63       0.0  T
   2   -459.1527757 -0.177557E-06  0.654E-03    0.62       1.0  T
   3   -459.1527716  0.410338E-05  0.292E-03    0.63       2.1  T
   4   -459.1527758 -0.412275E-05  0.740E-04    0.63       8.3  T
   5   -459.1527760 -0.270000E-06  0.231E-04    0.62      26.6  T
   6   -459.1527760 -0.189081E-07  0.117E-04    0.62      52.5  T
     SCC iter.                  ...        0 min,  1.180 sec
     gradient                   ...        0 min,  0.554 sec
 * total energy  :  -450.8368557 Eh     change       -0.2147911E-03 Eh
   gradient norm :     0.0029468 Eh/α   predicted    -0.1164149E-03 ( -45.80%)
   displ. norm   :     0.4561137 α      lambda       -0.6819019E-03
   maximum displ.:     0.2652055 α      in ANC's #17, #18, #16, ...

........................................................................
.............................. CYCLE   45 ..............................
........................................................................
   1   -459.1497409 -0.459150E+03  0.347E-02    0.63       0.0  T
   2   -459.1497422 -0.130149E-05  0.204E-02    0.63       1.0  T
   3   -459.1497056  0.366388E-04  0.886E-03    0.63       1.0  T
   4   -459.1497432 -0.376026E-04  0.191E-03    0.63       3.2  T
   5   -459.1497448 -0.162918E-05  0.667E-04    0.63       9.2  T
   6   -459.1497449 -0.153287E-06  0.344E-04    0.63      17.8  T
   7   -459.1497450 -0.241743E-07  0.177E-04    0.63      34.6  T
     SCC iter.                  ...        0 min,  1.372 sec
     gradient                   ...        0 min,  0.553 sec
 * total energy  :  -450.8374506 Eh     change       -0.5949684E-03 Eh
   gradient norm :     0.0037506 Eh/α   predicted    -0.4119216E-03 ( -30.77%)
   displ. norm   :     0.6383516 α      lambda       -0.7697067E-03
   maximum displ.:     0.3703931 α      in ANC's #17, #18, #16, ...

........................................................................
.............................. CYCLE   46 ..............................
........................................................................
   1   -459.1474792 -0.459147E+03  0.431E-02    0.63       0.0  T
   2   -459.1474802 -0.101599E-05  0.254E-02    0.63       1.0  T
   3   -459.1474250  0.552154E-04  0.108E-02    0.63       1.0  T
   4   -459.1474825 -0.574348E-04  0.187E-03    0.63       3.3  T
   5   -459.1474839 -0.140272E-05  0.720E-04    0.63       8.5  T
   6   -459.1474840 -0.146565E-06  0.398E-04    0.63      15.4  T
   7   -459.1474840 -0.324252E-07  0.196E-04    0.63      31.4  T
     SCC iter.                  ...        0 min,  1.375 sec
     gradient                   ...        0 min,  0.552 sec
 * total energy  :  -450.8381321 Eh     change       -0.6814672E-03 Eh
   gradient norm :     0.0069197 Eh/α   predicted    -0.5416785E-03 ( -20.51%)
   displ. norm   :     0.6833518 α      lambda       -0.7532208E-03
   maximum displ.:     0.3987969 α      in ANC's #17, #18, #16, ...

........................................................................
.............................. CYCLE   47 ..............................
........................................................................
   1   -459.1473584 -0.459147E+03  0.411E-02    0.63       0.0  T
   2   -459.1473588 -0.413639E-06  0.242E-02    0.63       1.0  T
   3   -459.1473164  0.423711E-04  0.940E-03    0.63       1.0  T
   4   -459.1473609 -0.444809E-04  0.131E-03    0.63       4.7  T
   5   -459.1473615 -0.550671E-06  0.607E-04    0.63      10.1  T
   6   -459.1473615 -0.710687E-07  0.355E-04    0.63      17.3  T
     SCC iter.                  ...        0 min,  1.174 sec
     gradient                   ...        0 min,  0.527 sec
 * total energy  :  -450.8388337 Eh     change       -0.7015690E-03 Eh
   gradient norm :     0.0079317 Eh/α   predicted    -0.5524761E-03 ( -21.25%)
   displ. norm   :     0.7240062 α      lambda       -0.8436341E-03
   maximum displ.:     0.4252557 α      in ANC's #17, #18, #16, ...

........................................................................
.............................. CYCLE   48 ..............................
........................................................................
   1   -459.1497165 -0.459150E+03  0.392E-02    0.63       0.0  T
   2   -459.1497169 -0.457229E-06  0.230E-02    0.63       1.0  T
   3   -459.1496878  0.291260E-04  0.776E-03    0.63       1.0  T
   4   -459.1497184 -0.306351E-04  0.112E-03    0.63       5.5  T
   5   -459.1497188 -0.354318E-06  0.592E-04    0.63      10.4  T
   6   -459.1497188 -0.541383E-07  0.334E-04    0.63      18.4  T
     SCC iter.                  ...        0 min,  1.134 sec
     gradient                   ...        0 min,  0.527 sec
 * total energy  :  -450.8396379 Eh     change       -0.8042543E-03 Eh
   gradient norm :     0.0066485 Eh/α   predicted    -0.6429271E-03 ( -20.06%)
   displ. norm   :     0.7825911 α      lambda       -0.9825960E-03
   maximum displ.:     0.4647653 α      in ANC's #17, #18, #16, ...

........................................................................
.............................. CYCLE   49 ..............................
........................................................................
   1   -459.1537639 -0.459154E+03  0.392E-02    0.63       0.0  T
   2   -459.1537651 -0.121991E-05  0.230E-02    0.63       1.0  T
   3   -459.1537463  0.188116E-04  0.655E-03    0.63       1.0  T
   4   -459.1537660 -0.197559E-04  0.138E-03    0.63       4.4  T
   5   -459.1537667 -0.606447E-06  0.627E-04    0.63       9.8  T
   6   -459.1537667 -0.466885E-07  0.358E-04    0.63      17.1  T
     SCC iter.                  ...        0 min,  1.123 sec
     gradient                   ...        0 min,  0.524 sec
 * total energy  :  -450.8405636 Eh     change       -0.9256463E-03 Eh
   gradient norm :     0.0040238 Eh/α   predicted    -0.7921937E-03 ( -14.42%)
   displ. norm   :     0.8312929 α      lambda       -0.1017878E-02
   maximum displ.:     0.4988449 α      in ANC's #17, #18, #16, ...

........................................................................
.............................. CYCLE   50 ..............................
........................................................................
   1   -459.1569000 -0.459157E+03  0.396E-02    0.63       0.0  T
   2   -459.1569017 -0.166581E-05  0.232E-02    0.63       1.0  T
   3   -459.1568836  0.180384E-04  0.646E-03    0.63       1.0  T
   4   -459.1569024 -0.187564E-04  0.159E-03    0.63       3.9  T
   5   -459.1569033 -0.896604E-06  0.683E-04    0.63       9.0  T
   6   -459.1569033 -0.688240E-07  0.373E-04    0.63      16.4  T
     SCC iter.                  ...        0 min,  1.135 sec
     gradient                   ...        0 min,  0.524 sec
 * total energy  :  -450.8415068 Eh     change       -0.9431928E-03 Eh
   gradient norm :     0.0035905 Eh/α   predicted    -0.8606451E-03 (  -8.75%)
   displ. norm   :     0.8494223 α      lambda       -0.9420060E-03
   maximum displ.:     0.5131209 α      in ANC's #17, #18, #16, ...

........................................................................
.............................. CYCLE   51 ..............................
........................................................................
   1   -459.1578592 -0.459158E+03  0.381E-02    0.63       0.0  T
   2   -459.1578605 -0.125608E-05  0.223E-02    0.63       1.0  T
   3   -459.1578398  0.207374E-04  0.669E-03    0.63       1.0  T
   4   -459.1578615 -0.217704E-04  0.136E-03    0.63       4.5  T
   5   -459.1578621 -0.567671E-06  0.676E-04    0.63       9.1  T
   6   -459.1578622 -0.711303E-07  0.363E-04    0.63      16.9  T
     SCC iter.                  ...        0 min,  1.129 sec
     gradient                   ...        0 min,  0.522 sec
 * total energy  :  -450.8423860 Eh     change       -0.8792387E-03 Eh
   gradient norm :     0.0051014 Eh/α   predicted    -0.8108487E-03 (  -7.78%)
   displ. norm   :     0.8394267 α      lambda       -0.8683573E-03
   maximum displ.:     0.5088626 α      in ANC's #17, #18, #16, ...

........................................................................
.............................. CYCLE   52 ..............................
........................................................................
   1   -459.1576748 -0.459158E+03  0.351E-02    0.63       0.0  T
   2   -459.1576755 -0.762806E-06  0.206E-02    0.63       1.0  T
   3   -459.1576502  0.253248E-04  0.716E-03    0.63       1.0  T
   4   -459.1576768 -0.266307E-04  0.116E-03    0.63       5.3  T
   5   -459.1576772 -0.354920E-06  0.662E-04    0.63       9.3  T
   6   -459.1576773 -0.873498E-07  0.346E-04    0.63      17.7  T
     SCC iter.                  ...        0 min,  1.129 sec
     gradient                   ...        0 min,  0.523 sec
 * total energy  :  -450.8432118 Eh     change       -0.8258055E-03 Eh
   gradient norm :     0.0056525 Eh/α   predicted    -0.7401174E-03 ( -10.38%)
   displ. norm   :     0.8298559 α      lambda       -0.8503813E-03
   maximum displ.:     0.5045542 α      in ANC's #17, #18, #16, ...

........................................................................
.............................. CYCLE   53 ..............................
........................................................................
   1   -459.1574504 -0.459157E+03  0.324E-02    0.63       0.0  T
   2   -459.1574510 -0.611638E-06  0.190E-02    0.63       1.0  T
   3   -459.1574220  0.289707E-04  0.760E-03    0.63       1.0  T
   4   -459.1574523 -0.303020E-04  0.125E-03    0.63       4.9  T
   5   -459.1574528 -0.516413E-06  0.631E-04    0.63       9.7  T
   6   -459.1574529 -0.902813E-07  0.345E-04    0.63      17.8  T
     SCC iter.                  ...        0 min,  1.124 sec
     gradient                   ...        0 min,  0.522 sec
 * total energy  :  -450.8440297 Eh     change       -0.8178724E-03 Eh
   gradient norm :     0.0050456 Eh/α   predicted    -0.7180030E-03 ( -12.21%)
   displ. norm   :     0.8401321 α      lambda       -0.8767958E-03
   maximum displ.:     0.5129250 α      in ANC's #17, #18, #16, ...

........................................................................
.............................. CYCLE   54 ..............................
........................................................................
   1   -459.1574986 -0.459157E+03  0.312E-02    0.63       0.0  T
   2   -459.1574993 -0.733450E-06  0.183E-02    0.63       1.0  T
   3   -459.1574687  0.305955E-04  0.788E-03    0.63       1.0  T
   4   -459.1575006 -0.318250E-04  0.145E-03    0.63       4.2  T
   5   -459.1575014 -0.798250E-06  0.640E-04    0.63       9.6  T
   6   -459.1575015 -0.115657E-06  0.345E-04    0.63      17.8  T
     SCC iter.                  ...        0 min,  1.129 sec
     gradient                   ...        0 min,  0.521 sec
 * total energy  :  -450.8448746 Eh     change       -0.8448939E-03 Eh
   gradient norm :     0.0039933 Eh/α   predicted    -0.7478294E-03 ( -11.49%)
   displ. norm   :     0.8619371 α      lambda       -0.9048245E-03
   maximum displ.:     0.5288137 α      in ANC's #17, #18, #16, ...

........................................................................
.............................. CYCLE   55 ..............................
........................................................................
   1   -459.1576674 -0.459158E+03  0.313E-02    0.64       0.0  T
   2   -459.1576682 -0.842663E-06  0.184E-02    0.64       1.0  T
   3   -459.1576382  0.300736E-04  0.797E-03    0.64       1.0  T
   4   -459.1576695 -0.313064E-04  0.151E-03    0.64       4.1  T
   5   -459.1576703 -0.854225E-06  0.652E-04    0.64       9.4  T
   6   -459.1576705 -0.133528E-06  0.350E-04    0.64      17.5  T
     SCC iter.                  ...        0 min,  1.128 sec
     gradient                   ...        0 min,  0.521 sec
 * total energy  :  -450.8457428 Eh     change       -0.8682086E-03 Eh
   gradient norm :     0.0035727 Eh/α   predicted    -0.7885269E-03 (  -9.18%)
   displ. norm   :     0.8809228 α      lambda       -0.9029875E-03
   maximum displ.:     0.5427594 α      in ANC's #17, #18, #16, ...

........................................................................
.............................. CYCLE   56 ..............................
........................................................................
   1   -459.1577761 -0.459158E+03  0.318E-02    0.64       0.0  T
   2   -459.1577769 -0.774847E-06  0.187E-02    0.64       1.0  T
   3   -459.1577497  0.271928E-04  0.783E-03    0.64       1.0  T
   4   -459.1577783 -0.286035E-04  0.135E-03    0.64       4.5  T
   5   -459.1577789 -0.576937E-06  0.614E-04    0.64      10.0  T
   6   -459.1577790 -0.102394E-06  0.362E-04    0.64      16.9  T
     SCC iter.                  ...        0 min,  1.126 sec
     gradient                   ...        0 min,  0.520 sec
 * total energy  :  -450.8466063 Eh     change       -0.8635403E-03 Eh
   gradient norm :     0.0037799 Eh/α   predicted    -0.8018664E-03 (  -7.14%)
   displ. norm   :     0.8909931 α      lambda       -0.8724427E-03
   maximum displ.:     0.5507306 α      in ANC's #17, #18, #16, ...

........................................................................
.............................. CYCLE   57 ..............................
........................................................................
   1   -459.1578075 -0.459158E+03  0.319E-02    0.64       0.0  T
   2   -459.1578081 -0.623780E-06  0.187E-02    0.64       1.0  T
   3   -459.1577847  0.234581E-04  0.755E-03    0.64       1.0  T
   4   -459.1578097 -0.249792E-04  0.112E-03    0.64       5.5  T
   5   -459.1578100 -0.305706E-06  0.523E-04    0.64      11.7  T
   6   -459.1578100 -0.278152E-07  0.375E-04    0.64      16.4  T
     SCC iter.                  ...        0 min,  1.130 sec
     gradient                   ...        0 min,  0.520 sec
 * total energy  :  -450.8474404 Eh     change       -0.8340974E-03 Eh
[...]
N        97.56776761428351   -1.27560347466665    0.46261846280998
H        96.45764744185969   -4.26647871654530    1.40804110065284
H        94.50092657626102   -2.47086859431789    0.91377339711928
H        94.57049770561967    2.64181850650039   -0.80357481692693
H        96.56215187713197    4.37437457597266   -1.21902116546316
H        98.19062733415460    0.65532752042333   -0.03789922311097
H        99.16934779312167    4.27390135570236   -1.02207315479291
H       101.70113642649825    4.38966438281677   -0.88413009588217
H       103.65743061341837    2.59853013729746   -0.37276212529520
H       103.59354567116040   -2.68280876483998    0.72120005444431
H       101.60152084102393   -4.39599709812876    1.20813222932276
H        99.97004351001617   -0.59786082363563    0.31905219412452
H        98.99151180038889   -4.22249903446101    1.28004523760254
C       107.62863910446248   -2.81940146472619    2.02901826412043
C       106.64900059063872   -2.03532639968644    1.53840570076555
C       107.31291789235897   -0.99490168260729    0.77595767330564
C       106.62310844449584    0.02440292518747    0.08899158596387
C       107.26655019894758    1.05173244138146   -0.62172803121421
C       106.66941246881228    2.09992114430457   -1.36914038906979
C       107.67857263433810    2.86343974158330   -1.88243656992215
C       108.91335151763684    2.29373135333181   -1.46400641532942
N       108.61204826732376    1.20229939157489   -0.70798441250972
C       110.17930882570082    2.76826485152749   -1.77844961886844
C       111.41031271519768    2.23934222808319   -1.42468868286796
C       112.66433141508232    2.84183662339347   -1.84470811492725
C       113.64429953310078    2.06418627981677   -1.34434952739739
C       112.97723170358171    0.99668535306608   -0.62231406694675
N       111.64125526271633    1.12727262091934   -0.68689155374888
C       113.66335903646245   -0.04338092219461    0.03381662168439
C       113.02135121684397   -1.09498638392512    0.70712730317035
C       113.62079401440248   -2.17121398110354    1.41233864871670
C       112.61208624300588   -2.93650542392651    1.92407332143494
C       111.37632710807588   -2.34102189364097    1.54559956952530
N       111.67586359192715   -1.23577790013620    0.80987836628280
C       110.11032616334340   -2.79701186386973    1.88683291804535
C       108.88058248052961   -2.24494668718906    1.56646738294086
N       108.64786316217584   -1.14037981489741    0.81680920137098
H       107.54859422248073   -3.69489237257993    2.64437303148344
H       105.58786599790403   -2.11146153836529    1.67207812958511
H       105.61412998216100    2.23350447375886   -1.50245441672958
H       107.58620539810130    3.73750502418073   -2.49730042354315
H       109.26658557818661    0.56670841978910   -0.26477846230683
H       110.20520859691081    3.66310632429669   -2.38571008684735
H       112.74553644778862    3.73081034033695   -2.44027929915430
H       114.70762787055612    2.16205899434959   -1.44607585817007
H       114.67737339358331   -2.32157556449623    1.51766888696505
H       112.70522946600255   -3.82819980393550    2.51297237512108
H       111.02019603244190   -0.58406269950430    0.39258787683303
H       110.08375149876439   -3.69508101337732    2.48925722031972

 Bond Distances (Angstroems)
 ---------------------------
C1-C2=1.3473         C1-C23=1.4531        C1-H25=1.0731        C2-C1=1.3473         C2-C3=1.4518         C2-H26=1.0726        
C3-C2=1.4518         C3-C4=1.4084         C3-N24=1.3438        C4-C3=1.4084         C4-C5=1.4040         C4-C75=1.4008        
C5-C4=1.4040         C5-C6=1.4206         C5-N9=1.3568         C6-C5=1.4206         C6-C7=1.3649         C6-H27=1.0723        
C7-C6=1.3649         C7-C8=1.4234         C7-H28=1.0726        C8-C7=1.4234         C8-N9=1.3617         C8-C10=1.3871        
N9-C5=1.3568         N9-C8=1.3617         N9-H29=1.0135        C10-C8=1.3871        C10-C11=1.3879       C10-H30=1.0813       
C11-C10=1.3879       C11-C12=1.4560       C11-N15=1.3489       C12-C11=1.4560       C12-C13=1.3458       C12-H31=1.0733       
C13-C12=1.3458       C13-C14=1.4548       C13-H32=1.0732       C14-C13=1.4548       C14-N15=1.3498       C14-C16=1.3892       
N15-C11=1.3489       N15-C14=1.3498       C16-C14=1.3892       C16-C17=1.3864       C16-H33=1.0804       C17-C16=1.3864       
C17-C18=1.4243       C17-N21=1.3598       C18-C17=1.4243       C18-C19=1.3635       C18-H34=1.0727       C19-C18=1.3635       
C19-C20=1.4256       C19-H35=1.0728       C20-C19=1.4256       C20-N21=1.3590       C20-C22=1.3869       N21-C17=1.3598       
N21-C20=1.3590       N21-H36=1.0130       C22-C20=1.3869       C22-C23=1.3871       C22-H37=1.0814       C23-C1=1.4531        
C23-C22=1.3871       C23-N24=1.3544       N24-C3=1.3438        N24-C23=1.3544       H25-C1=1.0731        H26-C2=1.0726        
H27-C6=1.0723        H28-C7=1.0726        H29-N9=1.0135        H30-C10=1.0813       H31-C12=1.0733       H32-C13=1.0732       
H33-C16=1.0804       H34-C18=1.0727       H35-C19=1.0728       H36-N21=1.0130       H37-C22=1.0814       C38-C39=1.3472       
C38-C60=1.4532       C38-H62=1.0731       C39-C38=1.3472       C39-C40=1.4520       C39-H63=1.0727       C40-C39=1.4520       
C40-C41=1.4080       C40-N61=1.3438       C41-C40=1.4080       C41-C42=1.4037       C41-C86=1.4010       C42-C41=1.4037       
C42-C43=1.4208       C42-N46=1.3567       C43-C42=1.4208       C43-C44=1.3649       C43-H64=1.0724       C44-C43=1.3649       
C44-C45=1.4234       C44-H65=1.0726       C45-C44=1.4234       C45-N46=1.3617       C45-C47=1.3871       N46-C42=1.3567       
N46-C45=1.3617       N46-H66=1.0134       C47-C45=1.3871       C47-C48=1.3880       C47-H67=1.0813       C48-C47=1.3880       
C48-C49=1.4559       C48-N52=1.3490       C49-C48=1.4559       C49-C50=1.3458       C49-H68=1.0733       C50-C49=1.3458       
C50-C51=1.4548       C50-H69=1.0732       C51-C50=1.4548       C51-N52=1.3497       C51-C53=1.3892       N52-C48=1.3490       
N52-C51=1.3497       C53-C51=1.3892       C53-C54=1.3864       C53-H70=1.0804       C54-C53=1.3864       C54-C55=1.4243       
C54-N58=1.3598       C55-C54=1.4243       C55-C56=1.3635       C55-H71=1.0727       C56-C55=1.3635       C56-C57=1.4255       
C56-H72=1.0728       C57-C56=1.4255       C57-N58=1.3590       C57-C59=1.3868       N58-C54=1.3598       N58-C57=1.3590       
N58-H73=1.0129       C59-C57=1.3868       C59-C60=1.3871       C59-H74=1.0814       C60-C38=1.4532       C60-C59=1.3871       
C60-N61=1.3543       N61-C40=1.3438       N61-C60=1.3543       H62-C38=1.0731       H63-C39=1.0727       H64-C43=1.0724       
H65-C44=1.0726       H66-N46=1.0134       H67-C47=1.0813       H68-C49=1.0733       H69-C50=1.0732       H70-C53=1.0804       
H71-C55=1.0727       H72-C56=1.0728       H73-N58=1.0129       H74-C59=1.0814       C75-C4=1.4008        C75-C76=1.2137       
C76-C75=1.2137       C76-C90=1.3998       C77-C78=1.2138       C77-C102=1.3993      C78-C77=1.2138       C78-C126=1.3991      
C79-C80=1.2148       C79-C138=1.3984      C80-C79=1.2148       C80-C162=1.3983      C81-C82=1.2147       C81-C174=1.3982      
C82-C81=1.2147       C82-C198=1.3982      C83-C84=1.2146       C83-C210=1.3983      C84-C83=1.2146       C84-C234=1.3985      
C85-C86=1.2134       C85-C246=1.3999      C86-C41=1.4010       C86-C85=1.2134       C87-C88=1.3473       C87-C109=1.4531      
C87-H111=1.0731      C88-C87=1.3473       C88-C89=1.4511       C88-H112=1.0725      C89-C88=1.4511       C89-C90=1.4086       
C89-N110=1.3439      C90-C76=1.3998       C90-C89=1.4086       C90-C91=1.4044       C91-C90=1.4044       C91-C92=1.4195       
C91-N95=1.3568       C92-C91=1.4195       C92-C93=1.3656       C92-H113=1.0723      C93-C92=1.3656       C93-C94=1.4230       
C93-H114=1.0727      C94-C93=1.4230       C94-N95=1.3612       C94-C96=1.3883       N95-C91=1.3568       N95-C94=1.3612       
N95-H115=1.0142      C96-C94=1.3883       C96-C97=1.3856       C96-H116=1.0817      C97-C96=1.3856       C97-C98=1.4533       
C97-N101=1.3548      C98-C97=1.4533       C98-C99=1.3474       C98-H117=1.0731      C99-C98=1.3474       C99-C100=1.4513      
C99-H118=1.0727      C100-C99=1.4513      C100-N101=1.3435     C100-C102=1.4085     N101-C97=1.3548      N101-C100=1.3435     
C102-C77=1.3993      C102-C100=1.4085     C102-C103=1.4042     C103-C102=1.4042     C103-C104=1.4195     C103-N107=1.3565     
C104-C103=1.4195     C104-C105=1.3656     C104-H119=1.0724     C105-C104=1.3656     C105-C106=1.4230     C105-H120=1.0727     
C106-C105=1.4230     C106-N107=1.3613     C106-C108=1.3880     N107-C103=1.3565     N107-C106=1.3613     N107-H121=1.0141     
C108-C106=1.3880     C108-C109=1.3858     C108-H122=1.0817     C109-C87=1.4531      C109-C108=1.3858     C109-N110=1.3546     
N110-C89=1.3439      N110-C109=1.3546     H111-C87=1.0731      H112-C88=1.0725      H113-C92=1.0723      H114-C93=1.0727      
H115-N95=1.0142      H116-C96=1.0817      H117-C98=1.0731      H118-C99=1.0727      H119-C104=1.0724     H120-C105=1.0727     
H121-N107=1.0141     H122-C108=1.0817     C123-C124=1.3474     C123-C145=1.4533     C123-H147=1.0731     C124-C123=1.3474     
C124-C125=1.4510     C124-H148=1.0726     C125-C124=1.4510     C125-C126=1.4085     C125-N146=1.3437     C126-C78=1.3991      
C126-C125=1.4085     C126-C127=1.4043     C127-C126=1.4043     C127-C128=1.4193     C127-N131=1.3566     C128-C127=1.4193     
C128-C129=1.3658     C128-H149=1.0724     C129-C128=1.3658     C129-C130=1.4230     C129-H150=1.0727     C130-C129=1.4230     
C130-N131=1.3611     C130-C132=1.3882     N131-C127=1.3566     N131-C130=1.3611     N131-H151=1.0145     C132-C130=1.3882     
C132-C133=1.3855     C132-H152=1.0818     C133-C132=1.3855     C133-C134=1.4530     C133-N137=1.3551     C134-C133=1.4530     
C134-C135=1.3473     C134-H153=1.0731     C135-C134=1.3473     C135-C136=1.4505     C135-H154=1.0720     C136-C135=1.4505     
C136-N137=1.3436     C136-C138=1.4099     N137-C133=1.3551     N137-C136=1.3436     C138-C79=1.3984      C138-C136=1.4099     
C138-C139=1.4055     C139-C138=1.4055     C139-C140=1.4188     C139-N143=1.3568     C140-C139=1.4188     C140-C141=1.3656     
C140-H155=1.0719     C141-C140=1.3656     C141-C142=1.4228     C141-H156=1.0727     C142-C141=1.4228     C142-N143=1.3614     
C142-C144=1.3883     N143-C139=1.3568     N143-C142=1.3614     N143-H157=1.0146     C144-C142=1.3883     C144-C145=1.3855     
C144-H158=1.0818     C145-C123=1.4533     C145-C144=1.3855     C145-N146=1.3545     N146-C125=1.3437     N146-C145=1.3545     
H147-C123=1.0731     H148-C124=1.0726     H149-C128=1.0724     H150-C129=1.0727     H151-N131=1.0145     H152-C132=1.0818     
H153-C134=1.0731     H154-C135=1.0720     H155-C140=1.0719     H156-C141=1.0727     H157-N143=1.0146     H158-C144=1.0818     
C159-C160=1.3474     C159-C181=1.4530     C159-H183=1.0731     C160-C159=1.3474     C160-C161=1.4504     C160-H184=1.0721     
C161-C160=1.4504     C161-C162=1.4099     C161-N182=1.3435     C162-C80=1.3983      C162-C161=1.4099     C162-C163=1.4056     
C163-C162=1.4056     C163-C164=1.4187     C163-N167=1.3567     C164-C163=1.4187     C164-C165=1.3657     C164-H185=1.0719     
C165-C164=1.3657     C165-C166=1.4227     C165-H186=1.0727     C166-C165=1.4227     C166-N167=1.3613     C166-C168=1.3884     
N167-C163=1.3567     N167-C166=1.3613     N167-H187=1.0147     C168-C166=1.3884     C168-C169=1.3854     C168-H188=1.0818     
C169-C168=1.3854     C169-C170=1.4530     C169-N173=1.3550     C170-C169=1.4530     C170-C171=1.3474     C170-H189=1.0731     
C171-C170=1.3474     C171-C172=1.4505     C171-H190=1.0722     C172-C171=1.4505     C172-N173=1.3435     C172-C174=1.4097     
N173-C169=1.3550     N173-C172=1.3435     C174-C81=1.3982      C174-C172=1.4097     C174-C175=1.4054     C175-C174=1.4054     
C175-C176=1.4188     C175-N179=1.3566     C176-C175=1.4188     C176-C177=1.3658     C176-H191=1.0720     C177-C176=1.3658     
C177-C178=1.4228     C177-H192=1.0727     C178-C177=1.4228     C178-N179=1.3612     C178-C180=1.3884     N179-C175=1.3566     
N179-C178=1.3612     N179-H193=1.0147     C180-C178=1.3884     C180-C181=1.3854     C180-H194=1.0819     C181-C159=1.4530     
C181-C180=1.3854     C181-N182=1.3550     N182-C161=1.3435     N182-C181=1.3550     H183-C159=1.0731     H184-C160=1.0721     
H185-C164=1.0719     H186-C165=1.0727     H187-N167=1.0147     H188-C168=1.0818     H189-C170=1.0731     H190-C171=1.0722     
H191-C176=1.0720     H192-C177=1.0727     H193-N179=1.0147     H194-C180=1.0819     C195-C196=1.3474     C195-C217=1.4531     
C195-H219=1.0731     C196-C195=1.3474     C196-C197=1.4505     C196-H220=1.0722     C197-C196=1.4505     C197-C198=1.4097     
C197-N218=1.3435     C198-C82=1.3982      C198-C197=1.4097     C198-C199=1.4054     C199-C198=1.4054     C199-C200=1.4188     
C199-N203=1.3567     C200-C199=1.4188     C200-C201=1.3657     C200-H221=1.0720     C201-C200=1.3657     C201-C202=1.4229     
C201-H222=1.0727     C202-C201=1.4229     C202-N203=1.3612     C202-C204=1.3883     N203-C199=1.3567     N203-C202=1.3612     
N203-H223=1.0148     C204-C202=1.3883     C204-C205=1.3854     C204-H224=1.0819     C205-C204=1.3854     C205-C206=1.4530     
C205-N209=1.3549     C206-C205=1.4530     C206-C207=1.3474     C206-H225=1.0731     C207-C206=1.3474     C207-C208=1.4505     
C207-H226=1.0723     C208-C207=1.4505     C208-N209=1.3436     C208-C210=1.4096     N209-C205=1.3549     N209-C208=1.3436     
C210-C83=1.3983      C210-C208=1.4096     C210-C211=1.4053     C211-C210=1.4053     C211-C212=1.4188     C211-N215=1.3568     
C212-C211=1.4188     C212-C213=1.3657     C212-H227=1.0720     C213-C212=1.3657     C213-C214=1.4228     C213-H228=1.0727     
C214-C213=1.4228     C214-N215=1.3611     C214-C216=1.3884     N215-C211=1.3568     N215-C214=1.3611     N215-H229=1.0148     
C216-C214=1.3884     C216-C217=1.3854     C216-H230=1.0818     C217-C195=1.4531     C217-C216=1.3854     C217-N218=1.3550     
N218-C197=1.3435     N218-C217=1.3550     H219-C195=1.0731     H220-C196=1.0722     H221-C200=1.0720     H222-C201=1.0727     
H223-N203=1.0148     H224-C204=1.0819     H225-C206=1.0731     H226-C207=1.0723     H227-C212=1.0720     H228-C213=1.0727     
H229-N215=1.0148     H230-C216=1.0818     C231-C232=1.3473     C231-C253=1.4530     C231-H255=1.0731     C232-C231=1.3473     
C232-C233=1.4507     C232-H256=1.0722     C233-C232=1.4507     C233-C234=1.4095     C233-N254=1.3435     C234-C84=1.3985      
C234-C233=1.4095     C234-C235=1.4052     C235-C234=1.4052     C235-C236=1.4191     C235-N239=1.3566     C236-C235=1.4191     
C236-C237=1.3656     C236-H257=1.0720     C237-C236=1.3656     C237-C238=1.4228     C237-H258=1.0727     C238-C237=1.4228     
C238-N239=1.3615     C238-C240=1.3881     N239-C235=1.3566     N239-C238=1.3615     N239-H259=1.0143     C240-C238=1.3881     
C240-C241=1.3857     C240-H260=1.0817     C241-C240=1.3857     C241-C242=1.4533     C241-N245=1.3544     C242-C241=1.4533     
C242-C243=1.3474     C242-H261=1.0731     C243-C242=1.3474     C243-C244=1.4512     C243-H262=1.0727     C244-C243=1.4512     
C244-N245=1.3439     C244-C246=1.4082     N245-C241=1.3544     N245-C244=1.3439     C246-C85=1.3999      C246-C244=1.4082     
C246-C247=1.4041     C247-C246=1.4041     C247-C248=1.4195     C247-N251=1.3567     C248-C247=1.4195     C248-C249=1.3657     
C248-H263=1.0724     C249-C248=1.3657     C249-C250=1.4230     C249-H264=1.0727     C250-C249=1.4230     C250-N251=1.3611     
C250-C252=1.3882     N251-C247=1.3567     N251-C250=1.3611     N251-H265=1.0143     C252-C250=1.3882     C252-C253=1.3855     
C252-H266=1.0817     C253-C231=1.4530     C253-C252=1.3855     C253-N254=1.3551     N254-C233=1.3435     N254-C253=1.3551     
H255-C231=1.0731     H256-C232=1.0722     H257-C236=1.0720     H258-C237=1.0727     H259-N239=1.0143     H260-C240=1.0817     
H261-C242=1.0731     H262-C243=1.0727     H263-C248=1.0724     H264-C249=1.0727     H265-N251=1.0143     H266-C252=1.0817     
 C  H  Rav=1.0746 sigma=0.0037  Rmin=1.0719  Rmax=1.0819    72
 C  C  Rav=1.3967 sigma=0.0477  Rmin=1.2134  Rmax=1.4560   158
 N  H  Rav=1.0141 sigma=0.0006  Rmin=1.0129  Rmax=1.0148    14
 N  C  Rav=1.3541 sigma=0.0063  Rmin=1.3435  Rmax=1.3617    56

 selected bond angles (degree)
 --------------------
C23-C1-C2=106.29               H25-C1-C2=129.01               H25-C1-C23=124.70              C3-C2-C1=106.00                
H26-C2-C1=129.26               H26-C2-C3=124.74               C4-C3-C2=123.19                N24-C3-C2=111.15               
N24-C3-C4=125.66               C5-C4-C3=124.18                C75-C4-C3=118.26               C75-C4-C5=117.57               
C6-C5-C4=127.42                N9-C5-C4=125.10                N9-C5-C6=107.48                C7-C6-C5=107.53                
H27-C6-C5=124.79               H27-C6-C7=127.67               C8-C7-C6=107.84                H28-C7-C6=127.44               
H28-C7-C8=124.73               N9-C8-C7=107.01                C10-C8-C7=126.43               C10-C8-N9=126.56               
C8-N9-C5=110.14                H29-N9-C5=123.78               H29-N9-C8=126.08               C11-C10-C8=127.51              
H30-C10-C8=116.05              H30-C10-C11=116.44             

 selected dihedral angles (degree)
 ---------------------------------
C3-C2-C1-C23=  0.11           C3-C2-C1-H25=179.88           H26-C2-C1-C23=181.14          H26-C2-C1-H25=  0.91          
C4-C3-C2-C1=180.14            C4-C3-C2-H26=359.17           N24-C3-C2-C1=359.67           N24-C3-C2-H26=178.70          
C5-C4-C3-C2=178.12            C5-C4-C3-N24=358.66           C75-C4-C3-C2=358.27           C75-C4-C3-N24=178.81          
C6-C5-C4-C3=179.15            C6-C5-C4-C75=359.00           N9-C5-C4-C3=359.55            N9-C5-C4-C75=179.40           
C7-C6-C5-C4=180.04            C7-C6-C5-N9=359.70            H27-C6-C5-C4=359.27           H27-C6-C5-N9=178.93           
C8-C7-C6-C5=  0.28            C8-C7-C6-H27=181.08           H28-C7-C6-C5=180.01           H28-C7-C6-H27=  0.81          
N9-C8-C7-C6=359.84            N9-C8-C7-H28=180.10           C10-C8-C7-C6=179.48           C10-C8-C7-H28=359.75          
C8-N9-C5-C4=179.87            C8-N9-C5-C6=  0.20            H29-N9-C5-C4=  0.26           H29-N9-C5-C6=180.59           
C5-N9-C8-C7=359.97            C5-N9-C8-C10=180.33           H29-N9-C8-C7=179.57           H29-N9-C8-C10=359.92          
C11-C10-C8-C7=181.43          C11-C10-C8-N9=  1.01          H30-C10-C8-C7=  0.97          H30-C10-C8-N9=180.55          

 CMA Distance (Angstroems)
 ---------------------------
R(CMA): 38.3026
           -------------------------------------------------
          |                Final Singlepoint                |
           -------------------------------------------------

          ...................................................
          :                      SETUP                      :
          :.................................................:
          :  # basis functions                 806          :
          :  # atomic orbitals                 806          :
          :  # shells                          446          :
          :  # electrons                       834          :
          :  max. iterations                   250          :
          :  Hamiltonian                  GFN2-xTB          :
          :  restarted?                      false          :
          :  GBSA solvation                  false          :
          :  PC potential                    false          :
          :  electronic temp.          300.0000000     K    :
          :  accuracy                    1.0000000          :
          :  -> integral cutoff          0.2500000E+02      :
          :  -> integral neglect         0.1000000E-07      :
          :  -> SCF convergence          0.1000000E-05 Eh   :
          :  -> wf. convergence          0.1000000E-03 e    :
