266
 energy: -448.569393800954 gnorm: 2.284065704042 xtb: 6.4.1 (bd6e46d)
C        59.01647500000000    3.51295700000000    0.78997200000000
C        59.90645200000000    2.57269800000000    0.59177600000000
C        59.24495100000000    1.31262300000000    0.29096900000000
C        59.60338900000000    0.00696100000000    0.00228800000000
C        58.77821100000000   -1.12411100000000   -0.08292800000000
C        59.23377600000000   -2.33283500000000    0.49837900000000
C        58.26108200000000   -3.26538100000000    0.29822400000000
C        57.22998800000000   -2.59768000000000   -0.40476400000000
N        57.56671300000000   -1.31682100000000   -0.62167800000000
C        56.07202700000000   -3.32379600000000   -0.73648100000000
C        54.75392700000000   -2.88110000000000   -0.62294600000000
C        53.44158000000000   -3.48323400000000   -0.71992500000000
C        52.51995200000000   -2.53658600000000   -0.51384000000000
C        53.21683800000000   -1.29075600000000   -0.27710900000000
N        54.53791200000001   -1.57050800000000   -0.35679500000000
C        52.81759600000000    0.01124100000000   -0.00910600000000
C        53.65020800000000    1.14791700000000    0.06680200000000
C        53.21606500000001    2.34990700000000   -0.54333800000000
C        54.21157800000001    3.26629500000000   -0.35138200000000
C        55.22572900000000    2.59305200000000    0.37254900000000
N        54.86053200000000    1.32523000000000    0.61137300000000
C        56.39537100000000    3.30000800000000    0.69404800000000
C        57.71062400000001    2.89648400000000    0.62403300000000
N        57.90024700000000    1.58538000000000    0.32763100000000
H        59.18373900000000    4.54150100000000    1.02856100000000
H        60.97671100000000    2.69603500000000    0.64079500000000
H        60.19429800000001   -2.51853800000000    1.01695500000000
H        58.29796400000000   -4.32199100000000    0.62355100000000
H        56.96342800000001   -0.54941100000000   -1.16919700000000
H        56.16041800000000   -4.35922300000000   -1.11482800000000
H        53.24290500000001   -4.54393500000000   -0.92867000000000
H        51.45054300000001   -2.72852100000000   -0.53307400000000
H        51.74265300000000    0.10051100000000    0.12863800000000
H        52.26241100000001    2.54146400000000   -1.07213600000000
H        54.19715700000000    4.31652400000000   -0.69782400000000
H        55.45385700000001    0.56778600000000    1.18336900000000
H        56.32686300000000    4.35741300000000    1.05076400000000
C       117.01333700000001   -3.49066500000000    0.82634200000000
C       116.12335899999999   -2.55251500000000    0.61839200000000
C       116.78486100000001   -1.29563300000000    0.30451400000000
C       116.42642200000000    0.00696100000000    0.00228800000000
C       117.25160100000001    1.13708700000000   -0.09467100000000
C       116.79603500000000    2.35178300000000    0.47405100000000
C       117.76873000000002    3.28220100000000    0.26422200000000
C       118.79982400000002    2.60723500000000   -0.43179300000000
N       118.46309900000001    1.32419100000000   -0.63539300000000
C       119.95778400000002    3.32986600000000   -0.77103400000000
C       121.27588500000000    2.88837300000000   -0.65290700000000
C       122.58823200000000    3.48946700000000   -0.75613500000000
C       123.50985900000001    2.54501100000000   -0.54022900000000
C       122.81297300000001    1.30170700000000   -0.29057200000000
N       121.49190000000000    1.58061600000000   -0.37315900000000
C       123.21221500000001    0.00256300000000   -0.00906100000000
C       122.37960300000000   -1.13326300000000    0.07864900000000
C       122.81374700000001   -2.34152500000000   -0.51897500000000
C       121.81823300000002   -3.25587000000000   -0.31751200000000
C       120.80408199999999   -2.57514500000000    0.39938700000000
N       121.16927900000000   -1.30491100000000    0.62503100000000
C       119.63444100000000   -3.27872400000000    0.72821200000000
C       118.31918800000000   -2.87594800000000    0.65400900000000
N       118.12956500000000   -1.56799400000000    0.34400600000000
H       116.84607300000000   -4.51667600000000    1.07560100000000
H       115.05310000000000   -2.67533700000000    0.66868900000000
H       115.83551400000000    2.54286200000000    0.99067100000000
H       117.73184800000000    4.34213200000000    0.57855700000000
H       119.06638400000000    0.55113600000000   -1.17491300000000
H       119.86939300000000    4.36130800000000   -1.16011400000000
H       122.78690700000000    4.54794300000000   -0.97588500000000
H       124.57926900000000    2.73673500000000   -0.56145500000000
H       124.28715800000001   -0.08527100000000    0.12960300000000
H       123.76740100000001   -2.53856400000000   -1.04575500000000
H       121.83265500000000   -4.30964100000000   -0.65302700000000
H       120.57595499999999   -0.54156800000000    1.18913000000000
H       119.70294900000000   -4.33236700000000    1.09589100000000
C        61.83083300000000    0.00696100000000    0.00228800000000
C        63.04703900000000    0.00696100000000    0.00228800000000
C        72.06122100000000    0.00696100000000    0.00228800000000
C        73.27742700000002    0.00696100000000    0.00228800000000
C        82.29160899999999    0.00696100000000    0.00228800000000
C        83.50781499999999    0.00696100000000    0.00228800000000
C        92.52199700000001    0.00696100000000    0.00228800000000
C        93.73820200000000    0.00696100000000    0.00228800000000
C       102.75238500000000    0.00696100000000    0.00228800000000
C       103.96859000000002    0.00696100000000    0.00228800000000
C       112.98277299999999    0.00696100000000    0.00228800000000
C       114.19897800000000    0.00696100000000    0.00228800000000
C        64.76218700000000   -3.59259900000000    0.00079800000000
C        63.88763700000000   -2.59769400000000   -0.00950400000000
C        64.55910000000000   -1.31891100000000    0.00368500000000
C        64.16207000000000   -0.00332600000000   -0.00109300000000
C        64.97326200000001    1.14099800000000   -0.15521900000000
C        64.49423600000000    2.19351400000000   -0.96728500000000
C        65.48132099999999    3.13626700000000   -0.95875400000000
C        66.52859300000000    2.63447200000000   -0.14595100000000
N        66.18974000000000    1.42810400000000    0.32679500000000
C        67.68897000000000    3.41245500000000    0.00839900000000
C        69.00995900000001    2.95458200000000   -0.02099400000000
C        70.32252900000000    3.58271500000000   -0.08212200000000
C        71.23664100000001    2.62765100000000   -0.08470500000000
C        70.56309500000000    1.34077700000000   -0.02551600000000
N        69.25103600000000    1.62937600000000    0.00927400000000
C        70.96537800000000   -0.00332600000000   -0.00109300000000
C        70.13322400000000   -1.11711500000000    0.18118800000000
C        70.57318200000002   -2.14877200000000    1.04449900000000
C        69.57500000000000   -3.07211200000000    1.04912000000000
C        68.55208399999999   -2.59217500000000    0.19569000000000
N        68.91926200000000   -1.41092800000000   -0.31481700000000
C        67.39517499999999   -3.36758200000000    0.03862200000000
C        66.07440000000000   -2.94810400000000    0.02193700000000
N        65.89800900000000   -1.60990100000000    0.02283700000000
H        64.59366700000000   -4.65476600000000   -0.00460500000000
H        62.79980900000000   -2.78373000000000   -0.02653100000000
H        63.53015800000000    2.26888500000000   -1.50160100000000
H        65.44317500000000    4.10738100000000   -1.49119600000000
H        66.79741799999999    0.79100500000000    1.01542500000000
H        67.63387000000000    4.49871700000000    0.15251500000000
H        70.54095599999999    4.65070700000000   -0.12045200000000
H        72.31295600000000    2.77369400000000   -0.12433200000000
H        71.52719200000001   -2.21318400000000    1.60204700000000
H        69.60041900000000   -4.01743000000000    1.62444000000000
H        68.33218500000000   -0.79147100000000   -1.03846800000000
H        67.45589300000000   -4.47932200000000   -0.07550700000000
C        74.99257500000000   -3.59259900000000    0.00079800000000
C        74.11802500000002   -2.59769400000000   -0.00950400000000
C        74.78948800000001   -1.31891100000000    0.00368500000000
C        74.39245699999999   -0.00332600000000   -0.00109300000000
C        75.20365000000001    1.14099800000000   -0.15521900000000
C        74.72462400000001    2.19351400000000   -0.96728500000000
C        75.71170900000000    3.13626700000000   -0.95875400000000
C        76.75897999999999    2.63447200000000   -0.14595100000000
N        76.42012800000001    1.42810400000000    0.32679500000000
C        77.91935800000000    3.41245500000000    0.00839900000000
C        79.24034700000000    2.95458200000000   -0.02099400000000
C        80.55291699999999    3.58271500000000   -0.08212200000000
C        81.46702900000000    2.62765100000000   -0.08470500000000
C        80.79348200000000    1.34077700000000   -0.02551600000000
N        79.48142400000000    1.62937600000000    0.00927400000000
C        81.19576600000001   -0.00332600000000   -0.00109300000000
C        80.36361200000000   -1.11711500000000    0.18118800000000
C        80.80356999999999   -2.14877200000000    1.04449900000000
C        79.80538799999999   -3.07211200000000    1.04912000000000
C        78.78247200000000   -2.59217500000000    0.19569000000000
N        79.14964999999999   -1.41092800000000   -0.31481700000000
C        77.62556300000000   -3.36758200000000    0.03862200000000
C        76.30478800000000   -2.94810400000000    0.02193700000000
N        76.12839700000001   -1.60990100000000    0.02283700000000
H        74.82405500000000   -4.65476600000000   -0.00460500000000
H        73.03019700000000   -2.78373000000000   -0.02653100000000
H        73.76054600000002    2.26888500000000   -1.50160100000000
H        75.67356300000000    4.10738100000000   -1.49119600000000
H        77.02780600000000    0.79100500000000    1.01542500000000
H        77.86425800000001    4.49871700000000    0.15251500000000
H        80.77134400000000    4.65070700000000   -0.12045200000000
H        82.54334400000002    2.77369400000000   -0.12433200000000
H        81.75758000000000   -2.21318400000000    1.60204700000000
H        79.83080700000001   -4.01743000000000    1.62444000000000
H        78.56257300000001   -0.79147100000000   -1.03846800000000
H        77.68628099999999   -4.47932200000000   -0.07550700000000
C        85.22296299999999   -3.59259900000000    0.00079800000000
C        84.34841299999999   -2.59769400000000   -0.00950400000000
C        85.01987600000000   -1.31891100000000    0.00368500000000
C        84.62284500000000   -0.00332600000000   -0.00109300000000
C        85.43403800000000    1.14099800000000   -0.15521900000000
C        84.95501200000000    2.19351400000000   -0.96728500000000
C        85.94209700000000    3.13626700000000   -0.95875400000000
C        86.98936800000001    2.63447200000000   -0.14595100000000
N        86.65051500000001    1.42810400000000    0.32679500000000
C        88.14974600000001    3.41245500000000    0.00839900000000
C        89.47073500000000    2.95458200000000   -0.02099400000000
C        90.78330500000000    3.58271500000000   -0.08212200000000
C        91.69741700000002    2.62765100000000   -0.08470500000000
C        91.02387000000000    1.34077700000000   -0.02551600000000
N        89.71181200000001    1.62937600000000    0.00927400000000
C        91.42615400000000   -0.00332600000000   -0.00109300000000
C        90.59400000000001   -1.11711500000000    0.18118800000000
C        91.03395800000000   -2.14877200000000    1.04449900000000
C        90.03577600000000   -3.07211200000000    1.04912000000000
C        89.01286000000000   -2.59217500000000    0.19569000000000
N        89.38003700000002   -1.41092800000000   -0.31481700000000
C        87.85595100000000   -3.36758200000000    0.03862200000000
C        86.53517600000001   -2.94810400000000    0.02193700000000
N        86.35878500000001   -1.60990100000000    0.02283700000000
H        85.05444300000002   -4.65476600000000   -0.00460500000000
H        83.26058500000001   -2.78373000000000   -0.02653100000000
H        83.99093400000000    2.26888500000000   -1.50160100000000
H        85.90394999999999    4.10738100000000   -1.49119600000000
H        87.25819400000000    0.79100500000000    1.01542500000000
H        88.09464600000001    4.49871700000000    0.15251500000000
H        91.00173100000002    4.65070700000000   -0.12045200000000
H        92.77373200000000    2.77369400000000   -0.12433200000000
H        91.98796800000000   -2.21318400000000    1.60204700000000
H        90.06119500000000   -4.01743000000000    1.62444000000000
H        88.79296100000001   -0.79147100000000   -1.03846800000000
H        87.91666900000000   -4.47932200000000   -0.07550700000000
C        95.45335000000001   -3.59259900000000    0.00079800000000
C        94.57880100000000   -2.59769400000000   -0.00950400000000
C        95.25026400000000   -1.31891100000000    0.00368500000000
C        94.85323300000000   -0.00332600000000   -0.00109300000000
C        95.66442600000002    1.14099800000000   -0.15521900000000
C        95.18540000000000    2.19351400000000   -0.96728500000000
C        96.17248499999999    3.13626700000000   -0.95875400000000
C        97.21975600000000    2.63447200000000   -0.14595100000000
N        96.88090300000000    1.42810400000000    0.32679500000000
C        98.38013400000000    3.41245500000000    0.00839900000000
C        99.70112300000000    2.95458200000000   -0.02099400000000
C       101.01369200000001    3.58271500000000   -0.08212200000000
C       101.92780500000001    2.62765100000000   -0.08470500000000
C       101.25425799999999    1.34077700000000   -0.02551600000000
N        99.94220000000000    1.62937600000000    0.00927400000000
C       101.65654200000002   -0.00332600000000   -0.00109300000000
C       100.82438800000000   -1.11711500000000    0.18118800000000
C       101.26434600000000   -2.14877200000000    1.04449900000000
C       100.26616400000002   -3.07211200000000    1.04912000000000
C        99.24324799999999   -2.59217500000000    0.19569000000000
N        99.61042500000001   -1.41092800000000   -0.31481700000000
C        98.08633900000001   -3.36758200000000    0.03862200000000
C        96.76556400000001   -2.94810400000000    0.02193700000000
N        96.58917300000000   -1.60990100000000    0.02283700000000
H        95.28483100000000   -4.65476600000000   -0.00460500000000
H        93.49097200000001   -2.78373000000000   -0.02653100000000
H        94.22132200000000    2.26888500000000   -1.50160100000000
H        96.13433800000000    4.10738100000000   -1.49119600000000
H        97.48858200000001    0.79100500000000    1.01542500000000
H        98.32503400000000    4.49871700000000    0.15251500000000
H       101.23211900000000    4.65070700000000   -0.12045200000000
H       103.00412000000000    2.77369400000000   -0.12433200000000
H       102.21835600000000   -2.21318400000000    1.60204700000000
H       100.29158200000001   -4.01743000000000    1.62444000000000
H        99.02334900000000   -0.79147100000000   -1.03846800000000
H        98.14705700000000   -4.47932200000000   -0.07550700000000
C       105.68373800000001   -3.59259900000000    0.00079800000000
C       104.80918800000002   -2.59769400000000   -0.00950400000000
C       105.48065200000001   -1.31891100000000    0.00368500000000
C       105.08362099999999   -0.00332600000000   -0.00109300000000
C       105.89481300000001    1.14099800000000   -0.15521900000000
C       105.41578800000001    2.19351400000000   -0.96728500000000
C       106.40287300000001    3.13626700000000   -0.95875400000000
C       107.45014399999999    2.63447200000000   -0.14595100000000
N       107.11129099999999    1.42810400000000    0.32679500000000
C       108.61052200000002    3.41245500000000    0.00839900000000
C       109.93151100000000    2.95458200000000   -0.02099400000000
C       111.24408000000000    3.58271500000000   -0.08212200000000
C       112.15819300000000    2.62765100000000   -0.08470500000000
C       111.48464600000000    1.34077700000000   -0.02551600000000
N       110.17258800000000    1.62937600000000    0.00927400000000
C       111.88693000000001   -0.00332600000000   -0.00109300000000
C       111.05477600000002   -1.11711500000000    0.18118800000000
C       111.49473399999999   -2.14877200000000    1.04449900000000
C       110.49655199999999   -3.07211200000000    1.04912000000000
C       109.47363600000001   -2.59217500000000    0.19569000000000
N       109.84081300000000   -1.41092800000000   -0.31481700000000
C       108.31672700000000   -3.36758200000000    0.03862200000000
C       106.99595200000000   -2.94810400000000    0.02193700000000
N       106.81956100000001   -1.60990100000000    0.02283700000000
H       105.51521900000000   -4.65476600000000   -0.00460500000000
H       103.72136000000000   -2.78373000000000   -0.02653100000000
H       104.45171000000001    2.26888500000000   -1.50160100000000
H       106.36472600000000    4.10738100000000   -1.49119600000000
H       107.71897000000000    0.79100500000000    1.01542500000000
H       108.55542199999999    4.49871700000000    0.15251500000000
H       111.46250700000000    4.65070700000000   -0.12045200000000
H       113.23450800000001    2.77369400000000   -0.12433200000000
H       112.44874299999999   -2.21318400000000    1.60204700000000
H       110.52197000000001   -4.01743000000000    1.62444000000000
H       109.25373700000000   -0.79147100000000   -1.03846800000000
H       108.37744500000001   -4.47932200000000   -0.07550700000000
266
 energy: -449.408277465981 gnorm: 0.782867559245 xtb: 6.4.1 (bd6e46d)
C        59.01088868210623    3.51636159944802    0.79127973953167
C        59.91528742294499    2.56793973877854    0.58999193320342
C        59.24125562396285    1.31332677197612    0.28812897240209
C        59.62091407562481    0.01271825926125    0.00542851573211
C        58.79289083478625   -1.11951268555313   -0.08054996163536
C        59.23890761191896   -2.33563776289262    0.49904194552699
C        58.26346256987297   -3.26803039076748    0.29600240184673
C        57.22552745500966   -2.60435338521017   -0.40700469084783
N        57.56318787658796   -1.31039950691913   -0.62353997549640
C        56.06384039480798   -3.32683404504312   -0.73988874174879
C        54.75289600795521   -2.87244933620930   -0.62528876064821
C        53.44197089893930   -3.48976505643720   -0.72232150851729
C        52.51605527784189   -2.53838714030068   -0.51340297127399
C        53.22427558017182   -1.29331494013623   -0.27379260071332
N        54.54455190267908   -1.56460290863586   -0.35524097384065
C        52.81507301035229    0.00421165302470   -0.00790761462292
C        53.64220040569879    1.14409894269669    0.06550475140154
C        53.21231001639878    2.35190129479946   -0.54210713303707
C        54.20929325135549    3.26894707661917   -0.34959120073460
C        55.23010147508173    2.60090563750545    0.37390751575624
N        54.86639182565308    1.31945498415696    0.61150758382953
C        56.40085909540225    3.30765563226433    0.69913412157222
C        57.71046896710008    2.88604565999188    0.62517174559271
N        57.90020576105861    1.57901945134696    0.32629247785284
H        59.18286317668051    4.54343908600171    1.02910103402699
H        60.97888169075801    2.69464864476277    0.64045508563675
H        60.18998954311496   -2.51575233740588    1.01471785924268
H        58.29601909539961   -4.31624339951507    0.62137022557514
H        56.97186181354878   -0.56101589472827   -1.15893929770461
H        56.16180081783823   -4.35761682993876   -1.10924645332465
H        53.24415962583361   -4.54159995597874   -0.92828567038946
H        51.45116882441184   -2.72610171398471   -0.53246962000571
H        51.74268834315829    0.10364062522494    0.12497273015675
H        52.26724881884292    2.53858884595610   -1.06944324147053
H        54.19901130144967    4.31082345851024   -0.69562276381766
H        55.44531117551708    0.57904024146323    1.17254515627026
H        56.32390823998243    4.35552731879900    1.04557817388753
C       117.01891584003057   -3.49406242587412    0.82770260890223
C       116.11455792154183   -2.54776615133665    0.61662491975181
C       116.78851743182415   -1.29639102787055    0.30172511485230
C       116.40891405557792    0.00112455367980    0.00581949528120
C       117.23694058652815    1.13253874482762   -0.09224729929476
C       116.79089741165362    2.35457099843235    0.47466593447038
C       117.76637256231359    3.28483169641953    0.26196375192014
C       118.80427027676286    2.61389553461720   -0.43409272852387
N       118.46662756436895    1.31774498643628   -0.63717274009849
C       119.96598754571002    3.33287261486637   -0.77448391958338
C       121.27690949474955    2.87971435971975   -0.65516165078505
C       122.58784079142828    3.49597582381518   -0.75860684454771
C       123.51375403613507    2.54681792872865   -0.53981899805040
C       122.80552972324905    1.30430453311923   -0.28729223226835
N       121.48526493000914    1.57471779870700   -0.37154625930333
C       123.21473896674063    0.00959888847501   -0.00794059903995
C       122.38760964205839   -1.12945816251888    0.07730430906141
C       122.81750093403110   -2.34350734314534   -0.51773112465441
C       121.82051622968626   -3.25850539166174   -0.31569904373562
C       120.79970751008833   -2.58298149473686    0.40081941935188
N       121.16341896663990   -1.29913415428636    0.62510007985344
C       119.62894430781549   -3.28632272279403    0.73336309936218
C       118.31933236423544   -2.86550581140870    0.65500696453044
N       118.12957141203567   -1.56162743040695    0.34266182945497
H       116.84695066075156   -4.51861554684517    1.07615996602874
H       115.05099515814442   -2.67398747490289    0.66821621078687
H       115.83982568572651    2.54005989001501    0.98846047027658
H       117.73379264250586    4.33636104425393    0.57643085467170
H       119.05794791422258    0.56284489445292   -1.16478190875706
H       119.86801233348015    4.35975672633404   -1.15453431254910
H       122.78565209333134    4.54561180335761   -0.97548293958892
H       124.57864179432740    2.73432182669890   -0.56083251351254
H       124.28712264154980   -0.08843884001942    0.12596360970798
H       123.76256205223554   -2.53566124972328   -1.04309960443699
H       121.83080006299191   -4.30391793585044   -0.65089270108311
H       120.58450180686152   -0.55293220921441    1.17841646082963
H       119.70590479250315   -4.33053665353031    1.09067800221244
C        61.77414207822883    0.01013403208413    0.00190964417912
C        62.96774575276951    0.01212817301886    0.00155331715893
C        72.10319330301911    0.00563318415230    0.00242188418870
C        73.24481156630644    0.01031258355135    0.00280103840606
C        82.33308491666823    0.00563810897586    0.00231044989054
C        83.47560769653499    0.01031378019130    0.00283179413449
C        92.56346409443471    0.00563751088174    0.00229836599919
C        93.70599165269068    0.01031306070989    0.00282087164944
C       102.79422210636946    0.00565189118798    0.00233534509354
C       103.93587818619640    0.01033414943189    0.00271789254460
C       113.06807574964371    0.00402981131310    0.00372779737634
C       114.25950540336950    0.00361438748034    0.00092380009029
C        64.76857802351326   -3.59490842002959    0.00017766304594
C        63.87882236593638   -2.59779274050352   -0.00909369359069
C        64.58350438518363   -1.33379520488407    0.00601073532763
C        64.21720637264512   -0.00776948835606   -0.00060190723028
C        64.98006038891872    1.14246640791238   -0.15754934612716
C        64.49310843582005    2.19400791703857   -0.96630860534415
C        65.48139418437118    3.14168841962147   -0.95773230893374
C        66.53205121725256    2.64353198656638   -0.14653928973310
N        66.19794115035454    1.42531484859880    0.32923314189779
C        67.70046061293624    3.41613743160055    0.01101858332434
C        69.00935115697499    2.95372129544102   -0.01796549726504
C        70.31927189214844    3.59124368705255   -0.08096431108320
C        71.24177594849053    2.62481978091712   -0.08495769588834
C        70.53366424478084    1.35735433899563   -0.02759154892411
N        69.24014413543659    1.62289298194958    0.00817765576109
C        70.89104952010838    0.00377551696298   -0.00276834280568
C        70.11973174301608   -1.12268291400298    0.18443903720808
C        70.57433899441274   -2.14737217454780    1.04368468738663
C        69.57470103513946   -3.07869777129195    1.04858755289517
C        68.54894366968772   -2.60221398306726    0.19700813346887
N        68.91067901890136   -1.40875574983848   -0.31756438183126
C        67.38699476564082   -3.37711739460528    0.03529719888605
C        66.07656542800430   -2.94400139530128    0.01897587690957
N        65.90198895685688   -1.60678965987064    0.02360276419010
H        64.59437717185023   -4.65455995463460   -0.00464227608216
H        62.80164015134725   -2.78000443754105   -0.02647473770350
H        63.53521036425106    2.26607511142183   -1.49817397196112
H        65.44516954169292    4.10264835687281   -1.48802313453086
H        66.78917042152121    0.80008113227957    1.00321555704060
H        67.63161927539373    4.49742157520704    0.14815503113102
H        70.53889244335957    4.65021162807026   -0.12039345892495
H        72.31177339969413    2.77202360877308   -0.12375075099088
H        71.52170720597084   -2.21014813504456    1.59860529776302
H        69.59815240365253   -4.01352531726211    1.62104187639776
H        68.34035036753036   -0.80043414110936   -1.02573017814428
H        67.45907876431828   -4.47614011810720   -0.07126478948534
C        74.99943007204790   -3.59572727597860    0.00010540727485
C        74.10996222981197   -2.59777524354879   -0.00935479842998
C        74.82056799682688   -1.33853595429359    0.00549478513333
C        74.45879649759580   -0.00714985672299   -0.00018261822995
C        75.21467564479528    1.14570181703923   -0.15843668432416
C        74.72468645352481    2.19271495658076   -0.96673490248251
C        75.71266809630011    3.14229913314537   -0.95730699629524
C        76.76226413776446    2.64418523915653   -0.14669195752878
N        76.42836457853026    1.42609404652765    0.32918807227526
C        77.93140530276531    3.41615990089091    0.01087545007256
C        79.23949838253232    2.95417763289706   -0.01817905795279
C        80.54961851561190    3.59130598439214   -0.08086970703847
C        81.47207444973172    2.62486008201087   -0.08497510932729
C        80.76381135350414    1.35767815162474   -0.02737385075111
N        79.47089747941006    1.62259039281914    0.00821165163951
C        81.12184047842352    0.00371018514312   -0.00290791685101
C        80.34996435121599   -1.12308757312174    0.18452924693958
C        80.80463757291098   -2.14700865805330    1.04368450120135
C        79.80458691351492   -3.07870662163643    1.04844645287302
C        78.77967358505518   -2.60208682845564    0.19710331765438
N        79.14132243394330   -1.40881125731739   -0.31753406290268
C        77.61610647413612   -3.37698432507230    0.03530453868949
C        76.30798033904739   -2.94628530991251    0.01927166732604
N        76.13100299861014   -1.60597064524614    0.02376404248965
H        74.82471691391294   -4.65474968883308   -0.00460141828489
H        73.03240607440125   -2.77995721238291   -0.02668607127334
H        73.76647489901040    2.26568867302587   -1.49884812691461
H        75.67556622967520    4.10284928673690   -1.48793283639870
H        77.01940003816239    0.80016215554205    1.00321187660985
H        77.86211174833191    4.49745712651135    0.14820813953948
H        80.76929618782646    4.65022214723206   -0.12039395440082
H        82.54214280292661    2.77201572564101   -0.12376878849197
H        81.75207385131849   -2.21014236475463    1.59858029184745
H        79.82851022964626   -4.01354441873158    1.62100294235966
H        78.57074436490451   -0.80043461445353   -1.02572969640671
H        77.68939878788279   -4.47612327239201   -0.07141880597626
C        85.22984014348877   -3.59578098600392    0.00009734915342
C        84.34037729659666   -2.59781154968232   -0.00936992053741
C        85.05114403931891   -1.33874992053816    0.00546230451980
C        84.68891318203571   -0.00704324361931   -0.00012870692556
C        85.44511273025806    1.14587496093509   -0.15850932195796
C        84.95511323597725    2.19262210607875   -0.96676704142006
C        85.94313374412371    3.14232813975028   -0.95727390642390
C        86.99261035241265    2.64421120968800   -0.14671002521817
N        86.65870459255609    1.42610047637787    0.32917354073680
C        88.16184360360859    3.41615871264588    0.01086642542998
C        89.46985878508302    2.95421356525277   -0.01820282016810
C        90.78000838039259    3.59130669222993   -0.08086296816326
C        91.70245568080237    2.62486562006459   -0.08497877224544
C        90.99418670321715    1.35768824410885   -0.02735458630254
N        89.70130220871903    1.62256407712472    0.00821407932388
C        91.35224504384523    0.00372076345341   -0.00292149176574
C        90.58032517257868   -1.12311501154039    0.18452477552167
C        91.03501072862312   -2.14698782947026    1.04369240365313
C        90.03494385092540   -3.07871731154464    1.04842875555283
C        89.01007933752544   -2.60208473953357    0.19709876011590
N        89.37173749856618   -1.40879926760307   -0.31752776996557