 Entering Gaussian System
 *********************************************
 Gaussian 98:
 frequency output generated by the xtb code
 *********************************************
                         Standard orientation:
 --------------------------------------------------------------------
  Center     Atomic     Atomic              Coordinates (Angstroms)
  Number     Number      Type              X           Y           Z
 --------------------------------------------------------------------
    1          6             0       48.258525    3.409572    0.550138
    2          6             0       49.231309    2.487509    0.414028
    3          6             0       48.555545    1.227325    0.161671
    4          6             0       49.239817    0.011860   -0.031526
    5          6             0       48.611998   -1.225278   -0.245356
    6          6             0       49.237387   -2.481674   -0.466719
    7          6             0       48.249743   -3.408506   -0.635886
    8          6             0       46.999177   -2.737534   -0.526867
    9          7             0       47.270717   -1.424171   -0.290805
   10          6             0       45.741429   -3.309918   -0.646639
   11          6             0       44.512885   -2.669222   -0.565465
   12          6             0       43.247578   -3.373917   -0.714233
   13          6             0       42.282482   -2.445000   -0.584351
   14          6             0       42.965656   -1.180726   -0.357668
   15          7             0       44.304259   -1.353591   -0.352002
   16          6             0       42.298879    0.024327   -0.175749
   17          6             0       42.903069    1.253123    0.041034
   18          6             0       42.275431    2.516206    0.239665
   19          6             0       43.259519    3.442962    0.417740
   20          6             0       44.513644    2.770878    0.331829
   21          7             0       44.245834    1.458101    0.104067
   22          6             0       45.771410    3.340738    0.460471
   23          6             0       47.000342    2.702257    0.382277
   24          7             0       47.221265    1.385985    0.152157
   25          1             0       48.346974    4.460840    0.746646
   26          1             0       50.294830    2.607142    0.486036
   27          1             0       50.297601   -2.639165   -0.501637
   28          1             0       48.365764   -4.458280   -0.823121
   29          1             0       46.584703   -0.687826   -0.171876
   30          1             0       45.718735   -4.375413   -0.829302
   31          1             0       43.153631   -4.428195   -0.891984
   32          1             0       41.216843   -2.563342   -0.631404
   33          1             0       41.219061    0.002498   -0.204739
   34          1             0       41.215060    2.678347    0.244245
   35          1             0       43.142421    4.494891    0.592978
   36          1             0       44.929877    0.719335   -0.006553
   37          1             0       45.795805    4.405820    0.645889
   38          6             0       98.431544   -3.406416   -0.493634
   39          6             0       97.458682   -2.484792   -0.354997
   40          6             0       98.135727   -1.213968   -0.167320
   41          6             0       97.452015    0.004990    0.002185
   42          6             0       98.078890    1.250979    0.159085
   43          6             0       97.452489    2.511164    0.354998
   44          6             0       98.439298    3.446759    0.473073
   45          6             0       99.690306    2.777917    0.356053
   46          7             0       99.419885    1.456785    0.167055
   47          6             0      100.947791    3.358804    0.428055
   48          6             0      102.176690    2.721005    0.331097
   49          6             0      103.442362    3.434359    0.425140
   50          6             0      104.407708    2.506431    0.290104
   51          6             0      103.724288    1.234034    0.115435
   52          7             0      102.385318    1.401122    0.145456
   53          6             0      104.391370    0.027807   -0.057459
   54          6             0      103.787650   -1.208895   -0.224860
   55          6             0      104.416288   -2.473372   -0.411259
   56          6             0      103.432690   -3.409653   -0.533213
   57          6             0      102.177857   -2.742292   -0.423714
   58          7             0      102.444798   -1.422534   -0.239391
   59          6             0      100.920206   -3.322554   -0.493378
   60          6             0       99.690762   -2.688389   -0.391238
   61          7             0       99.470486   -1.366549   -0.195508
   62          1             0       98.342427   -4.463970   -0.652544
   63          1             0       96.393903   -2.611488   -0.385408
   64          1             0       96.392498    2.665294    0.408355
   65          1             0       98.322582    4.501395    0.630121
   66          1             0      100.105987    0.719498    0.054727
   67          1             0      100.970024    4.429051    0.580382
   68          1             0      103.536390    4.493173    0.573474
   69          1             0      105.473684    2.630295    0.302536
   70          1             0      105.471442    0.055339   -0.062650
   71          1             0      105.476935   -2.629926   -0.446013
   72          1             0      103.550470   -4.465144   -0.685002
   73          1             0      101.760360   -0.684473   -0.126668
   74          1             0      100.896278   -4.392550   -0.647914
   75          6             0       50.640495    0.032008   -0.013656
   76          6             0       51.853679    0.054222   -0.002800
   77          6             0       61.678224    0.032575   -0.022506
   78          6             0       62.891892    0.048461   -0.031680
   79          6             0       72.728092   -0.010799    0.009614
   80          6             0       73.942211    0.009566    0.025959
   81          6             0       83.787103   -0.041943    0.113908
   82          6             0       85.001534   -0.024248    0.101369
   83          6             0       94.838200   -0.043541    0.028586
   84          6             0       96.051202   -0.019114    0.014883
   85          6             0       54.239203   -3.140905    1.251746
   86          6             0       53.263419   -2.272075    0.922648
   87          6             0       53.936070   -1.080837    0.438189
   88          6             0       53.253527    0.071570    0.003137
   89          6             0       53.896799    1.241957   -0.430404
   90          6             0       53.297381    2.439238   -0.902003
   91          6             0       54.305665    3.301892   -1.224632
   92          6             0       55.541481    2.647560   -0.961465
   93          7             0       55.242188    1.409083   -0.482353
   94          6             0       56.808263    3.175342   -1.170213
   95          6             0       58.036489    2.572129   -0.952202
   96          6             0       59.293538    3.242285   -1.239499
   97          6             0       60.269116    2.369334   -0.920923
   98          6             0       59.596416    1.177047   -0.439167
   99          7             0       58.261548    1.325634   -0.471551
  100          6             0       60.279139    0.021682   -0.011404
  101          6             0       59.635836   -1.145574    0.431103
  102          6             0       60.235496   -2.339854    0.909823
  103          6             0       59.227291   -3.198428    1.243444
  104          6             0       57.991350   -2.544968    0.978596
  105          7             0       58.290597   -1.310279    0.489407
  106          6             0       56.724657   -3.071101    1.190904
  107          6             0       55.496300   -2.470177    0.966077
  108          7             0       55.271351   -1.226795    0.478041
  109          1             0       54.153408   -4.133604    1.650199
  110          1             0       52.199554   -2.383860    1.001756
  111          1             0       52.241099    2.602229   -0.989533
  112          1             0       54.212138    4.297450   -1.612829
  113          1             0       55.900160    0.689294   -0.204312
  114          1             0       56.837222    4.183712   -1.560557
  115          1             0       59.379421    4.237134   -1.632530
  116          1             0       61.332827    2.479353   -1.004172
  117          1             0       61.291925   -2.502994    0.995459
  118          1             0       59.320873   -4.190688    1.640009
  119          1             0       57.632965   -0.591039    0.209137
  120          1             0       56.695449   -4.076859    1.587916
  121          6             0       65.268013   -3.342570   -0.613273
  122          6             0       64.294196   -2.424301   -0.458695
  123          6             0       64.969890   -1.160740   -0.229517
  124          6             0       64.290849    0.058184   -0.036389
  125          6             0       64.940433    1.288218    0.156827
  126          6             0       64.349327    2.558411    0.384280
  127          6             0       65.363973    3.458972    0.541553
  128          6             0       66.595050    2.756332    0.417731
  129          7             0       66.286921    1.451622    0.182110
  130          6             0       67.864825    3.304207    0.538300
  131          6             0       69.090536    2.664098    0.452733
  132          6             0       70.347755    3.368593    0.637876
  133          6             0       71.321351    2.448450    0.494280
  134          6             0       70.648186    1.193627    0.216500
  135          7             0       69.314071    1.350822    0.204613
  136          6             0       71.329802   -0.020002   -0.004972
  137          6             0       70.679280   -1.243105   -0.239438
  138          6             0       71.268550   -2.507059   -0.502142
  139          6             0       70.253501   -3.406626   -0.662217
  140          6             0       69.023240   -2.709325   -0.505774
  141          7             0       69.332733   -1.407640   -0.254600
  142          6             0       67.753454   -3.262805   -0.597422
  143          6             0       66.526943   -2.629266   -0.478877
  144          7             0       66.304673   -1.313105   -0.247342
  145          1             0       65.179709   -4.395285   -0.801742
  146          1             0       63.229793   -2.548736   -0.504427
  147          1             0       63.294178    2.743543    0.432297
  148          1             0       65.277721    4.511278    0.730882
  149          1             0       66.936949    0.683861    0.052216
  150          1             0       67.898445    4.367372    0.735056
  151          1             0       70.435076    4.416563    0.851545
  152          1             0       72.383815    2.566058    0.578401
  153          1             0       72.322763   -2.689444   -0.571577
  154          1             0       70.339055   -4.454940   -0.872744
  155          1             0       68.683190   -0.643490   -0.102821
  156          1             0       67.720320   -4.326080   -0.793692
  157          6             0       76.318823   -3.353636    0.763703
  158          6             0       75.345298   -2.437540    0.595088
  159          6             0       76.019716   -1.185431    0.308677
  160          6             0       75.340267    0.021354    0.047240
  161          6             0       75.994855    1.241438   -0.192122
  162          6             0       75.411581    2.501228   -0.485783
  163          6             0       76.429133    3.402451   -0.618755
  164          6             0       77.655125    2.709708   -0.416174
  165          7             0       77.340863    1.408540   -0.168633
  166          6             0       78.925099    3.269332   -0.450978
  167          6             0       80.149241    2.641022   -0.289642
  168          6             0       81.405552    3.370015   -0.324080
  169          6             0       82.379094    2.452914   -0.161471
  170          6             0       81.707219    1.173412   -0.036621
  171          7             0       80.373187    1.317647   -0.103065
  172          6             0       82.388848   -0.050447    0.121603
  173          6             0       81.734317   -1.283059    0.286435
  174          6             0       82.317911   -2.567554    0.436959
  175          6             0       81.299944   -3.464234    0.594548
  176          6             0       80.073039   -2.746546    0.535082
  177          7             0       80.387471   -1.436194    0.342055
  178          6             0       78.802359   -3.290746    0.664039
  179          6             0       77.577021   -2.649363    0.583933
  180          7             0       77.354249   -1.339063    0.320598
  181          1             0       76.230703   -4.398892    0.990048
  182          1             0       74.281902   -2.556068    0.666267
  183          1             0       74.359875    2.680229   -0.591713
  184          1             0       76.347865    4.448870   -0.840094
  185          1             0       77.986647    0.646211    0.006981
  186          1             0       78.960509    4.335698   -0.629487
  187          1             0       81.492470    4.432031   -0.451037
  188          1             0       83.440707    2.592859   -0.107807
  189          1             0       83.370385   -2.769417    0.413509
  190          1             0       81.381540   -4.524475    0.735283
  191          1             0       79.741533   -0.660089    0.244452
  192          1             0       78.767641   -4.356197    0.848039
  193          6             0       87.406470   -3.081901    1.642706
  194          6             0       86.426591   -2.241858    1.256327
  195          6             0       87.090162   -1.109352    0.638665
  196          6             0       86.399880   -0.010710    0.087808
  197          6             0       87.043319    1.103246   -0.477961
  198          6             0       86.445974    2.239520   -1.082785
  199          6             0       87.454329    3.070107   -1.480344
  200          6             0       88.689083    2.454718   -1.132935
  201          7             0       88.388523    1.269750   -0.533605
  202          6             0       89.954523    2.972552   -1.371899
  203          6             0       91.185566    2.402691   -1.089366
  204          6             0       92.439642    3.058689   -1.419208
  205          6             0       93.419489    2.219774   -1.029944
  206          6             0       92.752116    1.062041   -0.463940
  207          7             0       91.416188    1.199454   -0.511930
  208          6             0       93.438410   -0.058350    0.042569
  209          6             0       92.797607   -1.192872    0.565179
  210          6             0       93.398214   -2.354688    1.116972
  211          6             0       92.390295   -3.182067    1.522703
  212          6             0       91.153942   -2.541063    1.230268
  213          7             0       91.452302   -1.346619    0.649903
  214          6             0       89.888210   -3.038639    1.508417
  215          6             0       88.658341   -2.449807    1.262631
  216          7             0       88.425312   -1.256576    0.664148
  217          1             0       87.326571   -4.030704    2.137623
  218          1             0       85.365385   -2.336637    1.376142
  219          1             0       85.391166    2.384620   -1.206535
  220          1             0       87.361486    4.018635   -1.972512
  221          1             0       89.044225    0.584252   -0.174599
  222          1             0       89.979867    3.942517   -1.850087
  223          1             0       92.521007    4.021650   -1.885753
  224          1             0       94.482897    2.331447   -1.115405
  225          1             0       94.455024   -2.518056    1.198261
  226          1             0       92.484392   -4.145097    1.985656
  227          1             0       90.795560   -0.645206    0.325264
  228          1             0       89.861835   -4.008676    1.986413
 --------------------------------------------------------------------
     1 basis functions        1 primitive gaussians
     1 alpha electrons        1 beta electrons

 Harmonic frequencies (cm**-1), IR intensities (km*mol⁻¹),
 Raman scattering activities (A**4/amu), Raman depolarization ratios,
 reduced masses (AMU), force constants (mDyne/A) and normal coordinates:
                      1                      2                      3
                        a                      a                      a 
 Frequencies --    -3.2060                -2.5180                -1.8973
 Red. masses --    11.7991                11.7881                11.8944
 Frc consts  --     0.0000                 0.0000                 0.0000
 IR Inten    --    23.9049                 0.8057                 4.8863
 Raman Activ --     0.0000                 0.0000                 0.0000
 Depolar     --     0.0000                 0.0000                 0.0000
 Atom AN      X      Y      Z        X      Y      Z        X      Y      Z
   1   6     0.02   0.05   0.01    -0.06  -0.04  -0.02    -0.00   0.01  -0.07
   2   6     0.01   0.05   0.01    -0.05  -0.02  -0.01    -0.00   0.01  -0.06
   3   6     0.01   0.05   0.01    -0.02  -0.04  -0.01    -0.00   0.01  -0.07
   4   6    -0.00   0.05   0.01     0.00  -0.03  -0.00     0.00   0.01  -0.07
   5   6    -0.01   0.05   0.01     0.03  -0.04  -0.01     0.00   0.01  -0.08
   6   6    -0.02   0.05   0.01     0.05  -0.03  -0.00     0.00   0.01  -0.07
   7   6    -0.02   0.05   0.01     0.07  -0.04  -0.01     0.00   0.01  -0.08
   8   6    -0.02   0.06   0.01     0.05  -0.07  -0.02     0.00   0.02  -0.09
   9   7    -0.01   0.06   0.01     0.03  -0.07  -0.02     0.00   0.02  -0.10
  10   6    -0.02   0.07   0.01     0.07  -0.09  -0.03     0.00   0.02  -0.11
  11   6    -0.02   0.07   0.01     0.05  -0.11  -0.05     0.00   0.02  -0.12
  12   6    -0.02   0.08   0.02     0.07  -0.13  -0.05     0.01   0.02  -0.13
  13   6    -0.02   0.09   0.01     0.05  -0.15  -0.06     0.00   0.02  -0.14
  14   6    -0.01   0.08   0.01     0.03  -0.14  -0.06     0.00   0.02  -0.13
  15   7    -0.01   0.08   0.01     0.03  -0.12  -0.05     0.00   0.02  -0.13
  16   6    -0.00   0.09   0.01     0.00  -0.15  -0.06     0.00   0.02  -0.13
  17   6     0.01   0.08   0.01    -0.02  -0.14  -0.06     0.00   0.02  -0.13
  18   6     0.01   0.09   0.01    -0.05  -0.15  -0.06    -0.00   0.01  -0.13
  19   6     0.02   0.08   0.01    -0.06  -0.13  -0.06    -0.00   0.01  -0.11
  20   6     0.01   0.07   0.01    -0.05  -0.11  -0.05    -0.00   0.01  -0.11
  21   7     0.01   0.08   0.01    -0.03  -0.12  -0.05    -0.00   0.02  -0.12
  22   6     0.02   0.07   0.01    -0.06  -0.09  -0.04    -0.00   0.01  -0.09
  23   6     0.01   0.06   0.01    -0.05  -0.06  -0.03    -0.00   0.01  -0.08
  24   7     0.01   0.06   0.01    -0.03  -0.06  -0.03    -0.00   0.02  -0.09
  25   1     0.01   0.02   0.00    -0.02  -0.01  -0.01    -0.00   0.00  -0.02
  26   1     0.00   0.01   0.00    -0.01  -0.00   0.00    -0.00   0.00  -0.01
  27   1    -0.00   0.01   0.00     0.02  -0.00   0.00     0.00   0.00  -0.02
  28   1    -0.01   0.01   0.00     0.03  -0.01  -0.00     0.00   0.00  -0.02
  29   1    -0.00   0.02   0.00     0.00  -0.02  -0.01     0.00   0.00  -0.03
  30   1    -0.01   0.02   0.00     0.03  -0.03  -0.01     0.00   0.00  -0.03
  31   1    -0.01   0.02   0.00     0.03  -0.04  -0.02     0.00   0.01  -0.04
  32   1    -0.00   0.03   0.00     0.02  -0.05  -0.02     0.00   0.01  -0.04
  33   1    -0.00   0.03   0.00     0.00  -0.05  -0.02     0.00   0.00  -0.04
  34   1     0.00   0.03   0.00    -0.01  -0.05  -0.02    -0.00   0.00  -0.04
  35   1     0.01   0.02   0.00    -0.02  -0.04  -0.02    -0.00   0.00  -0.03
  36   1     0.00   0.02   0.00    -0.00  -0.03  -0.01     0.00   0.00  -0.03
  37   1     0.01   0.02   0.00    -0.02  -0.02  -0.01    -0.00   0.00  -0.03
  38   6     0.07   0.06   0.03     0.04  -0.02   0.01     0.00   0.01  -0.06
  39   6     0.05   0.04   0.02     0.03  -0.03   0.00     0.00   0.01  -0.06
  40   6     0.02   0.06   0.02     0.01  -0.02   0.01     0.00   0.01  -0.07
  41   6    -0.00   0.04   0.01    -0.00  -0.03   0.00    -0.00   0.01  -0.06
  42   6    -0.02   0.06   0.02    -0.01  -0.02   0.01    -0.00   0.01  -0.07
  43   6    -0.05   0.04   0.01    -0.03  -0.03   0.00    -0.01   0.01  -0.07
  44   6    -0.07   0.06   0.02    -0.04  -0.02   0.01    -0.01   0.02  -0.08
  45   6    -0.05   0.09   0.03    -0.03  -0.01   0.02    -0.01   0.02  -0.09
  46   7    -0.03   0.09   0.03    -0.02  -0.01   0.02    -0.00   0.02  -0.09
  47   6    -0.07   0.11   0.04    -0.03   0.00   0.03    -0.01   0.02  -0.10
  48   6    -0.05   0.13   0.06    -0.03   0.01   0.04    -0.01   0.03  -0.11
  49   6    -0.07   0.15   0.07    -0.03   0.02   0.05    -0.01   0.03  -0.12
  50   6    -0.05   0.17   0.07    -0.03   0.03   0.06    -0.01   0.03  -0.13
  51   6    -0.02   0.16   0.07    -0.01   0.03   0.05    -0.00   0.03  -0.12
  52   7    -0.03   0.15   0.06    -0.02   0.02   0.05    -0.00   0.03  -0.12
  53   6    -0.00   0.17   0.08    -0.00   0.03   0.06    -0.00   0.03  -0.12
  54   6     0.02   0.16   0.07     0.01   0.03   0.05    -0.00   0.03  -0.11
  55   6     0.05   0.17   0.08     0.03   0.03   0.06     0.00   0.03  -0.11
  56   6     0.07   0.15   0.07     0.04   0.02   0.05     0.00   0.03  -0.10
  57   6     0.05   0.13   0.06     0.03   0.01   0.04     0.00   0.02  -0.09
  58   7     0.03   0.15   0.07     0.02   0.02   0.05     0.00   0.03  -0.11
  59   6     0.07   0.11   0.05     0.03   0.00   0.03     0.00   0.02  -0.08
  60   6     0.05   0.08   0.04     0.03  -0.01   0.02     0.00   0.02  -0.07
  61   7     0.03   0.09   0.04     0.02  -0.01   0.02     0.00   0.02  -0.08
  62   1     0.03   0.02   0.01     0.01  -0.01   0.00     0.00   0.00  -0.02
  63   1     0.02   0.01   0.00     0.01  -0.01  -0.00     0.00   0.00  -0.01
  64   1    -0.02   0.01   0.00    -0.01  -0.01  -0.00    -0.00   0.00  -0.02
  65   1    -0.03   0.02   0.01    -0.01  -0.01   0.00    -0.00   0.00  -0.02
  66   1    -0.00   0.03   0.01    -0.00  -0.00   0.01    -0.00   0.01  -0.03
  67   1    -0.03   0.03   0.01    -0.01   0.00   0.01    -0.00   0.01  -0.03
  68   1    -0.03   0.05   0.02    -0.01   0.01   0.01    -0.00   0.01  -0.04
  69   1    -0.01   0.06   0.02    -0.01   0.01   0.02    -0.00   0.01  -0.04
  70   1    -0.00   0.06   0.02    -0.00   0.01   0.02    -0.00   0.01  -0.04
  71   1     0.02   0.06   0.02     0.01   0.01   0.02     0.00   0.01  -0.03
  72   1     0.03   0.05   0.02     0.01   0.01   0.01     0.00   0.01  -0.03
  73   1     0.00   0.04   0.02     0.00   0.00   0.01    -0.00   0.01  -0.03
  74   1     0.03   0.03   0.01     0.01  -0.00   0.01     0.00   0.01  -0.02
  75   6    -0.00   0.04   0.01     0.00  -0.00   0.01     0.00   0.01  -0.05
  76   6    -0.00   0.03   0.01     0.00   0.02   0.02     0.00   0.01  -0.04
  77   6     0.00  -0.02   0.01    -0.00   0.10   0.05     0.00  -0.00   0.06
  78   6     0.00  -0.02   0.01    -0.00   0.10   0.04     0.00  -0.01   0.07
  79   6     0.00  -0.06  -0.00    -0.00   0.05   0.00     0.00  -0.02   0.10
  80   6     0.00  -0.06  -0.01    -0.00   0.04  -0.00     0.00  -0.02   0.10
  81   6     0.00  -0.08  -0.04    -0.00  -0.04  -0.04     0.00  -0.01   0.05
  82   6     0.00  -0.08  -0.04    -0.00  -0.05  -0.04    -0.00  -0.01   0.04
  83   6    -0.00  -0.00  -0.01    -0.00  -0.05  -0.02    -0.00   0.01  -0.04
  84   6    -0.00   0.02  -0.00    -0.00  -0.04  -0.01    -0.00   0.01  -0.05
  85   6    -0.02   0.02   0.01     0.02   0.04   0.04    -0.02   0.01  -0.02
  86   6    -0.01   0.03   0.01     0.02   0.03   0.04    -0.01   0.01  -0.03
  87   6    -0.01   0.02   0.01     0.01   0.04   0.04    -0.01   0.01  -0.02
  88   6    -0.00   0.02   0.01     0.00   0.03   0.04     0.00   0.01  -0.02
  89   6     0.01   0.02   0.00    -0.01   0.04   0.04     0.01   0.01  -0.01
  90   6     0.01   0.02   0.00    -0.02   0.04   0.04     0.01   0.01  -0.02
  91   6     0.02   0.02   0.00    -0.02   0.05   0.05     0.02   0.01  -0.00
  92   6     0.01   0.01   0.00    -0.02   0.06   0.05     0.01   0.01   0.01
  93   7     0.01   0.01   0.00    -0.01   0.06   0.05     0.01   0.01   0.00
  94   6     0.02   0.00   0.00    -0.02   0.07   0.06     0.02   0.01   0.02
  95   6     0.01  -0.00   0.00    -0.02   0.08   0.06     0.01   0.00   0.03
  96   6     0.02  -0.01   0.00    -0.02   0.09   0.06     0.02   0.00   0.04
  97   6     0.01  -0.01   0.00    -0.02   0.09   0.06     0.01   0.00   0.05
  98   6     0.01  -0.01   0.00    -0.01   0.09   0.06     0.01   0.00   0.04
  99   7     0.01  -0.00   0.00    -0.01   0.08   0.06     0.01   0.00   0.03
 100   6     0.00  -0.01   0.01    -0.00   0.09   0.05     0.00  -0.00   0.05
 101   6    -0.01  -0.01   0.01     0.01   0.09   0.06    -0.01  -0.00   0.04
 102   6    -0.01  -0.01   0.01     0.02   0.09   0.06    -0.01  -0.00   0.04
 103   6    -0.02  -0.00   0.01     0.02   0.09   0.06    -0.02  -0.00   0.03
 104   6    -0.01   0.00   0.01     0.02   0.08   0.06    -0.01   0.00   0.02
 105   7    -0.01  -0.00   0.01     0.01   0.08   0.06    -0.01   0.00   0.03
 106   6    -0.02   0.01   0.01     0.02   0.07   0.06    -0.02   0.00   0.01
 107   6    -0.01   0.01   0.01     0.02   0.06   0.05    -0.01   0.00  -0.01
 108   7    -0.01   0.02   0.01     0.01   0.06   0.05    -0.01   0.01  -0.01
 109   1    -0.01   0.01   0.00     0.01   0.01   0.01    -0.01   0.00  -0.01
 110   1    -0.00   0.01   0.00     0.01   0.01   0.01    -0.00   0.00  -0.01
 111   1     0.00   0.01   0.00    -0.01   0.01   0.01     0.00   0.00  -0.01
 112   1     0.01   0.00  -0.00    -0.01   0.01   0.01     0.01   0.00  -0.00
 113   1     0.00   0.00   0.00    -0.00   0.02   0.01     0.00   0.00   0.00
 114   1     0.01   0.00   0.00    -0.01   0.02   0.02     0.01   0.00   0.01
 115   1     0.01  -0.00   0.00    -0.01   0.03   0.02     0.01   0.00   0.01
 116   1     0.00  -0.00   0.00    -0.00   0.03   0.02     0.00  -0.00   0.02
 117   1    -0.00  -0.00   0.00     0.01   0.03   0.02    -0.00  -0.00   0.01
 118   1    -0.01  -0.00   0.00     0.01   0.03   0.02    -0.01  -0.00   0.01
 119   1    -0.00   0.00   0.00     0.00   0.02   0.02    -0.00   0.00   0.01
 120   1    -0.01   0.00   0.00     0.01   0.02   0.02    -0.01   0.00   0.00
 121   6    -0.01  -0.03   0.01    -0.02   0.09   0.02    -0.00  -0.01   0.08
 122   6    -0.01  -0.03   0.01    -0.01   0.09   0.03    -0.00  -0.01   0.08
 123   6    -0.00  -0.03   0.01    -0.01   0.09   0.03    -0.00  -0.01   0.08
 124   6     0.00  -0.03   0.01    -0.00   0.09   0.03     0.00  -0.01   0.08
 125   6     0.01  -0.03   0.01     0.01   0.09   0.03     0.00  -0.01   0.08
 126   6     0.01  -0.03   0.00     0.01   0.09   0.03     0.00  -0.01   0.08
 127   6     0.01  -0.03   0.00     0.02   0.09   0.02     0.00  -0.01   0.08
 128   6     0.01  -0.04   0.00     0.01   0.08   0.02     0.00  -0.01   0.09
 129   7     0.01  -0.04   0.01     0.01   0.09   0.03     0.00  -0.02   0.10
 130   6     0.01  -0.04   0.00     0.02   0.08   0.02     0.00  -0.02   0.10
 131   6     0.01  -0.05   0.00     0.01   0.07   0.01     0.00  -0.02   0.10
 132   6     0.01  -0.05  -0.00     0.02   0.06   0.01     0.00  -0.02   0.10
 133   6     0.01  -0.06  -0.00     0.01   0.06   0.00     0.00  -0.02   0.10
 134   6     0.01  -0.05   0.00     0.01   0.06   0.01     0.00  -0.02   0.10
 135   7     0.01  -0.05   0.00     0.01   0.07   0.01     0.00  -0.02   0.11
 136   6     0.00  -0.06   0.00    -0.00   0.06   0.01     0.00  -0.02   0.10
 137   6    -0.00  -0.05   0.00    -0.01   0.06   0.01    -0.00  -0.02   0.10
 138   6    -0.01  -0.06   0.01    -0.01   0.06   0.00    -0.00  -0.02   0.10
 139   6    -0.01  -0.05   0.01    -0.02   0.07   0.01    -0.00  -0.02   0.10
 140   6    -0.01  -0.05   0.01    -0.02   0.07   0.01    -0.00  -0.02   0.09
 141   7    -0.01  -0.05   0.01    -0.01   0.07   0.01    -0.00  -0.02   0.10
 142   6    -0.01  -0.04   0.01    -0.02   0.08   0.01    -0.00  -0.02   0.09
 143   6    -0.01  -0.04   0.01    -0.01   0.08   0.02    -0.00  -0.01   0.09
 144   7    -0.01  -0.04   0.01    -0.01   0.09   0.02     0.00  -0.01   0.09
 145   1    -0.01  -0.01   0.00    -0.01   0.03   0.01    -0.00  -0.00   0.02
 146   1    -0.00  -0.01   0.00    -0.00   0.03   0.01    -0.00  -0.00   0.02
 147   1     0.00  -0.01   0.00     0.00   0.03   0.01     0.00  -0.00   0.02
 148   1     0.01  -0.01   0.00     0.01   0.03   0.01     0.00  -0.00   0.02
 149   1     0.00  -0.01   0.00     0.00   0.02   0.01     0.00  -0.00   0.03
 150   1     0.01  -0.01   0.00     0.01   0.02   0.00     0.00  -0.00   0.03
 151   1     0.01  -0.02  -0.00     0.01   0.02   0.00     0.00  -0.01   0.03
 152   1     0.00  -0.02  -0.00     0.00   0.02  -0.00     0.00  -0.01   0.03
 153   1    -0.00  -0.02   0.00    -0.00   0.02  -0.00    -0.00  -0.01   0.03
 154   1    -0.01  -0.02   0.00    -0.01   0.02   0.00    -0.00  -0.01   0.03
 155   1    -0.00  -0.01   0.00    -0.00   0.02   0.00    -0.00  -0.01   0.03
 156   1    -0.00  -0.01   0.00    -0.01   0.02   0.00    -0.00  -0.00   0.03
 157   6    -0.00  -0.07  -0.01    -0.03   0.02  -0.01     0.00  -0.02   0.10
 158   6    -0.00  -0.07  -0.01    -0.02   0.03  -0.00     0.00  -0.02   0.10
 159   6    -0.00  -0.07  -0.01    -0.01   0.03  -0.01     0.00  -0.02   0.09
 160   6     0.00  -0.07  -0.01    -0.00   0.03  -0.00     0.00  -0.02   0.09
 161   6     0.00  -0.07  -0.01     0.01   0.03  -0.00    -0.00  -0.02   0.09
 162   6     0.01  -0.07  -0.01     0.02   0.03  -0.00    -0.00  -0.02   0.09
 163   6     0.01  -0.07  -0.01     0.03   0.02  -0.00    -0.01  -0.02   0.08
 164   6     0.01  -0.07  -0.02     0.02   0.01  -0.01    -0.00  -0.02   0.08
 165   7     0.00  -0.08  -0.02     0.01   0.01  -0.01    -0.00  -0.02   0.09
 166   6     0.01  -0.08  -0.02     0.03   0.00  -0.01    -0.00  -0.02   0.08
 167   6     0.01  -0.08  -0.02     0.02  -0.01  -0.02    -0.00  -0.02   0.07
 168   6     0.01  -0.08  -0.02     0.03  -0.02  -0.02    -0.00  -0.02   0.07
 169   6     0.01  -0.08  -0.03     0.02  -0.03  -0.03    -0.00  -0.02   0.06
 170   6     0.00  -0.08  -0.03     0.01  -0.02  -0.03    -0.00  -0.02   0.07
 171   7     0.00  -0.08  -0.03     0.01  -0.01  -0.02    -0.00  -0.02   0.08
 172   6     0.00  -0.08  -0.03    -0.00  -0.03  -0.03     0.00  -0.02   0.06
 173   6    -0.00  -0.08  -0.03    -0.01  -0.02  -0.03     0.00  -0.02   0.07
 174   6    -0.00  -0.08  -0.03    -0.02  -0.03  -0.03     0.00  -0.02   0.07
 175   6    -0.00  -0.08  -0.02    -0.03  -0.02  -0.02     0.00  -0.02   0.07
 176   6    -0.00  -0.08  -0.02    -0.02  -0.01  -0.02     0.00  -0.02   0.08
 177   7    -0.00  -0.08  -0.03    -0.01  -0.01  -0.02     0.00  -0.02   0.08
 178   6    -0.00  -0.08  -0.02    -0.03   0.00  -0.01     0.00  -0.02   0.09
 179   6    -0.00  -0.07  -0.01    -0.02   0.01  -0.01     0.00  -0.02   0.09
 180   7    -0.00  -0.08  -0.01    -0.01   0.01  -0.01     0.00  -0.02   0.10
 181   1    -0.00  -0.02  -0.00    -0.01   0.01  -0.00     0.00  -0.01   0.03
 182   1    -0.00  -0.02  -0.00    -0.01   0.01   0.00     0.00  -0.01   0.03
 183   1     0.00  -0.02  -0.00     0.01   0.01   0.00    -0.00  -0.01   0.03
 184   1     0.00  -0.02  -0.00     0.01   0.01  -0.00    -0.00  -0.01   0.02
 185   1     0.00  -0.02  -0.00     0.00   0.00  -0.00     0.00  -0.00   0.02
 186   1     0.00  -0.02  -0.00     0.01   0.00  -0.00    -0.00  -0.01   0.02
 187   1     0.00  -0.02  -0.01     0.01  -0.01  -0.01    -0.00  -0.00   0.02
 188   1     0.00  -0.02  -0.01     0.01  -0.01  -0.01    -0.00  -0.00   0.02
 189   1    -0.00  -0.02  -0.01    -0.01  -0.01  -0.01     0.00  -0.00   0.02
 190   1    -0.00  -0.02  -0.01    -0.01  -0.01  -0.01     0.00  -0.00   0.02
 191   1     0.00  -0.02  -0.01    -0.00  -0.00  -0.01     0.00  -0.00   0.02
 192   1    -0.00  -0.02  -0.00    -0.01   0.00  -0.00     0.00  -0.00   0.03
 193   6     0.02  -0.07  -0.05    -0.01  -0.06  -0.06     0.02  -0.01   0.02
 194   6     0.01  -0.08  -0.05    -0.00  -0.06  -0.05     0.01  -0.01   0.03
 195   6     0.01  -0.08  -0.05    -0.00  -0.06  -0.05     0.01  -0.01   0.03
 196   6     0.00  -0.08  -0.05    -0.00  -0.06  -0.05    -0.00  -0.01   0.03
 197   6    -0.01  -0.08  -0.05     0.00  -0.06  -0.05    -0.01  -0.01   0.02
 198   6    -0.02  -0.08  -0.06     0.00  -0.06  -0.06    -0.01  -0.01   0.03
 199   6    -0.02  -0.08  -0.06     0.00  -0.06  -0.06    -0.02  -0.01   0.02
 200   6    -0.02  -0.07  -0.06     0.00  -0.06  -0.05    -0.02  -0.01   0.01
 201   7    -0.01  -0.07  -0.06     0.00  -0.07  -0.06    -0.01  -0.01   0.01
 202   6    -0.02  -0.06  -0.05     0.00  -0.06  -0.05    -0.02  -0.01  -0.01
 203   6    -0.02  -0.04  -0.04     0.00  -0.06  -0.05    -0.02  -0.00  -0.02
 204   6    -0.02  -0.03  -0.04     0.00  -0.06  -0.04    -0.02  -0.00  -0.03
 205   6    -0.02  -0.02  -0.03     0.00  -0.06  -0.04    -0.01   0.00  -0.03
 206   6    -0.01  -0.03  -0.03    -0.00  -0.06  -0.04    -0.01  -0.00  -0.03
 207   7    -0.01  -0.04  -0.04    -0.00  -0.06  -0.05    -0.01  -0.00  -0.02
 208   6    -0.00  -0.02  -0.03    -0.00  -0.06  -0.03    -0.00   0.00  -0.03
 209   6     0.01  -0.03  -0.03    -0.00  -0.06  -0.04     0.01   0.00  -0.02
 210   6     0.02  -0.02  -0.03    -0.00  -0.06  -0.04     0.01   0.00  -0.03
 211   6     0.02  -0.03  -0.04    -0.00  -0.06  -0.04     0.02   0.00  -0.02
 212   6     0.02  -0.04  -0.05    -0.00  -0.06  -0.05     0.01  -0.00  -0.01
 213   7     0.01  -0.04  -0.05    -0.00  -0.07  -0.05     0.01  -0.00  -0.01
 214   6     0.02  -0.06  -0.05    -0.00  -0.06  -0.05     0.02  -0.00   0.00
 215   6     0.02  -0.06  -0.05    -0.00  -0.06  -0.05     0.01  -0.01   0.01
 216   7     0.01  -0.07  -0.05    -0.00  -0.07  -0.06     0.01  -0.01   0.02
 217   1     0.01  -0.02  -0.02    -0.00  -0.02  -0.02     0.01  -0.00   0.01
 218   1     0.00  -0.03  -0.02    -0.00  -0.02  -0.02     0.00  -0.00   0.01
 219   1    -0.00  -0.03  -0.02     0.00  -0.02  -0.02    -0.00  -0.00   0.01
 220   1    -0.01  -0.02  -0.02     0.00  -0.02  -0.02    -0.01  -0.00   0.00
 221   1    -0.00  -0.02  -0.01     0.00  -0.02  -0.01    -0.00  -0.00   0.00
 222   1    -0.01  -0.02  -0.02     0.00  -0.02  -0.02    -0.01  -0.00  -0.00
 223   1    -0.01  -0.01  -0.01     0.00  -0.02  -0.01    -0.01  -0.00  -0.01
 224   1    -0.01  -0.00  -0.01     0.00  -0.02  -0.01    -0.00   0.00  -0.01
 225   1     0.01  -0.00  -0.01    -0.00  -0.02  -0.01     0.00   0.00  -0.01
 226   1     0.01  -0.01  -0.01    -0.00  -0.02  -0.01     0.01   0.00  -0.00
 227   1     0.00  -0.01  -0.01    -0.00  -0.02  -0.01     0.00  -0.00  -0.00
 228   1     0.01  -0.02  -0.02    -0.00  -0.02  -0.02     0.01  -0.00   0.00
                      4                      5                      6
                        a                      a                      a 
 Frequencies --     2.9661                 4.6842                 7.5411
 Red. masses --    11.8304                11.7877                11.5486
 Frc consts  --     0.0000                 0.0000                 0.0000
 IR Inten    --     8.4642                 1.7242                 1.4312
 Raman Activ --     0.0000                 0.0000                 0.0000
 Depolar     --     0.0000                 0.0000                 0.0000
 Atom AN      X      Y      Z        X      Y      Z        X      Y      Z
   1   6     0.00  -0.01   0.01     0.05  -0.02  -0.01     0.05  -0.04   0.13
   2   6     0.00  -0.01  -0.00     0.03  -0.04  -0.02     0.03  -0.05   0.12
   3   6     0.00  -0.01   0.01     0.02  -0.03  -0.02     0.02  -0.03   0.07
   4   6     0.00  -0.01   0.00    -0.00  -0.04  -0.02     0.00  -0.04   0.05
   5   6     0.00  -0.01   0.01    -0.02  -0.03  -0.02    -0.02  -0.02   0.02
   6   6     0.00  -0.01   0.00    -0.04  -0.04  -0.02    -0.03  -0.03   0.00
   7   6     0.00  -0.01   0.02    -0.05  -0.02  -0.01    -0.04  -0.01  -0.04
   8   6     0.00  -0.02   0.04    -0.04  -0.01   0.00    -0.04   0.01  -0.05
   9   7     0.00  -0.02   0.03    -0.02  -0.01  -0.00    -0.02   0.00  -0.02
  10   6     0.00  -0.02   0.06    -0.05   0.01   0.01    -0.04   0.04  -0.10
  11   6     0.00  -0.03   0.08    -0.04   0.03   0.02    -0.03   0.06  -0.12
  12   6     0.00  -0.03   0.10    -0.05   0.04   0.03    -0.04   0.08  -0.17
  13   6     0.00  -0.03   0.11    -0.04   0.06   0.04    -0.03   0.10  -0.17
  14   6     0.00  -0.03   0.10    -0.02   0.05   0.03    -0.01   0.08  -0.13
  15   7     0.00  -0.03   0.08    -0.02   0.03   0.02    -0.02   0.06  -0.10
  16   6    -0.00  -0.03   0.11    -0.00   0.06   0.04     0.00   0.09  -0.12
  17   6    -0.00  -0.03   0.10     0.01   0.05   0.03     0.02   0.07  -0.07
  18   6    -0.00  -0.03   0.10     0.03   0.06   0.04     0.04   0.08  -0.05
  19   6    -0.00  -0.03   0.08     0.05   0.04   0.03     0.05   0.05   0.00
  20   6    -0.00  -0.02   0.07     0.04   0.03   0.02     0.04   0.03   0.02
  21   7    -0.00  -0.03   0.08     0.02   0.03   0.02     0.02   0.05  -0.03
  22   6    -0.00  -0.02   0.05     0.05   0.01   0.01     0.05   0.01   0.07
  23   6     0.00  -0.02   0.03     0.04  -0.01  -0.00     0.04  -0.01   0.08
  24   7     0.00  -0.02   0.03     0.02  -0.01  -0.00     0.02  -0.01   0.05
  25   1     0.00  -0.00   0.00     0.02  -0.01  -0.00     0.02  -0.01   0.05
  26   1     0.00  -0.00  -0.01     0.01  -0.01  -0.01     0.01  -0.02   0.04
  27   1     0.00  -0.00  -0.00    -0.01  -0.01  -0.01    -0.01  -0.01   0.01
  28   1     0.00  -0.00   0.00    -0.02  -0.01  -0.00    -0.02  -0.00  -0.02
  29   1     0.00  -0.01   0.01    -0.00   0.00   0.00    -0.00   0.00  -0.01
  30   1     0.00  -0.01   0.02    -0.02   0.00   0.00    -0.02   0.01  -0.03
  31   1     0.00  -0.01   0.03    -0.02   0.01   0.01    -0.02   0.03  -0.06
  32   1     0.00  -0.01   0.04    -0.01   0.02   0.01    -0.01   0.03  -0.06
  33   1    -0.00  -0.01   0.04    -0.00   0.02   0.01     0.00   0.03  -0.04
  34   1    -0.00  -0.01   0.03     0.01   0.02   0.01     0.01   0.03  -0.02
  35   1    -0.00  -0.01   0.02     0.02   0.01   0.01     0.02   0.01   0.01
  36   1     0.00  -0.01   0.02     0.00   0.01   0.00     0.00   0.01  -0.01
  37   1    -0.00  -0.01   0.01     0.02   0.00   0.00     0.02   0.00   0.03
  38   6     0.04  -0.00  -0.02     0.02  -0.03  -0.03     0.04  -0.04   0.11
  39   6     0.03  -0.01  -0.01     0.01  -0.03  -0.04     0.03  -0.05   0.09
  40   6     0.01  -0.01  -0.02     0.01  -0.03  -0.03     0.01  -0.03   0.05
  41   6    -0.00  -0.01  -0.02     0.00  -0.03  -0.04    -0.00  -0.04   0.03
  42   6    -0.02  -0.01  -0.02    -0.00  -0.03  -0.02    -0.02  -0.02  -0.00
  43   6    -0.03  -0.01  -0.01    -0.01  -0.03  -0.03    -0.03  -0.03  -0.02
  44   6    -0.04  -0.00  -0.02    -0.01  -0.03  -0.01    -0.04  -0.01  -0.05
  45   6    -0.03   0.01  -0.03    -0.01  -0.03   0.02    -0.03   0.00  -0.05
  46   7    -0.02   0.01  -0.03    -0.00  -0.03   0.01    -0.02  -0.01  -0.03
  47   6    -0.04   0.03  -0.05    -0.01  -0.02   0.05    -0.04   0.02  -0.08
  48   6    -0.03   0.05  -0.06    -0.01  -0.02   0.08    -0.03   0.04  -0.09
  49   6    -0.04   0.06  -0.07    -0.01  -0.02   0.11    -0.04   0.06  -0.12
  50   6    -0.03   0.07  -0.08    -0.01  -0.02   0.13    -0.03   0.07  -0.12
  51   6    -0.02   0.06  -0.07    -0.00  -0.02   0.11    -0.02   0.05  -0.08
  52   7    -0.02   0.05  -0.06    -0.00  -0.02   0.09    -0.02   0.04  -0.07
  53   6    -0.00   0.07  -0.07     0.00  -0.02   0.13    -0.00   0.06  -0.06
  54   6     0.01   0.06  -0.07     0.01  -0.02   0.11     0.01   0.05  -0.02
  55   6     0.02   0.07  -0.07     0.01  -0.02   0.12     0.03   0.05   0.00
  56   6     0.04   0.06  -0.06     0.02  -0.02   0.09     0.04   0.03   0.04
  57   6     0.03   0.04  -0.05     0.01  -0.02   0.06     0.03   0.02   0.04
  58   7     0.01   0.05  -0.06     0.01  -0.02   0.08     0.02   0.03   0.01
  59   6     0.03   0.03  -0.04     0.02  -0.02   0.03     0.04  -0.00   0.08
  60   6     0.03   0.01  -0.03     0.01  -0.02   0.00     0.03  -0.02   0.07
  61   7     0.01   0.01  -0.03     0.01  -0.03   0.00     0.02  -0.02   0.05
  62   1     0.01  -0.00  -0.00     0.01  -0.01  -0.01     0.01  -0.01   0.04
  63   1     0.01  -0.01  -0.00     0.00  -0.01  -0.02     0.01  -0.02   0.03
  64   1    -0.01  -0.01  -0.00    -0.00  -0.01  -0.02    -0.01  -0.01  -0.00
  65   1    -0.02  -0.00  -0.01    -0.01  -0.01  -0.00    -0.02  -0.00  -0.02
  66   1    -0.00   0.01  -0.01    -0.00  -0.01   0.01    -0.00   0.00  -0.00
  67   1    -0.02   0.01  -0.01    -0.01  -0.01   0.01    -0.02   0.01  -0.03
  68   1    -0.02   0.02  -0.02    -0.01  -0.01   0.03    -0.02   0.02  -0.04
  69   1    -0.01   0.03  -0.03    -0.00  -0.01   0.05    -0.01   0.02  -0.04
  70   1    -0.00   0.02  -0.02     0.00  -0.01   0.04    -0.00   0.02  -0.02
  71   1     0.01   0.02  -0.02     0.00  -0.00   0.04     0.01   0.02  -0.00
  72   1     0.01   0.02  -0.02     0.01  -0.01   0.03     0.01   0.01   0.02
  73   1     0.00   0.01  -0.01     0.00  -0.01   0.02     0.00   0.01  -0.00
  74   1     0.01   0.01  -0.01     0.01  -0.01   0.01     0.01  -0.00   0.03
  75   6     0.00  -0.01  -0.02    -0.00  -0.05  -0.04     0.00  -0.06   0.07
  76   6     0.00  -0.00  -0.04    -0.00  -0.06  -0.05     0.00  -0.07   0.07
  77   6     0.00   0.04  -0.10     0.00  -0.04  -0.00     0.00  -0.04   0.03
  78   6     0.00   0.04  -0.10     0.00  -0.03   0.01     0.00  -0.03   0.01
  79   6     0.00   0.04   0.02    -0.00   0.08   0.08     0.00   0.07  -0.06
  80   6     0.00   0.03   0.04    -0.00   0.09   0.08     0.00   0.07  -0.05
  81   6    -0.00  -0.05   0.09    -0.00   0.03  -0.04    -0.00   0.00   0.02
  82   6    -0.00  -0.06   0.08     0.00   0.02  -0.06    -0.00  -0.01   0.02
  83   6    -0.00  -0.04   0.00     0.00  -0.03  -0.08    -0.00  -0.06   0.03
  84   6    -0.00  -0.03  -0.01     0.00  -0.03  -0.06    -0.00  -0.05   0.03
  85   6     0.02   0.00  -0.06     0.00  -0.07  -0.06     0.02  -0.08   0.01
  86   6     0.02   0.00  -0.05     0.00  -0.07  -0.06     0.01  -0.08   0.03
  87   6     0.01   0.00  -0.06    -0.00  -0.07  -0.06     0.01  -0.07   0.05
  88   6     0.00   0.00  -0.05    -0.00  -0.07  -0.05     0.00  -0.07   0.07
  89   6    -0.01   0.00  -0.06    -0.00  -0.07  -0.06    -0.00  -0.06   0.09
  90   6    -0.01  -0.00  -0.05    -0.00  -0.07  -0.06    -0.01  -0.05   0.11
  91   6    -0.02   0.00  -0.06    -0.00  -0.07  -0.06    -0.02  -0.05   0.11
  92   6    -0.02   0.01  -0.07    -0.00  -0.07  -0.06    -0.01  -0.04   0.10
  93   7    -0.01   0.01  -0.08    -0.00  -0.07  -0.06    -0.01  -0.06   0.09
  94   6    -0.02   0.01  -0.08    -0.00  -0.06  -0.06    -0.01  -0.04   0.10
  95   6    -0.01   0.02  -0.09    -0.00  -0.06  -0.04    -0.01  -0.04   0.09
  96   6    -0.02   0.02  -0.09    -0.00  -0.05  -0.04    -0.02  -0.03   0.08
  97   6    -0.01   0.03  -0.10    -0.00  -0.05  -0.02    -0.01  -0.03   0.07
  98   6    -0.01   0.03  -0.09    -0.00  -0.05  -0.03    -0.01  -0.04   0.06
  99   7    -0.01   0.02  -0.10    -0.00  -0.06  -0.04    -0.01  -0.05   0.07
 100   6     0.00   0.03  -0.10     0.00  -0.05  -0.02     0.00  -0.04   0.04
 101   6     0.01   0.03  -0.09     0.00  -0.05  -0.03     0.01  -0.05   0.03
 102   6     0.02   0.03  -0.10     0.00  -0.05  -0.02     0.01  -0.06   0.00
 103   6     0.02   0.02  -0.09     0.00  -0.06  -0.04     0.02  -0.06  -0.00
 104   6     0.02   0.02  -0.09     0.00  -0.06  -0.05     0.01  -0.06   0.01
 105   7     0.01   0.02  -0.10     0.00  -0.06  -0.04     0.01  -0.06   0.03
 106   6     0.02   0.01  -0.08     0.00  -0.06  -0.06     0.02  -0.07   0.01
 107   6     0.02   0.01  -0.07     0.00  -0.07  -0.06     0.01  -0.07   0.02
 108   7     0.01   0.01  -0.07    -0.00  -0.07  -0.06     0.01  -0.07   0.05
 109   1     0.01   0.00  -0.02     0.00  -0.02  -0.02     0.01  -0.03  -0.00
 110   1     0.01  -0.00  -0.01     0.00  -0.02  -0.02     0.00  -0.03   0.01
 111   1    -0.00  -0.00  -0.01    -0.00  -0.02  -0.02    -0.00  -0.02   0.03
 112   1    -0.01   0.00  -0.02    -0.00  -0.02  -0.02    -0.01  -0.01   0.04
 113   1    -0.00   0.00  -0.02    -0.00  -0.02  -0.02    -0.00  -0.02   0.02
 114   1    -0.01   0.00  -0.02    -0.00  -0.02  -0.02    -0.01  -0.01   0.03
 115   1    -0.01   0.01  -0.03    -0.00  -0.02  -0.01    -0.01  -0.01   0.03
 116   1    -0.00   0.01  -0.03    -0.00  -0.01  -0.00    -0.00  -0.01   0.02
 117   1     0.01   0.01  -0.03     0.00  -0.01  -0.00     0.00  -0.02  -0.00
 118   1     0.01   0.01  -0.03     0.00  -0.02  -0.01     0.01  -0.02  -0.01
 119   1     0.00   0.00  -0.02     0.00  -0.02  -0.01     0.00  -0.02   0.01
 120   1     0.01   0.00  -0.02     0.00  -0.02  -0.02     0.01  -0.02  -0.00
 121   6     0.01   0.05  -0.09     0.04  -0.00   0.05     0.03   0.00  -0.04
 122   6     0.01   0.04  -0.10     0.03  -0.01   0.04     0.02  -0.01  -0.02
 123   6     0.00   0.04  -0.09     0.02  -0.00   0.04     0.01  -0.00  -0.02
 124   6     0.00   0.04  -0.09     0.00  -0.01   0.03     0.00  -0.01  -0.00
 125   6    -0.00   0.04  -0.09    -0.01  -0.00   0.03    -0.01  -0.00  -0.00
 126   6    -0.00   0.04  -0.09    -0.03  -0.01   0.03    -0.02  -0.01   0.01
 127   6    -0.00   0.04  -0.08    -0.04   0.00   0.04    -0.03  -0.00  -0.00
 128   6    -0.00   0.04  -0.07    -0.03   0.01   0.05    -0.02   0.01  -0.02
 129   7    -0.00   0.05  -0.08    -0.02   0.01   0.05    -0.01   0.01  -0.03
 130   6    -0.00   0.04  -0.06    -0.04   0.03   0.05    -0.03   0.03  -0.04
 131   6    -0.00   0.04  -0.04    -0.03   0.04   0.06    -0.02   0.04  -0.06
 132   6    -0.00   0.04  -0.02    -0.04   0.06   0.06    -0.03   0.06  -0.07
 133   6    -0.00   0.04  -0.01    -0.03   0.07   0.07    -0.02   0.06  -0.07
 134   6    -0.00   0.04  -0.02    -0.01   0.06   0.07    -0.01   0.06  -0.07
 135   7    -0.00   0.05  -0.04    -0.02   0.05   0.07    -0.01   0.05  -0.06
 136   6     0.00   0.04  -0.01     0.00   0.07   0.07     0.00   0.06  -0.07
 137   6     0.00   0.04  -0.02     0.01   0.06   0.07     0.01   0.06  -0.07
 138   6     0.01   0.04  -0.01     0.03   0.07   0.07     0.02   0.07  -0.08
 139   6     0.01   0.04  -0.03     0.04   0.05   0.07     0.03   0.06  -0.08
 140   6     0.01   0.04  -0.05     0.03   0.04   0.07     0.02   0.04  -0.07
 141   7     0.00   0.05  -0.04     0.02   0.05   0.07     0.01   0.05  -0.07
 142   6     0.01   0.04  -0.06     0.04   0.02   0.06     0.03   0.03  -0.06
 143   6     0.01   0.04  -0.08     0.03   0.01   0.05     0.02   0.02  -0.05
 144   7     0.00   0.05  -0.08     0.02   0.01   0.05     0.01   0.01  -0.04
 145   1     0.00   0.01  -0.03     0.02  -0.00   0.01     0.01   0.00  -0.01
 146   1     0.00   0.01  -0.03     0.01  -0.01   0.01     0.01  -0.01  -0.00
 147   1    -0.00   0.01  -0.03    -0.01  -0.01   0.01    -0.01  -0.01   0.01
 148   1    -0.00   0.01  -0.02    -0.02   0.00   0.01    -0.01  -0.00   0.00
 149   1     0.00   0.01  -0.02    -0.00   0.00   0.01    -0.00   0.01  -0.01
 150   1    -0.00   0.01  -0.02    -0.01   0.01   0.02    -0.01   0.01  -0.01
 151   1    -0.00   0.01  -0.01    -0.01   0.02   0.02    -0.01   0.02  -0.02
 152   1    -0.00   0.01   0.00    -0.01   0.02   0.02    -0.01   0.02  -0.02
 153   1     0.00   0.01   0.00     0.01   0.02   0.02     0.01   0.02  -0.03
 154   1     0.00   0.01  -0.01     0.02   0.02   0.02     0.01   0.02  -0.02
 155   1     0.00   0.01  -0.01     0.00   0.01   0.02     0.00   0.01  -0.02
 156   1     0.00   0.01  -0.02     0.02   0.01   0.02     0.01   0.01  -0.02
 157   6    -0.03   0.02   0.08    -0.01   0.08   0.09    -0.03   0.06  -0.01
 158   6    -0.02   0.02   0.06    -0.01   0.09   0.09    -0.02   0.07  -0.02
 159   6    -0.01   0.02   0.07    -0.00   0.08   0.08    -0.01   0.06  -0.02
 160   6     0.00   0.02   0.06    -0.00   0.08   0.08     0.00   0.07  -0.04
 161   6     0.01   0.02   0.07     0.00   0.08   0.07     0.01   0.06  -0.03
 162   6     0.02   0.02   0.07     0.01   0.08   0.08     0.02   0.07  -0.04
 163   6     0.03   0.02   0.08     0.01   0.08   0.07     0.03   0.06  -0.03
 164   6     0.02   0.01   0.09     0.01   0.07   0.06     0.02   0.05  -0.02
 165   7     0.01   0.01   0.09     0.00   0.08   0.06     0.01   0.06  -0.03
 166   6     0.03  -0.00   0.11     0.01   0.06   0.04     0.03   0.04  -0.02
 167   6     0.02  -0.01   0.11     0.01   0.06   0.02     0.02   0.03  -0.01
 168   6     0.03  -0.03   0.12     0.02   0.05  -0.00     0.03   0.02  -0.01
 169   6     0.02  -0.03   0.12     0.01   0.04  -0.02     0.02   0.01   0.00
 170   6     0.01  -0.03   0.11     0.01   0.05  -0.01     0.01   0.02   0.00
 171   7     0.01  -0.02   0.11     0.01   0.06   0.02     0.01   0.03  -0.00
 172   6    -0.00  -0.04   0.10     0.00   0.04  -0.02    -0.00   0.01   0.01
 173   6    -0.01  -0.03   0.10    -0.01   0.05  -0.01    -0.01   0.02   0.02
 174   6    -0.02  -0.04   0.11    -0.01   0.04  -0.02    -0.02   0.02   0.03
 175   6    -0.03  -0.03   0.11    -0.01   0.05   0.00    -0.03   0.03   0.03
 176   6    -0.03  -0.02   0.10    -0.01   0.06   0.02    -0.02   0.03   0.02
 177   7    -0.01  -0.02   0.11    -0.01   0.06   0.02    -0.01   0.03   0.01
 178   6    -0.03  -0.00   0.10    -0.01   0.07   0.05    -0.03   0.04   0.01
 179   6    -0.03   0.01   0.09    -0.01   0.07   0.06    -0.02   0.05  -0.00
 180   7    -0.01   0.01   0.09    -0.00   0.08   0.07    -0.01   0.06  -0.01
 181   1    -0.01   0.00   0.02    -0.00   0.02   0.03    -0.01   0.02  -0.00
 182   1    -0.01   0.01   0.02    -0.00   0.03   0.03    -0.01   0.02  -0.01
 183   1     0.01   0.01   0.02     0.00   0.03   0.03     0.01   0.02  -0.01
 184   1     0.01   0.00   0.02     0.00   0.02   0.02     0.01   0.02  -0.01
 185   1     0.00   0.00   0.03     0.00   0.02   0.01     0.00   0.01  -0.01
 186   1     0.01  -0.00   0.03     0.00   0.02   0.01     0.01   0.01  -0.01
 187   1     0.01  -0.01   0.04     0.01   0.01  -0.00     0.01   0.01  -0.00
 188   1     0.01  -0.01   0.04     0.00   0.01  -0.01     0.01   0.00   0.00
 189   1    -0.01  -0.01   0.03    -0.00   0.01  -0.01    -0.01   0.00   0.01
 190   1    -0.01  -0.01   0.03    -0.01   0.01   0.00    -0.01   0.01   0.01
 191   1    -0.00  -0.00   0.03    -0.00   0.02   0.01    -0.00   0.01   0.00
 192   1    -0.01  -0.00   0.03    -0.00   0.02   0.01    -0.01   0.01   0.00
 193   6     0.02  -0.07   0.04    -0.01  -0.00  -0.08    -0.02  -0.01   0.06
 194   6     0.01  -0.07   0.05    -0.01   0.01  -0.08    -0.01  -0.01   0.05
 195   6     0.00  -0.06   0.05    -0.00   0.00  -0.08    -0.01  -0.02   0.04
 196   6    -0.00  -0.06   0.06     0.00   0.01  -0.07    -0.00  -0.02   0.02
 197   6    -0.01  -0.06   0.06     0.00   0.00  -0.08     0.01  -0.03   0.01
 198   6    -0.01  -0.06   0.06     0.01   0.00  -0.08     0.01  -0.04  -0.01
 199   6    -0.02  -0.06   0.05     0.01  -0.00  -0.09     0.02  -0.05  -0.02
 200   6    -0.02  -0.06   0.04     0.01  -0.01  -0.09     0.01  -0.05  -0.02
 201   7    -0.01  -0.06   0.05     0.01  -0.01  -0.10     0.01  -0.04   0.00
 202   6    -0.02  -0.06   0.03     0.01  -0.02  -0.10     0.01  -0.06  -0.02
 203   6    -0.02  -0.05   0.02     0.01  -0.03  -0.10     0.01  -0.06  -0.02
 204   6    -0.02  -0.05   0.01     0.01  -0.03  -0.10     0.01  -0.08  -0.03
 205   6    -0.01  -0.05   0.00     0.01  -0.03  -0.09     0.01  -0.08  -0.01
 206   6    -0.01  -0.05   0.01     0.00  -0.03  -0.09     0.00  -0.06   0.01
 207   7    -0.01  -0.06   0.02     0.00  -0.03  -0.11     0.01  -0.06   0.01
 208   6    -0.00  -0.05   0.01     0.00  -0.03  -0.09    -0.00  -0.06   0.03
 209   6     0.01  -0.05   0.01    -0.00  -0.03  -0.10    -0.01  -0.05   0.05
 210   6     0.01  -0.05   0.00    -0.01  -0.03  -0.10    -0.01  -0.04   0.06
 211   6     0.02  -0.05   0.01    -0.01  -0.03  -0.10    -0.02  -0.03   0.07
 212   6     0.01  -0.06   0.02    -0.01  -0.03  -0.10    -0.02  -0.03   0.06
 213   7     0.01  -0.06   0.02    -0.01  -0.03  -0.11    -0.01  -0.04   0.05
 214   6     0.02  -0.06   0.02    -0.01  -0.02  -0.10    -0.02  -0.02   0.06
 215   6     0.01  -0.06   0.04    -0.01  -0.01  -0.09    -0.02  -0.02   0.05
 216   7     0.01  -0.06   0.05    -0.01  -0.01  -0.10    -0.01  -0.02   0.04
 217   1     0.01  -0.02   0.01    -0.00  -0.00  -0.02    -0.01   0.00   0.02
 218   1     0.00  -0.02   0.02    -0.00   0.00  -0.02    -0.00   0.00   0.01
 219   1    -0.00  -0.02   0.02     0.00   0.00  -0.02     0.00  -0.01  -0.00
 220   1    -0.01  -0.02   0.01     0.00  -0.00  -0.02     0.01  -0.02  -0.01
 221   1    -0.00  -0.02   0.01     0.00  -0.00  -0.03     0.00  -0.01   0.00
 222   1    -0.01  -0.02   0.01     0.00  -0.01  -0.03     0.01  -0.02  -0.01
 223   1    -0.01  -0.02   0.00     0.00  -0.01  -0.03     0.01  -0.02  -0.01
 224   1    -0.00  -0.01  -0.00     0.00  -0.01  -0.03     0.00  -0.02  -0.00
 225   1     0.00  -0.01  -0.00    -0.00  -0.01  -0.03    -0.00  -0.01   0.02
 226   1     0.01  -0.02   0.00    -0.00  -0.01  -0.03    -0.01  -0.01   0.02
 227   1     0.00  -0.02   0.01    -0.00  -0.01  -0.03    -0.00  -0.01   0.01
 228   1     0.01  -0.02   0.01    -0.00  -0.01  -0.03    -0.01  -0.00   0.02
                      7                      8                      9
                        a                      a                      a 
 Frequencies --     8.1351                 9.2828                10.1260
 Red. masses --    11.3561                11.6392                11.2514
 Frc consts  --     0.0000                 0.0000                 0.0000
 IR Inten    --     2.4287                 1.6146                 0.4259
 Raman Activ --     0.0000                 0.0000                 0.0000
 Depolar     --     0.0000                 0.0000                 0.0000
 Atom AN      X      Y      Z        X      Y      Z        X      Y      Z
   1   6     0.02   0.01  -0.09     0.02  -0.01  -0.10     0.00   0.03  -0.12
   2   6     0.01  -0.00  -0.05     0.02  -0.01  -0.10     0.00   0.02  -0.08
   3   6     0.01  -0.00  -0.02     0.01  -0.01  -0.07     0.00   0.01  -0.03
   4   6    -0.00  -0.02   0.03    -0.00  -0.02  -0.06     0.01   0.00   0.01
   5   6    -0.01  -0.02   0.07    -0.02  -0.02  -0.04     0.01  -0.00   0.06
   6   6    -0.02  -0.03   0.12    -0.03  -0.03  -0.04     0.01  -0.01   0.10
   7   6    -0.02  -0.03   0.14    -0.03  -0.02  -0.00     0.01  -0.02   0.14
   8   6    -0.02  -0.01   0.10    -0.03  -0.01   0.01     0.01  -0.01   0.11
   9   7    -0.01  -0.01   0.06    -0.02  -0.01  -0.01     0.01  -0.01   0.06
  10   6    -0.02  -0.01   0.10    -0.03  -0.01   0.05     0.01  -0.02   0.13
  11   6    -0.02   0.01   0.05    -0.03  -0.00   0.07     0.01  -0.01   0.10
  12   6    -0.02   0.02   0.06    -0.04  -0.00   0.11     0.01  -0.02   0.12
  13   6    -0.01   0.03   0.00    -0.03   0.00   0.12     0.01  -0.01   0.08
  14   6    -0.01   0.03  -0.03    -0.02   0.00   0.09     0.00  -0.00   0.03
  15   7    -0.01   0.02   0.00    -0.02  -0.00   0.06     0.01  -0.01   0.05
  16   6     0.00   0.04  -0.09    -0.01   0.01   0.09     0.01   0.00  -0.02
  17   6     0.01   0.05  -0.12     0.00   0.01   0.05     0.00   0.01  -0.07
  18   6     0.02   0.06  -0.17     0.01   0.02   0.05     0.00   0.02  -0.13
  19   6     0.02   0.06  -0.19     0.02   0.02   0.01     0.00   0.03  -0.16
  20   6     0.02   0.04  -0.14     0.02   0.01  -0.01     0.00   0.02  -0.12
  21   7     0.01   0.04  -0.11     0.00   0.01   0.02     0.01   0.01  -0.08
  22   6     0.02   0.03  -0.14     0.02   0.00  -0.05     0.00   0.03  -0.14
  23   6     0.02   0.02  -0.09     0.02  -0.00  -0.06     0.00   0.02  -0.10
  24   7     0.01   0.01  -0.05     0.01  -0.01  -0.05     0.01   0.01  -0.05
  25   1     0.01   0.01  -0.04     0.01  -0.00  -0.03     0.00   0.01  -0.05
  26   1     0.00  -0.00  -0.01     0.01  -0.01  -0.04     0.00   0.01  -0.02
  27   1    -0.01  -0.01   0.04    -0.01  -0.01  -0.02     0.00  -0.00   0.03
  28   1    -0.01  -0.01   0.05    -0.01  -0.01   0.00     0.00  -0.01   0.05
  29   1    -0.00   0.00   0.01    -0.00  -0.00  -0.00     0.00  -0.00   0.01
  30   1    -0.01  -0.00   0.04    -0.01  -0.00   0.02     0.00  -0.01   0.05
  31   1    -0.01   0.00   0.03    -0.01  -0.00   0.04     0.00  -0.01   0.05
  32   1    -0.00   0.01  -0.00    -0.01   0.00   0.04     0.00  -0.00   0.02
  33   1     0.00   0.02  -0.03    -0.00   0.00   0.03     0.00   0.00  -0.01
  34   1     0.01   0.02  -0.06     0.00   0.01   0.02     0.00   0.01  -0.04
  35   1     0.01   0.02  -0.07     0.01   0.01  -0.00     0.00   0.01  -0.06
  36   1     0.00   0.01  -0.02    -0.00   0.00   0.00     0.00   0.00  -0.01
  37   1     0.01   0.01  -0.05     0.01   0.00  -0.02     0.00   0.01  -0.05
  38   6     0.02   0.01  -0.15     0.04  -0.03   0.08    -0.01  -0.01   0.11
  39   6     0.01  -0.00  -0.11     0.03  -0.04   0.10    -0.01  -0.01   0.07
  40   6     0.01  -0.00  -0.06     0.02  -0.03   0.08    -0.01  -0.00   0.03
  41   6     0.00  -0.02  -0.00     0.01  -0.04   0.09    -0.01   0.01  -0.02
  42   6    -0.01  -0.02   0.05    -0.01  -0.03   0.08    -0.00   0.01  -0.06
  43   6    -0.01  -0.03   0.10    -0.02  -0.04   0.10    -0.00   0.02  -0.10
  44   6    -0.02  -0.03   0.14    -0.03  -0.03   0.08    -0.00   0.02  -0.13
  45   6    -0.01  -0.02   0.11    -0.02  -0.01   0.04    -0.00   0.01  -0.11
  46   7    -0.01  -0.01   0.06    -0.01  -0.01   0.05    -0.00   0.01  -0.06
  47   6    -0.02  -0.01   0.13    -0.03   0.01  -0.00    -0.00   0.01  -0.13
  48   6    -0.01  -0.00   0.10    -0.02   0.03  -0.05    -0.00   0.01  -0.10
  49   6    -0.02  -0.00   0.13    -0.03   0.04  -0.10    -0.00   0.01  -0.12
  50   6    -0.01   0.01   0.09    -0.02   0.06  -0.14    -0.00   0.00  -0.08
  51   6    -0.01   0.01   0.04    -0.01   0.05  -0.12    -0.00  -0.00  -0.03
  52   7    -0.01   0.01   0.05    -0.01   0.03  -0.07    -0.00   0.00  -0.05
  53   6     0.00   0.03  -0.02     0.00   0.06  -0.15    -0.00  -0.01   0.03
  54   6     0.01   0.03  -0.07     0.01   0.05  -0.12    -0.01  -0.02   0.07
  55   6     0.01   0.04  -0.13     0.02   0.06  -0.14    -0.01  -0.03   0.13
  56   6     0.02   0.04  -0.16     0.03   0.04  -0.10    -0.01  -0.03   0.16
  57   6     0.01   0.03  -0.13     0.03   0.03  -0.05    -0.01  -0.02   0.12
  58   7     0.01   0.02  -0.08     0.02   0.03  -0.07    -0.01  -0.01   0.08
  59   6     0.02   0.02  -0.15     0.03   0.01   0.00    -0.01  -0.02   0.13
  60   6     0.01   0.01  -0.12     0.03  -0.01   0.04    -0.01  -0.01   0.10
  61   7     0.01   0.00  -0.07     0.02  -0.01   0.04    -0.01  -0.01   0.05
  62   1     0.01   0.00  -0.06     0.01  -0.01   0.03    -0.00  -0.01   0.04
  63   1     0.00  -0.00  -0.03     0.01  -0.02   0.04    -0.00  -0.00   0.02
  64   1    -0.00  -0.01   0.03    -0.00  -0.02   0.04    -0.00   0.01  -0.03
  65   1    -0.01  -0.01   0.05    -0.01  -0.01   0.03     0.00   0.01  -0.05
  66   1    -0.00  -0.00   0.01    -0.00  -0.00   0.01    -0.00   0.00  -0.01
  67   1    -0.01  -0.01   0.05    -0.01   0.00   0.00    -0.00   0.01  -0.05
  68   1    -0.01  -0.00   0.05    -0.01   0.01  -0.03    -0.00   0.00  -0.05
  69   1    -0.00   0.00   0.03    -0.01   0.02  -0.05    -0.00   0.00  -0.02
  70   1    -0.00   0.01  -0.01     0.00   0.02  -0.05    -0.00  -0.00   0.01
  71   1     0.00   0.01  -0.04     0.01   0.02  -0.05    -0.00  -0.01   0.04
  72   1     0.01   0.01  -0.06     0.01   0.01  -0.03    -0.00  -0.01   0.06
  73   1     0.00   0.00  -0.01     0.00   0.01  -0.01    -0.00  -0.00   0.01
  74   1     0.01   0.01  -0.06     0.01   0.00   0.00    -0.00  -0.01   0.05
  75   6    -0.00  -0.03   0.05    -0.00  -0.03  -0.08     0.00   0.00   0.02
  76   6    -0.00  -0.03   0.05    -0.00  -0.03  -0.09     0.01   0.00   0.02
  77   6    -0.00  -0.03   0.02    -0.00   0.02   0.06     0.00  -0.01  -0.01
  78   6    -0.00  -0.02   0.01    -0.00   0.02   0.07     0.00  -0.01  -0.01
  79   6    -0.00   0.04  -0.04     0.00   0.04   0.01     0.00  -0.00  -0.00
  80   6    -0.00   0.04  -0.03     0.00   0.03  -0.01     0.00   0.00   0.00
  81   6     0.00   0.00   0.03     0.00  -0.00  -0.07    -0.00   0.00   0.01
  82   6     0.00  -0.01   0.03     0.00  -0.01  -0.05    -0.00   0.00   0.01
  83   6     0.00  -0.03  -0.00     0.01  -0.05   0.11    -0.01   0.01  -0.02
  84   6     0.00  -0.02  -0.00     0.01  -0.05   0.11    -0.01   0.01  -0.02
  85   6     0.00   0.01   0.14    -0.01  -0.02  -0.07     0.00   0.01   0.05
  86   6     0.00  -0.00   0.12    -0.01  -0.03  -0.08     0.00   0.01   0.05
  87   6     0.00  -0.02   0.08    -0.01  -0.03  -0.07     0.00   0.01   0.03
  88   6    -0.00  -0.03   0.05    -0.00  -0.03  -0.09     0.00   0.00   0.02
  89   6    -0.00  -0.04   0.02    -0.00  -0.03  -0.09     0.01  -0.00   0.01
  90   6    -0.00  -0.06  -0.02    -0.00  -0.04  -0.11     0.01  -0.00  -0.00
  91   6    -0.01  -0.06  -0.04    -0.00  -0.04  -0.10     0.01  -0.01  -0.00
  92   6    -0.01  -0.05  -0.02    -0.00  -0.03  -0.07     0.01  -0.00   0.00
  93   7    -0.00  -0.04   0.01    -0.00  -0.03  -0.08     0.01  -0.00   0.01
  94   6    -0.01  -0.06  -0.04    -0.00  -0.02  -0.05     0.01  -0.00   0.00
  95   6    -0.01  -0.05  -0.03    -0.00  -0.01  -0.02     0.01  -0.00   0.01
  96   6    -0.01  -0.06  -0.05    -0.00  -0.00   0.00     0.01  -0.01   0.01
  97   6    -0.01  -0.05  -0.04    -0.00   0.01   0.03     0.01  -0.01   0.01
  98   6    -0.00  -0.04  -0.00    -0.00   0.00   0.02     0.01  -0.01   0.00
  99   7    -0.00  -0.04   0.00    -0.00  -0.01  -0.01     0.01  -0.01   0.01
 100   6    -0.00  -0.03   0.02    -0.00   0.01   0.03     0.00  -0.01  -0.00
 101   6     0.00  -0.02   0.06    -0.00   0.01   0.02     0.00  -0.01  -0.00
 102   6     0.00  -0.01   0.08    -0.01   0.01   0.03     0.00  -0.01  -0.01
 103   6     0.01   0.00   0.11    -0.01   0.00   0.01     0.00  -0.01  -0.00
 104   6     0.00  -0.00   0.11    -0.01  -0.00  -0.01     0.00  -0.00   0.01
 105   7     0.00  -0.02   0.08    -0.00  -0.00  -0.01     0.00  -0.01   0.01
 106   6     0.00   0.01   0.13    -0.01  -0.01  -0.03     0.00   0.00   0.02
 107   6     0.00  -0.00   0.12    -0.01  -0.02  -0.05     0.00   0.01   0.03
 108   7     0.00  -0.02   0.09    -0.01  -0.02  -0.06     0.00   0.00   0.03
 109   1     0.00   0.01   0.05    -0.00  -0.01  -0.02     0.00   0.00   0.02
 110   1     0.00  -0.00   0.04    -0.00  -0.01  -0.03     0.00   0.01   0.02
 111   1    -0.00  -0.02  -0.01    -0.00  -0.01  -0.04     0.00  -0.00  -0.00
 112   1    -0.00  -0.02  -0.02    -0.00  -0.01  -0.03     0.00  -0.00  -0.00
 113   1    -0.00  -0.01   0.01    -0.00  -0.01  -0.02     0.00  -0.00   0.00
 114   1    -0.00  -0.02  -0.02    -0.00  -0.01  -0.02     0.00  -0.00   0.00
 115   1    -0.00  -0.02  -0.02    -0.00  -0.00  -0.00     0.00  -0.00   0.00
 116   1    -0.00  -0.02  -0.01     0.00   0.00   0.01     0.00  -0.00   0.00
 117   1     0.00  -0.00   0.02    -0.00   0.00   0.02     0.00  -0.01  -0.01
 118   1     0.00   0.00   0.04    -0.00   0.00   0.00     0.00  -0.00  -0.00
 119   1    -0.00  -0.01   0.02    -0.00  -0.00  -0.01     0.00  -0.00   0.00
 120   1     0.00   0.00   0.04    -0.00  -0.00  -0.01     0.00   0.00   0.01
 121   6     0.02  -0.02   0.03     0.00   0.02   0.08     0.01   0.01  -0.13
 122   6     0.01  -0.02   0.03     0.00   0.02   0.08     0.01   0.00  -0.09
 123   6     0.00  -0.01   0.01    -0.00   0.02   0.08     0.01  -0.00  -0.05
 124   6    -0.00  -0.01  -0.01    -0.00   0.02   0.08     0.00  -0.01  -0.01
 125   6    -0.01  -0.01  -0.03    -0.00   0.02   0.09     0.00  -0.02   0.03
 126   6    -0.01  -0.01  -0.05    -0.00   0.02   0.09    -0.00  -0.03   0.07
 127   6    -0.02   0.00  -0.07    -0.00   0.02   0.10    -0.00  -0.03   0.11
 128   6    -0.02   0.01  -0.07    -0.00   0.02   0.10    -0.00  -0.02   0.09
 129   7    -0.01   0.00  -0.05    -0.00   0.02   0.10     0.00  -0.02   0.04
 130   6    -0.02   0.02  -0.09    -0.00   0.02   0.10    -0.00  -0.03   0.11
 131   6    -0.01   0.02  -0.08    -0.00   0.02   0.08    -0.00  -0.02   0.09
 132   6    -0.02   0.03  -0.09     0.00   0.03   0.07    -0.00  -0.03   0.13
 133   6    -0.01   0.04  -0.08     0.00   0.03   0.05    -0.00  -0.02   0.09
 134   6    -0.01   0.03  -0.06     0.00   0.03   0.05    -0.00  -0.01   0.04
 135   7    -0.01   0.02  -0.07    -0.00   0.03   0.07    -0.00  -0.01   0.05
 136   6    -0.00   0.03  -0.04     0.00   0.03   0.03     0.00  -0.00  -0.01
 137   6     0.01   0.02  -0.03    -0.00   0.03   0.04     0.00   0.01  -0.06
 138   6     0.01   0.03  -0.02    -0.00   0.04   0.02     0.01   0.02  -0.11
 139   6     0.02   0.02  -0.01    -0.00   0.03   0.03     0.01   0.02  -0.15
 140   6     0.01   0.01  -0.01     0.00   0.03   0.05     0.01   0.01  -0.12
 141   7     0.01   0.02  -0.03     0.00   0.03   0.06     0.00   0.01  -0.07
 142   6     0.02   0.00   0.01     0.00   0.03   0.07     0.01   0.02  -0.14
 143   6     0.01  -0.01   0.01     0.00   0.02   0.08     0.01   0.01  -0.11
 144   7     0.01  -0.00  -0.01    -0.00   0.03   0.09     0.01  -0.00  -0.07
 145   1     0.01  -0.01   0.01     0.00   0.01   0.02     0.00   0.00  -0.05
 146   1     0.00  -0.01   0.01     0.00   0.01   0.02     0.00   0.00  -0.03
 147   1    -0.00  -0.00  -0.01    -0.00   0.01   0.03    -0.00  -0.01   0.02
 148   1    -0.01   0.00  -0.03    -0.00   0.01   0.03    -0.00  -0.01   0.04
 149   1    -0.00   0.00  -0.01    -0.00   0.01   0.03     0.00  -0.00   0.00
 150   1    -0.01   0.01  -0.03    -0.00   0.01   0.03    -0.00  -0.01   0.04
 151   1    -0.01   0.01  -0.03    -0.00   0.01   0.02    -0.00  -0.01   0.05
 152   1    -0.00   0.01  -0.02     0.00   0.01   0.01    -0.00  -0.01   0.03
 153   1     0.00   0.01  -0.01    -0.00   0.01   0.00     0.00   0.01  -0.03
 154   1     0.01   0.00  -0.00    -0.00   0.01   0.01     0.00   0.01  -0.06
 155   1     0.00   0.00  -0.01     0.00   0.01   0.02     0.00  -0.00  -0.01
 156   1     0.01  -0.00   0.01     0.00   0.01   0.02     0.00   0.01  -0.05
 157   6    -0.02   0.03  -0.02    -0.00   0.01  -0.09    -0.00  -0.03  -0.14
 158   6    -0.01   0.03  -0.02    -0.00   0.02  -0.06     0.00  -0.02  -0.10
 159   6    -0.01   0.03  -0.01    -0.00   0.02  -0.05     0.00  -0.01  -0.05
 160   6    -0.00   0.03  -0.02     0.00   0.03  -0.03     0.00   0.00   0.01
 161   6     0.01   0.03  -0.00     0.00   0.03  -0.03     0.00   0.01   0.06
 162   6     0.01   0.04  -0.00     0.01   0.03  -0.01    -0.00   0.03   0.11
 163   6     0.02   0.03   0.02     0.01   0.03  -0.02    -0.00   0.03   0.16
 164   6     0.01   0.03   0.02     0.01   0.02  -0.05    -0.00   0.03   0.13
 165   7     0.01   0.03   0.01     0.01   0.02  -0.05    -0.00   0.02   0.08
 166   6     0.02   0.02   0.04     0.01   0.01  -0.06    -0.00   0.03   0.15
 167   6     0.01   0.02   0.05     0.01   0.01  -0.07    -0.00   0.02   0.12
 168   6     0.02   0.02   0.06     0.01   0.00  -0.07    -0.00   0.02   0.15
 169   6     0.01   0.01   0.06     0.01   0.00  -0.08    -0.00   0.02   0.11
 170   6     0.01   0.01   0.04     0.01   0.00  -0.08    -0.00   0.01   0.06
 171   7     0.01   0.02   0.04     0.01   0.01  -0.08    -0.00   0.02   0.08
 172   6     0.00   0.01   0.03     0.00   0.00  -0.08    -0.00   0.00   0.01
 173   6    -0.01   0.01   0.01    -0.00   0.00  -0.10    -0.00  -0.00  -0.03
 174   6    -0.01   0.00   0.01    -0.00  -0.00  -0.12    -0.00  -0.01  -0.08
 175   6    -0.02   0.01  -0.00    -0.01  -0.00  -0.13     0.00  -0.02  -0.12
 176   6    -0.01   0.01  -0.00    -0.00   0.00  -0.12    -0.00  -0.02  -0.10
 177   7    -0.01   0.02   0.01    -0.00   0.00  -0.11    -0.00  -0.01  -0.05
 178   6    -0.02   0.02  -0.01    -0.00   0.00  -0.12     0.00  -0.02  -0.12
 179   6    -0.01   0.02  -0.01    -0.00   0.01  -0.10     0.00  -0.02  -0.10
 180   7    -0.01   0.03  -0.01    -0.00   0.02  -0.08     0.00  -0.01  -0.05
 181   1    -0.01   0.01  -0.01    -0.00   0.00  -0.03    -0.00  -0.01  -0.05
 182   1    -0.00   0.01  -0.01    -0.00   0.01  -0.01     0.00  -0.01  -0.03
 183   1     0.00   0.01  -0.00     0.00   0.01   0.00    -0.00   0.01   0.03
 184   1     0.01   0.01   0.01     0.00   0.01  -0.00    -0.00   0.01   0.06
 185   1     0.00   0.01   0.00     0.00   0.00  -0.02     0.00   0.00   0.01
 186   1     0.01   0.01   0.02     0.00   0.00  -0.02    -0.00   0.01   0.06
 187   1     0.01   0.00   0.02     0.00   0.00  -0.02    -0.00   0.01   0.06
 188   1     0.00   0.00   0.02     0.00  -0.00  -0.02    -0.00   0.00   0.03
 189   1    -0.00  -0.00   0.00    -0.00  -0.00  -0.03     0.00  -0.00  -0.03
 190   1    -0.01   0.00  -0.00    -0.00  -0.00  -0.04     0.00  -0.01  -0.05
 191   1    -0.00   0.01   0.00     0.00   0.00  -0.03    -0.00  -0.00  -0.00
 192   1    -0.01   0.01  -0.00    -0.00   0.00  -0.04     0.00  -0.01  -0.05
 193   6    -0.00  -0.05  -0.06    -0.04  -0.02  -0.01    -0.00  -0.01  -0.02
 194   6    -0.00  -0.04  -0.03    -0.03  -0.02  -0.03    -0.00  -0.01  -0.02
 195   6     0.00  -0.02  -0.01    -0.01  -0.02  -0.01    -0.00  -0.00  -0.01
 196   6     0.00  -0.01   0.02     0.00  -0.01  -0.02    -0.00   0.00   0.00
 197   6     0.00   0.00   0.05     0.02  -0.01  -0.00    -0.01   0.01   0.01
 198   6     0.00   0.02   0.07     0.03  -0.01  -0.01    -0.01   0.01   0.02
 199   6     0.00   0.02   0.09     0.04  -0.01   0.02    -0.01   0.01   0.02
 200   6     0.00   0.01   0.08     0.04  -0.02   0.04    -0.01   0.01   0.00
 201   7     0.00   0.00   0.05     0.02  -0.02   0.03    -0.01   0.01  -0.00
 202   6     0.00   0.02   0.09     0.04  -0.02   0.06    -0.01   0.01  -0.01
 203   6     0.00   0.01   0.07     0.03  -0.03   0.08    -0.01   0.00  -0.02
 204   6     0.00   0.02   0.09     0.04  -0.03   0.10    -0.01   0.00  -0.03
 205   6     0.00   0.01   0.06     0.03  -0.04   0.11    -0.01   0.00  -0.03
 206   6     0.00  -0.01   0.03     0.02  -0.04   0.10    -0.01   0.00  -0.02
 207   7     0.00  -0.01   0.04     0.02  -0.03   0.08    -0.01   0.01  -0.02
 208   6     0.00  -0.03  -0.00     0.01  -0.05   0.10    -0.01   0.01  -0.02
 209   6     0.00  -0.04  -0.03    -0.01  -0.04   0.09    -0.00   0.01  -0.01
 210   6    -0.00  -0.06  -0.07    -0.02  -0.05   0.09    -0.00   0.01  -0.01
 211   6    -0.00  -0.07  -0.09    -0.03  -0.04   0.07     0.00   0.01  -0.01
 212   6    -0.00  -0.05  -0.06    -0.03  -0.04   0.06    -0.00   0.00  -0.01
 213   7     0.00  -0.04  -0.03    -0.01  -0.04   0.07    -0.00   0.00  -0.02
 214   6    -0.00  -0.06  -0.07    -0.03  -0.03   0.03    -0.00  -0.00  -0.02
 215   6    -0.00  -0.05  -0.05    -0.03  -0.02   0.01    -0.00  -0.00  -0.02
 216   7     0.00  -0.03  -0.02    -0.01  -0.02   0.01    -0.00   0.00  -0.01
 217   1    -0.00  -0.02  -0.02    -0.01  -0.01  -0.00     0.00  -0.00  -0.01
 218   1     0.00  -0.01  -0.01    -0.01  -0.00  -0.01    -0.00  -0.00  -0.01
 219   1     0.00   0.01   0.02     0.01  -0.00  -0.01    -0.00   0.00   0.01
 220   1     0.00   0.01   0.03     0.02  -0.00   0.01    -0.00   0.00   0.01
 221   1     0.00  -0.00   0.01     0.00  -0.01   0.01    -0.00   0.00  -0.00
 222   1     0.00   0.01   0.03     0.02  -0.01   0.02    -0.00   0.00  -0.00
 223   1     0.00   0.01   0.03     0.02  -0.01   0.03    -0.00  -0.00  -0.01
 224   1     0.00   0.00   0.02     0.01  -0.01   0.04    -0.00  -0.00  -0.01
 225   1    -0.00  -0.02  -0.02    -0.01  -0.02   0.03    -0.00   0.00  -0.00
 226   1    -0.00  -0.02  -0.03    -0.01  -0.01   0.02     0.00   0.00  -0.00
 227   1     0.00  -0.01  -0.00    -0.00  -0.01   0.02    -0.00   0.00  -0.00
 228   1    -0.00  -0.02  -0.03    -0.01  -0.01   0.01     0.00  -0.00  -0.01
                     10                     11                     12
                        a                      a                      a 
 Frequencies --    12.3763                12.9871                14.0151
 Red. masses --    11.5154                11.2693                11.5331
 Frc consts  --     0.0000                 0.0000                 0.0000
 IR Inten    --     0.3986                 0.9841                 0.7082
 Raman Activ --     0.0000                 0.0000                 0.0000
 Depolar     --     0.0000                 0.0000                 0.0000
 Atom AN      X      Y      Z        X      Y      Z        X      Y      Z
   1   6    -0.07   0.07  -0.03    -0.03  -0.00   0.08     0.02  -0.01  -0.09
   2   6    -0.05   0.09  -0.03    -0.03   0.01   0.05     0.01  -0.02  -0.10
   3   6    -0.02   0.07  -0.02    -0.02   0.01   0.02     0.00  -0.02  -0.09
   4   6     0.01   0.09  -0.02    -0.02   0.02  -0.00    -0.01  -0.02  -0.10
   5   6     0.03   0.07  -0.02    -0.01   0.02  -0.03    -0.02  -0.02  -0.09
   6   6     0.06   0.09  -0.03    -0.00   0.03  -0.06    -0.03  -0.02  -0.10
   7   6     0.08   0.07  -0.03     0.00   0.03  -0.09    -0.04  -0.01  -0.09
   8   6     0.07   0.04  -0.02     0.00   0.02  -0.08    -0.04  -0.00  -0.05
   9   7     0.04   0.04  -0.02    -0.01   0.02  -0.05    -0.02  -0.01  -0.06
  10   6     0.08   0.00  -0.02     0.00   0.02  -0.10    -0.04   0.00  -0.02
  11   6     0.07  -0.03   0.00     0.00   0.01  -0.08    -0.04   0.01   0.02
  12   6     0.08  -0.06   0.01     0.00   0.01  -0.11    -0.05   0.01   0.06
  13   6     0.06  -0.08   0.03    -0.00  -0.00  -0.08    -0.04   0.01   0.10
  14   6     0.03  -0.06   0.03    -0.01  -0.01  -0.03    -0.03   0.01   0.08
  15   7     0.04  -0.03   0.01    -0.01  -0.00  -0.04    -0.03   0.01   0.04
  16   6     0.01  -0.08   0.04    -0.01  -0.02   0.01    -0.02   0.01   0.10
  17   6    -0.02  -0.07   0.03    -0.02  -0.02   0.05    -0.00   0.01   0.08
  18   6    -0.05  -0.08   0.04    -0.03  -0.03   0.09     0.01   0.01   0.10
  19   6    -0.07  -0.06   0.03    -0.03  -0.03   0.12     0.02   0.01   0.06
  20   6    -0.06  -0.03   0.01    -0.03  -0.02   0.09     0.01   0.00   0.02
  21   7    -0.03  -0.04   0.02    -0.02  -0.02   0.05    -0.00   0.01   0.04
  22   6    -0.07   0.01  -0.01    -0.03  -0.01   0.10     0.02  -0.00  -0.02
  23   6    -0.05   0.04  -0.02    -0.03  -0.00   0.07     0.01  -0.01  -0.06
  24   7    -0.03   0.04  -0.01    -0.02   0.00   0.04     0.00  -0.01  -0.06
  25   1    -0.03   0.02  -0.01    -0.01  -0.00   0.03     0.01  -0.00  -0.03
  26   1    -0.01   0.03  -0.01    -0.01   0.00   0.01     0.00  -0.01  -0.04
  27   1     0.02   0.03  -0.01     0.00   0.01  -0.02    -0.01  -0.01  -0.04
  28   1     0.03   0.02  -0.01     0.00   0.01  -0.03    -0.02  -0.00  -0.03
  29   1     0.01   0.01  -0.00    -0.00   0.00  -0.01    -0.00  -0.00  -0.01
  30   1     0.03   0.00  -0.01     0.00   0.01  -0.04    -0.02   0.00  -0.01
  31   1     0.03  -0.02   0.00     0.00   0.00  -0.04    -0.02   0.00   0.02
  32   1     0.02  -0.03   0.01     0.00  -0.00  -0.02    -0.01   0.00   0.04
  33   1     0.00  -0.03   0.02    -0.00  -0.01   0.00    -0.01   0.00   0.04
  34   1    -0.02  -0.03   0.02    -0.01  -0.01   0.03     0.00   0.01   0.04
  35   1    -0.03  -0.02   0.01    -0.01  -0.01   0.04     0.01   0.00   0.02
  36   1    -0.00  -0.00   0.00    -0.00  -0.00   0.01    -0.00   0.00   0.00
  37   1    -0.03   0.00  -0.00    -0.01  -0.01   0.04     0.01  -0.00  -0.01
  38   6     0.07  -0.06  -0.01     0.02  -0.01   0.10     0.02  -0.01  -0.07
  39   6     0.05  -0.08  -0.01     0.02  -0.00   0.07     0.02  -0.01  -0.09
  40   6     0.02  -0.07  -0.01     0.02  -0.00   0.04     0.01  -0.01  -0.08
  41   6    -0.01  -0.08  -0.01     0.02   0.00   0.01     0.01  -0.01  -0.09
  42   6    -0.03  -0.07   0.00     0.02   0.01  -0.02    -0.00  -0.01  -0.09
  43   6    -0.06  -0.09   0.01     0.02   0.01  -0.05    -0.01  -0.01  -0.11
  44   6    -0.08  -0.06   0.02     0.03   0.01  -0.08    -0.01  -0.00  -0.09
  45   6    -0.07  -0.03   0.02     0.03   0.01  -0.07    -0.01  -0.00  -0.06
  46   7    -0.04  -0.04   0.01     0.02   0.00  -0.04    -0.00  -0.00  -0.07
  47   6    -0.08  -0.01   0.02     0.03   0.01  -0.10    -0.01   0.00  -0.04
  48   6    -0.07   0.02   0.02     0.03   0.01  -0.09    -0.01   0.00   0.01
  49   6    -0.08   0.05   0.02     0.03   0.01  -0.12    -0.01   0.01   0.04
  50   6    -0.06   0.07   0.01     0.03   0.01  -0.10    -0.01   0.01   0.08
  51   6    -0.04   0.06   0.00     0.03   0.00  -0.05     0.00   0.00   0.07
  52   7    -0.04   0.03   0.01     0.03   0.00  -0.05    -0.00   0.00   0.02
  53   6    -0.01   0.07  -0.01     0.03  -0.00  -0.01     0.01   0.00   0.10
  54   6     0.02   0.06  -0.01     0.02  -0.01   0.04     0.01   0.00   0.08
  55   6     0.05   0.07  -0.02     0.02  -0.02   0.08     0.02   0.00   0.11
  56   6     0.07   0.05  -0.02     0.02  -0.02   0.11     0.03   0.00   0.07
  57   6     0.05   0.02  -0.01     0.02  -0.01   0.09     0.02   0.00   0.03
  58   7     0.02   0.03  -0.01     0.02  -0.01   0.05     0.02   0.00   0.04
  59   6     0.07  -0.01  -0.01     0.02  -0.01   0.11     0.02  -0.00  -0.01
  60   6     0.05  -0.03  -0.01     0.02  -0.01   0.08     0.02  -0.00  -0.05
  61   7     0.03  -0.04  -0.01     0.02  -0.00   0.05     0.01  -0.00  -0.05
  62   1     0.03  -0.02  -0.00     0.01  -0.00   0.04     0.01  -0.00  -0.02
  63   1     0.01  -0.03  -0.00     0.01  -0.00   0.02     0.01  -0.00  -0.03
  64   1    -0.02  -0.03   0.00     0.01   0.00  -0.01    -0.00  -0.00  -0.04
  65   1    -0.03  -0.02   0.01     0.01   0.01  -0.03    -0.01  -0.00  -0.03
  66   1    -0.01  -0.01   0.00     0.01  -0.00  -0.01     0.00  -0.00  -0.01
  67   1    -0.03  -0.00   0.01     0.01   0.00  -0.04    -0.01   0.00  -0.01
  68   1    -0.03   0.01   0.01     0.01   0.01  -0.05    -0.01   0.00   0.01
  69   1    -0.02   0.03   0.00     0.01   0.00  -0.03    -0.00   0.00   0.03
  70   1    -0.00   0.03  -0.00     0.01  -0.00  -0.00     0.00   0.00   0.04
  71   1     0.01   0.03  -0.01     0.01  -0.01   0.02     0.01   0.00   0.04
  72   1     0.03   0.02  -0.01     0.00  -0.01   0.04     0.01   0.00   0.02
  73   1     0.00   0.00  -0.00     0.01  -0.00   0.01     0.00   0.00   0.00
  74   1     0.03  -0.00  -0.00     0.00  -0.00   0.04     0.01  -0.00  -0.00
  75   6     0.01   0.11  -0.01    -0.02   0.02  -0.00    -0.01  -0.03  -0.11
  76   6     0.01   0.11   0.00    -0.02   0.02  -0.00    -0.01  -0.03  -0.10
  77   6     0.00  -0.09  -0.01    -0.01  -0.02  -0.00    -0.00   0.02   0.12
  78   6     0.00  -0.11  -0.01    -0.01  -0.02   0.00    -0.00   0.02   0.12
  79   6     0.00  -0.00  -0.02    -0.00   0.01   0.00     0.00  -0.00  -0.12
  80   6     0.00   0.02  -0.01    -0.00   0.01   0.00     0.00  -0.01  -0.12
  81   6    -0.00   0.09   0.02     0.01  -0.00  -0.01     0.01   0.01   0.11
  82   6    -0.00   0.08   0.03     0.01  -0.00  -0.01     0.01   0.01   0.11
  83   6    -0.01  -0.11  -0.03     0.02   0.00   0.01     0.01  -0.02  -0.09
  84   6    -0.01  -0.11  -0.02     0.02   0.01   0.01     0.01  -0.01  -0.10
  85   6    -0.06   0.08   0.03    -0.03   0.04   0.08    -0.02  -0.03  -0.07
  86   6    -0.04   0.10   0.03    -0.03   0.04   0.05    -0.02  -0.04  -0.09
  87   6    -0.02   0.08   0.02    -0.02   0.03   0.03    -0.01  -0.03  -0.07
  88   6     0.01   0.09   0.02    -0.01   0.02   0.00    -0.01  -0.03  -0.08
  89   6     0.03   0.08   0.02    -0.01   0.01  -0.03    -0.00  -0.02  -0.06
[...]
 210   6    -0.00   0.00  -0.00    -0.00  -0.00   0.00     0.00  -0.00   0.00
 211   6    -0.00   0.00  -0.00     0.00   0.00  -0.00    -0.00  -0.00   0.00
 212   6     0.00   0.00  -0.00    -0.00  -0.00   0.00    -0.00  -0.00   0.00
 213   7     0.01  -0.01   0.01    -0.00   0.00  -0.00     0.00  -0.00   0.00
 214   6     0.00  -0.00   0.00     0.00   0.00  -0.00     0.00  -0.00   0.00
 215   6    -0.00   0.00  -0.00    -0.00  -0.00  -0.00    -0.00   0.00  -0.00
 216   7    -0.00  -0.00   0.00     0.00  -0.00   0.00    -0.00  -0.00   0.00
 217   1    -0.00  -0.00   0.00    -0.00  -0.00   0.00    -0.00  -0.00   0.00
 218   1    -0.00  -0.00   0.00     0.00   0.00  -0.00    -0.00  -0.00   0.00
 219   1    -0.00   0.00  -0.00     0.00   0.00   0.00    -0.00   0.00  -0.00
 220   1    -0.00   0.00  -0.00    -0.00   0.00  -0.00    -0.00   0.00  -0.00
 221   1     0.03  -0.03   0.02    -0.00   0.00  -0.00    -0.00   0.00  -0.00
 222   1    -0.00   0.00  -0.00    -0.00   0.00  -0.00    -0.00  -0.00   0.00
 223   1     0.00   0.00  -0.00     0.00   0.00  -0.00    -0.00  -0.00   0.00
 224   1    -0.00   0.00  -0.00     0.00   0.00  -0.00    -0.00  -0.00   0.00
 225   1    -0.00   0.00  -0.00     0.00  -0.00  -0.00    -0.00   0.00  -0.00
 226   1    -0.00   0.00  -0.00     0.00  -0.00   0.00    -0.00   0.00  -0.00
 227   1    -0.04   0.04  -0.02     0.00  -0.00   0.00    -0.00   0.00  -0.00
 228   1    -0.00   0.00  -0.00    -0.00  -0.00   0.00    -0.00   0.00  -0.00
                    676                    677                    678
                        a                      a                      a 
 Frequencies --  3343.2158              3351.3672              3351.6183
 Red. masses --     1.8921                 1.8896                 1.8895
 Frc consts  --     0.0000                 0.0000                 0.0000
 IR Inten    --  2048.5754               928.7181               886.1058
 Raman Activ --     0.0000                 0.0000                 0.0000
 Depolar     --     0.0000                 0.0000                 0.0000
 Atom AN      X      Y      Z        X      Y      Z        X      Y      Z
   1   6    -0.00  -0.00  -0.00     0.00   0.00   0.00    -0.00  -0.00  -0.00
   2   6    -0.00  -0.00  -0.00     0.00   0.00   0.00    -0.00  -0.00  -0.00
   3   6     0.00  -0.00  -0.00    -0.00  -0.00  -0.00     0.00   0.00   0.00
   4   6     0.00   0.00   0.00    -0.00   0.00   0.00     0.00   0.00   0.00
   5   6    -0.00   0.00   0.00    -0.00  -0.00  -0.00     0.00   0.00   0.00
   6   6    -0.00  -0.00  -0.00    -0.00   0.00   0.00    -0.00  -0.00  -0.00
   7   6     0.00  -0.00  -0.00    -0.00   0.00   0.00     0.00  -0.00  -0.00
   8   6    -0.00   0.00   0.00     0.00   0.00   0.00    -0.00  -0.00  -0.00
   9   7    -0.00   0.00   0.00     0.04  -0.04  -0.01    -0.00   0.00   0.00
  10   6    -0.00   0.00   0.00    -0.00   0.00   0.00     0.00  -0.00  -0.00
  11   6     0.00  -0.00  -0.00    -0.00   0.00   0.00     0.00  -0.00  -0.00
  12   6     0.00  -0.00  -0.00    -0.00  -0.00  -0.00     0.00  -0.00  -0.00
  13   6    -0.00   0.00  -0.00    -0.00  -0.00  -0.00    -0.00   0.00   0.00
  14   6     0.00  -0.00  -0.00     0.00  -0.00  -0.00    -0.00   0.00   0.00
  15   7     0.00   0.00   0.00    -0.00  -0.00  -0.00     0.00   0.00   0.00
  16   6    -0.00   0.00   0.00    -0.00   0.00   0.00    -0.00  -0.00  -0.00
  17   6    -0.00   0.00   0.00    -0.00   0.00   0.00     0.00  -0.00  -0.00
  18   6    -0.00  -0.00  -0.00     0.00  -0.00  -0.00    -0.00   0.00   0.00
  19   6     0.00   0.00   0.00     0.00  -0.00  -0.00    -0.00  -0.00  -0.00
  20   6    -0.00   0.00   0.00    -0.00   0.00   0.00     0.00  -0.00  -0.00
  21   7    -0.00   0.00   0.00    -0.17   0.18   0.03     0.00  -0.00  -0.00
  22   6    -0.00   0.00   0.00    -0.00   0.00   0.00     0.00  -0.00  -0.00
  23   6     0.00   0.00   0.00     0.00  -0.00  -0.00    -0.00   0.00   0.00
  24   7    -0.00  -0.00  -0.00     0.00   0.00   0.00    -0.00  -0.00  -0.00
  25   1     0.00   0.00   0.00    -0.00   0.00   0.00     0.00   0.00   0.00
  26   1     0.00   0.00   0.00     0.00   0.00   0.00     0.00   0.00   0.00
  27   1     0.00  -0.00  -0.00     0.00  -0.00  -0.00     0.00   0.00   0.00
  28   1     0.00  -0.00  -0.00     0.00  -0.00  -0.00     0.00   0.00   0.00
  29   1     0.01  -0.02  -0.00    -0.15   0.16   0.03     0.00  -0.00  -0.00
  30   1    -0.00  -0.00  -0.00    -0.00  -0.00  -0.00     0.00   0.00   0.00
  31   1     0.00   0.00   0.00    -0.00   0.00   0.00     0.00   0.00   0.00
  32   1     0.00   0.00   0.00    -0.00   0.00  -0.00     0.00   0.00   0.00
  33   1     0.00   0.00   0.00     0.00   0.00   0.00     0.00   0.00   0.00
  34   1     0.00  -0.00  -0.00     0.00  -0.00  -0.00     0.00   0.00  -0.00
  35   1     0.00  -0.00  -0.00     0.00  -0.00  -0.00     0.00   0.00   0.00
  36   1     0.00  -0.00  -0.00     0.64  -0.68  -0.10    -0.00   0.00   0.00
  37   1     0.00  -0.00  -0.00    -0.00  -0.00  -0.00     0.00   0.00   0.00
  38   6    -0.00  -0.00  -0.00     0.00  -0.00  -0.00     0.00   0.00   0.00
  39   6    -0.00  -0.00  -0.00    -0.00  -0.00  -0.00     0.00   0.00   0.00
  40   6     0.00  -0.00  -0.00     0.00   0.00  -0.00    -0.00  -0.00  -0.00
  41   6     0.00   0.00   0.00     0.00   0.00   0.00    -0.00   0.00   0.00
  42   6    -0.00   0.00   0.00    -0.00  -0.00  -0.00    -0.00  -0.00  -0.00
  43   6     0.00  -0.00  -0.00    -0.00   0.00   0.00    -0.00   0.00   0.00
  44   6     0.00  -0.00  -0.00     0.00   0.00   0.00    -0.00   0.00   0.00
  45   6    -0.00   0.00   0.00     0.00   0.00   0.00     0.00   0.00   0.00
  46   7    -0.17   0.18   0.03     0.00  -0.00  -0.00     0.04  -0.04  -0.01
  47   6    -0.00   0.00   0.00    -0.00  -0.00  -0.00    -0.00   0.00   0.00
  48   6     0.00  -0.00  -0.00     0.00   0.00   0.00    -0.00   0.00   0.00
  49   6     0.00   0.00   0.00    -0.00  -0.00  -0.00    -0.00  -0.00  -0.00
  50   6    -0.00   0.00   0.00    -0.00  -0.00  -0.00    -0.00  -0.00  -0.00
  51   6     0.00  -0.00  -0.00     0.00  -0.00  -0.00     0.00  -0.00  -0.00
  52   7     0.00   0.00   0.00    -0.00  -0.00  -0.00    -0.00  -0.00  -0.00
  53   6    -0.00   0.00   0.00    -0.00   0.00   0.00    -0.00   0.00   0.00
  54   6    -0.00   0.00   0.00    -0.00   0.00   0.00    -0.00   0.00   0.00
  55   6    -0.00  -0.00  -0.00    -0.00  -0.00  -0.00     0.00  -0.00  -0.00
  56   6     0.00   0.00   0.00     0.00  -0.00  -0.00     0.00  -0.00  -0.00
  57   6    -0.00   0.00   0.00    -0.00   0.00   0.00    -0.00   0.00   0.00
  58   7    -0.04   0.04   0.01    -0.00   0.00   0.00    -0.17   0.18   0.03
  59   6    -0.00   0.00   0.00    -0.00   0.00  -0.00    -0.00   0.00   0.00
  60   6     0.00   0.00   0.00     0.00  -0.00  -0.00     0.00  -0.00  -0.00
  61   7    -0.00  -0.00  -0.00     0.00   0.00   0.00     0.00   0.00   0.00
  62   1    -0.00   0.00   0.00     0.00   0.00   0.00    -0.00   0.00   0.00
  63   1    -0.00   0.00   0.00     0.00   0.00   0.00     0.00   0.00   0.00
  64   1     0.01  -0.00  -0.00     0.00  -0.00  -0.00     0.00  -0.00  -0.00
  65   1     0.00  -0.01  -0.00     0.00   0.00   0.00     0.00  -0.00  -0.00
  66   1     0.64  -0.68  -0.10    -0.00   0.00   0.00    -0.15   0.16   0.02
  67   1    -0.00  -0.01  -0.00     0.00   0.00   0.00    -0.00  -0.00  -0.00
  68   1    -0.00   0.00   0.00     0.00   0.00   0.00    -0.00   0.00   0.00
  69   1    -0.00   0.00   0.00     0.00   0.00   0.00    -0.00   0.00   0.00
  70   1     0.01   0.00   0.00     0.00   0.00   0.00     0.00   0.00   0.00
  71   1     0.01  -0.00  -0.00     0.00  -0.00  -0.00     0.00  -0.00  -0.00
  72   1     0.00  -0.01  -0.00     0.00   0.00   0.00     0.00  -0.00  -0.00
  73   1     0.15  -0.16  -0.02     0.00  -0.00  -0.00     0.64  -0.68  -0.10
  74   1    -0.00  -0.00  -0.00     0.00   0.00   0.00    -0.00  -0.00  -0.00
  75   6    -0.00   0.00   0.00    -0.00   0.00  -0.00    -0.00   0.00  -0.00
  76   6     0.00   0.00  -0.00     0.00   0.00   0.00    -0.00   0.00  -0.00
  77   6     0.00   0.00  -0.00     0.00   0.00  -0.00     0.00  -0.00   0.00
  78   6     0.00  -0.00   0.00    -0.00  -0.00   0.00     0.00  -0.00   0.00
  79   6    -0.00  -0.00   0.00     0.00  -0.00   0.00    -0.00  -0.00   0.00
  80   6     0.00  -0.00   0.00    -0.00  -0.00  -0.00     0.00  -0.00   0.00
  81   6    -0.00  -0.00   0.00     0.00  -0.00   0.00    -0.00  -0.00   0.00
  82   6     0.00   0.00  -0.00     0.00  -0.00  -0.00     0.00   0.00  -0.00
  83   6     0.00  -0.00  -0.00    -0.00   0.00   0.00     0.00   0.00   0.00
  84   6    -0.00   0.00   0.00    -0.00   0.00   0.00    -0.00   0.00   0.00
  85   6    -0.00  -0.00   0.00    -0.00   0.00  -0.00     0.00  -0.00   0.00
  86   6    -0.00  -0.00   0.00    -0.00  -0.00   0.00    -0.00  -0.00   0.00
  87   6     0.00  -0.00   0.00     0.00   0.00  -0.00     0.00   0.00   0.00
  88   6     0.00   0.00  -0.00     0.00   0.00  -0.00     0.00   0.00  -0.00
  89   6    -0.00   0.00  -0.00    -0.00  -0.00   0.00    -0.00   0.00   0.00
  90   6    -0.00  -0.00   0.00    -0.00  -0.00   0.00    -0.00   0.00  -0.00
  91   6     0.00  -0.00   0.00    -0.00  -0.00   0.00     0.00  -0.00   0.00
  92   6    -0.00  -0.00   0.00    -0.00  -0.00   0.00     0.00   0.00  -0.00
  93   7    -0.00   0.00  -0.00    -0.00   0.00  -0.00    -0.00   0.00  -0.00
  94   6     0.00   0.00  -0.00    -0.00   0.00  -0.00    -0.00   0.00  -0.00
  95   6     0.00   0.00  -0.00     0.00   0.00  -0.00     0.00  -0.00   0.00
  96   6     0.00   0.00  -0.00    -0.00   0.00  -0.00    -0.00  -0.00   0.00
  97   6    -0.00  -0.00   0.00     0.00  -0.00   0.00    -0.00  -0.00   0.00
  98   6     0.00  -0.00   0.00     0.00   0.00  -0.00     0.00  -0.00  -0.00
  99   7    -0.00  -0.00   0.00    -0.00  -0.00   0.00    -0.00   0.00  -0.00
 100   6     0.00   0.00  -0.00     0.00   0.00  -0.00     0.00   0.00  -0.00
 101   6    -0.00   0.00  -0.00    -0.00  -0.00   0.00     0.00   0.00   0.00
 102   6    -0.00  -0.00   0.00     0.00  -0.00   0.00    -0.00   0.00  -0.00
 103   6     0.00  -0.00   0.00    -0.00  -0.00   0.00     0.00   0.00  -0.00
 104   6    -0.00  -0.00   0.00    -0.00  -0.00   0.00     0.00   0.00  -0.00
 105   7    -0.00   0.00  -0.00    -0.00   0.00  -0.00    -0.00   0.00  -0.00
 106   6     0.00   0.00  -0.00    -0.00   0.00  -0.00    -0.00  -0.00   0.00
 107   6     0.00   0.00  -0.00     0.00   0.00  -0.00     0.00  -0.00   0.00
 108   7     0.00  -0.00   0.00    -0.00  -0.00   0.00    -0.00   0.00  -0.00
 109   1     0.00   0.00  -0.00    -0.00  -0.00   0.00     0.00   0.00  -0.00
 110   1     0.00   0.00  -0.00     0.00  -0.00  -0.00     0.00   0.00  -0.00
 111   1     0.00  -0.00   0.00     0.00  -0.00   0.00     0.00  -0.00   0.00
 112   1     0.00   0.00  -0.00     0.00   0.00  -0.00     0.00   0.00  -0.00
 113   1     0.00  -0.00   0.00     0.00  -0.00   0.00     0.00  -0.00   0.00
 114   1     0.00  -0.00   0.00     0.00  -0.00   0.00     0.00  -0.00  -0.00
 115   1     0.00  -0.00   0.00    -0.00  -0.00   0.00     0.00   0.00  -0.00
 116   1     0.00   0.00  -0.00    -0.00  -0.00   0.00     0.00   0.00  -0.00
 117   1     0.00  -0.00   0.00    -0.00   0.00  -0.00     0.00  -0.00   0.00
 118   1     0.00  -0.00   0.00    -0.00   0.00  -0.00     0.00  -0.00   0.00
 119   1     0.00  -0.00   0.00     0.00  -0.00   0.00     0.00  -0.00   0.00
 120   1     0.00   0.00  -0.00     0.00  -0.00   0.00     0.00   0.00   0.00
 121   6     0.00  -0.00  -0.00     0.00  -0.00  -0.00     0.00   0.00   0.00
 122   6    -0.00   0.00  -0.00    -0.00  -0.00  -0.00    -0.00   0.00   0.00
 123   6    -0.00   0.00   0.00     0.00  -0.00  -0.00     0.00   0.00   0.00
 124   6     0.00  -0.00   0.00     0.00  -0.00  -0.00     0.00  -0.00   0.00
 125   6    -0.00   0.00   0.00    -0.00  -0.00   0.00     0.00  -0.00  -0.00
 126   6    -0.00  -0.00  -0.00    -0.00  -0.00  -0.00    -0.00  -0.00  -0.00
 127   6     0.00   0.00   0.00     0.00   0.00   0.00     0.00   0.00   0.00
 128   6    -0.00   0.00   0.00    -0.00  -0.00  -0.00     0.00   0.00   0.00
 129   7    -0.00   0.00   0.00    -0.00   0.00   0.00    -0.00   0.00   0.00
 130   6     0.00   0.00   0.00     0.00   0.00   0.00    -0.00  -0.00  -0.00
 131   6    -0.00  -0.00   0.00    -0.00   0.00   0.00     0.00  -0.00  -0.00
 132   6     0.00  -0.00  -0.00    -0.00   0.00   0.00    -0.00  -0.00  -0.00
 133   6    -0.00  -0.00  -0.00     0.00   0.00   0.00    -0.00  -0.00  -0.00
 134   6    -0.00  -0.00  -0.00     0.00   0.00   0.00     0.00  -0.00  -0.00
 135   7     0.00  -0.00   0.00    -0.00  -0.00  -0.00     0.00   0.00   0.00
 136   6     0.00  -0.00  -0.00     0.00  -0.00   0.00     0.00  -0.00  -0.00
 137   6    -0.00   0.00   0.00    -0.00  -0.00  -0.00     0.00   0.00   0.00
 138   6    -0.00  -0.00  -0.00     0.00  -0.00  -0.00    -0.00   0.00   0.00
 139   6     0.00   0.00   0.00     0.00  -0.00  -0.00     0.00   0.00   0.00
 140   6    -0.00   0.00   0.00    -0.00  -0.00  -0.00     0.00   0.00   0.00
 141   7    -0.00   0.00   0.00    -0.00   0.00   0.00    -0.00   0.00   0.00
 142   6     0.00   0.00   0.00     0.00  -0.00  -0.00    -0.00   0.00   0.00
 143   6    -0.00   0.00   0.00    -0.00   0.00   0.00     0.00  -0.00   0.00
 144   7     0.00  -0.00  -0.00     0.00   0.00   0.00    -0.00  -0.00  -0.00
 145   1     0.00  -0.00   0.00     0.00   0.00   0.00     0.00  -0.00  -0.00
 146   1     0.00   0.00   0.00     0.00  -0.00  -0.00     0.00  -0.00   0.00
 147   1     0.00  -0.00  -0.00     0.00  -0.00   0.00     0.00  -0.00  -0.00
 148   1     0.00  -0.00  -0.00     0.00  -0.00  -0.00     0.00  -0.00  -0.00
 149   1     0.00  -0.00  -0.00     0.00  -0.00  -0.00     0.00  -0.00  -0.00
 150   1     0.00  -0.00  -0.00     0.00  -0.00  -0.00     0.00  -0.00  -0.00
 151   1     0.00   0.00   0.00    -0.00  -0.00  -0.00     0.00   0.00   0.00
 152   1     0.00   0.00   0.00    -0.00  -0.00  -0.00     0.00  -0.00   0.00
 153   1     0.00  -0.00  -0.00    -0.00   0.00   0.00     0.00  -0.00   0.00
 154   1     0.00  -0.00  -0.00     0.00   0.00   0.00     0.00  -0.00  -0.00
 155   1     0.00  -0.00  -0.00     0.00  -0.00  -0.00     0.00  -0.00  -0.00
 156   1     0.00  -0.00  -0.00     0.00   0.00   0.00     0.00  -0.00  -0.00
 157   6     0.00   0.00  -0.00    -0.00  -0.00   0.00    -0.00   0.00  -0.00
 158   6     0.00   0.00  -0.00    -0.00  -0.00   0.00     0.00   0.00  -0.00
 159   6     0.00   0.00  -0.00     0.00  -0.00  -0.00     0.00   0.00  -0.00
 160   6     0.00  -0.00   0.00     0.00  -0.00   0.00    -0.00  -0.00   0.00
 161   6    -0.00  -0.00   0.00     0.00   0.00   0.00    -0.00  -0.00   0.00
 162   6    -0.00  -0.00   0.00    -0.00   0.00  -0.00     0.00  -0.00   0.00
 163   6     0.00   0.00   0.00     0.00   0.00  -0.00     0.00  -0.00   0.00
 164   6    -0.00  -0.00   0.00     0.00   0.00  -0.00    -0.00  -0.00   0.00
 165   7    -0.00   0.00  -0.00    -0.00   0.00  -0.00    -0.00   0.00  -0.00
 166   6     0.00  -0.00   0.00    -0.00   0.00  -0.00     0.00  -0.00   0.00
 167   6    -0.00   0.00  -0.00     0.00  -0.00   0.00    -0.00   0.00  -0.00
 168   6     0.00  -0.00   0.00     0.00   0.00  -0.00     0.00  -0.00   0.00
 169   6    -0.00   0.00  -0.00    -0.00   0.00   0.00    -0.00   0.00  -0.00
 170   6    -0.00  -0.00  -0.00     0.00   0.00   0.00    -0.00  -0.00  -0.00
 171   7     0.00  -0.00   0.00    -0.00  -0.00   0.00     0.00   0.00   0.00
 172   6     0.00  -0.00   0.00     0.00  -0.00   0.00     0.00  -0.00   0.00
 173   6    -0.00   0.00   0.00     0.00  -0.00  -0.00    -0.00  -0.00   0.00
 174   6    -0.00  -0.00   0.00    -0.00  -0.00   0.00    -0.00  -0.00   0.00
 175   6     0.00   0.00  -0.00     0.00   0.00  -0.00     0.00   0.00  -0.00
 176   6    -0.00  -0.00   0.00     0.00   0.00  -0.00    -0.00  -0.00   0.00
 177   7     0.00   0.00  -0.00    -0.00   0.00  -0.00    -0.00   0.00  -0.00
 178   6     0.00   0.00  -0.00    -0.00   0.00  -0.00     0.00   0.00  -0.00
 179   6    -0.00   0.00  -0.00     0.00  -0.00  -0.00    -0.00   0.00  -0.00
 180   7     0.00  -0.00   0.00     0.00   0.00  -0.00    -0.00  -0.00   0.00
 181   1    -0.00  -0.00   0.00     0.00   0.00  -0.00    -0.00  -0.00   0.00
 182   1    -0.00  -0.00   0.00     0.00  -0.00  -0.00    -0.00  -0.00   0.00
 183   1     0.00  -0.00   0.00     0.00  -0.00   0.00    -0.00   0.00  -0.00
 184   1     0.00   0.00  -0.00     0.00  -0.00   0.00     0.00   0.00  -0.00
 185   1     0.00  -0.00   0.00     0.00  -0.00   0.00     0.00  -0.00   0.00
 186   1     0.00   0.00   0.00     0.00  -0.00   0.00     0.00   0.00  -0.00
 187   1     0.00   0.00  -0.00     0.00  -0.00   0.00     0.00   0.00  -0.00
 188   1     0.00   0.00   0.00     0.00  -0.00   0.00     0.00  -0.00  -0.00
 189   1     0.00  -0.00   0.00     0.00  -0.00  -0.00     0.00  -0.00   0.00
 190   1     0.00  -0.00   0.00     0.00  -0.00   0.00     0.00  -0.00   0.00
 191   1     0.00  -0.00   0.00     0.00  -0.00   0.00     0.00  -0.00   0.00
 192   1    -0.00  -0.00   0.00     0.00  -0.00  -0.00    -0.00  -0.00   0.00
 193   6    -0.00   0.00  -0.00    -0.00  -0.00   0.00    -0.00   0.00  -0.00
 194   6     0.00  -0.00   0.00    -0.00  -0.00   0.00     0.00  -0.00   0.00
 195   6     0.00   0.00  -0.00     0.00   0.00  -0.00     0.00   0.00  -0.00
 196   6     0.00   0.00  -0.00     0.00   0.00  -0.00     0.00   0.00  -0.00
 197   6    -0.00  -0.00   0.00     0.00  -0.00   0.00     0.00  -0.00   0.00
 198   6     0.00  -0.00   0.00    -0.00   0.00  -0.00     0.00  -0.00   0.00
 199   6    -0.00  -0.00   0.00     0.00   0.00  -0.00    -0.00  -0.00   0.00
 200   6    -0.00  -0.00   0.00     0.00   0.00  -0.00    -0.00  -0.00   0.00
 201   7    -0.00   0.00  -0.00    -0.00   0.00  -0.00    -0.00   0.00  -0.00
 202   6     0.00   0.00  -0.00    -0.00   0.00   0.00    -0.00   0.00  -0.00
 203   6    -0.00   0.00  -0.00     0.00  -0.00   0.00     0.00   0.00  -0.00
 204   6    -0.00   0.00  -0.00     0.00  -0.00   0.00    -0.00   0.00  -0.00
 205   6    -0.00  -0.00   0.00    -0.00  -0.00   0.00    -0.00  -0.00   0.00
 206   6     0.00   0.00  -0.00     0.00   0.00  -0.00     0.00   0.00  -0.00
 207   7    -0.00  -0.00   0.00    -0.00   0.00   0.00    -0.00  -0.00   0.00
 208   6    -0.00  -0.00   0.00     0.00   0.00  -0.00     0.00  -0.00  -0.00
 209   6    -0.00   0.00   0.00    -0.00  -0.00   0.00    -0.00  -0.00   0.00
 210   6     0.00  -0.00   0.00    -0.00   0.00  -0.00    -0.00  -0.00   0.00
 211   6     0.00  -0.00   0.00     0.00  -0.00   0.00    -0.00  -0.00   0.00
 212   6    -0.00  -0.00   0.00     0.00   0.00  -0.00    -0.00  -0.00   0.00
 213   7    -0.00   0.00  -0.00    -0.00   0.00  -0.00    -0.00   0.00  -0.00
 214   6     0.00   0.00  -0.00    -0.00   0.00  -0.00     0.00   0.00  -0.00
 215   6    -0.00   0.00  -0.00     0.00  -0.00   0.00     0.00   0.00  -0.00
 216   7    -0.00  -0.00   0.00    -0.00   0.00  -0.00    -0.00  -0.00   0.00
 217   1    -0.00  -0.00   0.00     0.00   0.00  -0.00    -0.00  -0.00   0.00
 218   1    -0.00  -0.00   0.00     0.00   0.00  -0.00    -0.00  -0.00   0.00
 219   1    -0.00   0.00  -0.00     0.00  -0.00   0.00    -0.00   0.00  -0.00
 220   1     0.00   0.00  -0.00     0.00  -0.00   0.00    -0.00   0.00  -0.00
 221   1     0.01  -0.01   0.00     0.00  -0.00   0.00     0.00  -0.00   0.00
 222   1     0.00  -0.00   0.00     0.00   0.00   0.00     0.00  -0.00   0.00
 223   1    -0.00  -0.00   0.00     0.00   0.00  -0.00    -0.00  -0.00   0.00
 224   1     0.00  -0.00  -0.00     0.00   0.00  -0.00     0.00  -0.00  -0.00
 225   1     0.00   0.00  -0.00     0.00  -0.00   0.00     0.00  -0.00   0.00
 226   1     0.00   0.00  -0.00     0.00   0.00  -0.00     0.00   0.00  -0.00
 227   1     0.01  -0.01   0.00     0.00  -0.00   0.00     0.00  -0.00   0.00
 228   1     0.00  -0.00   0.00     0.00  -0.00   0.00     0.00  -0.00   0.00
