      -----------------------------------------------------------      
     |                   =====================                   |     
     |                           x T B                           |     
     |                   =====================                   |     
     |                         S. Grimme                         |     
     |          Mulliken Center for Theoretical Chemistry        |     
     |                    University of Bonn                     |     
      -----------------------------------------------------------      

   * xtb version 6.4.1 (bd6e46d) compiled by 'conda@4901f00b25ba' on 2021-06-10

   xtb is free software: you can redistribute it and/or modify it under
   the terms of the GNU Lesser General Public License as published by
   the Free Software Foundation, either version 3 of the License, or
   (at your option) any later version.
   
   xtb is distributed in the hope that it will be useful,
   but WITHOUT ANY WARRANTY; without even the implied warranty of
   MERCHANTABILITY or FITNESS FOR A PARTICULAR PURPOSE.  See the
   GNU Lesser General Public License for more details.
   
   Cite this work as:
   * C. Bannwarth, E. Caldeweyher, S. Ehlert, A. Hansen, P. Pracht,
     J. Seibert, S. Spicher, S. Grimme, WIREs Comput. Mol. Sci., 2020, 11,
     e01493. DOI: 10.1002/wcms.1493
   
   for GFN2-xTB:
   * C. Bannwarth, S. Ehlert and S. Grimme., J. Chem. Theory Comput., 2019,
     15, 1652-1671. DOI: 10.1021/acs.jctc.8b01176
   for GFN1-xTB:
   * S. Grimme, C. Bannwarth, P. Shushkov, J. Chem. Theory Comput., 2017,
     13, 1989-2009. DOI: 10.1021/acs.jctc.7b00118
   for GFN0-xTB:
   * P. Pracht, E. Caldeweyher, S. Ehlert, S. Grimme, ChemRxiv, 2019, preprint.
     DOI: 10.26434/chemrxiv.8326202.v1
   for GFN-FF:
   * S. Spicher and S. Grimme, Angew. Chem. Int. Ed., 2020, 59, 15665-15673.
     DOI: 10.1002/anie.202004239
   
   for DFT-D4:
   * E. Caldeweyher, C. Bannwarth and S. Grimme, J. Chem. Phys., 2017,
     147, 034112. DOI: 10.1063/1.4993215
   * E. Caldeweyher, S. Ehlert, A. Hansen, H. Neugebauer, S. Spicher,
     C. Bannwarth and S. Grimme, J. Chem. Phys., 2019, 150, 154122.
     DOI: 10.1063/1.5090222
   * E. Caldeweyher, J.-M. Mewes, S. Ehlert and S. Grimme, Phys. Chem. Chem. Phys.
     2020, 22, 8499-8512. DOI: 10.1039/D0CP00502A
   
   for sTDA-xTB:
   * S. Grimme and C. Bannwarth, J. Chem. Phys., 2016, 145, 054103.
     DOI: 10.1063/1.4959605
   
   in the mass-spec context:
   * V. Asgeirsson, C. Bauer and S. Grimme, Chem. Sci., 2017, 8, 4879.
     DOI: 10.1039/c7sc00601b
   * J. Koopman and S. Grimme, ACS Omega 2019, 4, 12, 15120-15133.
     DOI: 10.1021/acsomega.9b02011
   
   for metadynamics refer to:
   * S. Grimme, J. Chem. Theory Comput., 2019, 155, 2847-2862
     DOI: 10.1021/acs.jctc.9b00143
   
   for SPH calculations refer to:
   * S. Spicher and S. Grimme, J. Chem. Theory Comput., 2021, 17, 1701-1714
     DOI: 10.1021/acs.jctc.0c01306
   
   with help from (in alphabetical order)
   P. Atkinson, C. Bannwarth, F. Bohle, G. Brandenburg, E. Caldeweyher
   M. Checinski, S. Dohm, S. Ehlert, S. Ehrlich, I. Gerasimov, J. Koopman
   C. Lavigne, S. Lehtola, F. März, M. Müller, F. Musil, H. Neugebauer
   J. Pisarek, C. Plett, P. Pracht, J. Seibert, P. Shushkov, S. Spicher
   M. Stahn, M. Steiner, T. Strunk, J. Stückrath, T. Rose, and J. Unsleber
   
 * started run on 2021/11/19 at 16:48:55.169     

           -------------------------------------------------
          |                Calculation Setup                |
           -------------------------------------------------

          program call               : /home/jeff/miniconda3/bin/xtb input_structure_1.xyz --gfn 2 --ohess normal --parallel 1 --etemp 300 --chrg 0 --uhf 0 -I det_control.in
          hostname                   : jelfscompute1
          coordinate file            : input_structure_1.xyz
          omp threads                :                     1
          number of atoms            :                   228
          number of electrons        :                   714
          charge                     :                     0
          spin                       :                   0.0
          first test random number   :      0.88673706405377

   ID    Z sym.   atoms
    1    6 C      1-8, 10-14, 16-20, 22, 23, 38-45, 47-51, 53-57, 59, 60,
                  75-92, 94-98, 100-104, 106, 107, 121-128, 130-134, 136-140,
                  142, 143, 157-164, 166-170, 172-176, 178, 179, 193-200,
                  202-206, 208-212, 214, 215
    2    7 N      9, 15, 21, 24, 46, 52, 58, 61, 93, 99, 105, 108, 129, 135,
                  141, 144, 165, 171, 177, 180, 201, 207, 213, 216
    3    1 H      25-37, 62-74, 109-120, 145-156, 181-192, 217-228

molecular fragmentation (1/2 indicates fragments):
111111111111111111111111111111111111122222222222222222222222222222222222
222222222222222222222222222222222222222222222222222222222222222222222222
222222222222222222222222222222222222222222222222222222222222222222222222
222222222222
# atoms in fragment 1/2:    37   191
 fragment masses (1/2) :      309.34     1662.80
CMA distance (Bohr)    :  59.816
constraining FC (au)   :  0.0500

           -------------------------------------------------
          |                 G F N 2 - x T B                 |
           -------------------------------------------------

        Reference                      10.1021/acs.jctc.8b01176
      * Hamiltonian:
        H0-scaling (s, p, d)           1.850000    2.230000    2.230000
        zeta-weighting                 0.500000
      * Dispersion:
        s8                             2.700000
        a1                             0.520000
        a2                             5.000000
        s9                             5.000000
      * Repulsion:
        kExp                           1.500000    1.000000
        rExp                           1.000000
      * Coulomb:
        alpha                          2.000000
        third order                    shell-resolved
        anisotropic                    true
        a3                             3.000000
        a5                             4.000000
        cn-shift                       1.200000
        cn-exp                         4.000000
        max-rad                        5.000000


          ...................................................
          :                      SETUP                      :
          :.................................................:
          :  # basis functions                 690          :
          :  # atomic orbitals                 690          :
          :  # shells                          382          :
          :  # electrons                       714          :
          :  max. iterations                   250          :
          :  Hamiltonian                  GFN2-xTB          :
          :  restarted?                      false          :
          :  GBSA solvation                  false          :
          :  PC potential                    false          :
          :  electronic temp.          300.0000000     K    :
          :  accuracy                    1.0000000          :
          :  -> integral cutoff          0.2500000E+02      :
          :  -> integral neglect         0.1000000E-07      :
          :  -> SCF convergence          0.1000000E-05 Eh   :
          :  -> wf. convergence          0.1000000E-03 e    :
          :  Broyden damping             0.4000000          :
          ...................................................

 iter      E             dE          RMSdq      gap      omega  full diag
   1   -391.4533088 -0.391453E+03  0.469E+00    0.04       0.0  T
   2   -391.8083939 -0.355085E+00  0.310E+00    0.34       1.0  T
   3   -376.7573004  0.150511E+02  0.348E+00    0.05       1.0  T
   4   -262.3561308  0.114401E+03  0.775E+00    0.00       1.0  T
   5   -372.0926338 -0.109737E+03  0.378E+00    0.01       1.0  T
   6   -391.0821108 -0.189895E+02  0.196E+00    0.21       1.0  T
   7   -391.8593439 -0.777233E+00  0.116E+00    0.19       1.0  T
   8   -392.0192342 -0.159890E+00  0.812E-01    0.15       1.0  T
   9   -392.0414160 -0.221818E-01  0.836E-01    0.18       1.0  T
  10   -392.1850336 -0.143618E+00  0.561E-01    0.06       1.0  T
  11   -392.0791586  0.105875E+00  0.672E-01    0.23       1.0  T
  12   -392.0876360 -0.847742E-02  0.627E-01    0.22       1.0  T
  13   -392.1106051 -0.229691E-01  0.477E-01    0.19       1.0  T
  14   -392.1260081 -0.154030E-01  0.334E-01    0.09       1.0  T
  15   -392.1954510 -0.694428E-01  0.170E-01    0.08       1.0  T
  16   -392.1999526 -0.450165E-02  0.280E-01    0.04       1.0  T
  17   -392.2121496 -0.121969E-01  0.210E-01    0.05       1.0  T
  18   -392.2143962 -0.224664E-02  0.214E-01    0.05       1.0  T
  19   -392.2197755 -0.537932E-02  0.168E-01    0.05       1.0  T
  20   -392.2212593 -0.148379E-02  0.155E-01    0.05       1.0  T
  21   -392.2251256 -0.386631E-02  0.936E-02    0.05       1.0  T
  22   -392.2273417 -0.221610E-02  0.359E-02    0.05       1.0  T
  23   -392.2275465 -0.204813E-03  0.286E-02    0.05       1.0  T
  24   -392.2276926 -0.146108E-03  0.254E-02    0.05       1.0  T
  25   -392.2277086 -0.159423E-04  0.237E-02    0.05       1.0  T
  26   -392.2278015 -0.929627E-04  0.197E-02    0.05       1.0  T
  27   -392.2278484 -0.468739E-04  0.172E-02    0.05       1.0  T
  28   -392.2278770 -0.285642E-04  0.140E-02    0.05       1.0  T
  29   -392.2279340 -0.570571E-04  0.991E-03    0.05       1.0  T
  30   -392.2279612 -0.271960E-04  0.652E-03    0.05       1.0  T
  31   -392.2279672 -0.600319E-05  0.499E-03    0.05       1.3  T
  32   -392.2279743 -0.709001E-05  0.321E-03    0.05       2.1  T
  33   -392.2279792 -0.488193E-05  0.146E-03    0.05       4.5  T
  34   -392.2279798 -0.639208E-06  0.884E-04    0.05       7.5  T
  35   -392.2279796  0.245197E-06  0.110E-03    0.05       6.0  T
  36   -392.2279799 -0.343137E-06  0.454E-04    0.05      14.6  T

   *** convergence criteria satisfied after 36 iterations ***

         #    Occupation            Energy/Eh            Energy/eV
      -------------------------------------------------------------
         1        2.0000           -0.6919479             -18.8289
       ...           ...                  ...                  ...
       351        2.0000           -0.3549466              -9.6586
       352        2.0000           -0.3547950              -9.6545
       353        2.0000           -0.3516525              -9.5690
       354        2.0000           -0.3464440              -9.4272
       355        2.0000           -0.3461581              -9.4194
       356        2.0000           -0.3406994              -9.2709
       357        1.4653           -0.3209820              -8.7344 (HOMO)
       358        0.5346           -0.3190664              -8.6822 (LUMO)
       359        0.0001           -0.3101935              -8.4408
       360        0.0000           -0.3098555              -8.4316
       361                         -0.3026483              -8.2355
       362                         -0.2972099              -8.0875
       ...                                ...                  ...
       690                          2.5963265              70.6496
      -------------------------------------------------------------
                  HL-Gap            0.0019156 Eh            0.0521 eV
             Fermi-level           -0.3200243 Eh           -8.7083 eV

 SCC (total)                   0 d,  0 h,  0 min,  5.293 sec
 SCC setup                      ...        0 min,  0.011 sec (  0.214%)
 Dispersion                     ...        0 min,  0.020 sec (  0.369%)
 classical contributions        ...        0 min,  0.002 sec (  0.041%)
 integral evaluation            ...        0 min,  0.143 sec (  2.706%)
 iterations                     ...        0 min,  4.649 sec ( 87.845%)
 molecular gradient             ...        0 min,  0.450 sec (  8.510%)
 printout                       ...        0 min,  0.017 sec (  0.315%)

         :::::::::::::::::::::::::::::::::::::::::::::::::::::
         ::                     SUMMARY                     ::
         :::::::::::::::::::::::::::::::::::::::::::::::::::::
         :: total energy            -384.043656871496 Eh    ::
         :: gradient norm              2.067171482910 Eh/a0 ::
         :: HOMO-LUMO gap              0.052127130866 eV    ::
         ::.................................................::
         :: SCC energy              -392.227979926982 Eh    ::
         :: -> isotropic ES            0.230405102178 Eh    ::
         :: -> anisotropic ES         -0.014744431428 Eh    ::
         :: -> anisotropic XC          0.264685440116 Eh    ::
         :: -> dispersion             -0.337115974682 Eh    ::
         :: repulsion energy           8.187403565422 Eh    ::
         :: add. restraining           0.000000000000 Eh    ::
         :: total charge              -0.000000000002 e     ::
         :::::::::::::::::::::::::::::::::::::::::::::::::::::

      ----------------------------------------------------------- 
     |                   =====================                   |
     |                        A N C O P T                        |
     |                   =====================                   |
     |               Approximate Normal Coordinate               |
     |                Rational Function Optimizer                |
      ----------------------------------------------------------- 

          ...................................................
          :                      SETUP                      :
          :.................................................:
          :   optimization level            normal          :
          :   max. optcycles                   684          :
          :   ANC micro-cycles                  20          :
          :   degrees of freedom               678          :
          :.................................................:
          :   RF solver                   davidson          :
          :   write xtbopt.log                true          :
          :   linear?                        false          :
          :   energy convergence         0.5000000E-05 Eh   :
          :   grad. convergence          0.1000000E-02 Eh/α :
          :   maximium RF displ.         1.0000000          :
          :   Hlow (freq-cutoff)         0.1000000E-01      :
          :   Hmax (freq-cutoff)         5.0000000          :
          :   S6 in model hess.         20.0000000          :
          ...................................................

generating ANC from model Hessian ...
Using Lindh-Hessian (1995)
 Shifting diagonal of input Hessian by    1.0043668869129919E-002
 Lowest  eigenvalues of input Hessian
    0.010000    0.010017    0.010029    0.010039    0.010040    0.010043
    0.000000    0.000000    0.000000    0.000000    0.000000    0.000000
    0.010045    0.010048    0.010050    0.010059    0.010062    0.010080
 Highest eigenvalues
    2.919746    3.402592    3.490116    3.830653    3.830653    3.830654


........................................................................
.............................. CYCLE    1 ..............................
........................................................................
   1   -392.2279800 -0.392228E+03  0.128E-04    0.05       0.0  T
   2   -392.2279794  0.578798E-06  0.921E-04    0.05       7.2  T
   3   -392.2279785  0.860526E-06  0.148E-03    0.05       4.5  T
   4   -392.2279791 -0.523649E-06  0.119E-03    0.05       5.6  T
   5   -392.2279795 -0.454711E-06  0.843E-04    0.05       7.9  T
     SCC iter.                  ...        0 min,  0.655 sec
     gradient                   ...        0 min,  0.449 sec
 * total energy  :  -384.0436565 Eh     change        0.4091198E-06 Eh
   gradient norm :     2.0671700 Eh/α   predicted     0.0000000E+00 (-100.00%)
   displ. norm   :     0.6085706 α      lambda       -0.1124903E+01
   maximum displ.:     0.3028623 α      in ANC's #678, #675, #674, ...

........................................................................
.............................. CYCLE    2 ..............................
........................................................................
   1   -392.3858830 -0.392386E+03  0.419E-01    0.19       0.0  T
   2   -392.3708162  0.150668E-01  0.331E-01    0.18       1.0  T
   3   -392.2825125  0.883037E-01  0.434E-01    0.32       1.0  T
   4   -392.2986341 -0.161216E-01  0.400E-01    0.31       1.0  T
   5   -392.3870629 -0.884289E-01  0.165E-01    0.19       1.0  T
   6   -392.3955680 -0.850509E-02  0.830E-02    0.17       1.0  T
   7   -392.3977237 -0.215568E-02  0.363E-02    0.17       1.0  T
   8   -392.3979468 -0.223060E-03  0.247E-02    0.17       1.0  T
   9   -392.3979640 -0.172728E-04  0.176E-02    0.17       1.0  T
  10   -392.3979927 -0.287099E-04  0.878E-03    0.17       1.0  T
  11   -392.3980090 -0.162250E-04  0.503E-03    0.17       1.3  T
  12   -392.3980169 -0.789803E-05  0.153E-03    0.17       4.3  T
  13   -392.3980173 -0.442103E-06  0.703E-04    0.17       9.4  T
  14   -392.3980174 -0.656267E-07  0.585E-04    0.17      11.3  T
     SCC iter.                  ...        0 min,  1.811 sec
     gradient                   ...        0 min,  0.449 sec
 * total energy  :  -384.7690923 Eh     change       -0.7254358E+00 Eh
   gradient norm :     0.6882883 Eh/α   predicted    -0.7707740E+00 (   6.25%)
   displ. norm   :     0.6829359 α      lambda       -0.3999644E+00
   maximum displ.:     0.1741101 α      in ANC's #424, #390, #422, ...

........................................................................
.............................. CYCLE    3 ..............................
........................................................................
   1   -392.4498725 -0.392450E+03  0.332E-01    0.20       0.0  T
   2   -392.4450816  0.479086E-02  0.266E-01    0.21       1.0  T
   3   -392.4324016  0.126800E-01  0.239E-01    0.22       1.0  T
   4   -392.3577956  0.746061E-01  0.392E-01    0.34       1.0  T
   5   -392.4533987 -0.956032E-01  0.750E-02    0.21       1.0  T
   6   -392.4542336 -0.834903E-03  0.529E-02    0.20       1.0  T
   7   -392.4554239 -0.119021E-02  0.173E-02    0.20       1.0  T
   8   -392.4555063 -0.824801E-04  0.116E-02    0.20       1.0  T
   9   -392.4555041  0.226621E-05  0.873E-03    0.20       1.0  T
  10   -392.4555225 -0.184167E-04  0.526E-03    0.20       1.3  T
  11   -392.4555302 -0.769516E-05  0.166E-03    0.20       4.0  T
  12   -392.4555312 -0.102959E-05  0.617E-04    0.20      10.7  T
  13   -392.4555313 -0.832981E-07  0.413E-04    0.20      16.0  T
  14   -392.4555314 -0.774487E-07  0.207E-04    0.20      32.0  T
     SCC iter.                  ...        0 min,  1.819 sec
     gradient                   ...        0 min,  0.448 sec
 * total energy  :  -385.0856403 Eh     change       -0.3165480E+00 Eh
   gradient norm :     0.4147927 Eh/α   predicted    -0.2932551E+00 (  -7.36%)
   displ. norm   :     0.7560595 α      lambda       -0.2592473E+00
   maximum displ.:     0.1816354 α      in ANC's #424, #142, #64, ...

........................................................................
.............................. CYCLE    4 ..............................
........................................................................
   1   -392.5690795 -0.392569E+03  0.304E-01    0.26       0.0  T
   2   -392.5653046  0.377484E-02  0.256E-01    0.26       1.0  T
   3   -392.5689164 -0.361182E-02  0.163E-01    0.26       1.0  T
   4   -392.5656353  0.328118E-02  0.128E-01    0.27       1.0  T
   5   -392.5693286 -0.369330E-02  0.958E-02    0.26       1.0  T
   6   -392.5735025 -0.417395E-02  0.345E-02    0.26       1.0  T
   7   -392.5740780 -0.575516E-03  0.987E-03    0.26       1.0  T
   8   -392.5741068 -0.287857E-04  0.494E-03    0.26       1.3  T
   9   -392.5741069 -0.733992E-07  0.403E-03    0.26       1.6  T
  10   -392.5741106 -0.371322E-05  0.227E-03    0.26       2.9  T
  11   -392.5741117 -0.106689E-05  0.970E-04    0.26       6.8  T
  12   -392.5741120 -0.303104E-06  0.272E-04    0.26      24.4  T
  13   -392.5741120 -0.524790E-08  0.176E-04    0.26      37.7  T
     SCC iter.                  ...        0 min,  1.686 sec
     gradient                   ...        0 min,  0.448 sec
 * total energy  :  -385.2975602 Eh     change       -0.2119199E+00 Eh
   gradient norm :     0.2375099 Eh/α   predicted    -0.2037201E+00 (  -3.87%)
   displ. norm   :     0.8322149 α      lambda       -0.1795798E+00
   maximum displ.:     0.2260600 α      in ANC's #64, #172, #142, ...

........................................................................
.............................. CYCLE    5 ..............................
........................................................................
   1   -392.6192534 -0.392619E+03  0.257E-01    0.28       0.0  T
   2   -392.6157911  0.346236E-02  0.235E-01    0.28       1.0  T
   3   -392.6202815 -0.449047E-02  0.127E-01    0.28       1.0  T
   4   -392.6200569  0.224594E-03  0.792E-02    0.28       1.0  T
   5   -392.6223083 -0.225131E-02  0.360E-02    0.28       1.0  T
   6   -392.6227201 -0.411860E-03  0.861E-03    0.28       1.0  T
   7   -392.6227223 -0.215253E-05  0.709E-03    0.28       1.0  T
   8   -392.6227336 -0.112850E-04  0.457E-03    0.28       1.4  T
   9   -392.6227382 -0.461657E-05  0.245E-03    0.28       2.7  T
  10   -392.6227400 -0.183773E-05  0.926E-04    0.28       7.1  T
  11   -392.6227403 -0.281558E-06  0.448E-04    0.28      14.8  T
  12   -392.6227404 -0.722245E-07  0.189E-04    0.28      35.1  T
     SCC iter.                  ...        0 min,  1.557 sec
     gradient                   ...        0 min,  0.448 sec
 * total energy  :  -385.4477484 Eh     change       -0.1501882E+00 Eh
   gradient norm :     0.1629105 Eh/α   predicted    -0.1519768E+00 (   1.19%)
   displ. norm   :     0.8184956 α      lambda       -0.1145695E+00
   maximum displ.:     0.2718777 α      in ANC's #64, #142, #172, ...

........................................................................
.............................. CYCLE    6 ..............................
........................................................................
   1   -392.6585630 -0.392659E+03  0.213E-01    0.29       0.0  T
   2   -392.6564456  0.211745E-02  0.191E-01    0.29       1.0  T
   3   -392.6590570 -0.261143E-02  0.104E-01    0.29       1.0  T
   4   -392.6598305 -0.773569E-03  0.474E-02    0.29       1.0  T
   5   -392.6605044 -0.673818E-03  0.249E-02    0.29       1.0  T
   6   -392.6607068 -0.202454E-03  0.535E-03    0.29       1.2  T
   7   -392.6607086 -0.183097E-05  0.351E-03    0.29       1.9  T
   8   -392.6607089 -0.204783E-06  0.259E-03    0.29       2.6  T
   9   -392.6607106 -0.179145E-05  0.129E-03    0.29       5.1  T
  10   -392.6607113 -0.683288E-06  0.369E-04    0.29      18.0  T
  11   -392.6607114 -0.252336E-07  0.210E-04    0.29      31.6  T
     SCC iter.                  ...        0 min,  1.431 sec
     gradient                   ...        0 min,  0.448 sec
 * total energy  :  -385.5353338 Eh     change       -0.8758535E-01 Eh
   gradient norm :     0.1223399 Eh/α   predicted    -0.9566187E-01 (   9.22%)
   displ. norm   :     0.7997551 α      lambda       -0.7210896E-01
   maximum displ.:     0.2346587 α      in ANC's #172, #142, #64, ...

........................................................................
.............................. CYCLE    7 ..............................
........................................................................
   1   -392.6940635 -0.392694E+03  0.175E-01    0.32       0.0  T
   2   -392.6938015  0.262032E-03  0.116E-01    0.32       1.0  T
   3   -392.6858214  0.798011E-02  0.126E-01    0.32       1.0  T
   4   -392.6938104 -0.798907E-02  0.427E-02    0.32       1.0  T
   5   -392.6945363 -0.725832E-03  0.109E-02    0.32       1.0  T
   6   -392.6945729 -0.366954E-04  0.388E-03    0.32       1.7  T
   7   -392.6945759 -0.290185E-05  0.204E-03    0.32       3.2  T
   8   -392.6945758  0.112199E-07  0.150E-03    0.32       4.4  T
   9   -392.6945767 -0.864887E-06  0.625E-04    0.32      10.6  T
  10   -392.6945768 -0.134976E-06  0.275E-04    0.32      24.1  T
     SCC iter.                  ...        0 min,  1.300 sec
     gradient                   ...        0 min,  0.447 sec
 * total energy  :  -385.5973999 Eh     change       -0.6206614E-01 Eh
   gradient norm :     0.0903058 Eh/α   predicted    -0.5911538E-01 (  -4.75%)
   displ. norm   :     0.8649481 α      lambda       -0.5817175E-01
   maximum displ.:     0.3074463 α      in ANC's #64, #44, #50, ...

........................................................................
.............................. CYCLE    8 ..............................
........................................................................
   1   -392.7467118 -0.392747E+03  0.153E-01    0.36       0.0  T
   2   -392.7464494  0.262421E-03  0.103E-01    0.35       1.0  T
   3   -392.7407777  0.567165E-02  0.111E-01    0.36       1.0  T
   4   -392.7466692 -0.589152E-02  0.320E-02    0.35       1.0  T
   5   -392.7470697 -0.400448E-03  0.926E-03    0.35       1.0  T
   6   -392.7470963 -0.266281E-04  0.318E-03    0.35       2.1  T
   7   -392.7470984 -0.210786E-05  0.152E-03    0.35       4.4  T
   8   -392.7470982  0.249171E-06  0.124E-03    0.35       5.3  T
   9   -392.7470988 -0.636865E-06  0.447E-04    0.35      14.8  T
  10   -392.7470989 -0.728618E-07  0.165E-04    0.35      40.2  T
     SCC iter.                  ...        0 min,  1.300 sec
     gradient                   ...        0 min,  0.447 sec
 * total energy  :  -385.6489107 Eh     change       -0.5151075E-01 Eh
   gradient norm :     0.0636921 Eh/α   predicted    -0.5084618E-01 (  -1.29%)
   displ. norm   :     0.8871077 α      lambda       -0.4710487E-01
   maximum displ.:     0.3092499 α      in ANC's #64, #50, #44, ...

........................................................................
.............................. CYCLE    9 ..............................
........................................................................
   1   -392.7742198 -0.392774E+03  0.138E-01    0.39       0.0  T
   2   -392.7740964  0.123429E-03  0.872E-02    0.38       1.0  T
   3   -392.7697584  0.433796E-02  0.939E-02    0.39       1.0  T
   4   -392.7742411 -0.448262E-02  0.214E-02    0.39       1.0  T
   5   -392.7744155 -0.174435E-03  0.422E-03    0.38       1.6  T
   6   -392.7744184 -0.288809E-05  0.260E-03    0.38       2.5  T
   7   -392.7744199 -0.153179E-05  0.125E-03    0.38       5.3  T
   8   -392.7744200 -0.388038E-07  0.939E-04    0.38       7.1  T
   9   -392.7744203 -0.342685E-06  0.249E-04    0.38      26.6  T
     SCC iter.                  ...        0 min,  1.170 sec
     gradient                   ...        0 min,  0.447 sec
 * total energy  :  -385.6914435 Eh     change       -0.4253280E-01 Eh
   gradient norm :     0.0521749 Eh/α   predicted    -0.4208730E-01 (  -1.05%)
   displ. norm   :     0.9067016 α      lambda       -0.4002636E-01
   maximum displ.:     0.3255527 α      in ANC's #64, #44, #50, ...

........................................................................
.............................. CYCLE   10 ..............................
........................................................................
   1   -392.8169790 -0.392817E+03  0.128E-01    0.41       0.0  T
   2   -392.8168933  0.857143E-04  0.804E-02    0.41       1.0  T
   3   -392.8141087  0.278459E-02  0.803E-02    0.42       1.0  T
   4   -392.8169777 -0.286891E-02  0.197E-02    0.41       1.0  T
   5   -392.8171401 -0.162433E-03  0.431E-03    0.41       1.5  T
   6   -392.8171443 -0.423112E-05  0.206E-03    0.41       3.2  T
   7   -392.8171450 -0.659124E-06  0.111E-03    0.41       6.0  T
   8   -392.8171451 -0.139689E-06  0.631E-04    0.41      10.5  T
   9   -392.8171452 -0.126393E-06  0.234E-04    0.41      28.3  T
     SCC iter.                  ...        0 min,  1.172 sec
     gradient                   ...        0 min,  0.447 sec
 * total energy  :  -385.7279234 Eh     change       -0.3647988E-01 Eh
   gradient norm :     0.0462594 Eh/α   predicted    -0.3646621E-01 (  -0.04%)
   displ. norm   :     0.9201374 α      lambda       -0.3535504E-01
   maximum displ.:     0.3491005 α      in ANC's #44, #50, #64, ...

........................................................................
.............................. CYCLE   11 ..............................
........................................................................
   1   -392.8482942 -0.392848E+03  0.126E-01    0.44       0.0  T
   2   -392.8481781  0.116052E-03  0.815E-02    0.43       1.0  T
   3   -392.8463061  0.187206E-02  0.763E-02    0.44       1.0  T
   4   -392.8483519 -0.204580E-02  0.188E-02    0.44       1.0  T
   5   -392.8484932 -0.141326E-03  0.524E-03    0.44       1.3  T
   6   -392.8485022 -0.895990E-05  0.203E-03    0.44       3.3  T
   7   -392.8485028 -0.591859E-06  0.112E-03    0.44       5.9  T
   8   -392.8485029 -0.185308E-06  0.605E-04    0.44      10.9  T
   9   -392.8485030 -0.104497E-06  0.205E-04    0.44      32.3  T
     SCC iter.                  ...        0 min,  1.170 sec
     gradient                   ...        0 min,  0.447 sec
 * total energy  :  -385.7593631 Eh     change       -0.3143974E-01 Eh
   gradient norm :     0.0483801 Eh/α   predicted    -0.3264426E-01 (   3.83%)
   displ. norm   :     0.9207316 α      lambda       -0.3214158E-01
   maximum displ.:     0.3733678 α      in ANC's #50, #44, #64, ...

........................................................................
.............................. CYCLE   12 ..............................
........................................................................
   1   -392.8754459 -0.392875E+03  0.124E-01    0.46       0.0  T
   2   -392.8753193  0.126641E-03  0.827E-02    0.46       1.0  T
   3   -392.8739426  0.137673E-02  0.728E-02    0.46       1.0  T
   4   -392.8755620 -0.161947E-02  0.175E-02    0.46       1.0  T
   5   -392.8756798 -0.117741E-03  0.510E-03    0.46       1.3  T
   6   -392.8756889 -0.907851E-05  0.210E-03    0.46       3.2  T
   7   -392.8756896 -0.754493E-06  0.112E-03    0.46       5.9  T
   8   -392.8756898 -0.179076E-06  0.592E-04    0.46      11.2  T
   9   -392.8756899 -0.103619E-06  0.202E-04    0.46      32.8  T
     SCC iter.                  ...        0 min,  1.175 sec
     gradient                   ...        0 min,  0.451 sec
 * total energy  :  -385.7871861 Eh     change       -0.2782298E-01 Eh
   gradient norm :     0.0435992 Eh/α   predicted    -0.2969477E-01 (   6.73%)
   displ. norm   :     0.9085466 α      lambda       -0.2718045E-01
   maximum displ.:     0.4009950 α      in ANC's #44, #50, #64, ...

........................................................................
.............................. CYCLE   13 ..............................
........................................................................
   1   -392.9088143 -0.392909E+03  0.120E-01    0.48       0.0  T
   2   -392.9087744  0.398845E-04  0.738E-02    0.48       1.0  T
   3   -392.9072173  0.155708E-02  0.657E-02    0.48       1.0  T
   4   -392.9088425 -0.162515E-02  0.140E-02    0.48       1.0  T
   5   -392.9089263 -0.837888E-04  0.372E-03    0.48       1.8  T
   6   -392.9089305 -0.425518E-05  0.168E-03    0.48       3.9  T
   7   -392.9089310 -0.460881E-06  0.882E-04    0.48       7.5  T
   8   -392.9089311 -0.140511E-06  0.401E-04    0.48      16.5  T
     SCC iter.                  ...        0 min,  1.048 sec
     gradient                   ...        0 min,  0.451 sec
 * total energy  :  -385.8121051 Eh     change       -0.2491905E-01 Eh
   gradient norm :     0.0343148 Eh/α   predicted    -0.2480839E-01 (  -0.44%)
   displ. norm   :     0.9251049 α      lambda       -0.2400658E-01
   maximum displ.:     0.4432285 α      in ANC's #50, #44, #47, ...

........................................................................
.............................. CYCLE   14 ..............................
........................................................................
   1   -392.9326645 -0.392933E+03  0.117E-01    0.50       0.0  T
   2   -392.9326569  0.758024E-05  0.687E-02    0.50       1.0  T
   3   -392.9315333  0.112368E-02  0.522E-02    0.50       1.0  T
   4   -392.9326815 -0.114824E-02  0.120E-02    0.50       1.0  T
   5   -392.9327409 -0.593660E-04  0.302E-03    0.50       2.2  T
   6   -392.9327436 -0.271412E-05  0.150E-03    0.50       4.4  T
   7   -392.9327440 -0.446322E-06  0.667E-04    0.50       9.9  T
   8   -392.9327440 -0.279138E-07  0.374E-04    0.50      17.7  T
     SCC iter.                  ...        0 min,  1.049 sec
     gradient                   ...        0 min,  0.450 sec
 * total energy  :  -385.8345747 Eh     change       -0.2246958E-01 Eh
   gradient norm :     0.0292203 Eh/α   predicted    -0.2227594E-01 (  -0.86%)
   displ. norm   :     0.9321758 α      lambda       -0.2176511E-01
   maximum displ.:     0.4681665 α      in ANC's #50, #44, #47, ...

........................................................................
.............................. CYCLE   15 ..............................
........................................................................
   1   -392.9542508 -0.392954E+03  0.120E-01    0.51       0.0  T
   2   -392.9542427  0.804670E-05  0.708E-02    0.51       1.0  T
   3   -392.9531196  0.112311E-02  0.517E-02    0.52       1.0  T
   4   -392.9542741 -0.115450E-02  0.109E-02    0.51       1.0  T
   5   -392.9543219 -0.477519E-04  0.292E-03    0.51       2.3  T
   6   -392.9543245 -0.263254E-05  0.147E-03    0.51       4.5  T
   7   -392.9543250 -0.450661E-06  0.717E-04    0.51       9.2  T
   8   -392.9543250 -0.626620E-07  0.415E-04    0.51      16.0  T
     SCC iter.                  ...        0 min,  1.052 sec
     gradient                   ...        0 min,  0.449 sec
 * total energy  :  -385.8549496 Eh     change       -0.2037485E-01 Eh
   gradient norm :     0.0275293 Eh/α   predicted    -0.2033897E-01 (  -0.18%)
   displ. norm   :     0.9349244 α      lambda       -0.1976534E-01
   maximum displ.:     0.4838129 α      in ANC's #50, #44, #47, ...

........................................................................
.............................. CYCLE   16 ..............................
........................................................................
   1   -392.9771768 -0.392977E+03  0.122E-01    0.53       0.0  T
   2   -392.9771870 -0.101374E-04  0.711E-02    0.53       1.0  T
   3   -392.9764256  0.761389E-03  0.421E-02    0.53       1.0  T
   4   -392.9771909 -0.765297E-03  0.108E-02    0.53       1.0  T
   5   -392.9772395 -0.486690E-04  0.283E-03    0.53       2.3  T
   6   -392.9772420 -0.248853E-05  0.145E-03    0.53       4.6  T
   7   -392.9772425 -0.436282E-06  0.651E-04    0.53      10.2  T
   8   -392.9772425 -0.178215E-07  0.393E-04    0.53      16.8  T
     SCC iter.                  ...        0 min,  1.050 sec
     gradient                   ...        0 min,  0.449 sec
 * total energy  :  -385.8732277 Eh     change       -0.1827818E-01 Eh
   gradient norm :     0.0263677 Eh/α   predicted    -0.1852095E-01 (   1.33%)
   displ. norm   :     0.9343166 α      lambda       -0.1785473E-01
   maximum displ.:     0.4989670 α      in ANC's #50, #44, #47, ...

........................................................................
.............................. CYCLE   17 ..............................
........................................................................
   1   -392.9869059 -0.392987E+03  0.134E-01    0.55       0.0  T
   2   -392.9869099 -0.400229E-05  0.784E-02    0.54       1.0  T
   3   -392.9860659  0.843996E-03  0.445E-02    0.55       1.0  T
   4   -392.9869285 -0.862577E-03  0.932E-03    0.55       1.0  T
   5   -392.9869633 -0.348547E-04  0.283E-03    0.54       2.3  T
   6   -392.9869658 -0.246661E-05  0.144E-03    0.55       4.6  T
   7   -392.9869662 -0.368574E-06  0.684E-04    0.55       9.7  T
   8   -392.9869662 -0.547436E-07  0.387E-04    0.55      17.1  T
     SCC iter.                  ...        0 min,  1.048 sec
     gradient                   ...        0 min,  0.449 sec
 * total energy  :  -385.8895699 Eh     change       -0.1634221E-01 Eh
   gradient norm :     0.0259933 Eh/α   predicted    -0.1672047E-01 (   2.31%)
   displ. norm   :     0.9231432 α      lambda       -0.1575112E-01
   maximum displ.:     0.4934500 α      in ANC's #50, #44, #47, ...

........................................................................
.............................. CYCLE   18 ..............................
........................................................................
   1   -393.0048958 -0.393005E+03  0.127E-01    0.56       0.0  T
   2   -393.0049018 -0.604070E-05  0.743E-02    0.56       1.0  T
   3   -393.0042778  0.624035E-03  0.387E-02    0.56       1.0  T
   4   -393.0049149 -0.637142E-03  0.803E-03    0.56       1.0  T
   5   -393.0049412 -0.262611E-04  0.235E-03    0.56       2.8  T
   6   -393.0049426 -0.145208E-05  0.136E-03    0.56       4.9  T
   7   -393.0049430 -0.373645E-06  0.637E-04    0.56      10.4  T
   8   -393.0049431 -0.767352E-07  0.318E-04    0.56      20.8  T
     SCC iter.                  ...        0 min,  1.048 sec
     gradient                   ...        0 min,  0.450 sec
 * total energy  :  -385.9040029 Eh     change       -0.1443293E-01 Eh
   gradient norm :     0.0258127 Eh/α   predicted    -0.1458704E-01 (   1.07%)
   displ. norm   :     0.9155909 α      lambda       -0.1388956E-01
   maximum displ.:     0.4821241 α      in ANC's #50, #44, #47, ...

........................................................................
.............................. CYCLE   19 ..............................
........................................................................
   1   -393.0179149 -0.393018E+03  0.126E-01    0.58       0.0  T
   2   -393.0179227 -0.776846E-05  0.738E-02    0.58       1.0  T
   3   -393.0174214  0.501305E-03  0.359E-02    0.58       1.0  T
   4   -393.0179344 -0.513074E-03  0.720E-03    0.58       1.0  T
   5   -393.0179547 -0.202551E-04  0.223E-03    0.58       3.0  T
   6   -393.0179559 -0.119052E-05  0.131E-03    0.58       5.0  T
   7   -393.0179562 -0.342846E-06  0.573E-04    0.58      11.6  T
   8   -393.0179563 -0.573638E-07  0.292E-04    0.58      22.7  T
     SCC iter.                  ...        0 min,  1.048 sec
     gradient                   ...        0 min,  0.449 sec
 * total energy  :  -385.9166422 Eh     change       -0.1263932E-01 Eh
   gradient norm :     0.0231681 Eh/α   predicted    -0.1276664E-01 (   1.01%)
   displ. norm   :     0.9102864 α      lambda       -0.1233466E-01
   maximum displ.:     0.4839734 α      in ANC's #50, #44, #47, ...

........................................................................
.............................. CYCLE   20 ..............................
........................................................................
   1   -393.0269937 -0.393027E+03  0.139E-01    0.59       0.0  T
   2   -393.0270035 -0.976622E-05  0.809E-02    0.59       1.0  T
   3   -393.0266400  0.363431E-03  0.287E-02    0.59       1.0  T
   4   -393.0270053 -0.365282E-03  0.676E-03    0.59       1.0  T
   5   -393.0270258 -0.205038E-04  0.194E-03    0.59       3.4  T
   6   -393.0270263 -0.465996E-06  0.132E-03    0.59       5.0  T
   7   -393.0270267 -0.357064E-06  0.530E-04    0.59      12.5  T
   8   -393.0270267 -0.766256E-07  0.226E-04    0.59      29.3  T
     SCC iter.                  ...        0 min,  1.044 sec
     gradient                   ...        0 min,  0.446 sec
 * total energy  :  -385.9276163 Eh     change       -0.1097409E-01 Eh
   gradient norm :     0.0303323 Eh/α   predicted    -0.1127773E-01 (   2.77%)
   displ. norm   :     0.8941889 α      lambda       -0.1079037E-01
   maximum displ.:     0.4428353 α      in ANC's #50, #44, #47, ...
 * RMSD in coord.:     0.9227588 α      energy gain  -0.1883959E+01 Eh

generating ANC from model Hessian ...
Using Lindh-Hessian (1995)
 Shifting diagonal of input Hessian by    1.0032255116542304E-002
 Lowest  eigenvalues of input Hessian
    0.010000    0.010009    0.010018    0.010031    0.010031    0.000000
    0.000000    0.000000    0.000000    0.000000    0.000000    0.010033
    0.010035    0.010040    0.010047    0.010055    0.010059    0.010086
 Highest eigenvalues
    2.244216    2.672970    2.676953    2.682720    2.682996    2.722165


........................................................................
.............................. CYCLE   21 ..............................
........................................................................
   1   -393.0408943 -0.393041E+03  0.126E-01    0.60       0.0  T
   2   -393.0409067 -0.123772E-04  0.739E-02    0.60       1.0  T
   3   -393.0406813  0.225443E-03  0.258E-02    0.61       1.0  T
   4   -393.0409099 -0.228601E-03  0.604E-03    0.60       1.1  T
   5   -393.0409237 -0.137806E-04  0.170E-03    0.60       3.9  T
   6   -393.0409237 -0.366339E-07  0.129E-03    0.60       5.1  T
   7   -393.0409241 -0.462814E-06  0.539E-04    0.60      12.3  T
   8   -393.0409242 -0.903416E-07  0.181E-04    0.60      36.6  T
     SCC iter.                  ...        0 min,  1.045 sec
     gradient                   ...        0 min,  0.446 sec
 * total energy  :  -385.9370113 Eh     change       -0.9395043E-02 Eh
   gradient norm :     0.0252343 Eh/α   predicted     0.0000000E+00 (-100.00%)
   displ. norm   :     0.5047975 α      lambda       -0.5889448E-02
   maximum displ.:     0.2365091 α      in ANC's #45, #49, #50, ...

........................................................................
.............................. CYCLE   22 ..............................
........................................................................
   1   -393.0457290 -0.393046E+03  0.103E-01    0.61       0.0  T
   2   -393.0457359 -0.688416E-05  0.608E-02    0.61       1.0  T
   3   -393.0456592  0.766794E-04  0.147E-02    0.61       1.0  T
   4   -393.0457360 -0.767518E-04  0.389E-03    0.61       1.7  T
   5   -393.0457413 -0.534261E-05  0.133E-03    0.61       5.0  T
   6   -393.0457413 -0.260608E-07  0.990E-04    0.61       6.7  T
   7   -393.0457416 -0.256578E-06  0.418E-04    0.61      15.8  T
     SCC iter.                  ...        0 min,  0.915 sec
     gradient                   ...        0 min,  0.445 sec
 * total energy  :  -385.9421211 Eh     change       -0.5109763E-02 Eh
   gradient norm :     0.0155915 Eh/α   predicted    -0.3695902E-02 ( -27.67%)
   displ. norm   :     0.8196569 α      lambda       -0.7260788E-02
   maximum displ.:     0.3921787 α      in ANC's #45, #49, #50, ...

........................................................................
.............................. CYCLE   23 ..............................
........................................................................
   1   -393.0488298 -0.393049E+03  0.126E-01    0.63       0.0  T
   2   -393.0488432 -0.133509E-04  0.733E-02    0.63       1.0  T
   3   -393.0487658  0.773912E-04  0.156E-02    0.63       1.0  T
   4   -393.0488447 -0.789105E-04  0.481E-03    0.63       1.4  T
   5   -393.0488522 -0.748295E-05  0.156E-03    0.63       4.2  T
   6   -393.0488522  0.784905E-08  0.104E-03    0.63       6.4  T
   7   -393.0488524 -0.250861E-06  0.470E-04    0.63      14.1  T
   8   -393.0488525 -0.867458E-07  0.140E-04    0.63      47.2  T
     SCC iter.                  ...        0 min,  1.042 sec
     gradient                   ...        0 min,  0.446 sec
 * total energy  :  -385.9485335 Eh     change       -0.6412396E-02 Eh
   gradient norm :     0.0164842 Eh/α   predicted    -0.6069428E-02 (  -5.35%)
   displ. norm   :     0.8456063 α      lambda       -0.6190327E-02
   maximum displ.:     0.3977921 α      in ANC's #45, #49, #50, ...

........................................................................
.............................. CYCLE   24 ..............................
........................................................................
   1   -393.0523385 -0.393052E+03  0.115E-01    0.64       0.0  T
   2   -393.0523527 -0.141958E-04  0.668E-02    0.64       1.0  T
   3   -393.0523145  0.382167E-04  0.118E-02    0.64       1.0  T
   4   -393.0523567 -0.421740E-04  0.348E-03    0.64       1.9  T
   5   -393.0523601 -0.342269E-05  0.158E-03    0.64       4.2  T
   6   -393.0523603 -0.190580E-06  0.953E-04    0.64       6.9  T
   7   -393.0523606 -0.288954E-06  0.385E-04    0.64      17.2  T
     SCC iter.                  ...        0 min,  0.913 sec
     gradient                   ...        0 min,  0.446 sec
 * total energy  :  -385.9539766 Eh     change       -0.5443108E-02 Eh
   gradient norm :     0.0122317 Eh/α   predicted    -0.5308416E-02 (  -2.47%)
   displ. norm   :     0.8351606 α      lambda       -0.4864811E-02
   maximum displ.:     0.3743154 α      in ANC's #45, #49, #50, ...

........................................................................
.............................. CYCLE   25 ..............................
........................................................................
   1   -393.0538140 -0.393054E+03  0.110E-01    0.65       0.0  T
   2   -393.0538246 -0.105890E-04  0.642E-02    0.65       1.0  T
   3   -393.0537524  0.722245E-04  0.144E-02    0.65       1.0  T
   4   -393.0538253 -0.729154E-04  0.431E-03    0.65       1.5  T
   5   -393.0538323 -0.699423E-05  0.153E-03    0.65       4.3  T
   6   -393.0538324 -0.885597E-07  0.105E-03    0.65       6.3  T
   7   -393.0538327 -0.322120E-06  0.402E-04    0.65      16.5  T
   8   -393.0538328 -0.568309E-07  0.119E-04    0.65      55.5  T
     SCC iter.                  ...        0 min,  1.042 sec
     gradient                   ...        0 min,  0.445 sec
 * total energy  :  -385.9581557 Eh     change       -0.4179101E-02 Eh
   gradient norm :     0.0114362 Eh/α   predicted    -0.4129027E-02 (  -1.20%)
   displ. norm   :     0.7916150 α      lambda       -0.3539199E-02
   maximum displ.:     0.3332677 α      in ANC's #45, #49, #50, ...

........................................................................
.............................. CYCLE   26 ..............................
........................................................................
   1   -393.0602929 -0.393060E+03  0.100E-01    0.65       0.0  T
   2   -393.0603000 -0.709719E-05  0.585E-02    0.65       1.0  T
   3   -393.0602556  0.444042E-04  0.114E-02    0.65       1.0  T
   4   -393.0603023 -0.466808E-04  0.303E-03    0.65       2.2  T
   5   -393.0603050 -0.277331E-05  0.133E-03    0.65       5.0  T
   6   -393.0603051 -0.111858E-06  0.816E-04    0.65       8.1  T
   7   -393.0603053 -0.184567E-06  0.311E-04    0.65      21.3  T
     SCC iter.                  ...        0 min,  0.913 sec
     gradient                   ...        0 min,  0.445 sec
 * total energy  :  -385.9610983 Eh     change       -0.2942570E-02 Eh
   gradient norm :     0.0108254 Eh/α   predicted    -0.2878527E-02 (  -2.18%)
   displ. norm   :     0.7431689 α      lambda       -0.2424001E-02
   maximum displ.:     0.2850458 α      in ANC's #45, #16, #49, ...

........................................................................
.............................. CYCLE   27 ..............................
........................................................................
   1   -393.0656843 -0.393066E+03  0.909E-02    0.65       0.0  T
   2   -393.0656896 -0.535836E-05  0.531E-02    0.65       1.0  T
   3   -393.0656552  0.344622E-04  0.983E-03    0.65       1.0  T
   4   -393.0656919 -0.367618E-04  0.238E-03    0.65       2.8  T
   5   -393.0656932 -0.129495E-05  0.132E-03    0.65       5.0  T
   6   -393.0656935 -0.249015E-06  0.751E-04    0.65       8.8  T
   7   -393.0656937 -0.183525E-06  0.290E-04    0.65      22.9  T
     SCC iter.                  ...        0 min,  0.913 sec
     gradient                   ...        0 min,  0.445 sec
 * total energy  :  -385.9630466 Eh     change       -0.1948343E-02 Eh
   gradient norm :     0.0079360 Eh/α   predicted    -0.1881389E-02 (  -3.44%)
   displ. norm   :     0.6838280 α      lambda       -0.1605279E-02
   maximum displ.:     0.2953204 α      in ANC's #16, #45, #49, ...

........................................................................
.............................. CYCLE   28 ..............................
........................................................................
   1   -393.0717577 -0.393072E+03  0.773E-02    0.65       0.0  T
   2   -393.0717614 -0.377576E-05  0.453E-02    0.65       1.0  T
   3   -393.0717389  0.225635E-04  0.840E-03    0.65       1.0  T
   4   -393.0717633 -0.244496E-04  0.189E-03    0.65       3.5  T
   5   -393.0717639 -0.605892E-06  0.111E-03    0.65       6.0  T
   6   -393.0717641 -0.156212E-06  0.666E-04    0.65       9.9  T
   7   -393.0717643 -0.171988E-06  0.223E-04    0.65      29.8  T
     SCC iter.                  ...        0 min,  0.912 sec
     gradient                   ...        0 min,  0.444 sec
 * total energy  :  -385.9642974 Eh     change       -0.1250752E-02 Eh
   gradient norm :     0.0089945 Eh/α   predicted    -0.1177975E-02 (  -5.82%)
   displ. norm   :     0.6102745 α      lambda       -0.1034528E-02
   maximum displ.:     0.3116572 α      in ANC's #16, #15, #45, ...

........................................................................
.............................. CYCLE   29 ..............................
........................................................................
   1   -393.0777475 -0.393078E+03  0.615E-02    0.65       0.0  T
   2   -393.0777501 -0.253643E-05  0.360E-02    0.65       1.0  T
   3   -393.0777321  0.179779E-04  0.776E-03    0.65       1.0  T
   4   -393.0777517 -0.196461E-04  0.148E-03    0.65       4.5  T
   5   -393.0777520 -0.320497E-06  0.783E-04    0.65       8.5  T
   6   -393.0777520 -0.367811E-08  0.524E-04    0.65      12.6  T
     SCC iter.                  ...        0 min,  0.786 sec
     gradient                   ...        0 min,  0.444 sec
 * total energy  :  -385.9651177 Eh     change       -0.8203579E-03 Eh
   gradient norm :     0.0042456 Eh/α   predicted    -0.7099113E-03 ( -13.46%)
   displ. norm   :     0.5399477 α      lambda       -0.7389062E-03
   maximum displ.:     0.3194762 α      in ANC's #16, #15, #32, ...

........................................................................
.............................. CYCLE   30 ..............................
........................................................................
   1   -393.0821681 -0.393082E+03  0.453E-02    0.65       0.0  T
   2   -393.0821692 -0.111994E-05  0.266E-02    0.65       1.0  T
   3   -393.0821461  0.230494E-04  0.808E-03    0.64       1.0  T
   4   -393.0821705 -0.244012E-04  0.128E-03    0.65       5.2  T
   5   -393.0821709 -0.332900E-06  0.732E-04    0.65       9.1  T
   6   -393.0821710 -0.970517E-07  0.431E-04    0.65      15.4  T
     SCC iter.                  ...        0 min,  0.789 sec
     gradient                   ...        0 min,  0.444 sec
 * total energy  :  -385.9657520 Eh     change       -0.6342706E-03 Eh
   gradient norm :     0.0046021 Eh/α   predicted    -0.4771655E-03 ( -24.77%)
   displ. norm   :     0.5167229 α      lambda       -0.7010188E-03
   maximum displ.:     0.3274124 α      in ANC's #16, #15, #32, ...

........................................................................
.............................. CYCLE   31 ..............................
........................................................................
   1   -393.0860597 -0.393086E+03  0.369E-02    0.64       0.0  T
   2   -393.0860600 -0.316865E-06  0.218E-02    0.64       1.0  T
   3   -393.0860305  0.295332E-04  0.847E-03    0.64       1.0  T
   4   -393.0860612 -0.307476E-04  0.126E-03    0.64       5.3  T
   5   -393.0860617 -0.496022E-06  0.650E-04    0.64      10.2  T
   6   -393.0860618 -0.112179E-06  0.318E-04    0.64      20.8  T
     SCC iter.                  ...        0 min,  0.787 sec
     gradient                   ...        0 min,  0.444 sec
 * total energy  :  -385.9663951 Eh     change       -0.6431367E-03 Eh
   gradient norm :     0.0060134 Eh/α   predicted    -0.4440973E-03 ( -30.95%)
   displ. norm   :     0.5820749 α      lambda       -0.8429357E-03
   maximum displ.:     0.3728257 α      in ANC's #16, #15, #32, ...

........................................................................
.............................. CYCLE   32 ..............................
........................................................................
   1   -393.0862080 -0.393086E+03  0.387E-02    0.65       0.0  T
   2   -393.0862081 -0.163974E-06  0.229E-02    0.65       1.0  T
   3   -393.0861672  0.409686E-04  0.983E-03    0.65       1.0  T
   4   -393.0862098 -0.426270E-04  0.142E-03    0.65       4.7  T
   5   -393.0862104 -0.650298E-06  0.690E-04    0.65       9.6  T
   6   -393.0862106 -0.125800E-06  0.329E-04    0.65      20.1  T
     SCC iter.                  ...        0 min,  0.785 sec
     gradient                   ...        0 min,  0.442 sec
 * total energy  :  -385.9671818 Eh     change       -0.7867322E-03 Eh
   gradient norm :     0.0066446 Eh/α   predicted    -0.5642658E-03 ( -28.28%)
   displ. norm   :     0.6801468 α      lambda       -0.9965753E-03
   maximum displ.:     0.4325570 α      in ANC's #16, #15, #32, ...

........................................................................
.............................. CYCLE   33 ..............................
........................................................................
   1   -393.0839176 -0.393084E+03  0.465E-02    0.65       0.0  T
   2   -393.0839182 -0.590880E-06  0.274E-02    0.65       1.0  T
   3   -393.0838736  0.445082E-04  0.104E-02    0.65       1.0  T
   4   -393.0839199 -0.462762E-04  0.167E-03    0.65       4.0  T
   5   -393.0839208 -0.887945E-06  0.741E-04    0.65       8.9  T
   6   -393.0839209 -0.102751E-06  0.414E-04    0.65      16.0  T
     SCC iter.                  ...        0 min,  0.784 sec
     gradient                   ...        0 min,  0.443 sec
 * total energy  :  -385.9681050 Eh     change       -0.9231916E-03 Eh
   gradient norm :     0.0062999 Eh/α   predicted    -0.7287957E-03 ( -21.06%)
   displ. norm   :     0.7387062 α      lambda       -0.1024561E-02
   maximum displ.:     0.4699601 α      in ANC's #16, #15, #32, ...

........................................................................
.............................. CYCLE   34 ..............................
........................................................................
   1   -393.0794906 -0.393079E+03  0.481E-02    0.65       0.0  T
   2   -393.0794916 -0.103582E-05  0.283E-02    0.65       1.0  T
   3   -393.0794499  0.417434E-04  0.103E-02    0.65       1.0  T
   4   -393.0794933 -0.434204E-04  0.182E-03    0.65       3.6  T
   5   -393.0794943 -0.102941E-05  0.765E-04    0.65       8.7  T
   6   -393.0794944 -0.843297E-07  0.465E-04    0.65      14.2  T
   7   -393.0794944 -0.490858E-07  0.171E-04    0.65      38.7  T
     SCC iter.                  ...        0 min,  0.915 sec
     gradient                   ...        0 min,  0.441 sec
 * total energy  :  -385.9690471 Eh     change       -0.9420843E-03 Eh
   gradient norm :     0.0053857 Eh/α   predicted    -0.7918259E-03 ( -15.95%)
   displ. norm   :     0.7533330 α      lambda       -0.9685821E-03
   maximum displ.:     0.4836911 α      in ANC's #16, #15, #32, ...

........................................................................
.............................. CYCLE   35 ..............................
........................................................................
   1   -393.0767276 -0.393077E+03  0.448E-02    0.65       0.0  T
   2   -393.0767286 -0.103910E-05  0.263E-02    0.65       1.0  T
   3   -393.0766947  0.338643E-04  0.954E-03    0.65       1.0  T
   4   -393.0767302 -0.354955E-04  0.160E-03    0.65       4.1  T
   5   -393.0767309 -0.688858E-06  0.714E-04    0.65       9.3  T
   6   -393.0767310 -0.521102E-07  0.461E-04    0.65      14.4  T
     SCC iter.                  ...        0 min,  0.786 sec
     gradient                   ...        0 min,  0.441 sec
 * total energy  :  -385.9699420 Eh     change       -0.8948488E-03 Eh
   gradient norm :     0.0049490 Eh/α   predicted    -0.7591320E-03 ( -15.17%)
   displ. norm   :     0.7519977 α      lambda       -0.9202332E-03
   maximum displ.:     0.4883339 α      in ANC's #16, #15, #17, ...

........................................................................
.............................. CYCLE   36 ..............................
........................................................................
   1   -393.0751595 -0.393075E+03  0.382E-02    0.66       0.0  T
   2   -393.0751605 -0.958484E-06  0.224E-02    0.66       1.0  T
   3   -393.0751333  0.271236E-04  0.870E-03    0.66       1.0  T
   4   -393.0751619 -0.285924E-04  0.148E-03    0.66       4.5  T
   5   -393.0751625 -0.542298E-06  0.654E-04    0.66      10.1  T
   6   -393.0751625 -0.309637E-07  0.449E-04    0.66      14.8  T
     SCC iter.                  ...        0 min,  0.788 sec
     gradient                   ...        0 min,  0.440 sec
 * total energy  :  -385.9708033 Eh     change       -0.8613176E-03 Eh
   gradient norm :     0.0049461 Eh/α   predicted    -0.7203145E-03 ( -16.37%)
   displ. norm   :     0.7625509 α      lambda       -0.9223938E-03
   maximum displ.:     0.4994812 α      in ANC's #16, #15, #17, ...

........................................................................
.............................. CYCLE   37 ..............................
........................................................................
   1   -393.0763644 -0.393076E+03  0.337E-02    0.66       0.0  T
   2   -393.0763653 -0.859203E-06  0.198E-02    0.66       1.0  T
   3   -393.0763416  0.236645E-04  0.822E-03    0.66       1.0  T
   4   -393.0763667 -0.250874E-04  0.134E-03    0.66       4.9  T
   5   -393.0763671 -0.394862E-06  0.647E-04    0.66      10.2  T
   6   -393.0763671 -0.353962E-07  0.439E-04    0.66      15.1  T
     SCC iter.                  ...        0 min,  0.786 sec
     gradient                   ...        0 min,  0.439 sec
 * total energy  :  -385.9716753 Eh     change       -0.8719678E-03 Eh
   gradient norm :     0.0050065 Eh/α   predicted    -0.7293795E-03 ( -16.35%)
   displ. norm   :     0.7890352 α      lambda       -0.9565071E-03
   maximum displ.:     0.5184414 α      in ANC's #16, #15, #1, ...

........................................................................
.............................. CYCLE   38 ..............................
........................................................................
   1   -393.0780346 -0.393078E+03  0.323E-02    0.66       0.0  T
   2   -393.0780355 -0.898183E-06  0.189E-02    0.66       1.0  T
   3   -393.0780123  0.231898E-04  0.840E-03    0.66       1.0  T
   4   -393.0780372 -0.249245E-04  0.123E-03    0.66       5.4  T
   5   -393.0780375 -0.241542E-06  0.610E-04    0.66      10.9  T
   6   -393.0780375 -0.519464E-08  0.431E-04    0.66      15.3  T
     SCC iter.                  ...        0 min,  0.785 sec
     gradient                   ...        0 min,  0.439 sec
 * total energy  :  -385.9725818 Eh     change       -0.9065159E-03 Eh
   gradient norm :     0.0047595 Eh/α   predicted    -0.7760088E-03 ( -14.40%)
   displ. norm   :     0.8184244 α      lambda       -0.9873275E-03
   maximum displ.:     0.5386537 α      in ANC's #16, #15, #1, ...

........................................................................
.............................. CYCLE   39 ..............................
........................................................................
   1   -393.0811810 -0.393081E+03  0.339E-02    0.66       0.0  T
   2   -393.0811820 -0.949934E-06  0.199E-02    0.66       1.0  T
   3   -393.0811592  0.227870E-04  0.838E-03    0.66       1.0  T
   4   -393.0811837 -0.245579E-04  0.113E-03    0.66       5.9  T
   5   -393.0811839 -0.158688E-06  0.642E-04    0.66      10.3  T
   6   -393.0811839 -0.247597E-07  0.420E-04    0.66      15.8  T
     SCC iter.                  ...        0 min,  0.785 sec
     gradient                   ...        0 min,  0.437 sec
 * total energy  :  -385.9735169 Eh     change       -0.9351536E-03 Eh
   gradient norm :     0.0045348 Eh/α   predicted    -0.8243312E-03 ( -11.85%)
   displ. norm   :     0.8382230 α      lambda       -0.9918964E-03
   maximum displ.:     0.5515637 α      in ANC's #16, #15, #2, ...

........................................................................
.............................. CYCLE   40 ..............................
........................................................................
   1   -393.0827438 -0.393083E+03  0.358E-02    0.66       0.0  T
   2   -393.0827446 -0.825567E-06  0.211E-02    0.66       1.0  T
   3   -393.0827157  0.288966E-04  0.923E-03    0.66       1.0  T
   4   -393.0827466 -0.309125E-04  0.119E-03    0.66       5.6  T
   5   -393.0827468 -0.185800E-06  0.756E-04    0.66       8.8  T
   6   -393.0827469 -0.114913E-06  0.442E-04    0.66      15.0  T
     SCC iter.                  ...        0 min,  0.784 sec
     gradient                   ...        0 min,  0.437 sec
 * total energy  :  -385.9744566 Eh     change       -0.9397153E-03 Eh
   gradient norm :     0.0043239 Eh/α   predicted    -0.8444173E-03 ( -10.14%)
   displ. norm   :     0.8470446 α      lambda       -0.9764284E-03
   maximum displ.:     0.5592493 α      in ANC's #16, #15, #2, ...

........................................................................
.............................. CYCLE   41 ..............................
........................................................................
   1   -393.0846036 -0.393085E+03  0.372E-02    0.66       0.0  T
   2   -393.0846043 -0.647981E-06  0.219E-02    0.66       1.0  T
   3   -393.0845693  0.349757E-04  0.962E-03    0.66       1.0  T
   4   -393.0846062 -0.368650E-04  0.135E-03    0.66       4.9  T
   5   -393.0846066 -0.433321E-06  0.837E-04    0.66       7.9  T
   6   -393.0846068 -0.210522E-06  0.392E-04    0.66      16.9  T
     SCC iter.                  ...        0 min,  0.786 sec
     gradient                   ...        0 min,  0.437 sec
 * total energy  :  -385.9753830 Eh     change       -0.9263762E-03 Eh
   gradient norm :     0.0042861 Eh/α   predicted    -0.8385071E-03 (  -9.49%)
   displ. norm   :     0.8483597 α      lambda       -0.9457848E-03
   maximum displ.:     0.5619676 α      in ANC's #16, #15, #2, ...

........................................................................
.............................. CYCLE   42 ..............................
........................................................................
   1   -393.0848294 -0.393085E+03  0.378E-02    0.66       0.0  T
   2   -393.0848297 -0.322246E-06  0.223E-02    0.66       1.0  T
   3   -393.0847824  0.473767E-04  0.106E-02    0.66       1.0  T
   4   -393.0848318 -0.494101E-04  0.161E-03    0.66       4.1  T
   5   -393.0848326 -0.864791E-06  0.817E-04    0.66       8.1  T
   6   -393.0848328 -0.181506E-06  0.382E-04    0.66      17.3  T
     SCC iter.                  ...        0 min,  0.786 sec
     gradient                   ...        0 min,  0.436 sec
 * total energy  :  -385.9762816 Eh     change       -0.8985657E-03 Eh
   gradient norm :     0.0039756 Eh/α   predicted    -0.8132388E-03 (  -9.50%)
   displ. norm   :     0.8488935 α      lambda       -0.9089837E-03
   maximum displ.:     0.5645811 α      in ANC's #16, #15, #2, ...
 * RMSD in coord.:     0.8702107 α      energy gain  -0.4866531E-01 Eh

generating ANC from model Hessian ...
Using Lindh-Hessian (1995)
 Shifting diagonal of input Hessian by    1.0044293384706594E-002
 Lowest  eigenvalues of input Hessian
    0.010000    0.010012    0.010030    0.010039    0.010044    0.000000
    0.000000    0.000000    0.000000    0.000000    0.000000    0.010046
    0.010047    0.010050    0.010058    0.010061    0.010087    0.010090
 Highest eigenvalues
    2.249262    2.673122    2.674719    2.677107    2.677295    2.677610


........................................................................
.............................. CYCLE   43 ..............................
........................................................................
   1   -393.0848738 -0.393085E+03  0.384E-02    0.66       0.0  T
   2   -393.0848739 -0.116511E-06  0.226E-02    0.66       1.0  T
   3   -393.0848191  0.547618E-04  0.109E-02    0.66       1.0  T
   4   -393.0848760 -0.568788E-04  0.172E-03    0.66       3.9  T
   5   -393.0848770 -0.105262E-05  0.785E-04    0.66       8.4  T
   6   -393.0848772 -0.156669E-06  0.381E-04    0.66      17.4  T
   7   -393.0848772 -0.244311E-07  0.147E-04    0.66      45.1  T
     SCC iter.                  ...        0 min,  0.913 sec
     gradient                   ...        0 min,  0.436 sec
 * total energy  :  -385.9771463 Eh     change       -0.8647510E-03 Eh
   gradient norm :     0.0037022 Eh/α   predicted     0.0000000E+00 (-100.00%)
   displ. norm   :     0.1112415 α      lambda       -0.1597609E-03
   maximum displ.:     0.0791656 α      in ANC's #15, #16, #14, ...

........................................................................
.............................. CYCLE   44 ..............................
........................................................................
   1   -393.0841752 -0.393084E+03  0.104E-02    0.66       0.0  T
   2   -393.0841753 -0.105544E-06  0.614E-03    0.66       1.1  T
   3   -393.0841737  0.158225E-05  0.192E-03    0.66       3.4  T
   4   -393.0841752 -0.155904E-05  0.579E-04    0.66      11.4  T
   5   -393.0841754 -0.140837E-06  0.165E-04    0.66      40.0  T
   6   -393.0841754 -0.402639E-08  0.939E-05    0.66      70.5  T
     SCC iter.                  ...        0 min,  0.785 sec
     gradient                   ...        0 min,  0.436 sec
 * total energy  :  -385.9772959 Eh     change       -0.1495152E-03 Eh
   gradient norm :     0.0022984 Eh/α   predicted    -0.8138896E-04 ( -45.56%)
   displ. norm   :     0.3637786 α      lambda       -0.4455058E-03
   maximum displ.:     0.2251498 α      in ANC's #15, #16, #14, ...

........................................................................
.............................. CYCLE   45 ..............................
........................................................................
   1   -393.0824537 -0.393082E+03  0.302E-02    0.66       0.0  T
   2   -393.0824543 -0.561998E-06  0.177E-02    0.66       1.0  T
   3   -393.0824398  0.144686E-04  0.550E-03    0.66       1.2  T
   4   -393.0824543 -0.144977E-04  0.149E-03    0.66       4.4  T
   5   -393.0824552 -0.919773E-06  0.426E-04    0.66      15.6  T
   6   -393.0824553 -0.174502E-07  0.263E-04    0.66      25.2  T
     SCC iter.                  ...        0 min,  0.785 sec
     gradient                   ...        0 min,  0.435 sec
 * total energy  :  -385.9776824 Eh     change       -0.3865439E-03 Eh
   gradient norm :     0.0030380 Eh/α   predicted    -0.2522394E-03 ( -34.74%)
   displ. norm   :     0.5414584 α      lambda       -0.5301000E-03
   maximum displ.:     0.3301334 α      in ANC's #15, #16, #14, ...

........................................................................
.............................. CYCLE   46 ..............................
........................................................................
   1   -393.0803408 -0.393080E+03  0.404E-02    0.67       0.0  T
   2   -393.0803413 -0.522965E-06  0.237E-02    0.67       1.0  T
   3   -393.0803141  0.271958E-04  0.739E-03    0.67       1.0  T
   4   -393.0803422 -0.280213E-04  0.152E-03    0.67       4.4  T
   5   -393.0803430 -0.795776E-06  0.523E-04    0.67      12.7  T
   6   -393.0803430 -0.797945E-08  0.356E-04    0.67      18.6  T
     SCC iter.                  ...        0 min,  0.788 sec
     gradient                   ...        0 min,  0.434 sec
 * total energy  :  -385.9781443 Eh     change       -0.4618644E-03 Eh
   gradient norm :     0.0056910 Eh/α   predicted    -0.3427575E-03 ( -25.79%)
   displ. norm   :     0.5894656 α      lambda       -0.5144842E-03
   maximum displ.:     0.3599600 α      in ANC's #15, #16, #17, ...

........................................................................
.............................. CYCLE   47 ..............................
........................................................................
   1   -393.0791265 -0.393079E+03  0.404E-02    0.67       0.0  T
   2   -393.0791268 -0.374605E-06  0.237E-02    0.67       1.0  T
   3   -393.0791034  0.234094E-04  0.696E-03    0.67       1.0  T
   4   -393.0791279 -0.244820E-04  0.113E-03    0.67       5.9  T
   5   -393.0791282 -0.322112E-06  0.520E-04    0.67      12.7  T
   6   -393.0791282 -0.252174E-08  0.350E-04    0.67      18.9  T
     SCC iter.                  ...        0 min,  0.787 sec
     gradient                   ...        0 min,  0.435 sec
 * total energy  :  -385.9786131 Eh     change       -0.4688778E-03 Eh
   gradient norm :     0.0064628 Eh/α   predicted    -0.3466265E-03 ( -26.07%)
   displ. norm   :     0.6240171 α      lambda       -0.5577593E-03
   maximum displ.:     0.3832235 α      in ANC's #15, #16, #17, ...

........................................................................
.............................. CYCLE   48 ..............................
........................................................................
   1   -393.0794212 -0.393079E+03  0.399E-02    0.67       0.0  T
   2   -393.0794218 -0.614725E-06  0.234E-02    0.67       1.0  T
   3   -393.0794053  0.165481E-04  0.626E-03    0.67       1.1  T
   4   -393.0794227 -0.174365E-04  0.109E-03    0.67       6.1  T
   5   -393.0794230 -0.268559E-06  0.548E-04    0.67      12.1  T
   6   -393.0794230 -0.211750E-07  0.315E-04    0.67      21.0  T
     SCC iter.                  ...        0 min,  0.788 sec
     gradient                   ...        0 min,  0.434 sec
 * total energy  :  -385.9791333 Eh     change       -0.5201609E-03 Eh
   gradient norm :     0.0053395 Eh/α   predicted    -0.3874780E-03 ( -25.51%)
   displ. norm   :     0.6779515 α      lambda       -0.6353912E-03
   maximum displ.:     0.4212115 α      in ANC's #15, #16, #17, ...

........................................................................
.............................. CYCLE   49 ..............................
........................................................................
   1   -393.0809976 -0.393081E+03  0.413E-02    0.67       0.0  T
   2   -393.0809987 -0.114326E-05  0.242E-02    0.67       1.0  T
   3   -393.0809858  0.128674E-04  0.600E-03    0.67       1.1  T
   4   -393.0809995 -0.136564E-04  0.129E-03    0.67       5.1  T
   5   -393.0809999 -0.395833E-06  0.601E-04    0.67      11.0  T
   6   -393.0809999 -0.349011E-07  0.326E-04    0.67      20.3  T
     SCC iter.                  ...        0 min,  0.788 sec
     gradient                   ...        0 min,  0.434 sec
 * total energy  :  -385.9797230 Eh     change       -0.5897271E-03 Eh
   gradient norm :     0.0034920 Eh/α   predicted    -0.4637148E-03 ( -21.37%)
   displ. norm   :     0.7208418 α      lambda       -0.6678629E-03
   maximum displ.:     0.4542518 α      in ANC's #15, #16, #17, ...

........................................................................
.............................. CYCLE   50 ..............................
........................................................................
   1   -393.0828055 -0.393083E+03  0.426E-02    0.67       0.0  T
   2   -393.0828069 -0.139462E-05  0.249E-02    0.67       1.0  T
   3   -393.0827896  0.173440E-04  0.678E-03    0.67       1.0  T
   4   -393.0828077 -0.181313E-04  0.153E-03    0.67       4.3  T
   5   -393.0828084 -0.669053E-06  0.748E-04    0.67       8.9  T
   6   -393.0828085 -0.898104E-07  0.427E-04    0.67      15.5  T
     SCC iter.                  ...        0 min,  0.786 sec
     gradient                   ...        0 min,  0.434 sec
 * total energy  :  -385.9803373 Eh     change       -0.6142625E-03 Eh
   gradient norm :     0.0035736 Eh/α   predicted    -0.5074513E-03 ( -17.39%)
   displ. norm   :     0.7313346 α      lambda       -0.6394244E-03
   maximum displ.:     0.4671874 α      in ANC's #15, #16, #17, ...

........................................................................
.............................. CYCLE   51 ..............................
........................................................................
   1   -393.0840709 -0.393084E+03  0.419E-02    0.67       0.0  T
   2   -393.0840720 -0.112207E-05  0.245E-02    0.67       1.0  T
   3   -393.0840446  0.274334E-04  0.813E-03    0.67       1.0  T
   4   -393.0840732 -0.286375E-04  0.157E-03    0.67       4.2  T
   5   -393.0840739 -0.726831E-06  0.816E-04    0.67       8.1  T
   6   -393.0840741 -0.140918E-06  0.426E-04    0.67      15.6  T
     SCC iter.                  ...        0 min,  0.787 sec
     gradient                   ...        0 min,  0.433 sec
 * total energy  :  -385.9809252 Eh     change       -0.5878807E-03 Eh
   gradient norm :     0.0047883 Eh/α   predicted    -0.4907268E-03 ( -16.53%)
   displ. norm   :     0.7130932 α      lambda       -0.5861666E-03
   maximum displ.:     0.4615321 α      in ANC's #15, #16, #17, ...

........................................................................
.............................. CYCLE   52 ..............................
........................................................................
   1   -393.0847744 -0.393085E+03  0.394E-02    0.67       0.0  T
   2   -393.0847753 -0.864401E-06  0.231E-02    0.67       1.0  T
   3   -393.0847459  0.293913E-04  0.855E-03    0.67       1.0  T
   4   -393.0847769 -0.310127E-04  0.138E-03    0.67       4.8  T
   5   -393.0847774 -0.454081E-06  0.785E-04    0.67       8.4  T
   6   -393.0847775 -0.128095E-06  0.421E-04    0.67      15.7  T
     SCC iter.                  ...        0 min,  0.786 sec
     gradient                   ...        0 min,  0.433 sec
 * total energy  :  -385.9814674 Eh     change       -0.5422393E-03 Eh
   gradient norm :     0.0050930 Eh/α   predicted    -0.4421300E-03 ( -18.46%)
   displ. norm   :     0.6834538 α      lambda       -0.5367284E-03
   maximum displ.:     0.4479596 α      in ANC's #15, #16, #17, ...

........................................................................
.............................. CYCLE   53 ..............................
........................................................................
   1   -393.0851601 -0.393085E+03  0.360E-02    0.67       0.0  T
   2   -393.0851608 -0.687810E-06  0.211E-02    0.67       1.0  T
   3   -393.0851318  0.290039E-04  0.863E-03    0.67       1.0  T
   4   -393.0851625 -0.307157E-04  0.130E-03    0.67       5.1  T
   5   -393.0851629 -0.382333E-06  0.709E-04    0.67       9.3  T
   6   -393.0851630 -0.921636E-07  0.418E-04    0.67      15.9  T
     SCC iter.                  ...        0 min,  0.787 sec
     gradient                   ...        0 min,  0.433 sec
 * total energy  :  -385.9819676 Eh     change       -0.5002178E-03 Eh
   gradient norm :     0.0043666 Eh/α   predicted    -0.3937245E-03 ( -21.29%)
   displ. norm   :     0.6568824 α      lambda       -0.4999116E-03
   maximum displ.:     0.4353105 α      in ANC's #15, #16, #17, ...

........................................................................
.............................. CYCLE   54 ..............................
........................................................................
   1   -393.0853403 -0.393085E+03  0.328E-02    0.67       0.0  T
   2   -393.0853409 -0.604071E-06  0.192E-02    0.67       1.0  T
   3   -393.0853148  0.260703E-04  0.830E-03    0.67       1.0  T
   4   -393.0853424 -0.276471E-04  0.126E-03    0.67       5.3  T
   5   -393.0853428 -0.371110E-06  0.620E-04    0.67      10.7  T
   6   -393.0853429 -0.569889E-07  0.397E-04    0.67      16.7  T
     SCC iter.                  ...        0 min,  0.786 sec
     gradient                   ...        0 min,  0.432 sec
 * total energy  :  -385.9824372 Eh     change       -0.4695615E-03 Eh
   gradient norm :     0.0033182 Eh/α   predicted    -0.3578254E-03 ( -23.80%)
   displ. norm   :     0.6383686 α      lambda       -0.4763321E-03
   maximum displ.:     0.4263370 α      in ANC's #15, #16, #17, ...

........................................................................
.............................. CYCLE   55 ..............................
........................................................................
   1   -393.0853273 -0.393085E+03  0.305E-02    0.67       0.0  T
   2   -393.0853277 -0.465978E-06  0.179E-02    0.67       1.0  T
   3   -393.0853038  0.239377E-04  0.795E-03    0.67       1.0  T
   4   -393.0853291 -0.253430E-04  0.120E-03    0.67       5.5  T
   5   -393.0853295 -0.362195E-06  0.550E-04    0.67      12.0  T
   6   -393.0853295 -0.403766E-07  0.359E-04    0.67      18.5  T
     SCC iter.                  ...        0 min,  0.784 sec
     gradient                   ...        0 min,  0.433 sec
 * total energy  :  -385.9828880 Eh     change       -0.4508285E-03 Eh
   gradient norm :     0.0028769 Eh/α   predicted    -0.3352221E-03 ( -25.64%)
   displ. norm   :     0.6318901 α      lambda       -0.4673350E-03
   maximum displ.:     0.4238131 α      in ANC's #15, #16, #14, ...

........................................................................
.............................. CYCLE   56 ..............................
........................................................................
   1   -393.0850994 -0.393085E+03  0.294E-02    0.67       0.0  T
   2   -393.0850997 -0.279798E-06  0.173E-02    0.67       1.0  T
   3   -393.0850760  0.237246E-04  0.783E-03    0.67       1.0  T
   4   -393.0851010 -0.250529E-04  0.112E-03    0.67       5.9  T
   5   -393.0851013 -0.325128E-06  0.513E-04    0.67      12.9  T
   6   -393.0851014 -0.367820E-07  0.326E-04    0.67      20.3  T
     SCC iter.                  ...        0 min,  0.785 sec
     gradient                   ...        0 min,  0.432 sec
 * total energy  :  -385.9833329 Eh     change       -0.4448369E-03 Eh
   gradient norm :     0.0031439 Eh/α   predicted    -0.3269719E-03 ( -26.50%)
   displ. norm   :     0.6386265 α      lambda       -0.4695419E-03
   maximum displ.:     0.4292873 α      in ANC's #15, #14, #4, ...

........................................................................
.............................. CYCLE   57 ..............................
........................................................................
   1   -393.0846351 -0.393085E+03  0.296E-02    0.68       0.0  T
   2   -393.0846352 -0.138498E-06  0.174E-02    0.68       1.0  T
   3   -393.0846110  0.242063E-04  0.789E-03    0.68       1.0  T
   4   -393.0846365 -0.255369E-04  0.102E-03    0.68       6.5  T
   5   -393.0846368 -0.267879E-06  0.505E-04    0.68      13.1  T
   6   -393.0846368 -0.374811E-07  0.308E-04    0.68      21.5  T
     SCC iter.                  ...        0 min,  0.783 sec
     gradient                   ...        0 min,  0.432 sec
 * total energy  :  -385.9837802 Eh     change       -0.4473708E-03 Eh
   gradient norm :     0.0033839 Eh/α   predicted    -0.3305266E-03 ( -26.12%)
[...]
  33:  0.00  34:  0.00  35:  0.00  36:  0.00  37:  0.00  38:  0.00  39:  0.00  40:  0.00
  41:  0.00  42:  0.00  43:  0.00  44:  0.00  45:  0.00  46:  0.00  47:  0.00  48:  0.00
  49:  0.00  50:  0.00  51:  0.00  52:  0.00  53:  0.00  54:  0.00  55:  0.00  56:  0.00
  57:  0.00  58:  0.00  59:  0.00  60:  0.00  61:  0.00  62:  0.00  63:  0.00  64:  0.00
  65:  0.00  66:  0.00  67:  0.00  68:  0.00  69:  0.00  70:  0.00  71:  0.00  72:  0.00
  73:  0.00  74:  0.00  75:  0.00  76:  0.00  77:  0.00  78:  0.00  79:  0.00  80:  0.00
  81:  0.00  82:  0.00  83:  0.00  84:  0.00  85:  0.00  86:  0.00  87:  0.00  88:  0.00
  89:  0.00  90:  0.00  91:  0.00  92:  0.00  93:  0.00  94:  0.00  95:  0.00  96:  0.00
  97:  0.00  98:  0.00  99:  0.00 100:  0.00 101:  0.00 102:  0.00 103:  0.00 104:  0.00
 105:  0.00 106:  0.00 107:  0.00 108:  0.00 109:  0.00 110:  0.00 111:  0.00 112:  0.00
 113:  0.00 114:  0.00 115:  0.00 116:  0.00 117:  0.00 118:  0.00 119:  0.00 120:  0.00
 121:  0.00 122:  0.00 123:  0.00 124:  0.00 125:  0.00 126:  0.00 127:  0.00 128:  0.00
 129:  0.00 130:  0.00 131:  0.00 132:  0.00 133:  0.00 134:  0.00 135:  0.00 136:  0.00
 137:  0.00 138:  0.00 139:  0.00 140:  0.00 141:  0.00 142:  0.00 143:  0.00 144:  0.00
 145:  0.00 146:  0.00 147:  0.00 148:  0.00 149:  0.00 150:  0.00 151:  0.00 152:  0.00
 153:  0.00 154:  0.00 155:  0.00 156:  0.00 157:  0.00 158:  0.00 159:  0.00 160:  0.00
 161:  0.00 162:  0.00 163:  0.00 164:  0.00 165:  0.00 166:  0.00 167:  0.00 168:  0.00
 169:  0.00 170:  0.00 171:  0.00 172:  0.00 173:  0.00 174:  0.00 175:  0.00 176:  0.00
 177:  0.00 178:  0.00 179:  0.00 180:  0.00 181:  0.00 182:  0.00 183:  0.00 184:  0.00
 185:  0.00 186:  0.00 187:  0.00 188:  0.00 189:  0.00 190:  0.00 191:  0.00 192:  0.00
 193:  0.00 194:  0.00 195:  0.00 196:  0.00 197:  0.00 198:  0.00 199:  0.00 200:  0.00
 201:  0.00 202:  0.00 203:  0.00 204:  0.00 205:  0.00 206:  0.00 207:  0.00 208:  0.00
 209:  0.00 210:  0.00 211:  0.00 212:  0.00 213:  0.00 214:  0.00 215:  0.00 216:  0.00
 217:  0.00 218:  0.00 219:  0.00 220:  0.00 221:  0.00 222:  0.00 223:  0.00 224:  0.00
 225:  0.00 226:  0.00 227:  0.00 228:  0.00 229:  0.00 230:  0.00 231:  0.00 232:  0.00
 233:  0.00 234:  0.00 235:  0.00 236:  0.00 237:  0.00 238:  0.00 239:  0.00 240:  0.00
 241:  0.00 242:  0.00 243:  0.00 244:  0.00 245:  0.00 246:  0.00 247:  0.00 248:  0.00
 249:  0.00 250:  0.00 251:  0.00 252:  0.00 253:  0.00 254:  0.00 255:  0.00 256:  0.00
 257:  0.00 258:  0.00 259:  0.00 260:  0.00 261:  0.00 262:  0.00 263:  0.00 264:  0.00
 265:  0.00 266:  0.00 267:  0.00 268:  0.00 269:  0.00 270:  0.00 271:  0.00 272:  0.00
 273:  0.00 274:  0.00 275:  0.00 276:  0.00 277:  0.00 278:  0.00 279:  0.00 280:  0.00
 281:  0.00 282:  0.00 283:  0.00 284:  0.00 285:  0.00 286:  0.00 287:  0.00 288:  0.00
 289:  0.00 290:  0.00 291:  0.00 292:  0.00 293:  0.00 294:  0.00 295:  0.00 296:  0.00
 297:  0.00 298:  0.00 299:  0.00 300:  0.00 301:  0.00 302:  0.00 303:  0.00 304:  0.00
 305:  0.00 306:  0.00 307:  0.00 308:  0.00 309:  0.00 310:  0.00 311:  0.00 312:  0.00
 313:  0.00 314:  0.00 315:  0.00 316:  0.00 317:  0.00 318:  0.00 319:  0.00 320:  0.00
 321:  0.00 322:  0.00 323:  0.00 324:  0.00 325:  0.00 326:  0.00 327:  0.00 328:  0.00
 329:  0.00 330:  0.00 331:  0.00 332:  0.00 333:  0.00 334:  0.00 335:  0.00 336:  0.00
 337:  0.00 338:  0.00 339:  0.00 340:  0.00 341:  0.00 342:  0.00 343:  0.00 344:  0.00
 345:  0.00 346:  0.00 347:  0.00 348:  0.00 349:  0.00 350:  0.00 351:  0.00 352:  0.00
 353:  0.00 354:  0.00 355:  0.00 356:  0.00 357:  0.00 358:  0.00 359:  0.00 360:  0.00
 361:  0.00 362:  0.00 363:  0.00 364:  0.00 365:  0.00 366:  0.00 367:  0.00 368:  0.00
 369:  0.00 370:  0.00 371:  0.00 372:  0.00 373:  0.00 374:  0.00 375:  0.00 376:  0.00
 377:  0.00 378:  0.00 379:  0.00 380:  0.00 381:  0.00 382:  0.00 383:  0.00 384:  0.00
 385:  0.00 386:  0.00 387:  0.00 388:  0.00 389:  0.00 390:  0.00 391:  0.00 392:  0.00
 393:  0.00 394:  0.00 395:  0.00 396:  0.00 397:  0.00 398:  0.00 399:  0.00 400:  0.00
 401:  0.00 402:  0.00 403:  0.00 404:  0.00 405:  0.00 406:  0.00 407:  0.00 408:  0.00
 409:  0.00 410:  0.00 411:  0.00 412:  0.00 413:  0.00 414:  0.00 415:  0.00 416:  0.00
 417:  0.00 418:  0.00 419:  0.00 420:  0.00 421:  0.00 422:  0.00 423:  0.00 424:  0.00
 425:  0.00 426:  0.00 427:  0.00 428:  0.00 429:  0.00 430:  0.00 431:  0.00 432:  0.00
 433:  0.00 434:  0.00 435:  0.00 436:  0.00 437:  0.00 438:  0.00 439:  0.00 440:  0.00
 441:  0.00 442:  0.00 443:  0.00 444:  0.00 445:  0.00 446:  0.00 447:  0.00 448:  0.00
 449:  0.00 450:  0.00 451:  0.00 452:  0.00 453:  0.00 454:  0.00 455:  0.00 456:  0.00
 457:  0.00 458:  0.00 459:  0.00 460:  0.00 461:  0.00 462:  0.00 463:  0.00 464:  0.00
 465:  0.00 466:  0.00 467:  0.00 468:  0.00 469:  0.00 470:  0.00 471:  0.00 472:  0.00
 473:  0.00 474:  0.00 475:  0.00 476:  0.00 477:  0.00 478:  0.00 479:  0.00 480:  0.00
 481:  0.00 482:  0.00 483:  0.00 484:  0.00 485:  0.00 486:  0.00 487:  0.00 488:  0.00
 489:  0.00 490:  0.00 491:  0.00 492:  0.00 493:  0.00 494:  0.00 495:  0.00 496:  0.00
 497:  0.00 498:  0.00 499:  0.00 500:  0.00 501:  0.00 502:  0.00 503:  0.00 504:  0.00
 505:  0.00 506:  0.00 507:  0.00 508:  0.00 509:  0.00 510:  0.00 511:  0.00 512:  0.00
 513:  0.00 514:  0.00 515:  0.00 516:  0.00 517:  0.00 518:  0.00 519:  0.00 520:  0.00
 521:  0.00 522:  0.00 523:  0.00 524:  0.00 525:  0.00 526:  0.00 527:  0.00 528:  0.00
 529:  0.00 530:  0.00 531:  0.00 532:  0.00 533:  0.00 534:  0.00 535:  0.00 536:  0.00
 537:  0.00 538:  0.00 539:  0.00 540:  0.00 541:  0.00 542:  0.00 543:  0.00 544:  0.00
 545:  0.00 546:  0.00 547:  0.00 548:  0.00 549:  0.00 550:  0.00 551:  0.00 552:  0.00
 553:  0.00 554:  0.00 555:  0.00 556:  0.00 557:  0.00 558:  0.00 559:  0.00 560:  0.00
 561:  0.00 562:  0.00 563:  0.00 564:  0.00 565:  0.00 566:  0.00 567:  0.00 568:  0.00
 569:  0.00 570:  0.00 571:  0.00 572:  0.00 573:  0.00 574:  0.00 575:  0.00 576:  0.00
 577:  0.00 578:  0.00 579:  0.00 580:  0.00 581:  0.00 582:  0.00 583:  0.00 584:  0.00
 585:  0.00 586:  0.00 587:  0.00 588:  0.00 589:  0.00 590:  0.00 591:  0.00 592:  0.00
 593:  0.00 594:  0.00 595:  0.00 596:  0.00 597:  0.00 598:  0.00 599:  0.00 600:  0.00
 601:  0.00 602:  0.00 603:  0.00 604:  0.00 605:  0.00 606:  0.00 607:  0.00 608:  0.00
 609:  0.00 610:  0.00 611:  0.00 612:  0.00 613:  0.00 614:  0.00 615:  0.00 616:  0.00
 617:  0.00 618:  0.00 619:  0.00 620:  0.00 621:  0.00 622:  0.00 623:  0.00 624:  0.00
 625:  0.00 626:  0.00 627:  0.00 628:  0.00 629:  0.00 630:  0.00 631:  0.00 632:  0.00
 633:  0.00 634:  0.00 635:  0.00 636:  0.00 637:  0.00 638:  0.00 639:  0.00 640:  0.00
 641:  0.00 642:  0.00 643:  0.00 644:  0.00 645:  0.00 646:  0.00 647:  0.00 648:  0.00
 649:  0.00 650:  0.00 651:  0.00 652:  0.00 653:  0.00 654:  0.00 655:  0.00 656:  0.00
 657:  0.00 658:  0.00 659:  0.00 660:  0.00 661:  0.00 662:  0.00 663:  0.00 664:  0.00
 665:  0.00 666:  0.00 667:  0.00 668:  0.00 669:  0.00 670:  0.00 671:  0.00 672:  0.00
 673:  0.00 674:  0.00 675:  0.00 676:  0.00 677:  0.00 678:  0.00 679:  0.00 680:  0.00
 681:  0.00 682:  0.00 683:  0.00 684:  0.00
 output can be read by thermo (or use thermo option).
 writing <g98.out> molden fake output.
 recommended (thermochemical) frequency scaling factor: 1.0
           -------------------------------------------------
          |             Thermodynamic Functions             |
           -------------------------------------------------
 symmetry recognition skipped because # atoms >         200
 inverting freq            1   3.2059799607677228     
 inverting freq            2   2.5179605419684430     
 inverting freq            3   1.8973487552097308     

          ...................................................
          :                      SETUP                      :
          :.................................................:
          :  # frequencies                         678      :
          :  # imaginary freq.                       0      :
          :  linear?                             false      :
          :  only rotor calc.                    false      :
          :  symmetry                               C1      :
          :  rotational number                       1      :
          :  scaling factor                  1.0000000      :
          :  rotor cutoff                   50.0000000 cm⁻¹ :
          :  imag. cutoff                  -20.0000000 cm⁻¹ :
          :.................................................:

    mode    ω/cm⁻¹     T·S(HO)/kcal·mol⁻¹    T·S(FR)/kcal·mol⁻¹   T·S(vib)
   ------------------------------------------------------------------------
       1      3.21    -3.06243 (  0.00%)    -1.87033 (100.00%)    -1.87035
       2      2.52    -3.20555 (  0.00%)    -1.94189 (100.00%)    -1.94190
       3      1.90    -3.37322 (  0.00%)    -2.02572 (100.00%)    -2.02572
       4      2.97    -3.10851 (  0.00%)    -1.89337 (100.00%)    -1.89338
       5      4.68    -2.83778 (  0.01%)    -1.75800 ( 99.99%)    -1.75808
       6      7.54    -2.55568 (  0.05%)    -1.61694 ( 99.95%)    -1.61742
       7      8.14    -2.51076 (  0.07%)    -1.59448 ( 99.93%)    -1.59512
       8      9.28    -2.43258 (  0.12%)    -1.55538 ( 99.88%)    -1.55642
       9     10.13    -2.38107 (  0.17%)    -1.52962 ( 99.83%)    -1.53105
      10     12.38    -2.26221 (  0.37%)    -1.47018 ( 99.63%)    -1.47314
      11     12.99    -2.23367 (  0.45%)    -1.45590 ( 99.55%)    -1.45943
      12     14.02    -2.18855 (  0.61%)    -1.43334 ( 99.39%)    -1.43797
      13     14.69    -2.16058 (  0.74%)    -1.41934 ( 99.26%)    -1.42483
      14     15.39    -2.13302 (  0.89%)    -1.40556 ( 99.11%)    -1.41203
      15     16.99    -2.07455 (  1.32%)    -1.37631 ( 98.68%)    -1.38549
      16     17.95    -2.04199 (  1.63%)    -1.36002 ( 98.37%)    -1.37116
      17     21.39    -1.93810 (  3.24%)    -1.30803 ( 96.76%)    -1.32847
      18     26.26    -1.81670 (  7.08%)    -1.24727 ( 92.92%)    -1.28756
      19     31.75    -1.70452 ( 13.98%)    -1.19109 ( 86.02%)    -1.26289
      20     33.42    -1.67428 ( 16.63%)    -1.17594 ( 83.37%)    -1.25882
      21     37.74    -1.60231 ( 24.51%)    -1.13986 ( 75.49%)    -1.25321
      22     40.99    -1.55362 ( 31.10%)    -1.11545 ( 68.90%)    -1.25174
      23     41.78    -1.54222 ( 32.78%)    -1.10973 ( 67.22%)    -1.25151
      24     42.84    -1.52752 ( 35.01%)    -1.10235 ( 64.99%)    -1.25122
      25     43.33    -1.52084 ( 36.05%)    -1.09900 ( 63.95%)    -1.25108
      26     44.65    -1.50306 ( 38.87%)    -1.09007 ( 61.13%)    -1.25061
      27     45.76    -1.48856 ( 41.23%)    -1.08279 ( 58.77%)    -1.25010
      28     47.91    -1.46152 ( 45.73%)    -1.06922 ( 54.27%)    -1.24863
      29     50.34    -1.43232 ( 50.68%)    -1.05455 ( 49.32%)    -1.24599
      30     51.52    -1.41860 ( 53.00%)    -1.04765 ( 47.00%)    -1.24425
      31     52.18    -1.41114 ( 54.26%)    -1.04390 ( 45.74%)    -1.24316
      32     52.55    -1.40700 ( 54.95%)    -1.04183 ( 45.05%)    -1.24251
      33     58.85    -1.34034 ( 65.74%)    -1.00829 ( 34.26%)    -1.22657
      34     60.44    -1.32463 ( 68.10%)    -1.00038 ( 31.90%)    -1.22120
      35     62.07    -1.30896 ( 70.37%)    -0.99249 ( 29.63%)    -1.21519
      36     65.70    -1.27553 ( 74.88%)    -0.97565 ( 25.12%)    -1.20021
      37     68.87    -1.24785 ( 78.26%)    -0.96168 ( 21.74%)    -1.18564
      38     69.22    -1.24491 ( 78.60%)    -0.96020 ( 21.40%)    -1.18398
      39     74.37    -1.20279 ( 83.04%)    -0.93893 ( 16.96%)    -1.15803
      40     75.28    -1.19564 ( 83.71%)    -0.93531 ( 16.29%)    -1.15324
      41     78.73    -1.16943 ( 86.01%)    -0.92206 ( 13.99%)    -1.13482
      42     82.96    -1.13878 ( 88.35%)    -0.90654 ( 11.65%)    -1.11171
      43     85.79    -1.11920 ( 89.66%)    -0.89661 ( 10.34%)    -1.09617
      44     93.81    -1.06705 ( 92.53%)    -0.87013 (  7.47%)    -1.05235
      45     94.15    -1.06498 ( 92.63%)    -0.86907 (  7.37%)    -1.05054
      46     96.79    -1.04889 ( 93.35%)    -0.86088 (  6.65%)    -1.03639
      47    101.10    -1.02354 ( 94.36%)    -0.84797 (  5.64%)    -1.01363
      48    104.44    -1.00470 ( 95.01%)    -0.83835 (  4.99%)    -0.99640
      49    108.22    -0.98408 ( 95.64%)    -0.82781 (  4.36%)    -0.97727
      50    108.70    -0.98148 ( 95.72%)    -0.82649 (  4.28%)    -0.97484
      51    113.40    -0.95701 ( 96.36%)    -0.81395 (  3.64%)    -0.95180
      52    114.52    -0.95132 ( 96.49%)    -0.81103 (  3.51%)    -0.94640
      53    114.73    -0.95026 ( 96.52%)    -0.81049 (  3.48%)    -0.94540
      54    114.79    -0.94999 ( 96.53%)    -0.81036 (  3.47%)    -0.94514
      55    115.42    -0.94682 ( 96.60%)    -0.80873 (  3.40%)    -0.94213
      56    120.19    -0.92349 ( 97.09%)    -0.79674 (  2.91%)    -0.91980
      57    120.32    -0.92284 ( 97.10%)    -0.79641 (  2.90%)    -0.91917
      58    120.65    -0.92128 ( 97.13%)    -0.79561 (  2.87%)    -0.91768
      59    121.14    -0.91894 ( 97.18%)    -0.79441 (  2.82%)    -0.91543
      60    121.21    -0.91861 ( 97.19%)    -0.79424 (  2.81%)    -0.91511
      61    121.59    -0.91681 ( 97.22%)    -0.79331 (  2.78%)    -0.91337
      62    142.22    -0.82701 ( 98.50%)    -0.74687 (  1.50%)    -0.82580
      63    142.25    -0.82688 ( 98.50%)    -0.74681 (  1.50%)    -0.82567
      64    143.73    -0.82100 ( 98.56%)    -0.74375 (  1.44%)    -0.81988
      65    143.86    -0.82046 ( 98.56%)    -0.74347 (  1.44%)    -0.81936
      66    144.04    -0.81976 ( 98.57%)    -0.74310 (  1.43%)    -0.81866
      67    144.92    -0.81632 ( 98.60%)    -0.74131 (  1.40%)    -0.81527
      68    159.17    -0.76317 ( 99.04%)    -0.71353 (  0.96%)    -0.76269
      69    166.74    -0.73700 ( 99.20%)    -0.69975 (  0.80%)    -0.73670
      70    170.17    -0.72559 ( 99.26%)    -0.69372 (  0.74%)    -0.72535
      71    170.85    -0.72336 ( 99.27%)    -0.69255 (  0.73%)    -0.72313
      72    175.20    -0.70928 ( 99.34%)    -0.68509 (  0.66%)    -0.70912
      73    180.59    -0.69238 ( 99.42%)    -0.67611 (  0.58%)    -0.69228
      74    183.22    -0.68436 ( 99.45%)    -0.67183 (  0.55%)    -0.68429
      75    184.06    -0.68181 ( 99.46%)    -0.67047 (  0.54%)    -0.68175
      76    187.06    -0.67285 ( 99.49%)    -0.66568 (  0.51%)    -0.67281
      77    188.45    -0.66875 ( 99.51%)    -0.66349 (  0.49%)    -0.66873
      78    188.81    -0.66769 ( 99.51%)    -0.66292 (  0.49%)    -0.66766
      79    189.72    -0.66503 ( 99.52%)    -0.66150 (  0.48%)    -0.66502
      80    191.75    -0.65916 ( 99.54%)    -0.65835 (  0.46%)    -0.65915
      81    198.89    -0.63904 ( 99.60%)    -0.64752 (  0.40%)    -0.63907
      82    200.94    -0.63340 ( 99.62%)    -0.64448 (  0.38%)    -0.63344
      83    201.68    -0.63139 ( 99.62%)    -0.64339 (  0.38%)    -0.63143
      84    202.15    -0.63013 ( 99.63%)    -0.64271 (  0.37%)    -0.63017
      85    202.78    -0.62843 ( 99.63%)    -0.64179 (  0.37%)    -0.62847
      86    202.87    -0.62817 ( 99.63%)    -0.64165 (  0.37%)    -0.62822
      87    203.74    -0.62584 ( 99.64%)    -0.64039 (  0.36%)    -0.62589
      88    205.87    -0.62015 ( 99.65%)    -0.63730 (  0.35%)    -0.62021
      89    212.49    -0.60291 ( 99.69%)    -0.62793 (  0.31%)    -0.60299
      90    222.31    -0.57846 ( 99.74%)    -0.61454 (  0.26%)    -0.57855
      91    225.27    -0.57135 ( 99.76%)    -0.61063 (  0.24%)    -0.57145
      92    239.15    -0.53940 ( 99.81%)    -0.59291 (  0.19%)    -0.53951
      93    252.86    -0.50999 ( 99.85%)    -0.57639 (  0.15%)    -0.51010
      94    257.66    -0.50017 ( 99.86%)    -0.57083 (  0.14%)    -0.50027
      95    261.55    -0.49237 ( 99.87%)    -0.56639 (  0.13%)    -0.49247
      96    265.12    -0.48534 ( 99.87%)    -0.56238 (  0.13%)    -0.48544
      97    265.54    -0.48452 ( 99.87%)    -0.56191 (  0.13%)    -0.48462
      98    265.84    -0.48393 ( 99.88%)    -0.56157 (  0.12%)    -0.48403
      99    266.22    -0.48318 ( 99.88%)    -0.56114 (  0.12%)    -0.48328
     100    267.03    -0.48162 ( 99.88%)    -0.56025 (  0.12%)    -0.48172
     101    267.66    -0.48040 ( 99.88%)    -0.55955 (  0.12%)    -0.48050
     102    267.91    -0.47992 ( 99.88%)    -0.55927 (  0.12%)    -0.48002
     103    268.31    -0.47915 ( 99.88%)    -0.55883 (  0.12%)    -0.47925
     104    269.89    -0.47612 ( 99.88%)    -0.55709 (  0.12%)    -0.47622
     105    271.89    -0.47232 ( 99.89%)    -0.55490 (  0.11%)    -0.47242
     106    273.53    -0.46923 ( 99.89%)    -0.55312 (  0.11%)    -0.46933
     107    277.45    -0.46194 ( 99.89%)    -0.54891 (  0.11%)    -0.46203
     108    281.71    -0.45416 ( 99.90%)    -0.54439 (  0.10%)    -0.45425
     109    282.90    -0.45201 ( 99.90%)    -0.54314 (  0.10%)    -0.45210
     110    290.01    -0.43944 ( 99.91%)    -0.53578 (  0.09%)    -0.43952
     111    295.46    -0.43008 ( 99.92%)    -0.53028 (  0.08%)    -0.43016
     112    298.59    -0.42480 ( 99.92%)    -0.52715 (  0.08%)    -0.42488
   ------------------------------------------------------------------------

   temp. (K)  partition function   enthalpy   heat capacity  entropy
                                   cal/mol     cal/K/mol   cal/K/mol   J/K/mol
 298.15  VIB  0.296E+66            75667.917    491.917    484.648
         ROT  0.568E+10              888.752      2.981     47.614
         INT  0.168E+76            76556.669    494.898    532.262
         TR   0.847E+29             1481.254      4.968     48.584
         TOT                       78037.9228   499.8664   580.8455  2430.2575

       T/K    H(0)-H(T)+PV         H(T)/Eh          T*S/Eh         G(T)/Eh
   ------------------------------------------------------------------------
    298.15    0.124361E+00    0.178340E+01    0.275978E+00    0.150742E+01
   ------------------------------------------------------------------------

         :::::::::::::::::::::::::::::::::::::::::::::::::::::
         ::                  THERMODYNAMIC                  ::
         :::::::::::::::::::::::::::::::::::::::::::::::::::::
         :: total free energy        -384.484794727505 Eh   ::
         ::.................................................::
         :: total energy             -385.992216116313 Eh   ::
         :: zero point energy           1.659038470640 Eh   ::
         :: G(RRHO) w/o ZPVE           -0.151617081832 Eh   ::
         :: G(RRHO) contrib.            1.507421388808 Eh   ::
         :::::::::::::::::::::::::::::::::::::::::::::::::::::

optimized geometry written to: xtbopt.xyz


           -------------------------------------------------
          | TOTAL ENERGY             -385.992216116313 Eh   |
          | TOTAL ENTHALPY           -384.208816299756 Eh   |
          | TOTAL FREE ENERGY        -384.484794727505 Eh   |
          | GRADIENT NORM               0.000397450020 Eh/α |
          | HOMO-LUMO GAP               0.743955956154 eV   |
           -------------------------------------------------

------------------------------------------------------------------------
 * finished run on 2021/11/19 at 17:16:56.189     
------------------------------------------------------------------------
 total:
 * wall-time:     0 d,  0 h, 28 min,  1.020 sec
 *  cpu-time:     0 d,  0 h, 28 min,  1.039 sec
 * ratio c/w:     1.000 speedup
 SCF:
 * wall-time:     0 d,  0 h,  0 min,  5.296 sec
 *  cpu-time:     0 d,  0 h,  0 min,  5.296 sec
 * ratio c/w:     1.000 speedup
 ANC optimizer:
 * wall-time:     0 d,  0 h,  3 min,  3.119 sec
 *  cpu-time:     0 d,  0 h,  3 min,  3.121 sec
 * ratio c/w:     1.000 speedup
 analytical hessian:
 * wall-time:     0 d,  0 h, 24 min, 52.301 sec
 *  cpu-time:     0 d,  0 h, 24 min, 52.319 sec
 * ratio c/w:     1.000 speedup

