228
 energy: -384.043656462377 gnorm: 2.067170012321 xtb: 6.4.1 (bd6e46d)
C        49.46186800000000    3.51249300000000    0.78981900000000
C        50.35184600000001    2.57223400000000    0.59162400000000
C        49.69034500000000    1.31215900000000    0.29081700000000
C        50.04878300000001    0.00649700000000    0.00213500000000
C        49.22360500000001   -1.12457500000000   -0.08308100000000
C        49.67917000000001   -2.33329900000000    0.49822600000000
C        48.70647600000001   -3.26584600000000    0.29807100000000
C        47.67538200000001   -2.59814500000000   -0.40491600000000
N        48.01210700000000   -1.31728500000000   -0.62183000000000
C        46.51742100000000   -3.32426000000000   -0.73663300000000
C        45.19932000000001   -2.88156400000000   -0.62309900000000
C        43.88697400000000   -3.48369800000000   -0.72007800000000
C        42.96534600000000   -2.53705100000000   -0.51399300000000
C        43.66223200000000   -1.29122000000000   -0.27726200000000
N        44.98330600000000   -1.57097200000000   -0.35694800000000
C        43.26299000000001    0.01077700000000   -0.00925900000000
C        44.09560200000000    1.14745300000000    0.06665000000000
C        43.66145900000000    2.34944300000000   -0.54349100000000
C        44.65697200000000    3.26583100000000   -0.35153500000000
C        45.67112300000000    2.59258800000000    0.37239600000000
N        45.30592600000000    1.32476600000000    0.61122000000000
C        46.84076500000000    3.29954400000000    0.69389600000000
C        48.15601800000000    2.89602000000000    0.62388000000000
N        48.34564000000000    1.58491600000000    0.32747800000000
H        49.62913300000000    4.54103700000000    1.02840900000000
H        51.42210500000000    2.69557100000000    0.64064200000000
H        50.63969100000000   -2.51900200000000    1.01680300000000
H        48.74335800000000   -4.32245500000000    0.62339800000000
H        47.40882200000000   -0.54987500000000   -1.16935000000000
H        46.60581200000000   -4.35968700000000   -1.11498000000000
H        43.68829900000000   -4.54439900000000   -0.92882300000000
H        41.89593700000000   -2.72898500000000   -0.53322600000000
H        42.18804700000000    0.10004600000000    0.12848600000000
H        42.70780500000000    2.54100000000000   -1.07228800000000
H        44.64255100000000    4.31606000000000   -0.69797600000000
H        45.89925100000000    0.56732200000000    1.18321700000000
H        46.77225700000001    4.35694900000000    1.05061200000000
C        97.22834300000000   -3.49112900000000    0.82618900000000
C        96.33836500000001   -2.55297900000000    0.61823900000000
C        96.99986699999999   -1.29609700000000    0.30436200000000
C        96.64142800000000    0.00649700000000    0.00213500000000
C        97.46660700000000    1.13662300000000   -0.09482400000000
C        97.01104100000001    2.35131900000000    0.47389900000000
C        97.98373599999999    3.28173700000000    0.26406900000000
C        99.01482900000002    2.60677000000000   -0.43194600000000
N        98.67810400000002    1.32372700000000   -0.63554500000000
C       100.17279000000001    3.32940200000000   -0.77118600000000
C       101.49089100000000    2.88790900000000   -0.65306000000000
C       102.80323700000000    3.48900300000000   -0.75628800000000
C       103.72486499999999    2.54454700000000   -0.54038200000000
C       103.02797900000000    1.30124300000000   -0.29072500000000
N       101.70690600000002    1.58015200000000   -0.37331200000000
C       103.42722100000000    0.00209900000000   -0.00921400000000
C       102.59460900000001   -1.13372800000000    0.07849600000000
C       103.02875200000000   -2.34198900000000   -0.51912800000000
C       102.03323899999999   -3.25633500000000   -0.31766500000000
C       101.01908800000000   -2.57560900000000    0.39923500000000
N       101.38428500000001   -1.30537500000000    0.62487900000000
C        99.84944700000000   -3.27918800000000    0.72806000000000
C        98.53419400000000   -2.87641200000000    0.65385700000000
N        98.34457100000000   -1.56845800000000    0.34385400000000
H        97.06107799999999   -4.51714000000000    1.07544800000000
H        95.26810600000000   -2.67580100000000    0.66853600000000
H        96.05052000000002    2.54239800000000    0.99051900000000
H        97.94685400000000    4.34166800000000    0.57840500000000
H        99.28138900000000    0.55067200000000   -1.17506500000000
H       100.08439900000000    4.36084400000000   -1.16026600000000
H       103.00191300000000    4.54747900000000   -0.97603700000000
H       104.79427500000001    2.73627100000000   -0.56160800000000
H       104.50216399999999   -0.08573500000000    0.12945100000000
H       103.98240700000001   -2.53902800000000   -1.04590700000000
H       102.04766100000001   -4.31010500000000   -0.65318000000000
H       100.79096100000000   -0.54203200000000    1.18897800000000
H        99.91795500000001   -4.33283100000000    1.09573800000000
C        52.27622700000000    0.00649700000000    0.00213500000000
C        53.49243300000001    0.00649700000000    0.00213500000000
C        62.50661500000000    0.00649700000000    0.00213500000000
C        63.72282000000000    0.00649700000000    0.00213500000000
C        72.73700300000000    0.00649700000000    0.00213500000000
C        73.95320800000000    0.00649700000000    0.00213500000000
C        82.96739100000001    0.00649700000000    0.00213500000000
C        84.18359599999999    0.00649700000000    0.00213500000000
C        93.19777900000001    0.00649700000000    0.00213500000000
C        94.41398400000000    0.00649700000000    0.00213500000000
C        55.20758100000000   -3.59306300000000    0.00064500000000
C        54.33303100000000   -2.59815900000000   -0.00965600000000
C        55.00449400000000   -1.31937500000000    0.00353300000000
C        54.60746300000000   -0.00379000000000   -0.00124600000000
C        55.41865600000001    1.14053400000000   -0.15537200000000
C        54.93963000000000    2.19305000000000   -0.96743700000000
C        55.92671500000000    3.13580200000000   -0.95890600000000
C        56.97398600000000    2.63400800000000   -0.14610300000000
N        56.63513300000000    1.42764000000000    0.32664300000000
C        58.13436400000000    3.41199100000000    0.00824700000000
C        59.45535300000001    2.95411700000000   -0.02114600000000
C        60.76792300000000    3.58225000000000   -0.08227400000000
C        61.68203500000000    2.62718700000000   -0.08485800000000
C        61.00848800000000    1.34031300000000   -0.02566800000000
N        59.69643000000000    1.62891200000000    0.00912100000000
C        61.41077200000000   -0.00379000000000   -0.00124600000000
C        60.57861800000000   -1.11757900000000    0.18103500000000
C        61.01857600000001   -2.14923600000000    1.04434600000000
C        60.02039400000000   -3.07257700000000    1.04896700000000
C        58.99747800000000   -2.59263900000000    0.19553800000000
N        59.36465500000001   -1.41139200000000   -0.31497000000000
C        57.84056900000000   -3.36804600000000    0.03846900000000
C        56.51979400000000   -2.94856800000000    0.02178400000000
N        56.34340300000000   -1.61036500000000    0.02268500000000
H        55.03906100000000   -4.65523000000000   -0.00475700000000
H        53.24520300000000   -2.78419400000000   -0.02668300000000
H        53.97555200000000    2.26842100000000   -1.50175400000000
H        55.88856800000000    4.10691700000000   -1.49134900000000
H        57.24281200000000    0.79054100000000    1.01527200000000
H        58.07926400000000    4.49825200000000    0.15236200000000
H        60.98634900000000    4.65024300000000   -0.12060400000000
H        62.75835000000001    2.77323000000000   -0.12448500000000
H        61.97258600000001   -2.21364800000000    1.60189400000000
H        60.04581300000001   -4.01789400000000    1.62428700000000
H        58.77757900000000   -0.79193500000000   -1.03862000000000
H        57.90128700000000   -4.47978600000000   -0.07566000000000
C        65.43796800000000   -3.59306300000000    0.00064500000000
C        64.56341800000000   -2.59815900000000   -0.00965600000000
C        65.23488200000000   -1.31937500000000    0.00353300000000
C        64.83785100000000   -0.00379000000000   -0.00124600000000
C        65.64904400000000    1.14053400000000   -0.15537200000000
C        65.17001800000000    2.19305000000000   -0.96743700000000
C        66.15710300000001    3.13580200000000   -0.95890600000000
C        67.20437400000000    2.63400800000000   -0.14610300000000
N        66.86552100000000    1.42764000000000    0.32664300000000
C        68.36475200000000    3.41199100000000    0.00824700000000
C        69.68574100000001    2.95411700000000   -0.02114600000000
C        70.99831000000000    3.58225000000000   -0.08227400000000
C        71.91242300000000    2.62718700000000   -0.08485800000000
C        71.23887600000002    1.34031300000000   -0.02566800000000
N        69.92681800000000    1.62891200000000    0.00912100000000
C        71.64116000000001   -0.00379000000000   -0.00124600000000
C        70.80900600000000   -1.11757900000000    0.18103500000000
C        71.24896400000000   -2.14923600000000    1.04434600000000
C        70.25078200000000   -3.07257700000000    1.04896700000000
C        69.22786600000001   -2.59263900000000    0.19553800000000
N        69.59504300000000   -1.41139200000000   -0.31497000000000
C        68.07095700000002   -3.36804600000000    0.03846900000000
C        66.75018200000000   -2.94856800000000    0.02178400000000
N        66.57379100000000   -1.61036500000000    0.02268500000000
H        65.26944899999999   -4.65523000000000   -0.00475700000000
H        63.47559000000000   -2.78419400000000   -0.02668300000000
H        64.20594000000000    2.26842100000000   -1.50175400000000
H        66.11895600000000    4.10691700000000   -1.49134900000000
H        67.47320000000001    0.79054100000000    1.01527200000000
H        68.30965200000000    4.49825200000000    0.15236200000000
H        71.21673700000001    4.65024300000000   -0.12060400000000
H        72.98873800000000    2.77323000000000   -0.12448500000000
H        72.20297400000001   -2.21364800000000    1.60189400000000
H        70.27620000000000   -4.01789400000000    1.62428700000000
H        69.00796699999999   -0.79193500000000   -1.03862000000000
H        68.13167500000000   -4.47978600000000   -0.07566000000000
C        75.66835600000000   -3.59306300000000    0.00064500000000
C        74.79380600000000   -2.59815900000000   -0.00965600000000
C        75.46527000000000   -1.31937500000000    0.00353300000000
C        75.06823900000001   -0.00379000000000   -0.00124600000000
C        75.87943100000000    1.14053400000000   -0.15537200000000
C        75.40040600000000    2.19305000000000   -0.96743700000000
C        76.38749100000000    3.13580200000000   -0.95890600000000
C        77.43476200000001    2.63400800000000   -0.14610300000000
N        77.09590900000001    1.42764000000000    0.32664300000000
C        78.59514000000000    3.41199100000000    0.00824700000000
C        79.91612900000000    2.95411700000000   -0.02114600000000
C        81.22869799999999    3.58225000000000   -0.08227400000000
C        82.14281099999999    2.62718700000000   -0.08485800000000
C        81.46926400000000    1.34031300000000   -0.02566800000000
N        80.15720600000000    1.62891200000000    0.00912100000000
C        81.87154800000000   -0.00379000000000   -0.00124600000000
C        81.03939400000000   -1.11757900000000    0.18103500000000
C        81.47935200000001   -2.14923600000000    1.04434600000000
C        80.48117000000001   -3.07257700000000    1.04896700000000
C        79.45825400000000   -2.59263900000000    0.19553800000000
N        79.82543099999999   -1.41139200000000   -0.31497000000000
C        78.30134500000000   -3.36804600000000    0.03846900000000
C        76.98057000000000   -2.94856800000000    0.02178400000000
N        76.80417900000000   -1.61036500000000    0.02268500000000
H        75.49983700000000   -4.65523000000000   -0.00475700000000
H        73.70597800000000   -2.78419400000000   -0.02668300000000
H        74.43632800000002    2.26842100000000   -1.50175400000000
H        76.34934400000000    4.10691700000000   -1.49134900000000
H        77.70358800000000    0.79054100000000    1.01527200000000
H        78.54004000000000    4.49825200000000    0.15236200000000
H        81.44712500000000    4.65024300000000   -0.12060400000000
H        83.21912600000002    2.77323000000000   -0.12448500000000
H        82.43336100000000   -2.21364800000000    1.60189400000000
H        80.50658799999999   -4.01789400000000    1.62428700000000
H        79.23835500000001   -0.79193500000000   -1.03862000000000
H        78.36206300000002   -4.47978600000000   -0.07566000000000
C        85.89874399999999   -3.59306300000000    0.00064500000000
C        85.02419399999999   -2.59815900000000   -0.00965600000000
C        85.69565799999999   -1.31937500000000    0.00353300000000
C        85.29862700000000   -0.00379000000000   -0.00124600000000
C        86.10981900000000    1.14053400000000   -0.15537200000000
C        85.63079399999999    2.19305000000000   -0.96743700000000
C        86.61787900000000    3.13580200000000   -0.95890600000000
C        87.66515000000001    2.63400800000000   -0.14610300000000
N        87.32629700000001    1.42764000000000    0.32664300000000
C        88.82552699999999    3.41199100000000    0.00824700000000
C        90.14651700000002    2.95411700000000   -0.02114600000000
C        91.45908600000001    3.58225000000000   -0.08227400000000
C        92.37319900000001    2.62718700000000   -0.08485800000000
C        91.69965200000000    1.34031300000000   -0.02566800000000
N        90.38759400000002    1.62891200000000    0.00912100000000
C        92.10193599999999   -0.00379000000000   -0.00124600000000
C        91.26978099999999   -1.11757900000000    0.18103500000000
C        91.70974000000001   -2.14923600000000    1.04434600000000
C        90.71155800000000   -3.07257700000000    1.04896700000000
C        89.68864200000000   -2.59263900000000    0.19553800000000
N        90.05581900000001   -1.41139200000000   -0.31497000000000
C        88.53173300000000   -3.36804600000000    0.03846900000000
C        87.21095800000001   -2.94856800000000    0.02178400000000
N        87.03456700000000   -1.61036500000000    0.02268500000000
H        85.73022500000002   -4.65523000000000   -0.00475700000000
H        83.93636600000001   -2.78419400000000   -0.02668300000000
H        84.66671599999999    2.26842100000000   -1.50175400000000
H        86.57973200000001    4.10691700000000   -1.49134900000000
H        87.93397600000000    0.79054100000000    1.01527200000000
H        88.77042800000001    4.49825200000000    0.15236200000000
H        91.67751300000002    4.65024300000000   -0.12060400000000
H        93.44951399999999    2.77323000000000   -0.12448500000000
H        92.66374900000000   -2.21364800000000    1.60189400000000
H        90.73697600000000   -4.01789400000000    1.62428700000000
H        89.46874300000000   -0.79193500000000   -1.03862000000000
H        88.59245100000000   -4.47978600000000   -0.07566000000000
228
 energy: -384.769092299929 gnorm: 0.688288311764 xtb: 6.4.1 (bd6e46d)
C        49.45596874111164    3.51592259425832    0.79121984406018
C        50.36127235149399    2.56720693476022    0.58966373506720
C        49.68658713830072    1.31293339520430    0.28760818175246
C        50.06826128072101    0.01283967559850    0.00566825459746
C        49.23980599806654   -1.11956315647186   -0.08058514193659
C        49.68479320324217   -2.33632033373890    0.49880531975203
C        48.70909786691302   -3.26863866670559    0.29543973691563
C        47.67058720890422   -2.60528667956582   -0.40743883186215
N        48.00880093067980   -1.31061182455257   -0.62345370959386
C        46.50845520350163   -3.32744992957082   -0.74040773557395
C        45.19811843316040   -2.87207580678733   -0.62583049123075
C        43.88739122220236   -3.49060470826843   -0.72271021987960
C        42.96130278554031   -2.53908435275192   -0.51348832130217
C        43.67037692931579   -1.29413111877698   -0.27348942082814
N        44.99072751595697   -1.56435770497416   -0.35519966534914
C        43.26024039115440    0.00302607470643   -0.00788104441117
C        44.08696047722244    1.14329081880266    0.06530494692236
C        43.65738413394519    2.35156420881797   -0.54194386580902
C        44.65446284827681    3.26866210181169   -0.34938672329558
C        45.67586432572875    2.60112422489768    0.37396201160971
N        45.31205002741726    1.31886646827207    0.61093041341213
C        46.84678967543037    3.30773467083482    0.69949852809021
C        48.15588946782573    2.88454965799632    0.62527166718085
N        48.34554377387558    1.57769010921013    0.32595980304192
H        49.62806126159511    4.54319108817070    1.02901460345322
H        51.42466392291767    2.69398567691176    0.64025119879762
H        50.63501010923783   -2.51592766642037    1.01438893461715
H        48.74116458534410   -4.31610130916043    0.62097040401448
H        47.41817243708442   -0.56269948430738   -1.15789595834588
H        46.60728808460967   -4.35801592601325   -1.10867338296218
H        43.68972187825572   -4.54192756425398   -0.92842825290449
H        41.89656614526308   -2.72625461807022   -0.53253720124678
H        42.18801786758293    0.10350242961495    0.12429549032742
H        42.71312258813035    2.53778734108400   -1.06932393245716
H        44.64463123802360    4.30976615650913   -0.69553546799933
H        45.88982333051035    0.57977058852051    1.17114068328391
H        46.76898436684349    4.35505849773304    1.04478835379642
C        97.23423502359587   -3.49455189829820    0.82764504550996
C        96.32897626582378   -2.54796365093088    0.61630090428869
C        97.00358352019177   -1.29693429331939    0.30121426069566
C        96.62197649687134    0.00007044019941    0.00611078333791
C        97.45042699917713    1.13166274869561   -0.09227580256982
C        97.00541141194947    2.35432383336016    0.47442496127476
C        97.98113877231556    3.28450733511732    0.26139822555630
C        99.01960914609813    2.61389722102180   -0.43453242252561
N        98.68141422862770    1.31703097446876   -0.63708221889234
C       100.18177360650128    3.33255711660269   -0.77500616294780
C       101.49208568164495    2.87840972257860   -0.65569528255392
C       102.80282002374634    3.49588520078622   -0.75900091910916
C       103.72890615232022    2.54658740952357   -0.53990875854168
C       103.01982802433506    1.30419772869287   -0.28699480698233
N       101.69948936346266    1.57354641600068   -0.37149874771573
C       103.42997138941445    0.00985751386183   -0.00792312875647
C       102.60324935350900   -1.12957912881382    0.07709842116940
C       103.03282584305414   -2.34409552720169   -0.51756834779169
C       102.03574668155736   -3.25914571218678   -0.31549408515778
C       101.01434410776235   -2.58412568096838    0.40088038333476
N       101.37816069850697   -1.29947801557433    0.62452104929789
C        99.84341355100274   -3.28732487725499    0.73372991666871
C        98.53431016480903   -2.86493590376529    0.65509279098856
N        98.34462998286034   -1.56122684955625    0.34233011925102
H        97.06215186387671   -4.51929617680368    1.07607440320163
H        95.26562058689812   -2.67425789077953    0.66799382131067
H        96.05520490072736    2.53930607485252    0.98813397314356
H        97.94904739428691    4.33528811616402    0.57603733681245
H        99.27203596407037    0.56361249070903   -1.16375136715371
H       100.08292534592137    4.35923485628550   -1.15396397754736
H       103.00048980938736    4.54501150505081   -0.97562477400405
H       104.79364414393957    2.73354758752072   -0.56089969679495
H       104.50219305081804   -0.08923514141751    0.12528798341198
H       103.97708793188701   -2.53578500495685   -1.04298569074838
H       102.04557994137421   -4.30378620275872   -0.65081436311399
H       100.80038979328711   -0.55460316418740    1.17702299355815
H        99.92122888547253   -4.33100268423005    1.08988557933288
C        52.21278848523922    0.01014944124826    0.00171490044452
C        53.40772988299802    0.01186995814431    0.00126006623200
C        62.54905425506210    0.00542266964945    0.00227892927807
C        63.69016884712666    0.00986033386375    0.00268004196943
C        72.77898936106060    0.00542843819195    0.00216023556419
C        73.92090676694676    0.00986314109439    0.00270010545691
C        83.00968830610890    0.00544318918777    0.00218574938155
C        84.15084089104006    0.00988455309315    0.00258979208874
C        93.28868491549140    0.00357471028350    0.00374436304871
C        94.48163289779117    0.00266962803141    0.00056442566985
C        55.21442775624283   -3.59549409593268   -0.00007235930270
C        54.32388067730255   -2.59839213196052   -0.00916677558295
C        55.03084760369757   -1.33533615679615    0.00616327732819
C        54.66390757184330   -0.00870297697311   -0.00071411897879
C        55.42632616364845    1.14199694377130   -0.15797112269296
C        54.93863405360047    2.19367443456374   -0.96621624466305
C        55.92680300325986    3.14173048478204   -0.95760290339987
C        56.97797367882961    2.64400293910350   -0.14663735303730
N        56.64413121114801    1.42507823550662    0.32890579842529
C        58.14679966354540    3.41616091445738    0.01116390849414
C        59.45470252821613    2.95324170107143   -0.01768726996768
C        60.76446207665834    3.59140291868148   -0.08094504681703
C        61.68713823396959    2.62430893522867   -0.08514199822655
C        60.97593193641104    1.35819193328062   -0.02804434130112
N        59.68352993744183    1.62222061359606    0.00788104102129
C        61.33179726258620    0.00411616200127   -0.00304022854136
C        60.56312181101332   -1.12345972677802    0.18468686299263
C        61.01950429088207   -2.14785806539125    1.04333238002905
C        60.02010936079542   -3.07981236897913    1.04822089132906
C        58.99381081945461   -2.60384753756851    0.19685280331622
N        59.35493754692605   -1.40968320661582   -0.31758267744445
C        57.83172239265387   -3.37852142850813    0.03478349755349
C        56.52216327432791   -2.94417828737785    0.01839198802158
N        56.34839722495855   -1.60709902800646    0.02355774020169
H        55.03993424063525   -4.65503213231235   -0.00480320454554
H        53.24711693778826   -2.77996623371376   -0.02661978258484
H        53.98118174166757    2.26522360691336   -1.49791408808106
H        55.89081292776584    4.10175637734748   -1.48785739036670
H        57.23379220741482    0.80058779046377    1.00169950788833
H        58.07681386616731    4.49696760151452    0.14740981450989
H        60.98402161944676    4.64986397667151   -0.12053647931214
H        62.75705430852484    2.77124566828453   -0.12382215374065
H        61.96646305106668   -2.21015046344248    1.59802763852983
H        60.04326928903479   -4.01368335456108    1.62056191396815
H        58.78647409531840   -0.80187240786901   -1.02447590731662
H        57.90482439994467   -4.47650969982886   -0.07084911083357
C        65.44532631291287   -3.59643123061649   -0.00015311855079
C        64.55517277117265   -2.59839193168096   -0.00946250254724
C        65.26896294861093   -1.34053015231926    0.00558209502715
C        64.90862054174393   -0.00820880754618   -0.00027505409449
C        65.66182734648007    1.14554175720701   -0.15899392253061
C        65.17040642571520    2.19231215542612   -0.96671921844405
C        66.15814192509029    3.14242387709213   -0.95715692596370
C        67.20825224781643    2.64478892541056   -0.14679219847628
N        66.87480358428684    1.42609156953089    0.32890189129885
C        68.37778389354939    3.41622892454396    0.01100637832300
C        69.68486290072111    2.95369754273320   -0.01792105403636
C        70.99480758698188    3.59146606590042   -0.08084364671851
C        71.91743358737995    2.62434951801714   -0.08516096917073
C        71.20610031713004    1.35850198913077   -0.02781570957626
N        69.91427270163662    1.62193308672356    0.00791972553554
C        71.56255741804924    0.00405987871278   -0.00318335611079
C        70.79335980303470   -1.12385685293880    0.18476810552210
C        71.24979093379434   -2.14749452850478    1.04333820131130
C        70.24997790181240   -3.07981383938835    1.04808027079622
C        69.22453089283007   -2.60371474682487    0.19694516606131
N        69.58558960691026   -1.40974480491074   -0.31755682056561
C        68.06081020550421   -3.37842023389717    0.03479603887049
C        66.75365314471310   -2.94667550552590    0.01871244528922
N        66.57768768256496   -1.60648985140974    0.02373888064243
H        65.27026014728604   -4.65527248343270   -0.00475721353786
H        63.47795542596459   -2.77988324653124   -0.02686245885847
H        64.21258432491796    2.26475435059589   -1.49867334001094
H        66.12121133770451    4.10199465905608   -1.48776000820971
H        67.46402962818190    0.80069436777205    1.00169925342451
H        68.30732457892321    4.49701686148273    0.14747062963970
H        71.21442750471999    4.64987618260693   -0.12053665437730
H        72.98742182865958    2.77123730717055   -0.12384261802593
H        72.19682588906514   -2.21014406781622    1.59799940639094
H        70.27361940685455   -4.01370324903753    1.62051796464285
H        69.01686912716934   -0.80187244407989   -1.02447255946898
H        68.13514064569539   -4.47649933890860   -0.07101994757673
C        75.67572948941414   -3.59648399588254   -0.00015515925889
C        74.78558091597742   -2.59843060302280   -0.00947892568471
C        75.49951431643760   -1.34071140880749    0.00556833332770
C        75.13878406372530   -0.00810676523859   -0.00023503838508
C        75.89224326696591    1.14567781684138   -0.15906168993321
C        75.40082299848312    2.19224937417481   -0.96675048896380
C        76.38856661968920    3.14244678657059   -0.95713938913471
C        77.43862628046574    2.64482231427439   -0.14681259491110
N        77.10516961631826    1.42610178081851    0.32889069134858
C        78.60811331518433    3.41625759434853    0.01100740894982
C        79.91530103925567    2.95359559121834   -0.01791517537729
C        81.22520713984970    3.59141639272852   -0.08084962564263
C        82.14783909827614    2.62430862643918   -0.08517177144562
C        81.43663542205896    1.35833738959591   -0.02785543587593
N        80.14451717311479    1.62203989915776    0.00793647090622
C        81.79272856142255    0.00415012979378   -0.00314507501704
C        81.02377620567415   -1.12372665395466    0.18470916671556
C        81.48020567505657   -2.14756445818552    1.04331140901533
C        80.48040151224778   -3.07979333032615    1.04809865841452
C        79.45490554292742   -2.60368094404679    0.19692395700913
N        79.81595592355323   -1.40973134574796   -0.31756256472648
C        78.29113189307608   -3.37838782744101    0.03479068199325
C        76.98409167960382   -2.94678716279527    0.01871930734271
N        76.80790757879710   -1.60636928412038    0.02375406232131
H        75.50064736503340   -4.65528561322942   -0.00475656583111
H        73.70835486199756   -2.77987685705538   -0.02686206223745
H        74.44297513930812    2.26474686330249   -1.49867038453959
H        76.35159923524989    4.10200132850138   -1.48775260532224
H        77.69440482484667    0.80070655948260    1.00169966147055
H        78.53770899062850    4.49702321216137    0.14747464343621
H        81.44481468894446    4.64986433951064   -0.12053599633110
H        83.21781853304026    2.77124337065291   -0.12384353663325
H        82.42721463014620   -2.21015209152725    1.59800298369717
H        80.50400648835053   -4.01369670223454    1.62052552109878
H        79.24724554654324   -0.80186039717230   -1.02447282169998
H        78.36552435034605   -4.47649125585475   -0.07101885736832
C        85.90604874925175   -3.59643416608158   -0.00008135391191
C        85.01587904425774   -2.59841079715663   -0.00948248107905
C        85.72969194046736   -1.34040313857130    0.00575791706430
C        85.36954350921053   -0.00815923581288   -0.00037665791167
C        86.12249472101740    1.14530502422070   -0.15898087709315
C        85.63110739140728    2.19257793529303   -0.96672231214445
C        86.61847468728652    3.14243252515857   -0.95727783226866
C        87.66934501405794    2.64493740877022   -0.14678302288861
N        87.33580952712096    1.42605385678656    0.32890916146219
C        88.83730163420752    3.41637392588847    0.01109898323612
C        90.14685827312900    2.95122204085553   -0.01759617881133
C        91.45608201420603    3.59050068616781   -0.08097175218156
C        92.37922820227543    2.62417385583024   -0.08535110417930
C        91.67425276551585    1.35365034414891   -0.02893930470480
N        90.37413562800792    1.62250803244481    0.00820458509789
C        92.03706260140703    0.00461003753290   -0.00280278487798
C        91.25916018082135   -1.12017818868925    0.18381298080399
C        91.71166996031708   -2.14897490809548    1.04287384213818
C        90.71172567230663   -3.07915840969555    1.04855517564127
C        89.68521060797674   -2.60292305636608    0.19669717871427
N        90.04660508896433   -1.40873762178662   -0.31750179616429
C        88.52212331241117   -3.37830551591131    0.03463971837032
C        87.21429942517983   -2.94632181303249    0.01847290009257
N        87.03864414638997   -1.60666674499150    0.02382146297055
H        85.73104939865196   -4.65527451025746   -0.00475502363333