      -----------------------------------------------------------      
     |                   =====================                   |     
     |                           x T B                           |     
     |                   =====================                   |     
     |                         S. Grimme                         |     
     |          Mulliken Center for Theoretical Chemistry        |     
     |                    University of Bonn                     |     
      -----------------------------------------------------------      

   * xtb version 6.4.1 (bd6e46d) compiled by 'conda@4901f00b25ba' on 2021-06-10

   xtb is free software: you can redistribute it and/or modify it under
   the terms of the GNU Lesser General Public License as published by
   the Free Software Foundation, either version 3 of the License, or
   (at your option) any later version.
   
   xtb is distributed in the hope that it will be useful,
   but WITHOUT ANY WARRANTY; without even the implied warranty of
   MERCHANTABILITY or FITNESS FOR A PARTICULAR PURPOSE.  See the
   GNU Lesser General Public License for more details.
   
   Cite this work as:
   * C. Bannwarth, E. Caldeweyher, S. Ehlert, A. Hansen, P. Pracht,
     J. Seibert, S. Spicher, S. Grimme, WIREs Comput. Mol. Sci., 2020, 11,
     e01493. DOI: 10.1002/wcms.1493
   
   for GFN2-xTB:
   * C. Bannwarth, S. Ehlert and S. Grimme., J. Chem. Theory Comput., 2019,
     15, 1652-1671. DOI: 10.1021/acs.jctc.8b01176
   for GFN1-xTB:
   * S. Grimme, C. Bannwarth, P. Shushkov, J. Chem. Theory Comput., 2017,
     13, 1989-2009. DOI: 10.1021/acs.jctc.7b00118
   for GFN0-xTB:
   * P. Pracht, E. Caldeweyher, S. Ehlert, S. Grimme, ChemRxiv, 2019, preprint.
     DOI: 10.26434/chemrxiv.8326202.v1
   for GFN-FF:
   * S. Spicher and S. Grimme, Angew. Chem. Int. Ed., 2020, 59, 15665-15673.
     DOI: 10.1002/anie.202004239
   
   for DFT-D4:
   * E. Caldeweyher, C. Bannwarth and S. Grimme, J. Chem. Phys., 2017,
     147, 034112. DOI: 10.1063/1.4993215
   * E. Caldeweyher, S. Ehlert, A. Hansen, H. Neugebauer, S. Spicher,
     C. Bannwarth and S. Grimme, J. Chem. Phys., 2019, 150, 154122.
     DOI: 10.1063/1.5090222
   * E. Caldeweyher, J.-M. Mewes, S. Ehlert and S. Grimme, Phys. Chem. Chem. Phys.
     2020, 22, 8499-8512. DOI: 10.1039/D0CP00502A
   
   for sTDA-xTB:
   * S. Grimme and C. Bannwarth, J. Chem. Phys., 2016, 145, 054103.
     DOI: 10.1063/1.4959605
   
   in the mass-spec context:
   * V. Asgeirsson, C. Bauer and S. Grimme, Chem. Sci., 2017, 8, 4879.
     DOI: 10.1039/c7sc00601b
   * J. Koopman and S. Grimme, ACS Omega 2019, 4, 12, 15120-15133.
     DOI: 10.1021/acsomega.9b02011
   
   for metadynamics refer to:
   * S. Grimme, J. Chem. Theory Comput., 2019, 155, 2847-2862
     DOI: 10.1021/acs.jctc.9b00143
   
   for SPH calculations refer to:
   * S. Spicher and S. Grimme, J. Chem. Theory Comput., 2021, 17, 1701-1714
     DOI: 10.1021/acs.jctc.0c01306
   
   with help from (in alphabetical order)
   P. Atkinson, C. Bannwarth, F. Bohle, G. Brandenburg, E. Caldeweyher
   M. Checinski, S. Dohm, S. Ehlert, S. Ehrlich, I. Gerasimov, J. Koopman
   C. Lavigne, S. Lehtola, F. März, M. Müller, F. Musil, H. Neugebauer
   J. Pisarek, C. Plett, P. Pracht, J. Seibert, P. Shushkov, S. Spicher
   M. Stahn, M. Steiner, T. Strunk, J. Stückrath, T. Rose, and J. Unsleber
   
 * started run on 2021/11/20 at 11:58:38.017     

           -------------------------------------------------
          |                Calculation Setup                |
           -------------------------------------------------

          program call               : /home/jeff/miniconda3/bin/xtb input_structure_1.xyz --gfn 2 --ohess normal --parallel 1 --etemp 300 --chrg 0 --uhf 0 -I det_control.in
          hostname                   : jelfscompute1
          coordinate file            : input_structure_1.xyz
          omp threads                :                     1
          number of atoms            :                   259
          number of electrons        :                   897
          charge                     :                     0
          spin                       :                   0.5
          first test random number   :      0.00981629745952

   ID    Z sym.   atoms
    1   29 Cu     1, 37, 85, 120, 155, 190, 225
    2    6 C      2-9, 11-15, 17-21, 23, 24, 38-45, 47-51, 53-57, 59, 60,
                  73-84, 86-93, 95-99, 101-105, 107, 108, 121-128, 130-134,
                  136-140, 142, 143, 156-163, 165-169, 171-175, 177, 178,
                  191-198, 200-204, 206-210, 212, 213, 226-233, 235-239,
                  241-245, 247, 248
    3    7 N      10, 16, 22, 25, 46, 52, 58, 61, 94, 100, 106, 109, 129,
                  135, 141, 144, 164, 170, 176, 179, 199, 205, 211, 214, 234,
                  240, 246, 249
    4    1 H      26-36, 62-72, 110-119, 145-154, 180-189, 215-224, 250-259

molecular fragmentation (1/2 indicates fragments):
111111111111111111111111111111111111222222222222222222222222222222222222
222222222222222222222222222222222222222222222222222222222222222222222222
222222222222222222222222222222222222222222222222222222222222222222222222
2222222222222222222222222222222222222222222
# atoms in fragment 1/2:    36   223
 fragment masses (1/2) :      370.87     2364.34
CMA distance (Bohr)    :  73.720
constraining FC (au)   :  0.0500

           -------------------------------------------------
          |                 G F N 2 - x T B                 |
           -------------------------------------------------

        Reference                      10.1021/acs.jctc.8b01176
      * Hamiltonian:
        H0-scaling (s, p, d)           1.850000    2.230000    2.230000
        zeta-weighting                 0.500000
      * Dispersion:
        s8                             2.700000
        a1                             0.520000
        a2                             5.000000
        s9                             5.000000
      * Repulsion:
        kExp                           1.500000    1.000000
        rExp                           1.000000
      * Coulomb:
        alpha                          2.000000
        third order                    shell-resolved
        anisotropic                    true
        a3                             3.000000
        a5                             4.000000
        cn-shift                       1.200000
        cn-exp                         4.000000
        max-rad                        5.000000


          ...................................................
          :                      SETUP                      :
          :.................................................:
          :  # basis functions                 862          :
          :  # atomic orbitals                 855          :
          :  # shells                          453          :
          :  # electrons                       897          :
          :  max. iterations                   250          :
          :  Hamiltonian                  GFN2-xTB          :
          :  restarted?                      false          :
          :  GBSA solvation                  false          :
          :  PC potential                    false          :
          :  electronic temp.          300.0000000     K    :
          :  accuracy                    1.0000000          :
          :  -> integral cutoff          0.2500000E+02      :
          :  -> integral neglect         0.1000000E-07      :
          :  -> SCF convergence          0.1000000E-05 Eh   :
          :  -> wf. convergence          0.1000000E-03 e    :
          :  Broyden damping             0.4000000          :
          ...................................................

 iter      E             dE          RMSdq      gap      omega  full diag
   1   -477.7631631 -0.477763E+03  0.540E+00    0.00       0.0  T
   2   -471.8712313  0.589193E+01  0.361E+00    0.00       1.0  T
   3    132.5894530  0.604461E+03  0.151E+01    0.05       1.0  T
   4   -436.7105975 -0.569300E+03  0.508E+00    0.03       1.0  T
   5   -408.6827020  0.280279E+02  0.705E+00    0.04       1.0  T
   6   -468.8859297 -0.602032E+02  0.331E+00    0.05       1.0  T
   7   -417.0969382  0.517890E+02  0.522E+00    0.02       1.0  T
   8   -471.3057153 -0.542088E+02  0.249E+00    0.07       1.0  T
   9   -476.3997475 -0.509403E+01  0.196E+00    0.03       1.0  T
  10   -476.0932934  0.306454E+00  0.150E+00    0.13       1.0  T
  11   -477.2489276 -0.115563E+01  0.129E+00    0.03       1.0  T
  12   -477.2071216  0.418060E-01  0.106E+00    0.05       1.0  T
  13   -477.6942126 -0.487091E+00  0.928E-01    0.08       1.0  T
  14   -477.1284063  0.565806E+00  0.898E-01    0.11       1.0  T
  15   -477.5089137 -0.380507E+00  0.807E-01    0.05       1.0  T
  16   -477.7135733 -0.204660E+00  0.717E-01    0.04       1.0  T
  17   -477.8049310 -0.913577E-01  0.652E-01    0.09       1.0  T
  18   -477.8986973 -0.937663E-01  0.588E-01    0.07       1.0  T
  19   -477.9729981 -0.743008E-01  0.495E-01    0.04       1.0  T
  20   -478.0059361 -0.329380E-01  0.459E-01    0.08       1.0  T
  21   -477.9922786  0.136576E-01  0.532E-01    0.01       1.0  T
  22   -478.0700670 -0.777885E-01  0.443E-01    0.04       1.0  T
  23   -478.0235735  0.464936E-01  0.475E-01    0.01       1.0  T
  24   -477.8970776  0.126496E+00  0.552E-01    0.06       1.0  T
  25   -477.9116975 -0.146200E-01  0.525E-01    0.08       1.0  T
  26   -477.9469669 -0.352693E-01  0.406E-01    0.03       1.0  T
  27   -477.9708786 -0.239118E-01  0.393E-01    0.03       1.0  T
  28   -477.9998019 -0.289233E-01  0.349E-01    0.05       1.0  T
  29   -478.1166548 -0.116853E+00  0.180E-01    0.00       1.0  T
  30   -478.1258736 -0.921878E-02  0.140E-01    0.01       1.0  T
  31   -478.1218006  0.407303E-02  0.153E-01    0.00       1.0  T
  32   -478.1253315 -0.353090E-02  0.138E-01    0.02       1.0  T
  33   -478.1162582  0.907327E-02  0.148E-01    0.01       1.0  T
  34   -478.1344842 -0.182260E-01  0.149E-01    0.02       1.0  T
  35   -478.1402272 -0.574299E-02  0.121E-01    0.02       1.0  T
  36   -478.1377223  0.250489E-02  0.892E-02    0.01       1.0  T
  37   -478.1464714 -0.874906E-02  0.602E-02    0.01       1.0  T
  38   -478.1447487  0.172267E-02  0.629E-02    0.01       1.0  T
  39   -478.1480963 -0.334756E-02  0.354E-02    0.01       1.0  T
  40   -478.1476289  0.467433E-03  0.419E-02    0.01       1.0  T
  41   -478.1477863 -0.157419E-03  0.355E-02    0.01       1.0  T
  42   -478.1478746 -0.883642E-04  0.304E-02    0.01       1.0  T
  43   -478.1484750 -0.600374E-03  0.233E-02    0.01       1.0  T
  44   -478.1489581 -0.483051E-03  0.925E-03    0.01       1.0  T
  45   -478.1488823  0.757887E-04  0.124E-02    0.01       1.0  T
  46   -478.1489220 -0.396964E-04  0.974E-03    0.01       1.0  T
  47   -478.1489781 -0.561723E-04  0.496E-03    0.01       1.3  T
  48   -478.1489790 -0.901916E-06  0.401E-03    0.01       1.5  T
  49   -478.1489818 -0.272329E-05  0.380E-03    0.01       1.6  T
  50   -478.1489869 -0.512091E-05  0.357E-03    0.01       1.7  T
  51   -478.1489917 -0.484156E-05  0.292E-03    0.01       2.1  T
  52   -478.1489991 -0.733233E-05  0.143E-03    0.01       4.3  T
  53   -478.1489994 -0.319022E-06  0.105E-03    0.01       5.9  T
  54   -478.1490007 -0.130586E-05  0.731E-04    0.01       8.5  T
  55   -478.1490005  0.234684E-06  0.752E-04    0.01       8.3  T
  56   -478.1490009 -0.461077E-06  0.400E-04    0.01      15.5  T

   *** convergence criteria satisfied after 56 iterations ***

         #    Occupation            Energy/Eh            Energy/eV
      -------------------------------------------------------------
         1        2.0000           -0.6838313             -18.6080
       ...           ...                  ...                  ...
       443        2.0000           -0.3534186              -9.6170
       444        2.0000           -0.3533884              -9.6162
       445        2.0000           -0.3531520              -9.6098
       446        1.7055           -0.3361414              -9.1469
       447        1.5701           -0.3356902              -9.1346
       448        1.2489           -0.3349107              -9.1134
       449        1.2281           -0.3348667              -9.1122 (HOMO)
       450        1.0225           -0.3344473              -9.1008 (LUMO)
       451        0.2176           -0.3323270              -9.0431
       452        0.0053           -0.3286751              -8.9437
       453        0.0011           -0.3271937              -8.9034
       454        0.0009           -0.3269515              -8.8968
       ...           ...                  ...                  ...
       855                          1.4304378              38.9242
      -------------------------------------------------------------
                  HL-Gap            0.0004194 Eh            0.0114 eV
             Fermi-level           -0.3344023 Eh           -9.0995 eV

 SCC (total)                   0 d,  0 h,  0 min, 12.875 sec
 SCC setup                      ...        0 min,  0.012 sec (  0.094%)
 Dispersion                     ...        0 min,  0.027 sec (  0.207%)
 classical contributions        ...        0 min,  0.002 sec (  0.019%)
 integral evaluation            ...        0 min,  0.196 sec (  1.519%)
 iterations                     ...        0 min, 12.094 sec ( 93.936%)
 molecular gradient             ...        0 min,  0.515 sec (  4.002%)
 printout                       ...        0 min,  0.029 sec (  0.222%)

         :::::::::::::::::::::::::::::::::::::::::::::::::::::
         ::                     SUMMARY                     ::
         :::::::::::::::::::::::::::::::::::::::::::::::::::::
         :: total energy            -469.927675878733 Eh    ::
         :: gradient norm              0.950510502339 Eh/a0 ::
         :: HOMO-LUMO gap              0.011413554170 eV    ::
         ::.................................................::
         :: SCC energy              -478.149000914105 Eh    ::
         :: -> isotropic ES            0.267074200270 Eh    ::
         :: -> anisotropic ES          0.063539493645 Eh    ::
         :: -> anisotropic XC          0.223163324560 Eh    ::
         :: -> dispersion             -0.423589614216 Eh    ::
         :: repulsion energy           8.220734660080 Eh    ::
         :: add. restraining           0.000000000000 Eh    ::
         :: total charge               0.000000000332 e     ::
         :::::::::::::::::::::::::::::::::::::::::::::::::::::

      ----------------------------------------------------------- 
     |                   =====================                   |
     |                        A N C O P T                        |
     |                   =====================                   |
     |               Approximate Normal Coordinate               |
     |                Rational Function Optimizer                |
      ----------------------------------------------------------- 

          ...................................................
          :                      SETUP                      :
          :.................................................:
          :   optimization level            normal          :
          :   max. optcycles                   777          :
          :   ANC micro-cycles                  20          :
          :   degrees of freedom               771          :
          :.................................................:
          :   RF solver                   davidson          :
          :   write xtbopt.log                true          :
          :   linear?                        false          :
          :   energy convergence         0.5000000E-05 Eh   :
          :   grad. convergence          0.1000000E-02 Eh/α :
          :   maximium RF displ.         1.0000000          :
          :   Hlow (freq-cutoff)         0.1000000E-01      :
          :   Hmax (freq-cutoff)         5.0000000          :
          :   S6 in model hess.         20.0000000          :
          ...................................................

generating ANC from model Hessian ...
Using Lindh-Hessian (1995)
 Shifting diagonal of input Hessian by    1.0026646016540502E-002
 Lowest  eigenvalues of input Hessian
    0.010000    0.010001    0.010001    0.010002    0.010004    0.010005
    0.010011    0.010012    0.010014    0.010017    0.010018    0.010021
    0.010023    0.010024    0.010025    0.000000    0.000000    0.000000
 Highest eigenvalues
    2.393223    2.512585    2.732932    2.732932    2.732932    2.732932


........................................................................
.............................. CYCLE    1 ..............................
........................................................................
   1   -478.1490010 -0.478149E+03  0.212E-04    0.01       0.0  T
   2   -478.1489827  0.183251E-04  0.372E-03    0.01       1.7  T
   3   -478.1489958 -0.131538E-04  0.185E-03    0.01       3.4  T
   4   -478.1489986 -0.276079E-05  0.133E-03    0.01       4.7  T
   5   -478.1489987 -0.587677E-07  0.131E-03    0.01       4.7  T
   6   -478.1489995 -0.871691E-06  0.102E-03    0.01       6.1  T
   7   -478.1490005 -0.927198E-06  0.639E-04    0.01       9.7  T
   8   -478.1490006 -0.138694E-06  0.544E-04    0.01      11.4  T
     SCC iter.                  ...        0 min,  1.726 sec
     gradient                   ...        0 min,  0.515 sec
 * total energy  :  -469.9276756 Eh     change        0.3131757E-06 Eh
   gradient norm :     0.9505101 Eh/α   predicted     0.0000000E+00 (-100.00%)
   displ. norm   :     0.5890955 α      lambda       -0.4674377E+00
   maximum displ.:     0.1958616 α      in ANC's #753, #262, #752, ...

........................................................................
.............................. CYCLE    2 ..............................
........................................................................
   1   -478.1116111 -0.478112E+03  0.350E-01    0.01       0.0  T
   2   -477.9733691  0.138242E+00  0.449E-01    0.04       1.0  T
   3   -477.3912370  0.582132E+00  0.803E-01    0.02       1.0  T
   4   -477.7897582 -0.398521E+00  0.553E-01    0.02       1.0  T
   5   -477.7753311  0.144271E-01  0.519E-01    0.00       1.0  T
   6   -477.6705754  0.104756E+00  0.562E-01    0.05       1.0  T
   7   -477.7639045 -0.933290E-01  0.495E-01    0.01       1.0  T
   8   -477.7597477  0.415680E-02  0.486E-01    0.02       1.0  T
   9   -477.8295328 -0.697852E-01  0.432E-01    0.08       1.0  T
  10   -478.0107464 -0.181214E+00  0.293E-01    0.01       1.0  T
  11   -478.1237638 -0.113017E+00  0.117E-01    0.01       1.0  T
  12   -478.1274316 -0.366783E-02  0.105E-01    0.00       1.0  T
  13   -478.1201710  0.726065E-02  0.133E-01    0.03       1.0  T
  14   -478.1319342 -0.117632E-01  0.712E-02    0.01       1.0  T
  15   -478.1235240  0.841019E-02  0.964E-02    0.00       1.0  T
  16   -478.1329937 -0.946974E-02  0.568E-02    0.01       1.0  T
  17   -478.1329524  0.413422E-04  0.583E-02    0.00       1.0  T
  18   -478.1311271  0.182525E-02  0.598E-02    0.01       1.0  T
  19   -478.1362043 -0.507717E-02  0.234E-02    0.01       1.0  T
  20   -478.1355033  0.700952E-03  0.284E-02    0.01       1.0  T
  21   -478.1358052 -0.301920E-03  0.260E-02    0.01       1.0  T
  22   -478.1364150 -0.609773E-03  0.153E-02    0.01       1.0  T
  23   -478.1355583  0.856723E-03  0.278E-02    0.01       1.0  T
  24   -478.1359341 -0.375807E-03  0.219E-02    0.01       1.0  T
  25   -478.1364912 -0.557115E-03  0.122E-02    0.01       1.0  T
  26   -478.1366090 -0.117755E-03  0.714E-03    0.01       1.0  T
  27   -478.1364899  0.119113E-03  0.111E-02    0.01       1.0  T
  28   -478.1366049 -0.115042E-03  0.724E-03    0.01       1.0  T
  29   -478.1366650 -0.600585E-04  0.215E-03    0.01       2.9  T
  30   -478.1366673 -0.234260E-05  0.174E-03    0.01       3.6  T
  31   -478.1366687 -0.138553E-05  0.129E-03    0.01       4.8  T
  32   -478.1366696 -0.866443E-06  0.906E-04    0.01       6.9  T
  33   -478.1366706 -0.103189E-05  0.258E-04    0.01      24.1  T
  34   -478.1366705  0.460510E-07  0.285E-04    0.01      21.8  T
     SCC iter.                  ...        0 min,  7.300 sec
     gradient                   ...        0 min,  0.514 sec
 * total energy  :  -470.3029484 Eh     change       -0.3752728E+00 Eh
   gradient norm :     0.5528293 Eh/α   predicted    -0.3148629E+00 ( -16.10%)
   displ. norm   :     0.6695093 α      lambda       -0.3115405E+00
   maximum displ.:     0.2115308 α      in ANC's #262, #753, #263, ...

........................................................................
.............................. CYCLE    3 ..............................
........................................................................
   1   -478.1505774 -0.478151E+03  0.399E-01    0.00       0.0  T
   2   -477.9002535  0.250324E+00  0.573E-01    0.02       1.0  T
   3   -476.5649328  0.133532E+01  0.114E+00    0.09       1.0  T
   4   -477.8988869 -0.133395E+01  0.529E-01    0.10       1.0  T
   5   -477.4341550  0.464732E+00  0.692E-01    0.09       1.0  T
   6   -477.1773769  0.256778E+00  0.751E-01    0.03       1.0  T
   7   -477.8905661 -0.713189E+00  0.471E-01    0.04       1.0  T
   8   -477.7640837  0.126482E+00  0.506E-01    0.08       1.0  T
   9   -478.0000152 -0.235932E+00  0.359E-01    0.04       1.0  T
  10   -478.0246634 -0.246482E-01  0.347E-01    0.06       1.0  T
  11   -478.0929143 -0.682509E-01  0.284E-01    0.03       1.0  T
  12   -478.1207922 -0.278779E-01  0.208E-01    0.00       1.0  T
  13   -478.1393421 -0.185499E-01  0.189E-01    0.01       1.0  T
  14   -478.1381925  0.114957E-02  0.211E-01    0.02       1.0  T
  15   -478.1516980 -0.135055E-01  0.161E-01    0.02       1.0  T
  16   -478.1345601  0.171379E-01  0.218E-01    0.03       1.0  T
  17   -478.1541505 -0.195903E-01  0.181E-01    0.03       1.0  T
  18   -478.1251888  0.289616E-01  0.222E-01    0.04       1.0  T
  19   -478.1425737 -0.173849E-01  0.190E-01    0.04       1.0  T
  20   -478.1551525 -0.125788E-01  0.147E-01    0.03       1.0  T
  21   -478.1827465 -0.275940E-01  0.607E-02    0.01       1.0  T
  22   -478.1857987 -0.305220E-02  0.387E-02    0.00       1.0  T
  23   -478.1852871  0.511563E-03  0.403E-02    0.00       1.0  T
  24   -478.1850386  0.248541E-03  0.406E-02    0.00       1.0  T
  25   -478.1850239  0.146558E-04  0.373E-02    0.00       1.0  T
  26   -478.1866938 -0.166995E-02  0.215E-02    0.00       1.0  T
  27   -478.1867321 -0.382661E-04  0.205E-02    0.00       1.0  T
  28   -478.1870573 -0.325195E-03  0.116E-02    0.01       1.0  T
  29   -478.1868729  0.184435E-03  0.166E-02    0.00       1.0  T
  30   -478.1870403 -0.167414E-03  0.123E-02    0.00       1.0  T
  31   -478.1871713 -0.130968E-03  0.616E-03    0.01       1.0  T
  32   -478.1871960 -0.247046E-04  0.356E-03    0.01       1.7  T
  33   -478.1872105 -0.145091E-04  0.125E-03    0.01       5.0  T
  34   -478.1872112 -0.760069E-06  0.767E-04    0.01       8.1  T
  35   -478.1872118 -0.557011E-06  0.403E-04    0.01      15.4  T
     SCC iter.                  ...        0 min,  7.524 sec
     gradient                   ...        0 min,  0.515 sec
 * total energy  :  -470.5367135 Eh     change       -0.2337651E+00 Eh
   gradient norm :     0.2455183 Eh/α   predicted    -0.2255931E+00 (  -3.50%)
   displ. norm   :     0.7464614 α      lambda       -0.1552012E+00
   maximum displ.:     0.2657365 α      in ANC's #262, #257, #263, ...

........................................................................
.............................. CYCLE    4 ..............................
........................................................................
   1   -478.1231348 -0.478123E+03  0.546E-01    0.01       0.0  T
   2   -469.8642321  0.825890E+01  0.246E+00    0.01       1.0  T
   3   -477.8491193 -0.798489E+01  0.710E-01    0.03       1.0  T
   4   -476.8705769  0.978542E+00  0.101E+00    0.14       1.0  T
   5   -477.7651334 -0.894556E+00  0.576E-01    0.16       1.0  T
   6   -477.6131840  0.151949E+00  0.679E-01    0.03       1.0  T
   7   -478.1533686 -0.540185E+00  0.341E-01    0.03       1.0  T
   8   -477.9804042  0.172964E+00  0.478E-01    0.04       1.0  T
   9   -477.5584348  0.421969E+00  0.683E-01    0.04       1.0  T
  10   -477.8407690 -0.282334E+00  0.479E-01    0.03       1.0  T
  11   -477.8416721 -0.903136E-03  0.514E-01    0.01       1.0  T
  12   -478.1231843 -0.281512E+00  0.322E-01    0.06       1.0  T
  13   -478.1731240 -0.499397E-01  0.278E-01    0.04       1.0  T
  14   -478.1830370 -0.991306E-02  0.262E-01    0.04       1.0  T
  15   -478.1311173  0.519197E-01  0.291E-01    0.02       1.0  T
  16   -478.2749715 -0.143854E+00  0.129E-01    0.00       1.0  T
  17   -478.2799251 -0.495357E-02  0.126E-01    0.01       1.0  T
  18   -478.2761936  0.373152E-02  0.110E-01    0.00       1.0  T
  19   -478.2847670 -0.857344E-02  0.847E-02    0.01       1.0  T
  20   -478.2863869 -0.161986E-02  0.757E-02    0.01       1.0  T
  21   -478.2885331 -0.214626E-02  0.635E-02    0.01       1.0  T
  22   -478.2893097 -0.776508E-03  0.565E-02    0.00       1.0  T
  23   -478.2891258  0.183807E-03  0.546E-02    0.01       1.0  T
  24   -478.2914672 -0.234133E-02  0.455E-02    0.01       1.0  T
  25   -478.2942564 -0.278925E-02  0.268E-02    0.00       1.0  T
  26   -478.2947378 -0.481389E-03  0.195E-02    0.00       1.0  T
  27   -478.2943700  0.367808E-03  0.205E-02    0.00       1.0  T
  28   -478.2948255 -0.455489E-03  0.111E-02    0.00       1.0  T
  29   -478.2948998 -0.742904E-04  0.949E-03    0.00       1.0  T
  30   -478.2947479  0.151899E-03  0.133E-02    0.00       1.0  T
  31   -478.2948208 -0.729099E-04  0.114E-02    0.00       1.0  T
  32   -478.2949762 -0.155360E-03  0.653E-03    0.00       1.0  T
  33   -478.2950408 -0.645923E-04  0.277E-03    0.00       2.2  T
  34   -478.2950221  0.186467E-04  0.413E-03    0.00       1.5  T
  35   -478.2950370 -0.148602E-04  0.308E-03    0.00       2.0  T
  36   -478.2950493 -0.123498E-04  0.150E-03    0.00       4.1  T
  37   -478.2950500 -0.659622E-06  0.134E-03    0.00       4.6  T
  38   -478.2950527 -0.272411E-05  0.683E-04    0.00       9.1  T
  39   -478.2950530 -0.265261E-06  0.541E-04    0.00      11.5  T
  40   -478.2950534 -0.485517E-06  0.157E-04    0.00      39.6  T
     SCC iter.                  ...        0 min,  8.618 sec
     gradient                   ...        0 min,  0.518 sec
 * total energy  :  -470.6625662 Eh     change       -0.1258527E+00 Eh
   gradient norm :     0.1368521 Eh/α   predicted    -0.1208401E+00 (  -3.98%)
   displ. norm   :     0.8090135 α      lambda       -0.1044709E+00
   maximum displ.:     0.2711649 α      in ANC's #262, #131, #257, ...

........................................................................
.............................. CYCLE    5 ..............................
........................................................................
   1   -478.0981386 -0.478098E+03  0.671E-01    0.02       0.0  T
   2   -461.0393729  0.170588E+02  0.342E+00    0.02       1.0  T
   3   -477.7865238 -0.167472E+02  0.987E-01    0.06       1.0  T
   4   -477.6829443  0.103579E+00  0.781E-01    0.01       1.0  T
   5   -477.7328129 -0.498686E-01  0.639E-01    0.06       1.0  T
   6   -477.9627185 -0.229906E+00  0.508E-01    0.04       1.0  T
   7   -477.9316762  0.310423E-01  0.593E-01    0.06       1.0  T
   8   -478.1673227 -0.235647E+00  0.469E-01    0.07       1.0  T
   9   -478.2588473 -0.915246E-01  0.308E-01    0.02       1.0  T
  10   -477.6660274  0.592820E+00  0.656E-01    0.00       1.0  T
  11   -477.6432446  0.227828E-01  0.666E-01    0.05       1.0  T
  12   -478.2973102 -0.654066E+00  0.300E-01    0.02       1.0  T
  13   -478.1779621  0.119348E+00  0.402E-01    0.03       1.0  T
  14   -478.3474833 -0.169521E+00  0.200E-01    0.02       1.0  T
  15   -478.3475006 -0.173611E-04  0.204E-01    0.02       1.0  T
  16   -478.3126767  0.348239E-01  0.228E-01    0.00       1.0  T
  17   -478.3485670 -0.358902E-01  0.169E-01    0.03       1.0  T
  18   -478.3904246 -0.418576E-01  0.996E-02    0.00       1.0  T
  19   -478.3975599 -0.713529E-02  0.701E-02    0.00       1.0  T
  20   -478.4019108 -0.435093E-02  0.367E-02    0.00       1.0  T
  21   -478.4011031  0.807755E-03  0.403E-02    0.00       1.0  T
  22   -478.3996777  0.142539E-02  0.475E-02    0.00       1.0  T
  23   -478.4009819 -0.130424E-02  0.367E-02    0.00       1.0  T
  24   -478.4023551 -0.137324E-02  0.228E-02    0.00       1.0  T
  25   -478.4026935 -0.338332E-03  0.177E-02    0.00       1.0  T
  26   -478.4029093 -0.215850E-03  0.133E-02    0.00       1.0  T
  27   -478.4026460  0.263297E-03  0.175E-02    0.00       1.0  T
  28   -478.4030745 -0.428456E-03  0.799E-03    0.00       1.0  T
  29   -478.4030668  0.766480E-05  0.800E-03    0.00       1.0  T
  30   -478.4030892 -0.223974E-04  0.722E-03    0.00       1.0  T
  31   -478.4031645 -0.752373E-04  0.332E-03    0.00       1.9  T
  32   -478.4031556  0.882385E-05  0.389E-03    0.00       1.6  T
  33   -478.4031632 -0.751857E-05  0.310E-03    0.00       2.0  T
  34   -478.4031736 -0.104595E-04  0.185E-03    0.00       3.4  T
  35   -478.4031748 -0.114768E-05  0.159E-03    0.00       3.9  T
  36   -478.4031750 -0.229435E-06  0.146E-03    0.00       4.2  T
  37   -478.4031760 -0.104313E-05  0.112E-03    0.00       5.5  T
  38   -478.4031775 -0.148731E-05  0.696E-04    0.00       8.9  T
  39   -478.4031780 -0.446185E-06  0.407E-04    0.00      15.3  T
  40   -478.4031780  0.879595E-09  0.370E-04    0.00      16.8  T
     SCC iter.                  ...        0 min,  8.601 sec
     gradient                   ...        0 min,  0.527 sec
 * total energy  :  -470.7524112 Eh     change       -0.8984503E-01 Eh
   gradient norm :     0.1056588 Eh/α   predicted    -0.8642480E-01 (  -3.81%)
   displ. norm   :     0.8423071 α      lambda       -0.8031435E-01
   maximum displ.:     0.2513809 α      in ANC's #262, #131, #135, ...

........................................................................
.............................. CYCLE    6 ..............................
........................................................................
   1   -478.2785298 -0.478279E+03  0.612E-01    0.02       0.0  T
   2   -469.1444540  0.913408E+01  0.255E+00    0.01       1.0  T
   3   -477.6411297 -0.849668E+01  0.894E-01    0.03       1.0  T
   4   -477.5275714  0.113558E+00  0.812E-01    0.18       1.0  T
   5   -478.0590465 -0.531475E+00  0.538E-01    0.01       1.0  T
   6   -477.6464645  0.412582E+00  0.737E-01    0.07       1.0  T
   7   -478.0729120 -0.426447E+00  0.556E-01    0.06       1.0  T
   8   -477.9225560  0.150356E+00  0.561E-01    0.03       1.0  T
   9   -477.6190311  0.303525E+00  0.703E-01    0.06       1.0  T
  10   -478.2428746 -0.623843E+00  0.444E-01    0.04       1.0  T
  11   -477.7564514  0.486423E+00  0.573E-01    0.03       1.0  T
  12   -478.4411950 -0.684744E+00  0.257E-01    0.01       1.0  T
  13   -478.3951517  0.460433E-01  0.306E-01    0.02       1.0  T
  14   -478.4577117 -0.625600E-01  0.232E-01    0.01       1.0  T
  15   -478.3579885  0.997231E-01  0.263E-01    0.01       1.0  T
  16   -478.4927060 -0.134717E+00  0.101E-01    0.01       1.0  T
  17   -478.4882122  0.449375E-02  0.100E-01    0.02       1.0  T
  18   -478.4895897 -0.137746E-02  0.103E-01    0.00       1.0  T
  19   -478.5033960 -0.138063E-01  0.463E-02    0.00       1.0  T
  20   -478.4996415  0.375447E-02  0.611E-02    0.01       1.0  T
  21   -478.4939823  0.565921E-02  0.840E-02    0.00       1.0  T
  22   -478.5005430 -0.656065E-02  0.589E-02    0.00       1.0  T
  23   -478.4984222  0.212073E-02  0.657E-02    0.00       1.0  T
  24   -478.5033872 -0.496496E-02  0.392E-02    0.00       1.0  T
  25   -478.5053112 -0.192398E-02  0.218E-02    0.00       1.0  T
  26   -478.5056065 -0.295290E-03  0.179E-02    0.00       1.0  T
  27   -478.5055844  0.220528E-04  0.166E-02    0.00       1.0  T
  28   -478.5060143 -0.429875E-03  0.791E-03    0.00       1.0  T
  29   -478.5060661 -0.518700E-04  0.640E-03    0.00       1.0  T
  30   -478.5060949 -0.287447E-04  0.402E-03    0.00       1.5  T
  31   -478.5061173 -0.223765E-04  0.184E-03    0.00       3.4  T
  32   -478.5061167  0.612324E-06  0.195E-03    0.00       3.2  T
  33   -478.5061123  0.432703E-05  0.223E-03    0.00       2.8  T
  34   -478.5061014  0.109430E-04  0.328E-03    0.00       1.9  T
  35   -478.5061185 -0.171447E-04  0.130E-03    0.00       4.8  T
  36   -478.5061180  0.543471E-06  0.132E-03    0.00       4.7  T
  37   -478.5061185 -0.554395E-06  0.119E-03    0.00       5.2  T
  38   -478.5061206 -0.205772E-05  0.651E-04    0.00       9.5  T
  39   -478.5061211 -0.484390E-06  0.344E-04    0.00      18.1  T
  40   -478.5061212 -0.932648E-07  0.250E-04    0.00      24.9  T
     SCC iter.                  ...        0 min,  8.593 sec
     gradient                   ...        0 min,  0.515 sec
 * total energy  :  -470.8229139 Eh     change       -0.7050272E-01 Eh
   gradient norm :     0.0847458 Eh/α   predicted    -0.6864791E-01 (  -2.63%)
   displ. norm   :     0.8632306 α      lambda       -0.6347582E-01
   maximum displ.:     0.2699988 α      in ANC's #131, #135, #262, ...

........................................................................
.............................. CYCLE    7 ..............................
........................................................................
   1   -478.5284226 -0.478528E+03  0.428E-01    0.01       0.0  T
   2   -477.0824075  0.144602E+01  0.106E+00    0.05       1.0  T
   3   -477.0198198  0.625877E-01  0.883E-01    0.09       1.0  T
   4   -477.5614440 -0.541624E+00  0.780E-01    0.13       1.0  T
   5   -478.0591411 -0.497697E+00  0.616E-01    0.05       1.0  T
   6   -478.1559619 -0.968208E-01  0.538E-01    0.01       1.0  T
   7   -477.4631585  0.692803E+00  0.775E-01    0.09       1.0  T
   8   -478.3327677 -0.869609E+00  0.413E-01    0.02       1.0  T
   9   -477.8041703  0.528597E+00  0.696E-01    0.04       1.0  T
  10   -478.4480406 -0.643870E+00  0.346E-01    0.03       1.0  T
  11   -478.3376599  0.110381E+00  0.381E-01    0.03       1.0  T
  12   -478.4565436 -0.118884E+00  0.323E-01    0.02       1.0  T
  13   -478.4622274 -0.568380E-02  0.295E-01    0.01       1.0  T
  14   -478.5461924 -0.839650E-01  0.206E-01    0.00       1.0  T
  15   -478.5568876 -0.106952E-01  0.165E-01    0.00       1.0  T
  16   -478.5872524 -0.303648E-01  0.966E-02    0.01       1.0  T
  17   -478.5732616  0.139908E-01  0.117E-01    0.01       1.0  T
  18   -478.5776125 -0.435082E-02  0.113E-01    0.01       1.0  T
  19   -478.5953756 -0.177632E-01  0.538E-02    0.00       1.0  T
  20   -478.5952004  0.175242E-03  0.443E-02    0.01       1.0  T
  21   -478.5971675 -0.196714E-02  0.336E-02    0.00       1.0  T
  22   -478.5981885 -0.102097E-02  0.196E-02    0.00       1.0  T
  23   -478.5964693  0.171918E-02  0.350E-02    0.01       1.0  T
  24   -478.5983983 -0.192901E-02  0.159E-02    0.00       1.0  T
  25   -478.5988067 -0.408370E-03  0.637E-03    0.00       1.0  T
  26   -478.5988008  0.585199E-05  0.607E-03    0.00       1.0  T
  27   -478.5988472 -0.463508E-04  0.221E-03    0.00       2.8  T
  28   -478.5988515 -0.438128E-05  0.140E-03    0.00       4.4  T
  29   -478.5988460  0.556300E-05  0.221E-03    0.00       2.8  T
  30   -478.5988536 -0.761124E-05  0.697E-04    0.00       8.9  T
  31   -478.5988529  0.724790E-06  0.808E-04    0.00       7.7  T
  32   -478.5988535 -0.673524E-06  0.564E-04    0.00      11.0  T
     SCC iter.                  ...        0 min,  6.880 sec
     gradient                   ...        0 min,  0.516 sec
 * total energy  :  -470.8796338 Eh     change       -0.5671987E-01 Eh
   gradient norm :     0.0672294 Eh/α   predicted    -0.5538796E-01 (  -2.35%)
   displ. norm   :     0.8946521 α      lambda       -0.5263653E-01
   maximum displ.:     0.2724591 α      in ANC's #131, #28, #83, ...

........................................................................
.............................. CYCLE    8 ..............................
........................................................................
   1   -478.6416576 -0.478642E+03  0.339E-01    0.01       0.0  T
   2   -477.0277641  0.161389E+01  0.109E+00    0.00       1.0  T
   3   -477.9115086 -0.883745E+00  0.747E-01    0.07       1.0  T
   4   -477.7550093  0.156499E+00  0.758E-01    0.04       1.0  T
   5   -478.1449413 -0.389932E+00  0.592E-01    0.03       1.0  T
   6   -478.0971818  0.477594E-01  0.590E-01    0.11       1.0  T
   7   -478.0401188  0.570630E-01  0.640E-01    0.02       1.0  T
   8   -478.3100366 -0.269918E+00  0.521E-01    0.06       1.0  T
   9   -478.1553535  0.154683E+00  0.519E-01    0.03       1.0  T
  10   -478.3472122 -0.191859E+00  0.446E-01    0.03       1.0  T
  11   -478.4064058 -0.591936E-01  0.396E-01    0.04       1.0  T
  12   -478.3785145  0.278912E-01  0.414E-01    0.02       1.0  T
  13   -478.5300796 -0.151565E+00  0.353E-01    0.02       1.0  T
  14   -478.6391698 -0.109090E+00  0.183E-01    0.01       1.0  T
  15   -478.5851661  0.540037E-01  0.225E-01    0.01       1.0  T
  16   -478.6597957 -0.746296E-01  0.111E-01    0.00       1.0  T
  17   -478.6597191  0.766187E-04  0.104E-01    0.00       1.0  T
  18   -478.6385116  0.212075E-01  0.143E-01    0.01       1.0  T
  19   -478.6546682 -0.161566E-01  0.105E-01    0.01       1.0  T
  20   -478.6654908 -0.108226E-01  0.613E-02    0.01       1.0  T
  21   -478.6604877  0.500311E-02  0.807E-02    0.01       1.0  T
  22   -478.6698049 -0.931720E-02  0.317E-02    0.00       1.0  T
  23   -478.6707377 -0.932833E-03  0.122E-02    0.00       1.0  T
  24   -478.6698363  0.901425E-03  0.251E-02    0.00       1.0  T
  25   -478.6705365 -0.700211E-03  0.140E-02    0.00       1.0  T
  26   -478.6708292 -0.292700E-03  0.573E-03    0.00       1.1  T
  27   -478.6708113  0.179343E-04  0.602E-03    0.00       1.0  T
  28   -478.6708521 -0.408004E-04  0.355E-03    0.00       1.7  T
  29   -478.6708669 -0.148666E-04  0.237E-03    0.00       2.6  T
  30   -478.6708670 -0.324961E-07  0.222E-03    0.00       2.8  T
  31   -478.6708723 -0.535084E-05  0.111E-03    0.00       5.6  T
  32   -478.6708732 -0.859361E-06  0.751E-04    0.00       8.3  T
  33   -478.6708731  0.108055E-06  0.763E-04    0.00       8.1  T
     SCC iter.                  ...        0 min,  7.085 sec
     gradient                   ...        0 min,  0.516 sec
 * total energy  :  -470.9287480 Eh     change       -0.4911426E-01 Eh
   gradient norm :     0.0600592 Eh/α   predicted    -0.4738347E-01 (  -3.52%)
   displ. norm   :     0.9542648 α      lambda       -0.5086191E-01
   maximum displ.:     0.3095255 α      in ANC's #28, #83, #131, ...

........................................................................
.............................. CYCLE    9 ..............................
........................................................................
   1   -478.6727673 -0.478673E+03  0.363E-01    0.00       0.0  T
   2   -476.6951717  0.197760E+01  0.146E+00    0.08       1.0  T
   3   -478.0893023 -0.139413E+01  0.695E-01    0.09       1.0  T
   4   -477.7431920  0.346110E+00  0.750E-01    0.06       1.0  T
   5   -478.0277440 -0.284552E+00  0.688E-01    0.06       1.0  T
   6   -478.3425394 -0.314795E+00  0.546E-01    0.01       1.0  T
   7   -478.1698279  0.172712E+00  0.670E-01    0.06       1.0  T
   8   -478.1083432  0.614846E-01  0.614E-01    0.07       1.0  T
   9   -478.5131023 -0.404759E+00  0.409E-01    0.02       1.0  T
  10   -478.2314518  0.281650E+00  0.501E-01    0.01       1.0  T
  11   -478.1927867  0.386651E-01  0.561E-01    0.02       1.0  T
  12   -478.3796648 -0.186878E+00  0.482E-01    0.03       1.0  T
  13   -478.3432039  0.364608E-01  0.471E-01    0.00       1.0  T
  14   -478.6648580 -0.321654E+00  0.203E-01    0.00       1.0  T
  15   -478.5773619  0.874960E-01  0.295E-01    0.00       1.0  T
  16   -478.6392769 -0.619150E-01  0.248E-01    0.01       1.0  T
  17   -478.7058775 -0.666006E-01  0.128E-01    0.00       1.0  T
  18   -478.7194269 -0.135494E-01  0.625E-02    0.00       1.0  T
  19   -478.6957263  0.237006E-01  0.139E-01    0.01       1.0  T
  20   -478.7193337 -0.236074E-01  0.583E-02    0.00       1.0  T
  21   -478.7161948  0.313889E-02  0.705E-02    0.01       1.0  T
  22   -478.7221710 -0.597614E-02  0.406E-02    0.00       1.0  T
  23   -478.7156123  0.655864E-02  0.744E-02    0.00       1.0  T
  24   -478.7222182 -0.660588E-02  0.354E-02    0.00       1.0  T
  25   -478.7230448 -0.826623E-03  0.267E-02    0.00       1.0  T
  26   -478.7234496 -0.404802E-03  0.206E-02    0.00       1.0  T
  27   -478.7238908 -0.441149E-03  0.134E-02    0.00       1.0  T
  28   -478.7230915  0.799306E-03  0.255E-02    0.00       1.0  T
  29   -478.7236044 -0.512906E-03  0.176E-02    0.00       1.0  T
  30   -478.7240080 -0.403649E-03  0.895E-03    0.00       1.0  T
  31   -478.7240697 -0.616554E-04  0.673E-03    0.00       1.0  T
  32   -478.7241136 -0.439365E-04  0.363E-03    0.00       1.7  T
  33   -478.7241033  0.103031E-04  0.453E-03    0.00       1.4  T
  34   -478.7241216 -0.182814E-04  0.272E-03    0.00       2.3  T
  35   -478.7241284 -0.683311E-05  0.171E-03    0.00       3.6  T
  36   -478.7241321 -0.367784E-05  0.758E-04    0.00       8.2  T
  37   -478.7241327 -0.601965E-06  0.388E-04    0.00      16.0  T
  38   -478.7241328 -0.878317E-07  0.316E-04    0.00      19.6  T
     SCC iter.                  ...        0 min,  8.158 sec
     gradient                   ...        0 min,  0.517 sec
 * total energy  :  -470.9804277 Eh     change       -0.5167967E-01 Eh
   gradient norm :     0.0685227 Eh/α   predicted    -0.4858892E-01 (  -5.98%)
   displ. norm   :     0.9420921 α      lambda       -0.5353079E-01
   maximum displ.:     0.3502765 α      in ANC's #28, #83, #20, ...

........................................................................
.............................. CYCLE   10 ..............................
........................................................................
   1   -478.6913512 -0.478691E+03  0.336E-01    0.02       0.0  T
   2   -476.5769500  0.211440E+01  0.149E+00    0.14       1.0  T
   3   -478.2678312 -0.169088E+01  0.632E-01    0.04       1.0  T
   4   -477.7235006  0.544331E+00  0.768E-01    0.08       1.0  T
   5   -478.1208465 -0.397346E+00  0.639E-01    0.01       1.0  T
   6   -478.2848065 -0.163960E+00  0.570E-01    0.03       1.0  T
   7   -477.7530797  0.531727E+00  0.775E-01    0.06       1.0  T
   8   -478.3280489 -0.574969E+00  0.574E-01    0.02       1.0  T
   9   -478.0879208  0.240128E+00  0.647E-01    0.10       1.0  T
  10   -478.2445983 -0.156678E+00  0.588E-01    0.06       1.0  T
  11   -478.4754322 -0.230834E+00  0.452E-01    0.04       1.0  T
  12   -478.2840050  0.191427E+00  0.536E-01    0.10       1.0  T
  13   -478.6986994 -0.414694E+00  0.185E-01    0.01       1.0  T
  14   -478.7136935 -0.149941E-01  0.159E-01    0.00       1.0  T
  15   -478.6675575  0.461359E-01  0.237E-01    0.01       1.0  T
  16   -478.7266450 -0.590875E-01  0.125E-01    0.01       1.0  T
  17   -478.7428629 -0.162179E-01  0.887E-02    0.01       1.0  T
  18   -478.7183728  0.244900E-01  0.132E-01    0.01       1.0  T
  19   -478.7408867 -0.225138E-01  0.902E-02    0.01       1.0  T
  20   -478.7515855 -0.106988E-01  0.374E-02    0.00       1.0  T
  21   -478.7526773 -0.109182E-02  0.291E-02    0.00       1.0  T
  22   -478.7535239 -0.846579E-03  0.120E-02    0.00       1.0  T
  23   -478.7533338  0.190132E-03  0.158E-02    0.00       1.0  T
  24   -478.7533860 -0.522123E-04  0.142E-02    0.00       1.0  T
  25   -478.7529543  0.431719E-03  0.208E-02    0.00       1.0  T
  26   -478.7535108 -0.556476E-03  0.935E-03    0.00       1.0  T
  27   -478.7536029 -0.921902E-04  0.587E-03    0.00       1.1  T
  28   -478.7536190 -0.160310E-04  0.532E-03    0.00       1.2  T
  29   -478.7536317 -0.126866E-04  0.407E-03    0.00       1.5  T
  30   -478.7536270  0.469796E-05  0.453E-03    0.00       1.4  T
  31   -478.7536358 -0.883972E-05  0.378E-03    0.00       1.6  T
  32   -478.7536386 -0.283548E-05  0.358E-03    0.00       1.7  T
  33   -478.7536502 -0.115434E-04  0.238E-03    0.00       2.6  T
  34   -478.7536541 -0.394905E-05  0.177E-03    0.00       3.5  T
  35   -478.7536573 -0.312630E-05  0.108E-03    0.00       5.8  T
  36   -478.7536576 -0.345031E-06  0.973E-04    0.00       6.4  T
  37   -478.7536580 -0.424151E-06  0.832E-04    0.00       7.5  T
     SCC iter.                  ...        0 min,  7.954 sec
     gradient                   ...        0 min,  0.517 sec
 * total energy  :  -471.0355345 Eh     change       -0.5510674E-01 Eh
   gradient norm :     0.0818005 Eh/α   predicted    -0.5052068E-01 (  -8.32%)
   displ. norm   :     0.9151540 α      lambda       -0.5732558E-01
   maximum displ.:     0.3780399 α      in ANC's #28, #83, #20, ...

........................................................................
.............................. CYCLE   11 ..............................
........................................................................
   1   -478.7012540 -0.478701E+03  0.310E-01    0.03       0.0  T
   2   -476.8828885  0.181837E+01  0.129E+00    0.17       1.0  T
   3   -477.9128503 -0.102996E+01  0.795E-01    0.09       1.0  T
   4   -478.3030452 -0.390195E+00  0.562E-01    0.03       1.0  T
   5   -477.5875711  0.715474E+00  0.761E-01    0.02       1.0  T
   6   -478.1456771 -0.558106E+00  0.657E-01    0.04       1.0  T
   7   -478.0750770  0.706001E-01  0.675E-01    0.11       1.0  T
   8   -478.2293280 -0.154251E+00  0.645E-01    0.09       1.0  T
   9   -478.3028297 -0.735017E-01  0.578E-01    0.06       1.0  T
  10   -478.5337101 -0.230880E+00  0.428E-01    0.00       1.0  T
  11   -478.5685152 -0.348052E-01  0.421E-01    0.01       1.0  T
  12   -478.5394009  0.291143E-01  0.449E-01    0.01       1.0  T
  13   -478.6488751 -0.109474E+00  0.312E-01    0.01       1.0  T
  14   -478.7591131 -0.110238E+00  0.125E-01    0.01       1.0  T
  15   -478.7605497 -0.143661E-02  0.107E-01    0.00       1.0  T
  16   -478.7408429  0.197067E-01  0.141E-01    0.01       1.0  T
  17   -478.7401710  0.671975E-03  0.136E-01    0.01       1.0  T
  18   -478.7244256  0.157453E-01  0.190E-01    0.00       1.0  T
  19   -478.7525133 -0.280876E-01  0.134E-01    0.00       1.0  T
  20   -478.7647739 -0.122607E-01  0.939E-02    0.01       1.0  T
  21   -478.7737701 -0.899616E-02  0.502E-02    0.00       1.0  T
  22   -478.7758205 -0.205038E-02  0.372E-02    0.00       1.0  T
  23   -478.7774329 -0.161246E-02  0.195E-02    0.00       1.0  T
  24   -478.7774288  0.416820E-05  0.197E-02    0.00       1.0  T
  25   -478.7778648 -0.436085E-03  0.889E-03    0.00       1.0  T
  26   -478.7779352 -0.703655E-04  0.681E-03    0.00       1.0  T
  27   -478.7779214  0.137640E-04  0.725E-03    0.00       1.0  T
  28   -478.7779830 -0.615510E-04  0.174E-03    0.00       3.6  T
  29   -478.7779300  0.530334E-04  0.591E-03    0.00       1.1  T
  30   -478.7779659 -0.359415E-04  0.352E-03    0.00       1.8  T
  31   -478.7779784 -0.125001E-04  0.240E-03    0.00       2.6  T
  32   -478.7779830 -0.463522E-05  0.154E-03    0.00       4.0  T
  33   -478.7779865 -0.343604E-05  0.603E-04    0.00      10.3  T
  34   -478.7779868 -0.294381E-06  0.367E-04    0.00      16.9  T
  35   -478.7779868 -0.521522E-07  0.279E-04    0.00      22.3  T
     SCC iter.                  ...        0 min,  7.508 sec
     gradient                   ...        0 min,  0.519 sec
 * total energy  :  -471.0919279 Eh     change       -0.5639343E-01 Eh
   gradient norm :     0.0823043 Eh/α   predicted    -0.5266806E-01 (  -6.61%)
   displ. norm   :     0.9450295 α      lambda       -0.6551085E-01
   maximum displ.:     0.4071360 α      in ANC's #28, #83, #20, ...

........................................................................
.............................. CYCLE   12 ..............................
........................................................................
   1   -478.6273744 -0.478627E+03  0.396E-01    0.04       0.0  T
   2   -444.8481016  0.337793E+02  0.592E+00    0.30       1.0  T
   3   -477.2463315 -0.323982E+02  0.112E+00    0.20       1.0  T
   4   -478.1961439 -0.949812E+00  0.684E-01    0.01       1.0  T
   5   -478.0398762  0.156268E+00  0.711E-01    0.04       1.0  T
   6   -478.1370368 -0.971607E-01  0.655E-01    0.04       1.0  T
   7   -478.5252606 -0.388224E+00  0.477E-01    0.02       1.0  T
   8   -478.5181829  0.707769E-02  0.503E-01    0.03       1.0  T
   9   -478.1893521  0.328831E+00  0.680E-01    0.01       1.0  T
  10   -478.3115217 -0.122170E+00  0.621E-01    0.02       1.0  T
  11   -478.5873225 -0.275801E+00  0.408E-01    0.02       1.0  T
  12   -478.2696127  0.317710E+00  0.587E-01    0.01       1.0  T
  13   -478.6080280 -0.338415E+00  0.376E-01    0.02       1.0  T
  14   -478.7789050 -0.170877E+00  0.172E-01    0.01       1.0  T
  15   -478.6120422  0.166863E+00  0.365E-01    0.04       1.0  T
  16   -478.7917350 -0.179693E+00  0.136E-01    0.00       1.0  T
  17   -478.7753840  0.163510E-01  0.172E-01    0.00       1.0  T
  18   -478.8018006 -0.264165E-01  0.121E-01    0.00       1.0  T
  19   -478.8033950 -0.159444E-02  0.110E-01    0.00       1.0  T
  20   -478.8174053 -0.140103E-01  0.587E-02    0.00       1.0  T
  21   -478.8153211  0.208417E-02  0.729E-02    0.01       1.0  T
  22   -478.8209361 -0.561493E-02  0.190E-02    0.00       1.0  T
  23   -478.8176332  0.330289E-02  0.513E-02    0.00       1.0  T
  24   -478.8198247 -0.219147E-02  0.354E-02    0.00       1.0  T
  25   -478.8210050 -0.118036E-02  0.188E-02    0.00       1.0  T
  26   -478.8213406 -0.335617E-03  0.112E-02    0.00       1.0  T
  27   -478.8212925  0.481412E-04  0.119E-02    0.00       1.0  T
  28   -478.8212749  0.175946E-04  0.118E-02    0.00       1.0  T
  29   -478.8213659 -0.910092E-04  0.887E-03    0.00       1.0  T
  30   -478.8213032  0.627499E-04  0.102E-02    0.00       1.0  T
  31   -478.8213859 -0.827944E-04  0.692E-03    0.00       1.0  T
  32   -478.8213612  0.247783E-04  0.688E-03    0.00       1.0  T
  33   -478.8213566  0.460309E-05  0.646E-03    0.00       1.0  T
  34   -478.8214067 -0.501547E-04  0.279E-03    0.00       2.2  T
  35   -478.8214103 -0.362430E-05  0.115E-03    0.00       5.4  T
  36   -478.8214088  0.154768E-05  0.144E-03    0.00       4.3  T
  37   -478.8214115 -0.270401E-05  0.755E-04    0.00       8.2  T
  38   -478.8214120 -0.509935E-06  0.308E-04    0.00      20.2  T
  39   -478.8214118  0.214033E-06  0.509E-04    0.00      12.2  T
     SCC iter.                  ...        0 min,  8.381 sec
     gradient                   ...        0 min,  0.517 sec
 * total energy  :  -471.1446181 Eh     change       -0.5269025E-01 Eh
   gradient norm :     0.0833072 Eh/α   predicted    -0.6200866E-01 (  17.69%)
   displ. norm   :     0.8474716 α      lambda       -0.4539570E-01
   maximum displ.:     0.3893483 α      in ANC's #28, #20, #83, ...

........................................................................
.............................. CYCLE   13 ..............................
........................................................................
   1   -478.7514857 -0.478751E+03  0.273E-01    0.01       0.0  T
   2   -469.1925139  0.955897E+01  0.384E+00    0.01       1.0  T
   3   -477.5558060 -0.836329E+01  0.978E-01    0.09       1.0  T
   4   -477.5814828 -0.256767E-01  0.794E-01    0.03       1.0  T
   5   -478.1314602 -0.549977E+00  0.692E-01    0.01       1.0  T
   6   -478.1312599  0.200336E-03  0.636E-01    0.02       1.0  T
   7   -478.5724556 -0.441196E+00  0.505E-01    0.01       1.0  T
   8   -478.5998392 -0.273836E-01  0.445E-01    0.04       1.0  T
   9   -478.3120014  0.287838E+00  0.671E-01    0.05       1.0  T
  10   -478.7378009 -0.425799E+00  0.328E-01    0.02       1.0  T
  11   -478.4494865  0.288314E+00  0.555E-01    0.03       1.0  T
  12   -478.7147347 -0.265248E+00  0.319E-01    0.01       1.0  T
  13   -478.7977309 -0.829962E-01  0.177E-01    0.00       1.0  T
  14   -478.5723047  0.225426E+00  0.391E-01    0.03       1.0  T
  15   -478.6439344 -0.716297E-01  0.334E-01    0.02       1.0  T
  16   -478.7754062 -0.131472E+00  0.204E-01    0.01       1.0  T
  17   -478.7812950 -0.588873E-02  0.196E-01    0.01       1.0  T
  18   -478.8118387 -0.305437E-01  0.136E-01    0.00       1.0  T
  19   -478.7692291  0.426096E-01  0.201E-01    0.00       1.0  T
  20   -478.8289924 -0.597633E-01  0.914E-02    0.00       1.0  T
  21   -478.8311632 -0.217082E-02  0.828E-02    0.01       1.0  T
  22   -478.8366908 -0.552754E-02  0.519E-02    0.01       1.0  T
  23   -478.8377477 -0.105692E-02  0.390E-02    0.00       1.0  T
  24   -478.8386173 -0.869578E-03  0.292E-02    0.00       1.0  T
  25   -478.8380482  0.569047E-03  0.316E-02    0.00       1.0  T
  26   -478.8383563 -0.308069E-03  0.295E-02    0.00       1.0  T
  27   -478.8386505 -0.294198E-03  0.276E-02    0.00       1.0  T
  28   -478.8385733  0.772339E-04  0.289E-02    0.00       1.0  T
  29   -478.8385596  0.136528E-04  0.285E-02    0.00       1.0  T
  30   -478.8385919 -0.322469E-04  0.274E-02    0.00       1.0  T
  31   -478.8385887  0.320083E-05  0.269E-02    0.00       1.0  T
  32   -478.8386600 -0.713469E-04  0.248E-02    0.00       1.0  T
  33   -478.8386326  0.273641E-04  0.242E-02    0.00       1.0  T
  34   -478.8386473 -0.146150E-04  0.219E-02    0.00       1.0  T
  35   -478.8386985 -0.512121E-04  0.195E-02    0.00       1.0  T
  36   -478.8387209 -0.224098E-04  0.177E-02    0.00       1.0  T
  37   -478.8387589 -0.380459E-04  0.149E-02    0.00       1.0  T
  38   -478.8387614 -0.249722E-05  0.112E-02    0.00       1.0  T
  39   -478.8387935 -0.320923E-04  0.598E-03    0.00       1.0  T
  40   -478.8388026 -0.905204E-05  0.260E-03    0.00       2.4  T
  41   -478.8387978  0.478705E-05  0.316E-03    0.00       2.0  T
  42   -478.8388042 -0.643274E-05  0.119E-03    0.00       5.2  T
  43   -478.8388045 -0.264651E-06  0.964E-04    0.00       6.4  T
  44   -478.8388050 -0.552783E-06  0.523E-04    0.00      11.9  T
     SCC iter.                  ...        0 min,  9.453 sec
     gradient                   ...        0 min,  0.521 sec
 * total energy  :  -471.1825577 Eh     change       -0.3793955E-01 Eh
   gradient norm :     0.0674404 Eh/α   predicted    -0.3899963E-01 (   2.79%)
   displ. norm   :     0.8052560 α      lambda       -0.3821878E-01
   maximum displ.:     0.4115168 α      in ANC's #28, #20, #40, ...

........................................................................
.............................. CYCLE   14 ..............................
........................................................................
   1   -478.8678860 -0.478868E+03  0.229E-01    0.01       0.0  T
   2   -477.4490962  0.141879E+01  0.106E+00    0.20       1.0  T
   3   -478.4674455 -0.101835E+01  0.650E-01    0.01       1.0  T
   4   -478.4957461 -0.283006E-01  0.542E-01    0.04       1.0  T
   5   -478.4808984  0.148477E-01  0.580E-01    0.01       1.0  T
   6   -478.6539714 -0.173073E+00  0.425E-01    0.01       1.0  T
   7   -478.2561091  0.397862E+00  0.688E-01    0.06       1.0  T
   8   -478.3659552 -0.109846E+00  0.539E-01    0.03       1.0  T
   9   -478.4939153 -0.127960E+00  0.510E-01    0.01       1.0  T
  10   -478.7319740 -0.238059E+00  0.326E-01    0.03       1.0  T
  11   -478.8171168 -0.851428E-01  0.264E-01    0.01       1.0  T
  12   -478.8235978 -0.648093E-02  0.262E-01    0.01       1.0  T
  13   -478.8787548 -0.551571E-01  0.142E-01    0.00       1.0  T
  14   -478.9039634 -0.252085E-01  0.696E-02    0.01       1.0  T
  15   -478.8807110  0.232523E-01  0.133E-01    0.01       1.0  T
  16   -478.8967144 -0.160034E-01  0.923E-02    0.00       1.0  T
  17   -478.8976757 -0.961232E-03  0.881E-02    0.00       1.0  T
  18   -478.9054407 -0.776506E-02  0.509E-02    0.00       1.0  T
  19   -478.9084411 -0.300041E-02  0.278E-02    0.00       1.0  T
  20   -478.9090547 -0.613534E-03  0.163E-02    0.00       1.0  T
  21   -478.9082380  0.816647E-03  0.279E-02    0.00       1.0  T
  22   -478.9091349 -0.896846E-03  0.158E-02    0.00       1.0  T
  23   -478.9093589 -0.223993E-03  0.967E-03    0.00       1.0  T
  24   -478.9094636 -0.104720E-03  0.482E-03    0.00       1.3  T
  25   -478.9094833 -0.196893E-04  0.336E-03    0.00       1.9  T
  26   -478.9094924 -0.916487E-05  0.192E-03    0.00       3.2  T
  27   -478.9094973 -0.486660E-05  0.823E-04    0.00       7.5  T
  28   -478.9094973  0.264974E-07  0.809E-04    0.00       7.7  T
  29   -478.9094963  0.101640E-05  0.114E-03    0.00       5.5  T
  30   -478.9094978 -0.155508E-05  0.603E-04    0.00      10.3  T
  31   -478.9094983 -0.433436E-06  0.198E-04    0.00      31.4  T
     SCC iter.                  ...        0 min,  6.656 sec
     gradient                   ...        0 min,  0.520 sec
 * total energy  :  -471.2140240 Eh     change       -0.3146633E-01 Eh
   gradient norm :     0.0622690 Eh/α   predicted    -0.3150063E-01 (   0.11%)
   displ. norm   :     0.8795818 α      lambda       -0.3245749E-01
   maximum displ.:     0.4905089 α      in ANC's #28, #20, #40, ...

........................................................................
.............................. CYCLE   15 ..............................
........................................................................
   1   -478.9458109 -0.478946E+03  0.206E-01    0.00       0.0  T
   2   -477.7497345  0.119608E+01  0.992E-01    0.01       1.0  T
   3   -478.3434316 -0.593697E+00  0.730E-01    0.02       1.0  T
   4   -478.3788391 -0.354075E-01  0.631E-01    0.06       1.0  T
   5   -478.6043143 -0.225475E+00  0.498E-01    0.02       1.0  T
   6   -478.5282595  0.760549E-01  0.497E-01    0.01       1.0  T
   7   -478.6701840 -0.141925E+00  0.481E-01    0.04       1.0  T
   8   -478.4492705  0.220913E+00  0.657E-01    0.04       1.0  T
   9   -478.7263434 -0.277073E+00  0.413E-01    0.04       1.0  T
  10   -478.8308670 -0.104524E+00  0.330E-01    0.01       1.0  T
  11   -478.8152735  0.155935E-01  0.332E-01    0.01       1.0  T
  12   -478.9466780 -0.131405E+00  0.158E-01    0.00       1.0  T
  13   -478.9082523  0.384256E-01  0.212E-01    0.01       1.0  T
  14   -478.9738624 -0.656100E-01  0.763E-02    0.00       1.0  T
  15   -478.9455350  0.283273E-01  0.151E-01    0.02       1.0  T
  16   -478.9637266 -0.181916E-01  0.106E-01    0.01       1.0  T
  17   -478.9707531 -0.702647E-02  0.921E-02    0.00       1.0  T
  18   -478.9779021 -0.714896E-02  0.504E-02    0.00       1.0  T
  19   -478.9789868 -0.108472E-02  0.383E-02    0.00       1.0  T
  20   -478.9807178 -0.173099E-02  0.209E-02    0.00       1.0  T
  21   -478.9810774 -0.359590E-03  0.147E-02    0.00       1.0  T
  22   -478.9810918 -0.144049E-04  0.143E-02    0.00       1.0  T
  23   -478.9812881 -0.196330E-03  0.877E-03    0.00       1.0  T
  24   -478.9813967 -0.108601E-03  0.395E-03    0.00       1.6  T
  25   -478.9814155 -0.187516E-04  0.122E-03    0.00       5.1  T
  26   -478.9814143  0.114699E-05  0.134E-03    0.00       4.6  T
  27   -478.9814155 -0.116382E-05  0.105E-03    0.00       5.9  T
  28   -478.9814168 -0.135144E-05  0.482E-04    0.00      12.9  T
  29   -478.9814170 -0.185580E-06  0.323E-04    0.00      19.2  T
  30   -478.9814169  0.964606E-07  0.375E-04    0.00      16.6  T
     SCC iter.                  ...        0 min,  6.441 sec
     gradient                   ...        0 min,  0.520 sec
 * total energy  :  -471.2431670 Eh     change       -0.2914298E-01 Eh
   gradient norm :     0.0499421 Eh/α   predicted    -0.2878438E-01 (  -1.23%)
   displ. norm   :     0.8979884 α      lambda       -0.2921166E-01
   maximum displ.:     0.4756875 α      in ANC's #28, #20, #40, ...

........................................................................
.............................. CYCLE   16 ..............................
........................................................................
   1   -479.0259655 -0.479026E+03  0.182E-01    0.01       0.0  T
   2   -478.2250491  0.800916E+00  0.875E-01    0.05       1.0  T
   3   -478.5366271 -0.311578E+00  0.677E-01    0.05       1.0  T
   4   -478.7719669 -0.235340E+00  0.456E-01    0.03       1.0  T
   5   -478.5999923  0.171975E+00  0.531E-01    0.04       1.0  T
   6   -478.6471963 -0.472040E-01  0.508E-01    0.00       1.0  T
   7   -478.7275336 -0.803373E-01  0.454E-01    0.00       1.0  T
   8   -478.7095097  0.180239E-01  0.521E-01    0.04       1.0  T
   9   -478.8454521 -0.135942E+00  0.421E-01    0.03       1.0  T
  10   -478.9065061 -0.610539E-01  0.335E-01    0.02       1.0  T
  11   -478.9022131  0.429293E-02  0.298E-01    0.01       1.0  T
  12   -479.0122034 -0.109990E+00  0.143E-01    0.01       1.0  T
  13   -479.0394780 -0.272746E-01  0.767E-02    0.00       1.0  T
  14   -479.0244488  0.150291E-01  0.121E-01    0.00       1.0  T
  15   -479.0428722 -0.184234E-01  0.508E-02    0.01       1.0  T
  16   -479.0426273  0.244882E-03  0.470E-02    0.00       1.0  T
  17   -479.0453349 -0.270754E-02  0.258E-02    0.00       1.0  T
  18   -479.0460688 -0.733925E-03  0.116E-02    0.00       1.0  T
  19   -479.0460765 -0.764215E-05  0.113E-02    0.00       1.0  T
  20   -479.0460631  0.133675E-04  0.106E-02    0.00       1.0  T
  21   -479.0461492 -0.861164E-04  0.795E-03    0.00       1.0  T
  22   -479.0461911 -0.419004E-04  0.637E-03    0.00       1.0  T
  23   -479.0462327 -0.416326E-04  0.216E-03    0.00       2.9  T
  24   -479.0462354 -0.266581E-05  0.155E-03    0.00       4.0  T
  25   -479.0462372 -0.182611E-05  0.848E-04    0.00       7.3  T
  26   -479.0462379 -0.643380E-06  0.383E-04    0.00      16.2  T
  27   -479.0462379 -0.662413E-08  0.351E-04    0.00      17.7  T
     SCC iter.                  ...        0 min,  5.801 sec
     gradient                   ...        0 min,  0.518 sec
 * total energy  :  -471.2693028 Eh     change       -0.2613581E-01 Eh
   gradient norm :     0.0424047 Eh/α   predicted    -0.2638374E-01 (   0.95%)
   displ. norm   :     0.9278237 α      lambda       -0.2645236E-01
   maximum displ.:     0.4804765 α      in ANC's #28, #40, #20, ...

........................................................................
.............................. CYCLE   17 ..............................
........................................................................
   1   -479.0745453 -0.479075E+03  0.192E-01    0.01       0.0  T
   2   -476.7357965  0.233875E+01  0.113E+00    0.05       1.0  T
   3   -478.6341459 -0.189835E+01  0.619E-01    0.01       1.0  T
   4   -478.5223776  0.111768E+00  0.692E-01    0.04       1.0  T
   5   -478.3773990  0.144979E+00  0.706E-01    0.03       1.0  T
   6   -478.6654148 -0.288016E+00  0.519E-01    0.04       1.0  T
   7   -478.8803401 -0.214925E+00  0.405E-01    0.02       1.0  T
   8   -478.5203520  0.359988E+00  0.634E-01    0.10       1.0  T
   9   -478.8768181 -0.356466E+00  0.432E-01    0.01       1.0  T
  10   -478.9324342 -0.556161E-01  0.377E-01    0.01       1.0  T
  11   -478.8156918  0.116742E+00  0.464E-01    0.00       1.0  T
  12   -478.9713318 -0.155640E+00  0.275E-01    0.01       1.0  T
  13   -479.0904812 -0.119149E+00  0.883E-02    0.00       1.0  T
  14   -479.0762416  0.142397E-01  0.129E-01    0.01       1.0  T
  15   -479.0970864 -0.208448E-01  0.633E-02    0.00       1.0  T
  16   -479.1000464 -0.296003E-02  0.391E-02    0.00       1.0  T
  17   -479.0945643  0.548214E-02  0.723E-02    0.00       1.0  T
  18   -479.0965030 -0.193868E-02  0.606E-02    0.01       1.0  T
  19   -479.1010745 -0.457155E-02  0.290E-02    0.00       1.0  T
  20   -479.1013990 -0.324512E-03  0.234E-02    0.00       1.0  T
  21   -479.1019637 -0.564663E-03  0.101E-02    0.00       1.0  T
  22   -479.1020232 -0.595300E-04  0.707E-03    0.00       1.0  T
  23   -479.1020677 -0.445034E-04  0.472E-03    0.00       1.3  T
  24   -479.1020766 -0.891753E-05  0.377E-03    0.00       1.6  T
  25   -479.1020867 -0.100184E-04  0.292E-03    0.00       2.1  T
  26   -479.1020920 -0.534114E-05  0.209E-03    0.00       3.0  T
  27   -479.1020885  0.354785E-05  0.275E-03    0.00       2.3  T
  28   -479.1020918 -0.331719E-05  0.204E-03    0.00       3.0  T
  29   -479.1020924 -0.654400E-06  0.185E-03    0.00       3.4  T
  30   -479.1020940 -0.158433E-05  0.132E-03    0.00       4.7  T
  31   -479.1020948 -0.820813E-06  0.939E-04    0.00       6.6  T
  32   -479.1020960 -0.115612E-05  0.245E-04    0.00      25.4  T
  33   -479.1020960 -0.191451E-07  0.221E-04    0.00      28.1  T
     SCC iter.                  ...        0 min,  7.086 sec
     gradient                   ...        0 min,  0.518 sec
 * total energy  :  -471.2927107 Eh     change       -0.2340791E-01 Eh
   gradient norm :     0.0345024 Eh/α   predicted    -0.2461207E-01 (   5.14%)
   displ. norm   :     0.9389154 α      lambda       -0.2472914E-01
   maximum displ.:     0.4737237 α      in ANC's #28, #40, #20, ...

........................................................................
.............................. CYCLE   18 ..............................
........................................................................
   1   -479.0851516 -0.479085E+03  0.216E-01    0.02       0.0  T
   2   -477.3951207  0.169003E+01  0.102E+00    0.04       1.0  T
   3   -478.5409649 -0.114584E+01  0.661E-01    0.09       1.0  T
   4   -478.4713519  0.696130E-01  0.704E-01    0.02       1.0  T
   5   -478.6622020 -0.190850E+00  0.610E-01    0.00       1.0  T
   6   -478.6227200  0.394820E-01  0.565E-01    0.05       1.0  T
   7   -478.9680169 -0.345297E+00  0.376E-01    0.03       1.0  T
   8   -478.5175025  0.450514E+00  0.669E-01    0.09       1.0  T
   9   -478.9554170 -0.437914E+00  0.377E-01    0.02       1.0  T
  10   -478.7275257  0.227891E+00  0.572E-01    0.04       1.0  T
  11   -478.9275912 -0.200065E+00  0.390E-01    0.01       1.0  T
  12   -479.0764091 -0.148818E+00  0.202E-01    0.02       1.0  T
  13   -479.0871304 -0.107213E-01  0.166E-01    0.02       1.0  T
  14   -479.1233055 -0.361752E-01  0.614E-02    0.00       1.0  T
  15   -479.1240864 -0.780834E-03  0.506E-02    0.00       1.0  T
  16   -479.1250961 -0.100975E-02  0.432E-02    0.00       1.0  T
  17   -479.1246691  0.427053E-03  0.454E-02    0.00       1.0  T
  18   -479.1270710 -0.240190E-02  0.216E-02    0.00       1.0  T
  19   -479.1273797 -0.308759E-03  0.165E-02    0.00       1.0  T
  20   -479.1274490 -0.692695E-04  0.144E-02    0.00       1.0  T
  21   -479.1276942 -0.245232E-03  0.769E-03    0.00       1.0  T
  22   -479.1275853  0.108932E-03  0.109E-02    0.00       1.0  T
  23   -479.1276880 -0.102666E-03  0.739E-03    0.00       1.0  T
  24   -479.1277453 -0.573411E-04  0.391E-03    0.00       1.6  T
  25   -479.1277407  0.464284E-05  0.431E-03    0.00       1.4  T
  26   -479.1277460 -0.528017E-05  0.376E-03    0.00       1.7  T
  27   -479.1277567 -0.107494E-04  0.244E-03    0.00       2.5  T
  28   -479.1277607 -0.397198E-05  0.171E-03    0.00       3.6  T
  29   -479.1277643 -0.362704E-05  0.580E-04    0.00      10.7  T
  30   -479.1277646 -0.309072E-06  0.329E-04    0.00      18.9  T
  31   -479.1277646 -0.345096E-07  0.294E-04    0.00      21.1  T
     SCC iter.                  ...        0 min,  6.663 sec
     gradient                   ...        0 min,  0.521 sec
 * total energy  :  -471.3141782 Eh     change       -0.2146743E-01 Eh
   gradient norm :     0.0386650 Eh/α   predicted    -0.2326472E-01 (   8.37%)
   displ. norm   :     0.9210164 α      lambda       -0.2262338E-01
   maximum displ.:     0.4353150 α      in ANC's #28, #40, #20, ...

........................................................................
.............................. CYCLE   19 ..............................
........................................................................
   1   -479.0755008 -0.479076E+03  0.252E-01    0.03       0.0  T
   2   -477.1596782  0.191582E+01  0.109E+00    0.11       1.0  T
   3   -478.4306178 -0.127094E+01  0.759E-01    0.09       1.0  T
   4   -478.8030045 -0.372387E+00  0.565E-01    0.01       1.0  T
   5   -478.6298588  0.173146E+00  0.609E-01    0.03       1.0  T
   6   -478.6862305 -0.563717E-01  0.560E-01    0.06       1.0  T
   7   -478.8794612 -0.193231E+00  0.429E-01    0.01       1.0  T
   8   -478.9332646 -0.538034E-01  0.423E-01    0.03       1.0  T
   9   -478.8170901  0.116174E+00  0.493E-01    0.02       1.0  T
  10   -478.6895641  0.127526E+00  0.602E-01    0.05       1.0  T
  11   -479.0386528 -0.349089E+00  0.267E-01    0.02       1.0  T
  12   -479.0502935 -0.116407E-01  0.253E-01    0.02       1.0  T
  13   -479.1206389 -0.703453E-01  0.130E-01    0.01       1.0  T
  14   -479.1162612  0.437763E-02  0.147E-01    0.01       1.0  T
  15   -479.1315586 -0.152973E-01  0.107E-01    0.00       1.0  T
  16   -479.1458793 -0.143207E-01  0.368E-02    0.00       1.0  T
  17   -479.1436656  0.221363E-02  0.589E-02    0.00       1.0  T
  18   -479.1447283 -0.106262E-02  0.446E-02    0.00       1.0  T
  19   -479.1477172 -0.298892E-02  0.137E-02    0.00       1.0  T
  20   -479.1476616  0.556117E-04  0.159E-02    0.00       1.0  T
  21   -479.1476066  0.550078E-04  0.160E-02    0.00       1.0  T
  22   -479.1479163 -0.309715E-03  0.593E-03    0.00       1.0  T
  23   -479.1479125  0.381440E-05  0.685E-03    0.00       1.0  T
  24   -479.1479324 -0.199433E-04  0.508E-03    0.00       1.2  T
  25   -479.1479172  0.152411E-04  0.607E-03    0.00       1.0  T
  26   -479.1479534 -0.362486E-04  0.319E-03    0.00       1.9  T
  27   -479.1479657 -0.123376E-04  0.143E-03    0.00       4.3  T
  28   -479.1479673 -0.158889E-05  0.769E-04    0.00       8.1  T
  29   -479.1479673 -0.108343E-07  0.766E-04    0.00       8.1  T
  30   -479.1479680 -0.631994E-06  0.360E-04    0.00      17.3  T
     SCC iter.                  ...        0 min,  6.448 sec
     gradient                   ...        0 min,  0.518 sec
 * total energy  :  -471.3337553 Eh     change       -0.1957714E-01 Eh
   gradient norm :     0.0437563 Eh/α   predicted    -0.2090707E-01 (   6.79%)
   displ. norm   :     0.9104975 α      lambda       -0.2165154E-01
   maximum displ.:     0.4270768 α      in ANC's #40, #28, #20, ...

........................................................................
.............................. CYCLE   20 ..............................
........................................................................
   1   -479.1651299 -0.479165E+03  0.213E-01    0.02       0.0  T
   2   -478.1765509  0.988579E+00  0.932E-01    0.12       1.0  T
   3   -478.4389998 -0.262449E+00  0.700E-01    0.03       1.0  T
   4   -478.6753404 -0.236341E+00  0.600E-01    0.04       1.0  T
   5   -478.8387246 -0.163384E+00  0.581E-01    0.03       1.0  T
   6   -478.9085369 -0.698124E-01  0.490E-01    0.01       1.0  T
   7   -478.8140642  0.944727E-01  0.548E-01    0.07       1.0  T
   8   -478.7752975  0.387668E-01  0.585E-01    0.00       1.0  T
   9   -478.9063006 -0.131003E+00  0.471E-01    0.04       1.0  T
  10   -479.0432021 -0.136901E+00  0.349E-01    0.00       1.0  T
  11   -479.0042137  0.389884E-01  0.360E-01    0.03       1.0  T
  12   -478.9768708  0.273429E-01  0.387E-01    0.02       1.0  T
  13   -479.1093596 -0.132489E+00  0.259E-01    0.01       1.0  T
  14   -479.1282906 -0.189310E-01  0.224E-01    0.00       1.0  T
  15   -479.1415239 -0.132333E-01  0.202E-01    0.01       1.0  T
  16   -479.1501100 -0.858607E-02  0.186E-01    0.01       1.0  T
  17   -479.2001820 -0.500720E-01  0.750E-02    0.01       1.0  T
  18   -479.2028407 -0.265866E-02  0.618E-02    0.00       1.0  T
  19   -479.2052605 -0.241986E-02  0.491E-02    0.01       1.0  T
  20   -479.2051218  0.138770E-03  0.486E-02    0.01       1.0  T
  21   -479.2084337 -0.331195E-02  0.104E-02    0.00       1.0  T
  22   -479.2083947  0.390379E-04  0.121E-02    0.00       1.0  T
  23   -479.2085577 -0.162990E-03  0.414E-03    0.00       1.5  T
  24   -479.2085414  0.162579E-04  0.563E-03    0.00       1.1  T
  25   -479.2085230  0.184227E-04  0.635E-03    0.00       1.0  T
  26   -479.2085783 -0.553327E-04  0.166E-03    0.00       3.7  T
  27   -479.2085800 -0.167800E-05  0.142E-03    0.00       4.4  T
  28   -479.2085816 -0.160853E-05  0.938E-04    0.00       6.6  T
  29   -479.2085824 -0.851894E-06  0.510E-04    0.00      12.2  T
  30   -479.2085827 -0.231790E-06  0.290E-04    0.00      21.4  T
     SCC iter.                  ...        0 min,  6.452 sec
     gradient                   ...        0 min,  0.518 sec
 * total energy  :  -471.3531719 Eh     change       -0.1941660E-01 Eh
   gradient norm :     0.0342311 Eh/α   predicted    -0.1980041E-01 (   1.98%)
   displ. norm   :     0.9295280 α      lambda       -0.1980070E-01
   maximum displ.:     0.4531949 α      in ANC's #40, #28, #20, ...
 * RMSD in coord.:     0.8333405 α      energy gain  -0.1425496E+01 Eh

generating ANC from model Hessian ...
Using Lindh-Hessian (1995)
 Shifting diagonal of input Hessian by    1.0022566828402959E-002
 Lowest  eigenvalues of input Hessian
    0.010000    0.010001    0.010009    0.010011    0.010014    0.010016
    0.010018    0.010019    0.010021    0.010021    0.010021    0.000000
    0.000000    0.000000    0.000000    0.000000    0.000000    0.010023
 Highest eigenvalues
    2.514465    2.534703    2.608795    2.610598    2.665263    2.665427


........................................................................
.............................. CYCLE   21 ..............................
........................................................................
   1   -479.1718076 -0.479172E+03  0.233E-01    0.03       0.0  T
   2   -478.0167465  0.115506E+01  0.998E-01    0.22       1.0  T
   3   -478.6038493 -0.587103E+00  0.675E-01    0.13       1.0  T
   4   -478.9610603 -0.357211E+00  0.459E-01    0.00       1.0  T
   5   -479.1181472 -0.157087E+00  0.283E-01    0.01       1.0  T
   6   -478.7240238  0.394123E+00  0.587E-01    0.02       1.0  T
   7   -478.7175225  0.650133E-02  0.648E-01    0.05       1.0  T
   8   -479.0751437 -0.357621E+00  0.358E-01    0.00       1.0  T
   9   -479.0080284  0.671153E-01  0.428E-01    0.04       1.0  T
  10   -479.2025676 -0.194539E+00  0.147E-01    0.00       1.0  T
  11   -479.0974059  0.105162E+00  0.342E-01    0.02       1.0  T
  12   -479.1491073 -0.517014E-01  0.235E-01    0.02       1.0  T
  13   -479.2255140 -0.764067E-01  0.732E-02    0.00       1.0  T
  14   -479.1997375  0.257764E-01  0.148E-01    0.01       1.0  T
  15   -479.2280672 -0.283297E-01  0.668E-02    0.01       1.0  T
  16   -479.2261033  0.196391E-02  0.704E-02    0.00       1.0  T
  17   -479.2322759 -0.617254E-02  0.346E-02    0.01       1.0  T
  18   -479.2318641  0.411810E-03  0.385E-02    0.01       1.0  T
  19   -479.2329559 -0.109180E-02  0.268E-02    0.00       1.0  T
  20   -479.2339807 -0.102483E-02  0.841E-03    0.00       1.0  T
  21   -479.2340639 -0.832431E-04  0.382E-03    0.00       1.6  T
  22   -479.2340628  0.117091E-05  0.385E-03    0.00       1.6  T
  23   -479.2340785 -0.157443E-04  0.218E-03    0.00       2.9  T
  24   -479.2340850 -0.649433E-05  0.632E-04    0.00       9.8  T
  25   -479.2340855 -0.497391E-06  0.296E-04    0.00      21.0  T
  26   -479.2340856 -0.902646E-07  0.145E-04    0.00      42.7  T
     SCC iter.                  ...        0 min,  5.587 sec
     gradient                   ...        0 min,  0.519 sec
 * total energy  :  -471.3717744 Eh     change       -0.1860253E-01 Eh
   gradient norm :     0.0264987 Eh/α   predicted     0.0000000E+00 (-100.00%)
   displ. norm   :     0.7230806 α      lambda       -0.1413115E-01
   maximum displ.:     0.5494756 α      in ANC's #39, #46, #35, ...

........................................................................
.............................. CYCLE   22 ..............................
........................................................................
   1   -479.2477615 -0.479248E+03  0.116E-01    0.01       0.0  T
   2   -478.4601037  0.787658E+00  0.775E-01    0.14       1.0  T
   3   -478.9751711 -0.515067E+00  0.465E-01    0.02       1.0  T
   4   -479.0387590 -0.635878E-01  0.410E-01    0.02       1.0  T
   5   -478.9042838  0.134475E+00  0.517E-01    0.02       1.0  T
   6   -478.9346426 -0.303588E-01  0.478E-01    0.02       1.0  T
   7   -478.3792230  0.555420E+00  0.763E-01    0.05       1.0  T
   8   -478.8228798 -0.443657E+00  0.529E-01    0.06       1.0  T
   9   -479.0029535 -0.180074E+00  0.435E-01    0.04       1.0  T
  10   -479.2084191 -0.205466E+00  0.196E-01    0.02       1.0  T
  11   -479.1807414  0.276777E-01  0.251E-01    0.01       1.0  T
  12   -479.2315896 -0.508482E-01  0.136E-01    0.01       1.0  T
  13   -479.2510100 -0.194204E-01  0.708E-02    0.00       1.0  T
  14   -479.2477074  0.330268E-02  0.818E-02    0.00       1.0  T
  15   -479.2540667 -0.635930E-02  0.543E-02    0.00       1.0  T
  16   -479.2550989 -0.103221E-02  0.451E-02    0.00       1.0  T
  17   -479.2568894 -0.179053E-02  0.326E-02    0.00       1.0  T
  18   -479.2579719 -0.108250E-02  0.169E-02    0.00       1.0  T
  19   -479.2581818 -0.209895E-03  0.121E-02    0.00       1.0  T
  20   -479.2583030 -0.121236E-03  0.800E-03    0.00       1.0  T
  21   -479.2583814 -0.783475E-04  0.307E-03    0.00       2.0  T
  22   -479.2583784  0.295454E-05  0.340E-03    0.00       1.8  T
  23   -479.2583892 -0.108243E-04  0.190E-03    0.00       3.3  T
  24   -479.2583939 -0.466242E-05  0.509E-04    0.00      12.2  T
  25   -479.2583938  0.139709E-06  0.570E-04    0.00      10.9  T
  26   -479.2583942 -0.439199E-06  0.182E-04    0.00      34.2  T
     SCC iter.                  ...        0 min,  5.592 sec
     gradient                   ...        0 min,  0.521 sec
 * total energy  :  -471.3854711 Eh     change       -0.1369664E-01 Eh
   gradient norm :     0.0207512 Eh/α   predicted    -0.1075980E-01 ( -21.44%)
   displ. norm   :     0.9051503 α      lambda       -0.1671216E-01
   maximum displ.:     0.6516773 α      in ANC's #39, #46, #35, ...

........................................................................
.............................. CYCLE   23 ..............................
........................................................................
   1   -479.2536725 -0.479254E+03  0.176E-01    0.02       0.0  T
   2   -478.3562449  0.897428E+00  0.877E-01    0.19       1.0  T
   3   -478.7298628 -0.373618E+00  0.631E-01    0.08       1.0  T
   4   -478.7275923  0.227046E-02  0.581E-01    0.01       1.0  T
   5   -478.9933013 -0.265709E+00  0.485E-01    0.01       1.0  T
   6   -478.8915486  0.101753E+00  0.529E-01    0.05       1.0  T
   7   -478.7077275  0.183821E+00  0.659E-01    0.05       1.0  T
   8   -479.2157033 -0.507976E+00  0.230E-01    0.01       1.0  T
   9   -479.0040775  0.211626E+00  0.458E-01    0.02       1.0  T
  10   -479.2439736 -0.239896E+00  0.182E-01    0.00       1.0  T
  11   -479.2593066 -0.153330E-01  0.139E-01    0.01       1.0  T
  12   -479.1746451  0.846615E-01  0.273E-01    0.03       1.0  T
  13   -479.2530341 -0.783890E-01  0.145E-01    0.00       1.0  T
  14   -479.2601149 -0.708079E-02  0.127E-01    0.01       1.0  T
  15   -479.2720768 -0.119619E-01  0.887E-02    0.00       1.0  T
  16   -479.2645897  0.748715E-02  0.106E-01    0.00       1.0  T
  17   -479.2821611 -0.175715E-01  0.343E-02    0.01       1.0  T
  18   -479.2784936  0.366758E-02  0.577E-02    0.00       1.0  T
[...]
 329:  0.00 330:  0.00 331:  0.00 332:  0.00 333:  0.00 334:  0.00 335:  0.00 336:  0.00
 337:  0.00 338:  0.00 339:  0.00 340:  0.00 341:  0.00 342:  0.00 343:  0.00 344:  0.00
 345:  0.00 346:  0.00 347:  0.00 348:  0.00 349:  0.00 350:  0.00 351:  0.00 352:  0.00
 353:  0.00 354:  0.00 355:  0.00 356:  0.00 357:  0.00 358:  0.00 359:  0.00 360:  0.00
 361:  0.00 362:  0.00 363:  0.00 364:  0.00 365:  0.00 366:  0.00 367:  0.00 368:  0.00
 369:  0.00 370:  0.00 371:  0.00 372:  0.00 373:  0.00 374:  0.00 375:  0.00 376:  0.00
 377:  0.00 378:  0.00 379:  0.00 380:  0.00 381:  0.00 382:  0.00 383:  0.00 384:  0.00
 385:  0.00 386:  0.00 387:  0.00 388:  0.00 389:  0.00 390:  0.00 391:  0.00 392:  0.00
 393:  0.00 394:  0.00 395:  0.00 396:  0.00 397:  0.00 398:  0.00 399:  0.00 400:  0.00
 401:  0.00 402:  0.00 403:  0.00 404:  0.00 405:  0.00 406:  0.00 407:  0.00 408:  0.00
 409:  0.00 410:  0.00 411:  0.00 412:  0.00 413:  0.00 414:  0.00 415:  0.00 416:  0.00
 417:  0.00 418:  0.00 419:  0.00 420:  0.00 421:  0.00 422:  0.00 423:  0.00 424:  0.00
 425:  0.00 426:  0.00 427:  0.00 428:  0.00 429:  0.00 430:  0.00 431:  0.00 432:  0.00
 433:  0.00 434:  0.00 435:  0.00 436:  0.00 437:  0.00 438:  0.00 439:  0.00 440:  0.00
 441:  0.00 442:  0.00 443:  0.00 444:  0.00 445:  0.00 446:  0.00 447:  0.00 448:  0.00
 449:  0.00 450:  0.00 451:  0.00 452:  0.00 453:  0.00 454:  0.00 455:  0.00 456:  0.00
 457:  0.00 458:  0.00 459:  0.00 460:  0.00 461:  0.00 462:  0.00 463:  0.00 464:  0.00
 465:  0.00 466:  0.00 467:  0.00 468:  0.00 469:  0.00 470:  0.00 471:  0.00 472:  0.00
 473:  0.00 474:  0.00 475:  0.00 476:  0.00 477:  0.00 478:  0.00 479:  0.00 480:  0.00
 481:  0.00 482:  0.00 483:  0.00 484:  0.00 485:  0.00 486:  0.00 487:  0.00 488:  0.00
 489:  0.00 490:  0.00 491:  0.00 492:  0.00 493:  0.00 494:  0.00 495:  0.00 496:  0.00
 497:  0.00 498:  0.00 499:  0.00 500:  0.00 501:  0.00 502:  0.00 503:  0.00 504:  0.00
 505:  0.00 506:  0.00 507:  0.00 508:  0.00 509:  0.00 510:  0.00 511:  0.00 512:  0.00
 513:  0.00 514:  0.00 515:  0.00 516:  0.00 517:  0.00 518:  0.00 519:  0.00 520:  0.00
 521:  0.00 522:  0.00 523:  0.00 524:  0.00 525:  0.00 526:  0.00 527:  0.00 528:  0.00
 529:  0.00 530:  0.00 531:  0.00 532:  0.00 533:  0.00 534:  0.00 535:  0.00 536:  0.00
 537:  0.00 538:  0.00 539:  0.00 540:  0.00 541:  0.00 542:  0.00 543:  0.00 544:  0.00
 545:  0.00 546:  0.00 547:  0.00 548:  0.00 549:  0.00 550:  0.00 551:  0.00 552:  0.00
 553:  0.00 554:  0.00 555:  0.00 556:  0.00 557:  0.00 558:  0.00 559:  0.00 560:  0.00
 561:  0.00 562:  0.00 563:  0.00 564:  0.00 565:  0.00 566:  0.00 567:  0.00 568:  0.00
 569:  0.00 570:  0.00 571:  0.00 572:  0.00 573:  0.00 574:  0.00 575:  0.00 576:  0.00
 577:  0.00 578:  0.00 579:  0.00 580:  0.00 581:  0.00 582:  0.00 583:  0.00 584:  0.00
 585:  0.00 586:  0.00 587:  0.00 588:  0.00 589:  0.00 590:  0.00 591:  0.00 592:  0.00
 593:  0.00 594:  0.00 595:  0.00 596:  0.00 597:  0.00 598:  0.00 599:  0.00 600:  0.00
 601:  0.00 602:  0.00 603:  0.00 604:  0.00 605:  0.00 606:  0.00 607:  0.00 608:  0.00
 609:  0.00 610:  0.00 611:  0.00 612:  0.00 613:  0.00 614:  0.00 615:  0.00 616:  0.00
 617:  0.00 618:  0.00 619:  0.00 620:  0.00 621:  0.00 622:  0.00 623:  0.00 624:  0.00
 625:  0.00 626:  0.00 627:  0.00 628:  0.00 629:  0.00 630:  0.00 631:  0.00 632:  0.00
 633:  0.00 634:  0.00 635:  0.00 636:  0.00 637:  0.00 638:  0.00 639:  0.00 640:  0.00
 641:  0.00 642:  0.00 643:  0.00 644:  0.00 645:  0.00 646:  0.00 647:  0.00 648:  0.00
 649:  0.00 650:  0.00 651:  0.00 652:  0.00 653:  0.00 654:  0.00 655:  0.00 656:  0.00
 657:  0.00 658:  0.00 659:  0.00 660:  0.00 661:  0.00 662:  0.00 663:  0.00 664:  0.00
 665:  0.00 666:  0.00 667:  0.00 668:  0.00 669:  0.00 670:  0.00 671:  0.00 672:  0.00
 673:  0.00 674:  0.00 675:  0.00 676:  0.00 677:  0.00 678:  0.00 679:  0.00 680:  0.00
 681:  0.00 682:  0.00 683:  0.00 684:  0.00 685:  0.00 686:  0.00 687:  0.00 688:  0.00
 689:  0.00 690:  0.00 691:  0.00 692:  0.00 693:  0.00 694:  0.00 695:  0.00 696:  0.00
 697:  0.00 698:  0.00 699:  0.00 700:  0.00 701:  0.00 702:  0.00 703:  0.00 704:  0.00
 705:  0.00 706:  0.00 707:  0.00 708:  0.00 709:  0.00 710:  0.00 711:  0.00 712:  0.00
 713:  0.00 714:  0.00 715:  0.00 716:  0.00 717:  0.00 718:  0.00 719:  0.00 720:  0.00
 721:  0.00 722:  0.00 723:  0.00 724:  0.00 725:  0.00 726:  0.00 727:  0.00 728:  0.00
 729:  0.00 730:  0.00 731:  0.00 732:  0.00 733:  0.00 734:  0.00 735:  0.00 736:  0.00
 737:  0.00 738:  0.00 739:  0.00 740:  0.00 741:  0.00 742:  0.00 743:  0.00 744:  0.00
 745:  0.00 746:  0.00 747:  0.00 748:  0.00 749:  0.00 750:  0.00 751:  0.00 752:  0.00
 753:  0.00 754:  0.00 755:  0.00 756:  0.00 757:  0.00 758:  0.00 759:  0.00 760:  0.00
 761:  0.00 762:  0.00 763:  0.00 764:  0.00 765:  0.00 766:  0.00 767:  0.00 768:  0.00
 769:  0.00 770:  0.00 771:  0.00 772:  0.00 773:  0.00 774:  0.00 775:  0.00 776:  0.00
 777:  0.00
 output can be read by thermo (or use thermo option).
 writing <g98.out> molden fake output.
 recommended (thermochemical) frequency scaling factor: 1.0
           -------------------------------------------------
          |             Thermodynamic Functions             |
           -------------------------------------------------
 symmetry recognition skipped because # atoms >         200
 inverting freq            1   10.488815155890967     
 inverting freq            2   4.4773446246183735     
 inverting freq            3   2.0655831319745857     

          ...................................................
          :                      SETUP                      :
          :.................................................:
          :  # frequencies                         771      :
          :  # imaginary freq.                       0      :
          :  linear?                             false      :
          :  only rotor calc.                    false      :
          :  symmetry                               C1      :
          :  rotational number                       1      :
          :  scaling factor                  1.0000000      :
          :  rotor cutoff                   50.0000000 cm⁻¹ :
          :  imag. cutoff                  -20.0000000 cm⁻¹ :
          :.................................................:

    mode    ω/cm⁻¹     T·S(HO)/kcal·mol⁻¹    T·S(FR)/kcal·mol⁻¹   T·S(vib)
   ------------------------------------------------------------------------
       1     10.49    -2.36022 (  0.19%)    -1.51920 ( 99.81%)    -1.52082
       2      4.48    -2.86454 (  0.01%)    -1.77138 ( 99.99%)    -1.77145
       3      2.07    -3.32289 (  0.00%)    -2.00056 (100.00%)    -2.00056
       4      1.07    -3.71390 (  0.00%)    -2.19606 (100.00%)    -2.19606
       5      1.57    -3.48612 (  0.00%)    -2.08217 (100.00%)    -2.08217
       6      2.21    -3.28154 (  0.00%)    -1.97989 (100.00%)    -1.97989
       7      3.70    -2.97679 (  0.00%)    -1.82751 (100.00%)    -1.82754
       8      4.03    -2.92731 (  0.00%)    -1.80277 (100.00%)    -1.80282
       9      4.93    -2.80787 (  0.01%)    -1.74304 ( 99.99%)    -1.74314
      10      5.39    -2.75485 (  0.01%)    -1.71653 ( 99.99%)    -1.71667
      11      7.35    -2.57089 (  0.05%)    -1.62454 ( 99.95%)    -1.62499
      12      8.30    -2.49880 (  0.08%)    -1.58850 ( 99.92%)    -1.58919
      13      9.80    -2.40053 (  0.15%)    -1.53935 ( 99.85%)    -1.54062
      14     11.21    -2.32057 (  0.25%)    -1.49937 ( 99.75%)    -1.50144
      15     13.12    -2.22766 (  0.47%)    -1.45290 ( 99.53%)    -1.45655
      16     13.56    -2.20832 (  0.54%)    -1.44322 ( 99.46%)    -1.44733
      17     14.61    -2.16378 (  0.72%)    -1.42094 ( 99.28%)    -1.42632
      18     15.03    -2.14712 (  0.81%)    -1.41261 ( 99.19%)    -1.41856
      19     18.91    -2.01105 (  2.01%)    -1.34454 ( 97.99%)    -1.35791
      20     23.83    -1.87438 (  4.90%)    -1.27614 ( 95.10%)    -1.30547
      21     24.64    -1.85460 (  5.57%)    -1.26624 ( 94.43%)    -1.29899
      22     26.17    -1.81893 (  6.98%)    -1.24838 ( 93.02%)    -1.28819
      23     28.92    -1.75971 ( 10.07%)    -1.21873 ( 89.93%)    -1.27319
      24     33.76    -1.66820 ( 17.21%)    -1.17289 ( 82.79%)    -1.25813
      25     36.99    -1.61416 ( 23.06%)    -1.14580 ( 76.94%)    -1.25379
      26     37.58    -1.60490 ( 24.19%)    -1.14116 ( 75.81%)    -1.25333
      27     38.34    -1.59308 ( 25.68%)    -1.13523 ( 74.32%)    -1.25283
      28     38.46    -1.59124 ( 25.92%)    -1.13431 ( 74.08%)    -1.25276
      29     40.69    -1.55792 ( 30.48%)    -1.11760 ( 69.52%)    -1.25183
      30     42.08    -1.53807 ( 33.41%)    -1.10764 ( 66.59%)    -1.25143
      31     43.27    -1.52162 ( 35.93%)    -1.09939 ( 64.07%)    -1.25109
      32     43.52    -1.51819 ( 36.47%)    -1.09767 ( 63.53%)    -1.25102
      33     45.79    -1.48814 ( 41.30%)    -1.08259 ( 58.70%)    -1.25008
      34     50.23    -1.43362 ( 50.45%)    -1.05520 ( 49.55%)    -1.24613
      35     51.87    -1.41464 ( 53.67%)    -1.04567 ( 46.33%)    -1.24369
      36     52.49    -1.40766 ( 54.84%)    -1.04216 ( 45.16%)    -1.24261
      37     56.30    -1.36636 ( 61.65%)    -1.02139 ( 38.35%)    -1.23407
      38     58.10    -1.34784 ( 64.58%)    -1.01207 ( 35.42%)    -1.22891
      39     60.74    -1.32169 ( 68.53%)    -0.99890 ( 31.47%)    -1.22012
      40     62.55    -1.30445 ( 71.00%)    -0.99022 ( 29.00%)    -1.21334
      41     65.98    -1.27306 ( 75.20%)    -0.97440 ( 24.80%)    -1.19899
      42     67.54    -1.25930 ( 76.90%)    -0.96746 ( 23.10%)    -1.19190
      43     70.38    -1.23513 ( 79.70%)    -0.95526 ( 20.30%)    -1.17832
      44     71.92    -1.22241 ( 81.07%)    -0.94884 ( 18.93%)    -1.17062
      45     72.78    -1.21547 ( 81.78%)    -0.94534 ( 18.22%)    -1.16626
      46     75.21    -1.19623 ( 83.66%)    -0.93561 ( 16.34%)    -1.15364
      47     77.01    -1.18234 ( 84.91%)    -0.92859 ( 15.09%)    -1.14406
      48     81.44    -1.14964 ( 87.56%)    -0.91204 ( 12.44%)    -1.12008
      49     84.34    -1.12918 ( 89.01%)    -0.90167 ( 10.99%)    -1.10416
      50     84.96    -1.12492 ( 89.29%)    -0.89951 ( 10.71%)    -1.10077
      51     86.85    -1.11204 ( 90.10%)    -0.89298 (  9.90%)    -1.09036
      52     90.43    -1.08845 ( 91.45%)    -0.88100 (  8.55%)    -1.07072
      53     95.28    -1.05804 ( 92.95%)    -0.86554 (  7.05%)    -1.04447
      54    100.99    -1.02416 ( 94.33%)    -0.84828 (  5.67%)    -1.01419
      55    101.20    -1.02298 ( 94.38%)    -0.84768 (  5.62%)    -1.01312
      56    107.36    -0.98867 ( 95.51%)    -0.83016 (  4.49%)    -0.98155
      57    111.84    -0.96503 ( 96.16%)    -0.81806 (  3.84%)    -0.95938
      58    115.26    -0.94763 ( 96.58%)    -0.80914 (  3.42%)    -0.94290
      59    117.08    -0.93860 ( 96.78%)    -0.80451 (  3.22%)    -0.93428
      60    118.49    -0.93166 ( 96.93%)    -0.80094 (  3.07%)    -0.92764
      61    118.72    -0.93054 ( 96.95%)    -0.80037 (  3.05%)    -0.92657
      62    119.13    -0.92859 ( 96.99%)    -0.79937 (  3.01%)    -0.92470
      63    121.56    -0.91693 ( 97.22%)    -0.79337 (  2.78%)    -0.91350
      64    123.49    -0.90786 ( 97.38%)    -0.78870 (  2.62%)    -0.90474
      65    124.03    -0.90537 ( 97.43%)    -0.78742 (  2.57%)    -0.90234
      66    125.38    -0.89915 ( 97.53%)    -0.78421 (  2.47%)    -0.89631
      67    127.60    -0.88905 ( 97.70%)    -0.77901 (  2.30%)    -0.88652
      68    127.83    -0.88804 ( 97.71%)    -0.77848 (  2.29%)    -0.88553
      69    131.31    -0.87262 ( 97.94%)    -0.77052 (  2.06%)    -0.87051
      70    133.97    -0.86114 ( 98.10%)    -0.76458 (  1.90%)    -0.85930
      71    135.63    -0.85409 ( 98.19%)    -0.76093 (  1.81%)    -0.85240
      72    145.20    -0.81520 ( 98.61%)    -0.74073 (  1.39%)    -0.81417
      73    161.93    -0.75347 ( 99.10%)    -0.70843 (  0.90%)    -0.75306
      74    165.90    -0.73985 ( 99.18%)    -0.70125 (  0.82%)    -0.73953
      75    165.91    -0.73979 ( 99.18%)    -0.70122 (  0.82%)    -0.73947
      76    166.58    -0.73754 ( 99.19%)    -0.70004 (  0.81%)    -0.73724
      77    166.69    -0.73718 ( 99.20%)    -0.69985 (  0.80%)    -0.73688
      78    167.10    -0.73579 ( 99.20%)    -0.69912 (  0.80%)    -0.73550
      79    167.73    -0.73366 ( 99.22%)    -0.69799 (  0.78%)    -0.73338
      80    168.51    -0.73106 ( 99.23%)    -0.69662 (  0.77%)    -0.73080
      81    178.89    -0.69767 ( 99.39%)    -0.67892 (  0.61%)    -0.69755
      82    179.24    -0.69656 ( 99.40%)    -0.67833 (  0.60%)    -0.69645
      83    180.85    -0.69158 ( 99.42%)    -0.67568 (  0.58%)    -0.69149
      84    181.37    -0.69000 ( 99.43%)    -0.67484 (  0.57%)    -0.68991
      85    182.21    -0.68742 ( 99.44%)    -0.67346 (  0.56%)    -0.68734
      86    182.92    -0.68526 ( 99.44%)    -0.67231 (  0.56%)    -0.68518
      87    183.57    -0.68331 ( 99.45%)    -0.67127 (  0.55%)    -0.68325
      88    183.81    -0.68257 ( 99.46%)    -0.67088 (  0.54%)    -0.68251
      89    183.97    -0.68208 ( 99.46%)    -0.67062 (  0.54%)    -0.68202
      90    184.77    -0.67967 ( 99.47%)    -0.66933 (  0.53%)    -0.67962
      91    184.86    -0.67941 ( 99.47%)    -0.66919 (  0.53%)    -0.67935
      92    187.94    -0.67025 ( 99.50%)    -0.66429 (  0.50%)    -0.67022
      93    191.63    -0.65952 ( 99.54%)    -0.65854 (  0.46%)    -0.65951
      94    193.95    -0.65286 ( 99.56%)    -0.65496 (  0.44%)    -0.65287
      95    197.33    -0.64336 ( 99.59%)    -0.64985 (  0.41%)    -0.64339
      96    202.62    -0.62886 ( 99.63%)    -0.64202 (  0.37%)    -0.62890
      97    204.08    -0.62493 ( 99.64%)    -0.63989 (  0.36%)    -0.62498
      98    204.39    -0.62408 ( 99.64%)    -0.63943 (  0.36%)    -0.62413
      99    204.96    -0.62257 ( 99.65%)    -0.63862 (  0.35%)    -0.62263
     100    205.05    -0.62233 ( 99.65%)    -0.63849 (  0.35%)    -0.62239
     101    205.11    -0.62218 ( 99.65%)    -0.63840 (  0.35%)    -0.62223
     102    205.53    -0.62106 ( 99.65%)    -0.63780 (  0.35%)    -0.62112
     103    209.18    -0.61146 ( 99.67%)    -0.63258 (  0.33%)    -0.61153
     104    209.45    -0.61075 ( 99.68%)    -0.63219 (  0.32%)    -0.61082
     105    209.71    -0.61007 ( 99.68%)    -0.63183 (  0.32%)    -0.61014
     106    210.32    -0.60849 ( 99.68%)    -0.63096 (  0.32%)    -0.60856
     107    210.53    -0.60794 ( 99.68%)    -0.63067 (  0.32%)    -0.60801
     108    210.61    -0.60774 ( 99.68%)    -0.63056 (  0.32%)    -0.60781
     109    210.96    -0.60683 ( 99.69%)    -0.63006 (  0.31%)    -0.60690
     110    211.62    -0.60513 ( 99.69%)    -0.62914 (  0.31%)    -0.60521
     111    211.63    -0.60511 ( 99.69%)    -0.62912 (  0.31%)    -0.60518
     112    215.46    -0.59539 ( 99.71%)    -0.62382 (  0.29%)    -0.59547
     113    217.47    -0.59035 ( 99.72%)    -0.62106 (  0.28%)    -0.59044
     114    218.02    -0.58899 ( 99.72%)    -0.62032 (  0.28%)    -0.58908
     115    218.36    -0.58815 ( 99.73%)    -0.61985 (  0.27%)    -0.58823
     116    218.40    -0.58804 ( 99.73%)    -0.61980 (  0.27%)    -0.58813
     117    218.49    -0.58782 ( 99.73%)    -0.61968 (  0.27%)    -0.58791
     118    219.51    -0.58530 ( 99.73%)    -0.61829 (  0.27%)    -0.58539
     119    220.19    -0.58363 ( 99.73%)    -0.61738 (  0.27%)    -0.58372
     120    220.35    -0.58325 ( 99.74%)    -0.61717 (  0.26%)    -0.58334
     121    220.82    -0.58209 ( 99.74%)    -0.61653 (  0.26%)    -0.58218
     122    231.75    -0.55615 ( 99.78%)    -0.60222 (  0.22%)    -0.55625
     123    233.39    -0.55239 ( 99.79%)    -0.60013 (  0.21%)    -0.55249
     124    237.56    -0.54294 ( 99.80%)    -0.59488 (  0.20%)    -0.54305
     125    241.75    -0.53368 ( 99.82%)    -0.58971 (  0.18%)    -0.53378
     126    243.94    -0.52891 ( 99.82%)    -0.58704 (  0.18%)    -0.52901
     127    247.84    -0.52053 ( 99.83%)    -0.58233 (  0.17%)    -0.52063
     128    255.82    -0.50391 ( 99.85%)    -0.57295 (  0.15%)    -0.50401
     129    256.06    -0.50343 ( 99.85%)    -0.57268 (  0.15%)    -0.50353
     130    258.92    -0.49763 ( 99.86%)    -0.56939 (  0.14%)    -0.49773
     131    259.50    -0.49646 ( 99.86%)    -0.56872 (  0.14%)    -0.49656
     132    260.01    -0.49543 ( 99.86%)    -0.56813 (  0.14%)    -0.49553
     133    260.80    -0.49386 ( 99.87%)    -0.56724 (  0.13%)    -0.49396
     134    261.50    -0.49246 ( 99.87%)    -0.56644 (  0.13%)    -0.49255
     135    262.06    -0.49136 ( 99.87%)    -0.56581 (  0.13%)    -0.49146
     136    262.59    -0.49030 ( 99.87%)    -0.56521 (  0.13%)    -0.49040
     137    264.88    -0.48580 ( 99.87%)    -0.56264 (  0.13%)    -0.48590
     138    270.09    -0.47573 ( 99.88%)    -0.55687 (  0.12%)    -0.47583
     139    273.96    -0.46843 ( 99.89%)    -0.55266 (  0.11%)    -0.46852
     140    281.67    -0.45423 ( 99.90%)    -0.54443 (  0.10%)    -0.45432
   ------------------------------------------------------------------------

   temp. (K)  partition function   enthalpy   heat capacity  entropy
                                   cal/mol     cal/K/mol   cal/K/mol   J/K/mol
 298.15  VIB  0.151E+82            92765.339    592.750    595.719
         ROT  0.114E+11              888.752      2.981     48.992
         INT  0.172E+92            93654.091    595.731    644.711
         TR   0.138E+30             1481.254      4.968     49.558
         TOT                       95135.3449   600.6993   694.2693  2904.8230

       T/K    H(0)-H(T)+PV         H(T)/Eh          T*S/Eh         G(T)/Eh
   ------------------------------------------------------------------------
    298.15    0.151608E+00    0.194180E+01    0.329870E+00    0.161193E+01
   ------------------------------------------------------------------------

         :::::::::::::::::::::::::::::::::::::::::::::::::::::
         ::                  THERMODYNAMIC                  ::
         :::::::::::::::::::::::::::::::::::::::::::::::::::::
         :: total free energy        -469.965925463926 Eh   ::
         ::.................................................::
         :: total energy             -471.577858043010 Eh   ::
         :: zero point energy           1.790194527206 Eh   ::
         :: G(RRHO) w/o ZPVE           -0.178261948122 Eh   ::
         :: G(RRHO) contrib.            1.611932579084 Eh   ::
         :::::::::::::::::::::::::::::::::::::::::::::::::::::
imag cut-off (cm-1) :    5.00
 found            1  significant imaginary frequency
 writing imag mode distorted coords to xtbhess.xyz
 for further optimization.

optimized geometry written to: xtbopt.xyz


           -------------------------------------------------
          | TOTAL ENERGY             -471.577858043010 Eh   |
          | TOTAL ENTHALPY           -469.636055693437 Eh   |
          | TOTAL FREE ENERGY        -469.965925463926 Eh   |
          | GRADIENT NORM               0.000480103331 Eh/α |
          | HOMO-LUMO GAP               0.000684281082 eV   |
           -------------------------------------------------

------------------------------------------------------------------------
 * finished run on 2021/11/20 at 13:54:00.920     
------------------------------------------------------------------------
 total:
 * wall-time:     0 d,  1 h, 55 min, 22.903 sec
 *  cpu-time:     0 d,  1 h, 55 min, 22.994 sec
 * ratio c/w:     1.000 speedup
 SCF:
 * wall-time:     0 d,  0 h,  0 min, 12.879 sec
 *  cpu-time:     0 d,  0 h,  0 min, 12.879 sec
 * ratio c/w:     1.000 speedup
 ANC optimizer:
 * wall-time:     0 d,  0 h, 19 min, 28.238 sec
 *  cpu-time:     0 d,  0 h, 19 min, 28.247 sec
 * ratio c/w:     1.000 speedup
 analytical hessian:
 * wall-time:     0 d,  1 h, 35 min, 41.380 sec
 *  cpu-time:     0 d,  1 h, 35 min, 41.461 sec
 * ratio c/w:     1.000 speedup

