259
 energy: -469.927675565557 gnorm: 0.950510118988 xtb: 6.4.1 (bd6e46d)
Cu       50.04493300000000    0.04847000000000   -0.01590500000000
C        52.37392400000000   -3.09832400000000    1.30678400000000
C        53.29003100000000   -2.15411600000000    1.25650200000000
C        52.87885200000001   -1.10021200000000    0.33521000000000
C        53.49772200000000    0.02413400000000   -0.01120000000000
C        52.79368000000000    1.24408200000000   -0.37530500000000
C        53.12179000000000    2.20413700000000   -1.22277800000000
C        52.08701100000000    3.22042200000000   -1.23967600000000
C        51.15074300000001    2.84396000000000   -0.39278500000000
N        51.55273300000000    1.61094900000000    0.17103200000000
C        49.88966800000000    3.48896000000000   -0.01363300000000
C        48.79445100000000    2.85417700000000    0.33712700000000
C        47.72082600000001    3.17213300000000    1.30615500000000
C        46.88326300000000    2.17537900000000    1.22898900000000
C        47.32156000000000    1.17169600000000    0.24853700000000
N        48.42649800000000    1.61054900000000   -0.23575500000000
C        46.71072500000000   -0.08157500000000   -0.16501100000000
C        47.37488600000000   -1.18608100000000   -0.41943500000000
C        47.00103700000000   -2.24902300000000   -1.37696300000000
C        47.94978400000001   -3.14277900000000   -1.28794300000000
C        48.93550800000000   -2.70532900000000   -0.30506600000000
N        48.58246200000000   -1.55952400000000    0.19173200000000
C        50.16639600000000   -3.36139900000000    0.14065600000000
C        51.28943800000000   -2.71553800000000    0.40777600000000
N        51.61803800000001   -1.46809700000000   -0.19062700000000
H        52.43418600000000   -4.00810400000000    1.92433100000000
H        54.20635800000000   -2.19406500000000    1.83455000000000
H        54.04915600000000    2.22093300000000   -1.82392200000000
H        52.10391000000000    4.12511100000000   -1.85229800000000
H        49.84194600000000    4.58376300000000   -0.01741000000000
H        47.66800400000000    4.05085800000000    1.93114800000000
H        45.97163200000000    2.13971000000000    1.84631300000000
H        45.61247500000001   -0.07866400000000   -0.26428200000000
H        46.13218100000001   -2.30148800000000   -2.02591300000000
H        47.94693800000000   -4.05908700000000   -1.88670300000000
H        50.13091400000000   -4.45720100000000    0.25258000000000
Cu      117.46372200000002    0.00109300000000   -0.02033800000000
C       115.13473100000000    2.84788500000000    1.86316700000000
C       114.21862400000001    1.92939600000000    1.63859400000000
C       114.62980399999999    1.06469900000000    0.53778000000000
C       114.01093300000001    0.02413400000000   -0.01120000000000
C       114.71497500000000   -1.10709100000000   -0.59530300000000
C       114.38686500000001   -1.89326200000000   -1.60616900000000
C       115.42164400000000   -2.88877200000000   -1.81131000000000
C       116.35791300000000   -2.67595500000000   -0.90927900000000
N       115.95592200000000   -1.56894400000000   -0.12650800000000
C       117.61898700000002   -3.38009700000000   -0.65636600000000
C       118.71420400000000   -2.82140400000000   -0.19393300000000
C       119.78783000000000   -3.31360900000000    0.69928900000000
C       120.62539300000000   -2.31984200000000    0.80837400000000
C       120.18709500000000   -1.15169400000000    0.03113900000000
N       119.08215700000000   -1.49308600000000   -0.52616000000000
C       120.79793000000001    0.15654200000000   -0.14273000000000
C       120.13376900000000    1.28907500000000   -0.18783700000000
C       120.50761799999999    2.51120100000000   -0.93155200000000
C       119.55887100000001    3.37292800000000   -0.67827300000000
C       118.57314700000001    2.76073300000000    0.20639000000000
N       118.92619300000000    1.54265500000000    0.48200000000000
C       117.34225900000000    3.32272800000000    0.76608500000000
C       116.21921800000000    2.63852300000000    0.90875200000000
N       115.89061700000001    1.52374800000000    0.08931800000000
H       115.07446900000001    3.62731000000000    2.63877100000000
H       113.30229700000000    1.86141500000000    2.21401900000000
H       113.45950000000002   -1.79824600000000   -2.19999400000000
H       115.40474500000001   -3.66410600000000   -2.58112900000000
H       117.66671000000001   -4.45519500000000   -0.86317900000000
H       119.84065099999999   -4.29302600000000    1.15041600000000
H       121.53702300000000   -2.39931400000000    1.42160000000000
H       121.89618000000002    0.17209800000000   -0.24081800000000
H       121.37647400000002    2.68314500000000   -1.55950400000000
H       119.56171700000000    4.38440900000000   -1.09665100000000
H       117.37774100000000    4.37874400000000    1.07935400000000
C        56.11217000000001    0.02413400000000   -0.01120000000000
C        57.32837600000000    0.02413400000000   -0.01120000000000
C        66.92579200000000    0.02413400000000   -0.01120000000000
C        68.14199700000000    0.02413400000000   -0.01120000000000
C        77.73941400000000    0.02413400000000   -0.01120000000000
C        78.95561900000000    0.02413400000000   -0.01120000000000
C        88.55303600000002    0.02413400000000   -0.01120000000000
C        89.76924099999999    0.02413400000000   -0.01120000000000
C        99.36665800000002    0.02413400000000   -0.01120000000000
C       100.58286300000000    0.02413400000000   -0.01120000000000
C       110.18028000000000    0.02413400000000   -0.01120000000000
C       111.39648500000000    0.02413400000000   -0.01120000000000
Cu       62.15858000000001    0.03693500000000    0.00228600000000
C        59.87876900000001   -3.22451200000000   -0.90738000000000
C        58.92256000000000   -2.32516200000000   -1.00940600000000
C        59.31493400000000   -1.16285700000000   -0.20689000000000
C        58.67981700000001   -0.01158400000000    0.00537600000000
C        59.36527400000000    1.26301500000000    0.23160500000000
C        59.02998400000000    2.34161500000000    0.93584500000000
C        60.05452500000000    3.36093200000000    0.84526400000000
C        61.00512300000000    2.86400700000000    0.07189900000000
N        60.62812900000000    1.54740200000000   -0.34424400000000
C        62.25226200000000    3.47570900000000   -0.34496600000000
C        63.35381400000000    2.80845200000000   -0.67673800000000
C        64.34735999999999    3.06043600000000   -1.71090800000000
C        65.24124399999999    2.09957700000000   -1.60942400000000
C        64.86154600000000    1.18769300000000   -0.50544700000000
N        63.76663000000000    1.63701200000000    0.00192000000000
C        65.51875200000001   -0.01158400000000    0.00537600000000
C        64.89534100000000   -1.08076600000000    0.46689300000000
C        65.27405400000001   -2.01288200000000    1.54236800000000
C        64.33338500000001   -2.92702800000000    1.62823400000000
C        63.32508400000000   -2.63124900000000    0.63080700000000
N        63.66285900000000   -1.57787100000000   -0.01848800000000
C        62.07269000000001   -3.33825600000000    0.29961400000000
C        60.95881400000000   -2.74155900000000   -0.04772700000000
N        60.57670200000000   -1.45880200000000    0.36995500000000
H        59.87911400000000   -4.21558600000000   -1.39861400000000
H        58.01402500000000   -2.44685600000000   -1.59055400000000
H        58.10513200000000    2.45996700000000    1.51277100000000
H        60.08182000000000    4.35009600000000    1.30191400000000
H        62.33820200000001    4.57308700000000   -0.40698900000000
H        64.38003300000000    3.86665200000000   -2.43773200000000
H        66.13430500000000    1.98660900000000   -2.24319800000000
H        66.18880400000000   -1.93847500000000    2.15253800000000
H        64.35243199999999   -3.74063600000000    2.33650200000000
H        62.11117500000000   -4.43821500000000    0.35865000000000
Cu       72.97220200000000    0.03693500000000    0.00228600000000
C        70.69239100000000   -3.22451200000000   -0.90738000000000
C        69.73618200000000   -2.32516200000000   -1.00940600000000
C        70.12855600000000   -1.16285700000000   -0.20689000000000
C        69.49343900000000   -0.01158400000000    0.00537600000000
C        70.17889600000001    1.26301500000000    0.23160500000000
C        69.84360599999999    2.34161500000000    0.93584500000000
C        70.86814699999999    3.36093200000000    0.84526400000000
C        71.81874500000002    2.86400700000000    0.07189900000000
N        71.44175100000001    1.54740200000000   -0.34424400000000
C        73.06588400000001    3.47570900000000   -0.34496600000000
C        74.16743600000001    2.80845200000000   -0.67673800000000
C        75.16098200000000    3.06043600000000   -1.71090800000000
C        76.05486600000000    2.09957700000000   -1.60942400000000
C        75.67516700000000    1.18769300000000   -0.50544700000000
N        74.58025200000000    1.63701200000000    0.00192000000000
C        76.33237400000002   -0.01158400000000    0.00537600000000
C        75.70896300000000   -1.08076600000000    0.46689300000000
C        76.08767600000000   -2.01288200000000    1.54236800000000
C        75.14700700000000   -2.92702800000000    1.62823400000000
C        74.13870600000001   -2.63124900000000    0.63080700000000
N        74.47648000000001   -1.57787100000000   -0.01848800000000
C        72.88631200000000   -3.33825600000000    0.29961400000000
C        71.77243600000000   -2.74155900000000   -0.04772700000000
N        71.39032300000000   -1.45880200000000    0.36995500000000
H        70.69273600000001   -4.21558600000000   -1.39861400000000
H        68.82764700000001   -2.44685600000000   -1.59055400000000
H        68.91875400000001    2.45996700000000    1.51277100000000
H        70.89544200000000    4.35009600000000    1.30191400000000
H        73.15182400000000    4.57308700000000   -0.40698900000000
H        75.19365500000001    3.86665200000000   -2.43773200000000
H        76.94792700000001    1.98660900000000   -2.24319800000000
H        77.00242600000000   -1.93847500000000    2.15253800000000
H        75.16605300000002   -3.74063600000000    2.33650200000000
H        72.92479700000000   -4.43821500000000    0.35865000000000
Cu       83.78582400000001    0.03693500000000    0.00228600000000
C        81.50601300000001   -3.22451200000000   -0.90738000000000
C        80.54980399999999   -2.32516200000000   -1.00940600000000
C        80.94217800000000   -1.16285700000000   -0.20689000000000
C        80.30706100000000   -0.01158400000000    0.00537600000000
C        80.99251800000002    1.26301500000000    0.23160500000000
C        80.65722800000000    2.34161500000000    0.93584500000000
C        81.68176900000000    3.36093200000000    0.84526400000000
C        82.63236700000000    2.86400700000000    0.07189900000000
N        82.25537199999999    1.54740200000000   -0.34424400000000
C        83.87950600000002    3.47570900000000   -0.34496600000000
C        84.98105800000000    2.80845200000000   -0.67673800000000
C        85.97460400000001    3.06043600000000   -1.71090800000000
C        86.86848700000000    2.09957700000000   -1.60942400000000
C        86.48878900000001    1.18769300000000   -0.50544700000000
N        85.39387400000000    1.63701200000000    0.00192000000000
C        87.14599600000000   -0.01158400000000    0.00537600000000
C        86.52258500000001   -1.08076600000000    0.46689300000000
C        86.90129700000000   -2.01288200000000    1.54236800000000
C        85.96062900000000   -2.92702800000000    1.62823400000000
C        84.95232700000000   -2.63124900000000    0.63080700000000
N        85.29010200000002   -1.57787100000000   -0.01848800000000
C        83.69993400000000   -3.33825600000000    0.29961400000000
C        82.58605799999999   -2.74155900000000   -0.04772700000000
N        82.20394500000000   -1.45880200000000    0.36995500000000
H        81.50635699999999   -4.21558600000000   -1.39861400000000
H        79.64126899999999   -2.44685600000000   -1.59055400000000
H        79.73237600000000    2.45996700000000    1.51277100000000
H        81.70906400000000    4.35009600000000    1.30191400000000
H        83.96544600000000    4.57308700000000   -0.40698900000000
H        86.00727700000000    3.86665200000000   -2.43773200000000
H        87.76154900000000    1.98660900000000   -2.24319800000000
H        87.81604799999999   -1.93847500000000    2.15253800000000
H        85.97967500000001   -3.74063600000000    2.33650200000000
H        83.73841899999999   -4.43821500000000    0.35865000000000
Cu       94.59944500000000    0.03693500000000    0.00228600000000
C        92.31963500000002   -3.22451200000000   -0.90738000000000
C        91.36342500000001   -2.32516200000000   -1.00940600000000
C        91.75579900000000   -1.16285700000000   -0.20689000000000
C        91.12068300000000   -0.01158400000000    0.00537600000000
C        91.80614000000000    1.26301500000000    0.23160500000000
C        91.47085000000000    2.34161500000000    0.93584500000000
C        92.49539100000000    3.36093200000000    0.84526400000000
C        93.44598800000000    2.86400700000000    0.07189900000000
N        93.06899400000000    1.54740200000000   -0.34424400000000
C        94.69312800000000    3.47570900000000   -0.34496600000000
C        95.79468000000000    2.80845200000000   -0.67673800000000
C        96.78822600000001    3.06043600000000   -1.71090800000000
C        97.68210900000000    2.09957700000000   -1.60942400000000
C        97.30241100000002    1.18769300000000   -0.50544700000000
N        96.20749600000001    1.63701200000000    0.00192000000000
C        97.95961800000001   -0.01158400000000    0.00537600000000
C        97.33620700000000   -1.08076600000000    0.46689300000000
C        97.71491899999999   -2.01288200000000    1.54236800000000
C        96.77425100000001   -2.92702800000000    1.62823400000000
C        95.76594900000001   -2.63124900000000    0.63080700000000
N        96.10372400000000   -1.57787100000000   -0.01848800000000
C        94.51355599999999   -3.33825600000000    0.29961400000000
C        93.39967900000001   -2.74155900000000   -0.04772700000000
N        93.01756700000000   -1.45880200000000    0.36995500000000
H        92.31997900000000   -4.21558600000000   -1.39861400000000
H        90.45489100000000   -2.44685600000000   -1.59055400000000
H        90.54599800000000    2.45996700000000    1.51277100000000
H        92.52268599999999    4.35009600000000    1.30191400000000
H        94.77906800000000    4.57308700000000   -0.40698900000000
H        96.82089800000001    3.86665200000000   -2.43773200000000
H        98.57517100000000    1.98660900000000   -2.24319800000000
H        98.62967000000000   -1.93847500000000    2.15253800000000
H        96.79329700000000   -3.74063600000000    2.33650200000000
H        94.55204100000000   -4.43821500000000    0.35865000000000
Cu      105.41306700000000    0.03693500000000    0.00228600000000
C       103.13325700000000   -3.22451200000000   -0.90738000000000
C       102.17704700000000   -2.32516200000000   -1.00940600000000
C       102.56942100000001   -1.16285700000000   -0.20689000000000
C       101.93430499999999   -0.01158400000000    0.00537600000000
C       102.61976199999999    1.26301500000000    0.23160500000000
C       102.28447199999999    2.34161500000000    0.93584500000000
C       103.30901299999999    3.36093200000000    0.84526400000000
C       104.25961000000000    2.86400700000000    0.07189900000000
N       103.88261600000000    1.54740200000000   -0.34424400000000
C       105.50675000000000    3.47570900000000   -0.34496600000000
C       106.60830199999999    2.80845200000000   -0.67673800000000
C       107.60184800000002    3.06043600000000   -1.71090800000000
C       108.49573100000001    2.09957700000000   -1.60942400000000
C       108.11603300000002    1.18769300000000   -0.50544700000000
N       107.02111800000000    1.63701200000000    0.00192000000000
C       108.77324000000000   -0.01158400000000    0.00537600000000
C       108.14982900000000   -1.08076600000000    0.46689300000000
C       108.52854100000000   -2.01288200000000    1.54236800000000
C       107.58787200000002   -2.92702800000000    1.62823400000000
C       106.57957100000000   -2.63124900000000    0.63080700000000
N       106.91734599999999   -1.57787100000000   -0.01848800000000
C       105.32717800000000   -3.33825600000000    0.29961400000000
C       104.21330100000002   -2.74155900000000   -0.04772700000000
N       103.83118899999999   -1.45880200000000    0.36995500000000
H       103.13360100000000   -4.21558600000000   -1.39861400000000
H       101.26851300000000   -2.44685600000000   -1.59055400000000
H       101.35962000000001    2.45996700000000    1.51277100000000
H       103.33630800000000    4.35009600000000    1.30191400000000
H       105.59269000000000    4.57308700000000   -0.40698900000000
H       107.63452000000001    3.86665200000000   -2.43773200000000
H       109.38879300000001    1.98660900000000   -2.24319800000000
H       109.44329100000002   -1.93847500000000    2.15253800000000
H       107.60691900000000   -3.74063600000000    2.33650200000000
H       105.36566200000001   -4.43821500000000    0.35865000000000
259
 energy: -470.302948355723 gnorm: 0.552829297464 xtb: 6.4.1 (bd6e46d)
Cu       50.05396781802655    0.04786989867093   -0.01418449959068
C        52.37411128524050   -3.10736289456928    1.29948792482392
C        53.30352575448990   -2.15357476650759    1.25431052434211
C        52.87581402963227   -1.10312958313911    0.34118300338592
C        53.48685805918837    0.04280584769335   -0.01315740736189
C        52.78336007735302    1.24069379220712   -0.36561207948837
C        53.13309388333430    2.23061366827666   -1.24041586486362
C        52.11543443732344    3.22218104483861   -1.25348496181942
C        51.14448569908988    2.82103423737861   -0.38547066877142
N        51.53081969565901    1.59214427299189    0.17322202324577
C        49.90727565006004    3.48758976165425   -0.01420215372750
C        48.78383360031975    2.83959271861320    0.33759404396889
C        47.72233311831951    3.18013489738160    1.29126569741545
C        46.86015632635497    2.16753229208178    1.23375085318853
C        47.31668563477808    1.17359912128988    0.26273177317302
N        48.45719845317218    1.59211447799528   -0.22105510450692
C        46.70000089548988   -0.06164575612062   -0.15953876578226
C        47.37807683520895   -1.19053811577614   -0.42352447917523
C        46.99230294732001   -2.24849834326537   -1.36457553864443
C        47.95715945155705   -3.16191036696250   -1.28695300803993
C        48.94382740924745   -2.71356938579530   -0.31210825834682
N        48.59338139756223   -1.53803643174613    0.16914859921315
C        50.14973791919710   -3.36742990050072    0.13406331173781
C        51.29707067921562   -2.70095427785490    0.40882205182594
N        51.61418153878177   -1.46366187956590   -0.16464075846335
H        52.42695917680923   -4.00341291245978    1.91733313176022
H        54.21056953181117   -2.18605498051150    1.83221768698794
H        54.04681721950863    2.22826555838603   -1.82558879332894
H        52.10974944561242    4.12215159975037   -1.85328586321373
H        49.85559638164417    4.57974358776621   -0.01132648697695
H        47.67395899789653    4.04968574659261    1.92595893581560
H        45.96792226410317    2.13185755245919    1.84533283978875
H        45.61423904119829   -0.07163240767916   -0.26965584823093
H        46.13366785463757   -2.29341947660813   -2.01939740502471
H        47.95622015712115   -4.06239797138844   -1.88367527114166
H        50.12669714627443   -4.45311985206952    0.25390903112356
Cu      117.45470109936286    0.00135226778875   -0.01853065464249
C       115.13460824151298    2.85808124006917    1.85771032421975
C       114.20511781481089    1.92928974066746    1.63629071545420
C       114.63270306555681    1.06662423012100    0.54411876400045
C       114.02111151452849    0.00588178043474   -0.01596628540565
C       114.72530380877136   -1.10544098797796   -0.58521840572839
C       114.37559621906897   -1.91597952074455   -1.62831391808491
C       115.39327312063865   -2.88797227993971   -1.82517723178671
C       116.36416923196616   -2.65485521456978   -0.89785303823865
N       115.97779417701902   -1.55077859650471   -0.12102425364080
C       117.60135847930083   -3.37867228292672   -0.65668728787848
C       118.72481976197884   -2.80713964739869   -0.19075843935085
C       119.78630387249298   -3.31868561964649    0.68317600256234
C       120.64852742647683   -2.31301032527856    0.81445954720618
C       120.19199665722554   -1.15617921750479    0.04472242476756
N       119.05142496683322   -1.47773080662828   -0.50827863816272
C       120.80866004604637    0.13590600001491   -0.14102893925518
C       120.13054817054210    1.29422664411995   -0.19104500095355
C       120.51631350164787    2.50836880494565   -0.91951006443245
C       119.55149703241199    3.39157226754311   -0.67371685583094
C       118.56482371760208    2.77016916145660    0.20100956683349
N       118.91530158938612    1.52569529084324    0.45580192475734
C       117.35892823570016    3.32988171967237    0.76068293776487
C       116.21157790756378    2.62394571552319    0.90713093450971
N       115.89449195179481    1.51444390120792    0.11412241011789
H       115.08170765039836    3.62399057670211    2.63101363588419
H       113.29809498239203    1.85401354162138    2.21022546595620
H       113.46185630523094   -1.80513287422565   -2.20300561621575
H       115.39892150230970   -3.66102483413415   -2.58157255717906
H       117.65307789895455   -4.45238763094719   -0.85650275455586
H       119.83469467540424   -4.29090767804957    1.14552661678186
H       121.54073785958187   -2.39141235596374    1.42208369114603
H       121.89442001731557    0.16618200800527   -0.24737169318759
H       121.37497697156964    2.67400499003454   -1.55460378600015
H       119.55242775220796    4.38710596212525   -1.09306204813141
H       117.38193253383508    4.37451003896373    1.07982213671604
C        56.08275887873668    0.02278239053816   -0.01250529849741
C        57.30627605365601    0.03164871140622   -0.01273438027824
C        66.92101975099445    0.02976629697257   -0.00947685961386
C        68.13675204245057    0.03085900592276   -0.01224651809731
C        77.73520368834932    0.02988699404477   -0.00920402383716
C        78.94989537643303    0.03090152018886   -0.01224864484201
C        88.54877867867326    0.02988560237296   -0.00918146618665
C        89.76352686589556    0.03090928723239   -0.01220253298419
C        99.36200421272530    0.02984263144532   -0.00928541012940
C       100.57740204585971    0.03084542346330   -0.01230524858793
C       110.19839713818429    0.03024072223487   -0.00734991138068
C       111.41923453572682    0.02390757184825   -0.01229923186869
Cu       62.15118852515454    0.03879233727571   -0.00047639005624
C        59.88041433720721   -3.24127837046876   -0.90199288162187
C        58.91682589332508   -2.32354791655694   -1.00290373683143
C        59.33737709096319   -1.17661467628827   -0.20896807978081
C        58.68732338701246    0.00782604030242    0.00457117593070
C        59.39049115940222    1.26491432464885    0.22703861845480
C        59.02099107370437    2.36685894502846    0.94676399685284
C        60.03100232806980    3.36176236677129    0.85334898496729
C        61.01525491492860    2.84310411120550    0.06661695273491
N        60.65191584161571    1.53345905021581   -0.33228668545647
C        62.23885807588747    3.47481038254659   -0.34626559924549
C        63.36228248108636    2.79666936503231   -0.67709988321695
C        64.35297430582439    3.06802727371302   -1.69961075054991
C        65.25989838816092    2.08785071246125   -1.60925936113415
C        64.86399404209124    1.18920938208287   -0.51834293688104
N        63.73582269234589    1.61919495007550   -0.01312465009261
C        65.52926165033531    0.00540196409920   -0.00304468310611
C        64.88259848447630   -1.09467096363892    0.47252049719208
C        65.28522453350267   -2.01060425614772    1.53387173162401
C        64.32941020912847   -2.94280208454310    1.62748038612202
C        63.31530921091547   -2.63860877450310    0.63872724637715
N        63.64924450523148   -1.54324609668095   -0.00773779877761
C        62.09243184146344   -3.34413801091286    0.30925930239949
C        60.94573225671378   -2.72815104698713   -0.05427156130325
N        60.58698259380681   -1.44667272227979    0.34234047768609
H        59.88355243820685   -4.21230853337313   -1.39515586484862
H        58.01468557644648   -2.43803318818044   -1.58647130443890
H        58.10481386703781    2.46351067666445    1.51378502044229
H        60.07243519800102    4.34471225333538    1.30379024144220
H        62.32331725847695    4.56723158060123   -0.41215081707163
H        64.37369938564004    3.86526857952583   -2.43069816177964
H        66.13460493198818    1.98098343846239   -2.24014298268389
H        66.18369044690004   -1.93393919727011    2.14511891730466
H        64.34588758260080   -3.74608318817941    2.33708348456837
H        62.11612569859592   -4.43524130325195    0.35685728989972
Cu       72.96433623188628    0.03907385343759   -0.00026152288354
C        70.69307758096278   -3.24216706461874   -0.90163010968128
C        69.73080433290149   -2.32446671105747   -1.00277695257985
C        70.15277999024558   -1.17835215157553   -0.20625283108191
C        69.50383570273202    0.00690393392213    0.00478361690568
C        70.20616081388866    1.26692283333066    0.22589039656740
C        69.83546364582392    2.36667144706107    0.94701150006257
C        70.84479225827508    3.36270278807224    0.85283312238971
C        71.82914062152163    2.84405579373566    0.06669077402486
N        71.46467234617651    1.53393826401741   -0.33265106349347
C        73.05228136548050    3.47482182019198   -0.34567110402589
C        74.17621330584593    2.79636932611535   -0.67692982772327
C        75.16643689240371    3.06770543840741   -1.69991968189732
C        76.07375032552206    2.08791767980320   -1.60929816931589
C        75.67760064457804    1.18896488256567   -0.51872340895527
N        74.54948410304210    1.61958588951457   -0.01292067975489
C        76.34204111304260    0.00523366042428   -0.00280373684742
C        75.69672992486299   -1.09430612209181    0.47267314976183
C        76.09968705626557   -2.01100378322598    1.53359887676239
C        75.14286414815011   -2.94180694265168    1.62844890031337
C        74.12954783841759   -2.63745721701261    0.63902271051398
N        74.46265319556757   -1.54456163566108   -0.00809034816632
C        72.90502590644171   -3.34424203563338    0.30799959267016
C        71.76025396601806   -2.72882255427847   -0.05417588154918
N        71.40021807875098   -1.44687753753156    0.34238427283883
H        70.69699622468376   -4.21260948338608   -1.39532506992163
H        68.82844821486499   -2.43815124093446   -1.58660403130014
H        68.91845003375626    2.46349276530304    1.51363966391951
H        70.88610665281901    4.34503493165244    1.30391037335019
H        73.13701365566102    4.56726339245631   -0.41188468333419
H        75.18731702257996    3.86523761954944   -2.43072405117471
H        76.94830221646303    1.98099943905418   -2.24024155211853
H        76.99759141784327   -1.93400299025606    2.14517427970430
H        75.15957092665016   -3.74597292920211    2.33714610131101
H        72.92981157516320   -4.43529772267040    0.35583182389271
Cu       83.77796992039700    0.03898830184781   -0.00025645413219
C        81.50671588779757   -3.24193170678701   -0.90189698081699
C        80.54413569351317   -2.32461075927939   -1.00258580922386
C        80.96621647346051   -1.17804153456310   -0.20658150522579
C        80.31806107234087    0.00685060000478    0.00464306185832
C        81.01972382918787    1.26674367954106    0.22611252833689
C        80.64896312632023    2.36680176346075    0.94703260386497
C        81.65829227499704    3.36260562800726    0.85295528498189
C        82.64273429131912    2.84388294135184    0.06660118031591
N        82.27842757798295    1.53402830367476   -0.33260632134692
C        83.86589160768436    3.47477898832973   -0.34571436023007
C        84.98983786047131    2.79635269289652   -0.67696576589378
C        85.98011484887020    3.06776759419967   -1.69991676220734
C        86.88735143797041    2.08793236482830   -1.60936038144740
C        86.49116736820818    1.18906618513350   -0.51872614658339
N        85.36328255989068    1.61970046560180   -0.01292138913492
C        87.15568631126217    0.00518017931340   -0.00284094854862
C        86.51024853893806   -1.09437776204454    0.47253723961751
C        86.91317618695724   -2.01105837223453    1.53378789332529
C        85.95672773808778   -2.94204750453004    1.62830019521183
C        84.94307573794538   -2.63753446826130    0.63891531340335
N        85.27647733357219   -1.54451557856633   -0.00806311445215
C        83.71886295015958   -3.34415231486394    0.30823479940243
C        82.57381498166244   -2.72849736475256   -0.05419961158793
N        82.21415808163604   -1.44719678629213    0.34243297342247
H        81.51061063246041   -4.21255866351885   -1.39532062251304
H        79.64200199560273   -2.43818878558927   -1.58663147242309
H        79.73206695337906    2.46353393919231    1.51371705197176
H        81.69968357852888    4.34502180875550    1.30388898593642
H        83.95062465016041    4.56724240554747   -0.41189120967151
H        86.00094433394094    3.86525717702593   -2.43073514529265
H        87.76193096377386    1.98100724563188   -2.24024742312933