      -----------------------------------------------------------      
     |                   =====================                   |     
     |                           x T B                           |     
     |                   =====================                   |     
     |                         S. Grimme                         |     
     |          Mulliken Center for Theoretical Chemistry        |     
     |                    University of Bonn                     |     
      -----------------------------------------------------------      

   * xtb version 6.4.1 (bd6e46d) compiled by 'conda@4901f00b25ba' on 2021-06-10

   xtb is free software: you can redistribute it and/or modify it under
   the terms of the GNU Lesser General Public License as published by
   the Free Software Foundation, either version 3 of the License, or
   (at your option) any later version.
   
   xtb is distributed in the hope that it will be useful,
   but WITHOUT ANY WARRANTY; without even the implied warranty of
   MERCHANTABILITY or FITNESS FOR A PARTICULAR PURPOSE.  See the
   GNU Lesser General Public License for more details.
   
   Cite this work as:
   * C. Bannwarth, E. Caldeweyher, S. Ehlert, A. Hansen, P. Pracht,
     J. Seibert, S. Spicher, S. Grimme, WIREs Comput. Mol. Sci., 2020, 11,
     e01493. DOI: 10.1002/wcms.1493
   
   for GFN2-xTB:
   * C. Bannwarth, S. Ehlert and S. Grimme., J. Chem. Theory Comput., 2019,
     15, 1652-1671. DOI: 10.1021/acs.jctc.8b01176
   for GFN1-xTB:
   * S. Grimme, C. Bannwarth, P. Shushkov, J. Chem. Theory Comput., 2017,
     13, 1989-2009. DOI: 10.1021/acs.jctc.7b00118
   for GFN0-xTB:
   * P. Pracht, E. Caldeweyher, S. Ehlert, S. Grimme, ChemRxiv, 2019, preprint.
     DOI: 10.26434/chemrxiv.8326202.v1
   for GFN-FF:
   * S. Spicher and S. Grimme, Angew. Chem. Int. Ed., 2020, 59, 15665-15673.
     DOI: 10.1002/anie.202004239
   
   for DFT-D4:
   * E. Caldeweyher, C. Bannwarth and S. Grimme, J. Chem. Phys., 2017,
     147, 034112. DOI: 10.1063/1.4993215
   * E. Caldeweyher, S. Ehlert, A. Hansen, H. Neugebauer, S. Spicher,
     C. Bannwarth and S. Grimme, J. Chem. Phys., 2019, 150, 154122.
     DOI: 10.1063/1.5090222
   * E. Caldeweyher, J.-M. Mewes, S. Ehlert and S. Grimme, Phys. Chem. Chem. Phys.
     2020, 22, 8499-8512. DOI: 10.1039/D0CP00502A
   
   for sTDA-xTB:
   * S. Grimme and C. Bannwarth, J. Chem. Phys., 2016, 145, 054103.
     DOI: 10.1063/1.4959605
   
   in the mass-spec context:
   * V. Asgeirsson, C. Bauer and S. Grimme, Chem. Sci., 2017, 8, 4879.
     DOI: 10.1039/c7sc00601b
   * J. Koopman and S. Grimme, ACS Omega 2019, 4, 12, 15120-15133.
     DOI: 10.1021/acsomega.9b02011
   
   for metadynamics refer to:
   * S. Grimme, J. Chem. Theory Comput., 2019, 155, 2847-2862
     DOI: 10.1021/acs.jctc.9b00143
   
   for SPH calculations refer to:
   * S. Spicher and S. Grimme, J. Chem. Theory Comput., 2021, 17, 1701-1714
     DOI: 10.1021/acs.jctc.0c01306
   
   with help from (in alphabetical order)
   P. Atkinson, C. Bannwarth, F. Bohle, G. Brandenburg, E. Caldeweyher
   M. Checinski, S. Dohm, S. Ehlert, S. Ehrlich, I. Gerasimov, J. Koopman
   C. Lavigne, S. Lehtola, F. März, M. Müller, F. Musil, H. Neugebauer
   J. Pisarek, C. Plett, P. Pracht, J. Seibert, P. Shushkov, S. Spicher
   M. Stahn, M. Steiner, T. Strunk, J. Stückrath, T. Rose, and J. Unsleber
   
 * started run on 2021/11/21 at 01:39:57.083     

           -------------------------------------------------
          |                Calculation Setup                |
           -------------------------------------------------

          program call               : /home/jeff/miniconda3/bin/xtb /home/jeff/chem/final-year-proejct/Co+2_4_2_outenergy/input_structure.xyz --gfn 2 --parallel 1 --etemp 300 --chrg 0 --uhf 0 -I det_control.in
          coordinate file            : /home/jeff/chem/final-year-proejct/Co+2_4_2_outenergy/input_structure.xyz
          omp threads                :                     1
          number of atoms            :                    76
          number of electrons        :                   256
          charge                     :                     0
          spin                       :                   0.0
          first test random number   :      0.83448337392201

   ID    Z sym.   atoms
    1   27 Co     1, 41
    2    6 C      2-9, 11-15, 17-21, 23, 24, 37-40, 42-49, 51-55, 57-61, 63,
                  64
    3    7 N      10, 16, 22, 25, 50, 56, 62, 65
    4    1 H      26-36, 66-76

           -------------------------------------------------
          |                 G F N 2 - x T B                 |
           -------------------------------------------------

        Reference                      10.1021/acs.jctc.8b01176
      * Hamiltonian:
        H0-scaling (s, p, d)           1.850000    2.230000    2.230000
        zeta-weighting                 0.500000
      * Dispersion:
        s8                             2.700000
        a1                             0.520000
        a2                             5.000000
        s9                             5.000000
      * Repulsion:
        kExp                           1.500000    1.000000
        rExp                           1.000000
      * Coulomb:
        alpha                          2.000000
        third order                    shell-resolved
        anisotropic                    true
        a3                             3.000000
        a5                             4.000000
        cn-shift                       1.200000
        cn-exp                         4.000000
        max-rad                        5.000000


          ...................................................
          :                      SETUP                      :
          :.................................................:
          :  # basis functions                 250          :
          :  # atomic orbitals                 248          :
          :  # shells                          132          :
          :  # electrons                       256          :
          :  max. iterations                   250          :
          :  Hamiltonian                  GFN2-xTB          :
          :  restarted?                      false          :
          :  GBSA solvation                  false          :
          :  PC potential                    false          :
          :  electronic temp.          300.0000000     K    :
          :  accuracy                    1.0000000          :
          :  -> integral cutoff          0.2500000E+02      :
          :  -> integral neglect         0.1000000E-07      :
          :  -> SCF convergence          0.1000000E-05 Eh   :
          :  -> wf. convergence          0.1000000E-03 e    :
          :  Broyden damping             0.4000000          :
          ...................................................

 iter      E             dE          RMSdq      gap      omega  full diag
   1   -138.0356350 -0.138036E+03  0.735E+00    0.42       0.0  T
   2   -131.2791980  0.675644E+01  0.897E+00    0.01       1.0  T
   3   -135.2132135 -0.393402E+01  0.597E+00    0.09       1.0  T
   4   -125.6233835  0.958983E+01  0.571E+00    0.13       1.0  T
   5   -121.4989179  0.412447E+01  0.960E+00    0.46       1.0  T
   6   -130.2547420 -0.875582E+01  0.510E+00    0.01       1.0  T
   7   -137.9919146 -0.773717E+01  0.322E+00    0.43       1.0  T
   8   -138.2753152 -0.283401E+00  0.234E+00    0.08       1.0  T
   9   -138.2793381 -0.402287E-02  0.227E+00    0.08       1.0  T
  10   -138.2642338  0.151043E-01  0.206E+00    0.05       1.0  T
  11   -138.2839403 -0.197065E-01  0.192E+00    0.05       1.0  T
  12   -138.2402828  0.436575E-01  0.201E+00    0.06       1.0  T
  13   -138.2094461  0.308368E-01  0.215E+00    0.05       1.0  T
  14   -138.1683520  0.410940E-01  0.210E+00    0.02       1.0  T
  15   -138.2657076 -0.973556E-01  0.173E+00    0.04       1.0  T
  16   -138.5599618 -0.294254E+00  0.922E-01    0.04       1.0  T
  17   -138.3460155  0.213946E+00  0.147E+00    0.04       1.0  T
  18   -138.3466183 -0.602766E-03  0.152E+00    0.05       1.0  T
  19   -138.5974666 -0.250848E+00  0.460E-01    0.00       1.0  T
  20   -138.5729949  0.244717E-01  0.592E-01    0.01       1.0  T
  21   -138.4227114  0.150284E+00  0.121E+00    0.05       1.0  T
  22   -138.4592332 -0.365218E-01  0.109E+00    0.05       1.0  T
  23   -138.4974536 -0.382204E-01  0.938E-01    0.05       1.0  T
  24   -138.5955041 -0.980504E-01  0.304E-01    0.02       1.0  T
  25   -138.6019303 -0.642620E-02  0.184E-01    0.01       1.0  T
  26   -138.5963696  0.556065E-02  0.273E-01    0.02       1.0  T
  27   -138.6053228 -0.895313E-02  0.635E-02    0.01       1.0  T
  28   -138.6051663  0.156466E-03  0.582E-02    0.01       1.0  T
  29   -138.6053207 -0.154425E-03  0.378E-02    0.01       1.0  T
  30   -138.6053739 -0.531725E-04  0.260E-02    0.00       1.0  T
  31   -138.6050705  0.303371E-03  0.541E-02    0.00       1.0  T
  32   -138.6053283 -0.257741E-03  0.309E-02    0.00       1.0  T
  33   -138.6046802  0.648065E-03  0.770E-02    0.00       1.0  T
  34   -138.6051868 -0.506555E-03  0.444E-02    0.00       1.0  T
  35   -138.6052785 -0.917731E-04  0.352E-02    0.00       1.0  T
  36   -138.6054030 -0.124461E-03  0.159E-02    0.00       1.0  T
  37   -138.6054323 -0.293393E-04  0.515E-03    0.00       2.2  T
  38   -138.6054354 -0.305779E-05  0.812E-04    0.00      14.1  T
  39   -138.6054346  0.753347E-06  0.265E-03    0.00       4.3  T
  40   -138.6054352 -0.581354E-06  0.143E-03    0.00       8.0  T
  41   -138.6054354 -0.175463E-06  0.607E-04    0.00      18.9  T
  42   -138.6054353  0.120524E-06  0.112E-03    0.00      10.3  T
  43   -138.6054354 -0.151523E-06  0.257E-04    0.00      44.7  T

   *** convergence criteria satisfied after 43 iterations ***

         #    Occupation            Energy/Eh            Energy/eV
      -------------------------------------------------------------
         1        2.0000           -0.6687024             -18.1963
       ...           ...                  ...                  ...
       122        1.9126           -0.3469482              -9.4409
       123        1.9008           -0.3468216              -9.4375
       124        1.8910           -0.3467267              -9.4349
       125        1.8739           -0.3465803              -9.4309
       126        1.8245           -0.3462404              -9.4217
       127        1.8165           -0.3461944              -9.4204
       128        1.4253           -0.3448792              -9.3846 (HOMO)
       129        1.3553           -0.3447221              -9.3804 (LUMO)
       130                         -0.3067839              -8.3480
       131                         -0.2959308              -8.0527
       132                         -0.2954799              -8.0404
       133                         -0.2918489              -7.9416
       ...                                ...                  ...
       248                          1.6349381              44.4889
      -------------------------------------------------------------
                  HL-Gap            0.0001571 Eh            0.0043 eV
             Fermi-level           -0.3440162 Eh           -9.3612 eV

 SCC (total)                   0 d,  0 h,  0 min,  0.592 sec
 SCC setup                      ...        0 min,  0.001 sec (  0.185%)
 Dispersion                     ...        0 min,  0.002 sec (  0.393%)
 classical contributions        ...        0 min,  0.000 sec (  0.072%)
 integral evaluation            ...        0 min,  0.025 sec (  4.173%)
 iterations                     ...        0 min,  0.484 sec ( 81.740%)
 molecular gradient             ...        0 min,  0.079 sec ( 13.274%)
 printout                       ...        0 min,  0.001 sec (  0.161%)

         :::::::::::::::::::::::::::::::::::::::::::::::::::::
         ::                     SUMMARY                     ::
         :::::::::::::::::::::::::::::::::::::::::::::::::::::
         :: total energy            -136.218090256278 Eh    ::
         :: gradient norm              0.000845704954 Eh/a0 ::
         :: HOMO-LUMO gap              0.004274290462 eV    ::
         ::.................................................::
         :: SCC energy              -138.605435419532 Eh    ::
         :: -> isotropic ES            0.032424379797 Eh    ::
         :: -> anisotropic ES          0.017741340923 Eh    ::
         :: -> anisotropic XC          0.073139480388 Eh    ::
         :: -> dispersion             -0.118472967093 Eh    ::
         :: repulsion energy           2.388557330302 Eh    ::
         :: add. restraining           0.000000000000 Eh    ::
         :: total charge               0.000000000050 e     ::
         :::::::::::::::::::::::::::::::::::::::::::::::::::::

           -------------------------------------------------
          |                Property Printout                |
           -------------------------------------------------

    * Orbital Energies and Occupations

         #    Occupation            Energy/Eh            Energy/eV
      -------------------------------------------------------------
         1        2.0000           -0.6687024             -18.1963
       ...           ...                  ...                  ...
       116        2.0000           -0.3981592             -10.8345
       117        2.0000           -0.3889247             -10.5832
       118        2.0000           -0.3706872             -10.0869
       119        2.0000           -0.3683847             -10.0243
       120        2.0000           -0.3680734             -10.0158
       121        2.0000           -0.3560834              -9.6895
       122        1.9126           -0.3469482              -9.4409
       123        1.9008           -0.3468216              -9.4375
       124        1.8910           -0.3467267              -9.4349
       125        1.8739           -0.3465803              -9.4309
       126        1.8245           -0.3462404              -9.4217
       127        1.8165           -0.3461944              -9.4204
       128        1.4253           -0.3448792              -9.3846 (HOMO)
       129        1.3553           -0.3447221              -9.3804 (LUMO)
       130                         -0.3067839              -8.3480
       131                         -0.2959308              -8.0527
       132                         -0.2954799              -8.0404
       133                         -0.2918489              -7.9416
       134                         -0.2628858              -7.1535
       135                         -0.2620004              -7.1294
       136                         -0.2581646              -7.0250
       137                         -0.2540089              -6.9119
       138                         -0.2260893              -6.1522
       139                         -0.2058616              -5.6018
       ...                                ...                  ...
       248                          1.6349381              44.4889
      -------------------------------------------------------------
                  HL-Gap            0.0001571 Eh            0.0043 eV
             Fermi-level           -0.3440162 Eh           -9.3612 eV

     #   Z          covCN         q      C6AA      α(0)
     1  27 Co       3.054     0.099   140.949    24.324
     2   6 C        3.025    -0.053    29.293     8.878
     3   6 C        3.022    -0.052    29.254     8.872
     4   6 C        3.195     0.073    25.881     8.294
     5   6 C        2.956     0.017    27.623     8.621
     6   6 C        3.195     0.073    25.883     8.295
     7   6 C        3.022    -0.052    29.254     8.872
     8   6 C        3.024    -0.053    29.295     8.878
     9   6 C        3.181     0.072    25.988     8.322
    10   7 N        2.630    -0.131    23.847     7.253
    11   6 C        2.905    -0.050    29.242     8.867
    12   6 C        3.177     0.073    25.983     8.323
    13   6 C        3.021    -0.052    29.274     8.875
    14   6 C        3.022    -0.052    29.276     8.875
    15   6 C        3.177     0.073    25.978     8.322
    16   7 N        2.631    -0.129    23.813     7.247
    17   6 C        2.905    -0.052    29.284     8.873
    18   6 C        3.177     0.073    25.976     8.322
    19   6 C        3.022    -0.052    29.276     8.875
    20   6 C        3.022    -0.052    29.274     8.875
    21   6 C        3.177     0.073    25.983     8.323
    22   7 N        2.631    -0.129    23.817     7.248
    23   6 C        2.905    -0.050    29.241     8.867
    24   6 C        3.181     0.072    25.987     8.322
    25   7 N        2.629    -0.131    23.852     7.253
    26   1 H        0.926     0.034     2.534     2.489
    27   1 H        0.926     0.036     2.504     2.475
    28   1 H        0.926     0.036     2.504     2.475
    29   1 H        0.926     0.034     2.533     2.489
    30   1 H        0.926     0.049     2.327     2.386
    31   1 H        0.926     0.034     2.526     2.486
    32   1 H        0.926     0.034     2.528     2.486
    33   1 H        0.926     0.049     2.335     2.390
    34   1 H        0.926     0.034     2.528     2.486
    35   1 H        0.926     0.034     2.527     2.486
    36   1 H        0.926     0.049     2.328     2.386
    37   6 C        1.993    -0.021    31.607     9.079
    38   6 C        1.963    -0.010    31.335     9.040
    39   6 C        1.963    -0.009    31.320     9.038
    40   6 C        1.992    -0.022    31.624     9.082
    41  27 Co       3.082     0.100   140.940    24.323
    42   6 C        3.024    -0.053    29.294     8.878
    43   6 C        3.021    -0.052    29.254     8.872
    44   6 C        3.191     0.072    25.914     8.303
    45   6 C        2.956     0.018    27.609     8.618
    46   6 C        3.191     0.072    25.913     8.303
    47   6 C        3.021    -0.051    29.251     8.872
    48   6 C        3.024    -0.053    29.294     8.878
    49   6 C        3.177     0.071    26.014     8.329
    50   7 N        2.637    -0.130    23.838     7.251
    51   6 C        2.904    -0.050    29.229     8.865
    52   6 C        3.173     0.073    26.010     8.330
    53   6 C        3.021    -0.052    29.274     8.875
    54   6 C        3.021    -0.052    29.276     8.875
    55   6 C        3.173     0.073    26.005     8.329
    56   7 N        2.639    -0.129    23.803     7.246
    57   6 C        2.904    -0.051    29.271     8.871
    58   6 C        3.173     0.073    26.005     8.329
    59   6 C        3.021    -0.052    29.276     8.875
    60   6 C        3.021    -0.052    29.274     8.875
    61   6 C        3.173     0.073    26.011     8.330
    62   7 N        2.639    -0.129    23.803     7.246
    63   6 C        2.904    -0.049    29.228     8.865
    64   6 C        3.177     0.071    26.016     8.329
    65   7 N        2.638    -0.130    23.834     7.251
    66   1 H        0.926     0.034     2.530     2.487
    67   1 H        0.926     0.036     2.503     2.474
    68   1 H        0.926     0.036     2.503     2.474
    69   1 H        0.926     0.034     2.531     2.488
    70   1 H        0.926     0.050     2.326     2.385
    71   1 H        0.926     0.034     2.524     2.485
    72   1 H        0.926     0.034     2.525     2.485
    73   1 H        0.926     0.049     2.333     2.389
    74   1 H        0.926     0.034     2.526     2.485
    75   1 H        0.926     0.034     2.524     2.485
    76   1 H        0.926     0.050     2.326     2.385

 Mol. C6AA /au·bohr⁶  :     109083.468182
 Mol. C8AA /au·bohr⁸  :    3160249.137595
 Mol. α(0) /au        :        542.485663


Wiberg/Mayer (AO) data.
largest (>0.10) Wiberg bond orders for each atom

 ---------------------------------------------------------------------------
     #   Z sym  total        # sym  WBO       # sym  WBO       # sym  WBO
 ---------------------------------------------------------------------------
     1  27 Co   3.330 --    16 N    0.724    22 N    0.723    10 N    0.722
                            25 N    0.721
     2   6 C    3.953 --     3 C    1.642    24 C    1.174    26 H    0.972
     3   6 C    3.957 --     2 C    1.642     4 C    1.183    27 H    0.970
     4   6 C    3.916 --    25 N    1.262     5 C    1.258     3 C    1.183
     5   6 C    3.947 --     6 C    1.258     4 C    1.258    37 C    1.177
     6   6 C    3.916 --    10 N    1.262     5 C    1.258     7 C    1.183
     7   6 C    3.957 --     8 C    1.642     6 C    1.183    28 H    0.970
     8   6 C    3.953 --     7 C    1.642     9 C    1.174    29 H    0.972
     9   6 C    3.929 --    11 C    1.359    10 N    1.228     8 C    1.174
    10   7 N    3.514 --     6 C    1.262     9 C    1.228     1 Co   0.722
    11   6 C    3.938 --     9 C    1.359    12 C    1.358    30 H    0.963
    12   6 C    3.934 --    11 C    1.358    16 N    1.239    13 C    1.166
    13   6 C    3.957 --    14 C    1.657    12 C    1.166    31 H    0.972
    14   6 C    3.955 --    13 C    1.657    15 C    1.165    32 H    0.972
    15   6 C    3.936 --    17 C    1.358    16 N    1.242    14 C    1.165
    16   7 N    3.510 --    15 C    1.242    12 C    1.239     1 Co   0.724
    17   6 C    3.935 --    15 C    1.358    18 C    1.358    33 H    0.964
    18   6 C    3.936 --    17 C    1.358    22 N    1.242    19 C    1.165
    19   6 C    3.955 --    20 C    1.657    18 C    1.165    34 H    0.972
    20   6 C    3.957 --    19 C    1.657    21 C    1.166    35 H    0.972
    21   6 C    3.934 --    23 C    1.358    22 N    1.239    20 C    1.166
    22   7 N    3.509 --    18 C    1.242    21 C    1.239     1 Co   0.723
    23   6 C    3.938 --    24 C    1.360    21 C    1.358    36 H    0.963
    24   6 C    3.929 --    23 C    1.360    25 N    1.228     2 C    1.174
    25   7 N    3.513 --     4 C    1.262    24 C    1.228     1 Co   0.721
    26   1 H    0.998 --     2 C    0.972
    27   1 H    0.998 --     3 C    0.970
    28   1 H    0.998 --     7 C    0.970
    29   1 H    0.998 --     8 C    0.972
    30   1 H    0.996 --    11 C    0.963
    31   1 H    0.998 --    13 C    0.972
    32   1 H    0.998 --    14 C    0.972
    33   1 H    0.996 --    17 C    0.964
    34   1 H    0.998 --    19 C    0.972
    35   1 H    0.998 --    20 C    0.972
    36   1 H    0.996 --    23 C    0.963
    37   6 C    3.920 --    38 C    2.479     5 C    1.177    40 C    0.204
    38   6 C    3.931 --    37 C    2.479    39 C    1.300
    39   6 C    3.930 --    40 C    2.478    38 C    1.300
    40   6 C    3.921 --    39 C    2.478    45 C    1.180    37 C    0.204
    41  27 Co   3.360 --    56 N    0.725    62 N    0.725    65 N    0.723
                            50 N    0.723
    42   6 C    3.953 --    43 C    1.641    64 C    1.174    66 H    0.972
    43   6 C    3.957 --    42 C    1.641    44 C    1.183    67 H    0.970
    44   6 C    3.917 --    65 N    1.262    45 C    1.255    43 C    1.183
    45   6 C    3.945 --    46 C    1.256    44 C    1.255    40 C    1.180
    46   6 C    3.917 --    50 N    1.262    45 C    1.256    47 C    1.183
    47   6 C    3.957 --    48 C    1.641    46 C    1.183    68 H    0.970
    48   6 C    3.953 --    47 C    1.641    49 C    1.174    69 H    0.972
    49   6 C    3.930 --    51 C    1.358    50 N    1.227    48 C    1.174
    50   7 N    3.514 --    46 C    1.262    49 C    1.227    41 Co   0.723
    51   6 C    3.937 --    49 C    1.358    52 C    1.357    70 H    0.963
    52   6 C    3.935 --    51 C    1.357    56 N    1.239    53 C    1.166
    53   6 C    3.957 --    54 C    1.657    52 C    1.166    71 H    0.972
    54   6 C    3.955 --    53 C    1.657    55 C    1.165    72 H    0.972
    55   6 C    3.937 --    57 C    1.356    56 N    1.241    54 C    1.165
    56   7 N    3.510 --    55 C    1.241    52 C    1.239    41 Co   0.725
    57   6 C    3.933 --    55 C    1.356    58 C    1.356    73 H    0.964
    58   6 C    3.937 --    57 C    1.356    62 N    1.241    59 C    1.165
    59   6 C    3.955 --    60 C    1.656    58 C    1.165    74 H    0.972
    60   6 C    3.957 --    59 C    1.656    61 C    1.166    75 H    0.972
    61   6 C    3.935 --    63 C    1.357    62 N    1.239    60 C    1.166
    62   7 N    3.510 --    58 C    1.241    61 C    1.239    41 Co   0.725
    63   6 C    3.937 --    64 C    1.358    61 C    1.357    76 H    0.963
    64   6 C    3.930 --    63 C    1.358    65 N    1.227    42 C    1.174
    65   7 N    3.514 --    44 C    1.262    64 C    1.227    41 Co   0.723
    66   1 H    0.998 --    42 C    0.972
    67   1 H    0.998 --    43 C    0.970
    68   1 H    0.998 --    47 C    0.970
    69   1 H    0.998 --    48 C    0.972
    70   1 H    0.996 --    51 C    0.963
    71   1 H    0.998 --    53 C    0.972
    72   1 H    0.998 --    54 C    0.972
    73   1 H    0.996 --    57 C    0.964
    74   1 H    0.998 --    59 C    0.972
    75   1 H    0.998 --    60 C    0.972
    76   1 H    0.996 --    63 C    0.963
 ---------------------------------------------------------------------------

Topologies differ in total number of bonds
Writing topology from bond orders to xtbtopo.mol

molecular dipole:
                 x           y           z       tot (Debye)
 q only:        0.059       0.005      -0.000
   full:        0.061       0.005      -0.005       0.157
molecular quadrupole (traceless):
                xx          xy          yy          xz          yz          zz
 q only:       17.758       0.260       3.501      -1.362       0.106     -21.260
  q+dip:       37.618       0.333      12.232      -3.531       0.271     -49.850
   full:       25.351       0.302       5.941      -2.215       0.163     -31.291


           -------------------------------------------------
          | TOTAL ENERGY             -136.218090256278 Eh   |
          | GRADIENT NORM               0.000845704954 Eh/α |
          | HOMO-LUMO GAP               0.004274290462 eV   |
           -------------------------------------------------

------------------------------------------------------------------------
 * finished run on 2021/11/21 at 01:39:57.707     
------------------------------------------------------------------------
 total:
 * wall-time:     0 d,  0 h,  0 min,  0.624 sec
 *  cpu-time:     0 d,  0 h,  0 min,  0.624 sec
 * ratio c/w:     1.000 speedup
 SCF:
 * wall-time:     0 d,  0 h,  0 min,  0.593 sec
 *  cpu-time:     0 d,  0 h,  0 min,  0.593 sec
 * ratio c/w:     1.000 speedup

