      -----------------------------------------------------------      
     |                   =====================                   |     
     |                           x T B                           |     
     |                   =====================                   |     
     |                         S. Grimme                         |     
     |          Mulliken Center for Theoretical Chemistry        |     
     |                    University of Bonn                     |     
      -----------------------------------------------------------      

   * xtb version 6.4.1 (bd6e46d) compiled by 'conda@4901f00b25ba' on 2021-06-10

   xtb is free software: you can redistribute it and/or modify it under
   the terms of the GNU Lesser General Public License as published by
   the Free Software Foundation, either version 3 of the License, or
   (at your option) any later version.
   
   xtb is distributed in the hope that it will be useful,
   but WITHOUT ANY WARRANTY; without even the implied warranty of
   MERCHANTABILITY or FITNESS FOR A PARTICULAR PURPOSE.  See the
   GNU Lesser General Public License for more details.
   
   Cite this work as:
   * C. Bannwarth, E. Caldeweyher, S. Ehlert, A. Hansen, P. Pracht,
     J. Seibert, S. Spicher, S. Grimme, WIREs Comput. Mol. Sci., 2020, 11,
     e01493. DOI: 10.1002/wcms.1493
   
   for GFN2-xTB:
   * C. Bannwarth, S. Ehlert and S. Grimme., J. Chem. Theory Comput., 2019,
     15, 1652-1671. DOI: 10.1021/acs.jctc.8b01176
   for GFN1-xTB:
   * S. Grimme, C. Bannwarth, P. Shushkov, J. Chem. Theory Comput., 2017,
     13, 1989-2009. DOI: 10.1021/acs.jctc.7b00118
   for GFN0-xTB:
   * P. Pracht, E. Caldeweyher, S. Ehlert, S. Grimme, ChemRxiv, 2019, preprint.
     DOI: 10.26434/chemrxiv.8326202.v1
   for GFN-FF:
   * S. Spicher and S. Grimme, Angew. Chem. Int. Ed., 2020, 59, 15665-15673.
     DOI: 10.1002/anie.202004239
   
   for DFT-D4:
   * E. Caldeweyher, C. Bannwarth and S. Grimme, J. Chem. Phys., 2017,
     147, 034112. DOI: 10.1063/1.4993215
   * E. Caldeweyher, S. Ehlert, A. Hansen, H. Neugebauer, S. Spicher,
     C. Bannwarth and S. Grimme, J. Chem. Phys., 2019, 150, 154122.
     DOI: 10.1063/1.5090222
   * E. Caldeweyher, J.-M. Mewes, S. Ehlert and S. Grimme, Phys. Chem. Chem. Phys.
     2020, 22, 8499-8512. DOI: 10.1039/D0CP00502A
   
   for sTDA-xTB:
   * S. Grimme and C. Bannwarth, J. Chem. Phys., 2016, 145, 054103.
     DOI: 10.1063/1.4959605
   
   in the mass-spec context:
   * V. Asgeirsson, C. Bauer and S. Grimme, Chem. Sci., 2017, 8, 4879.
     DOI: 10.1039/c7sc00601b
   * J. Koopman and S. Grimme, ACS Omega 2019, 4, 12, 15120-15133.
     DOI: 10.1021/acsomega.9b02011
   
   for metadynamics refer to:
   * S. Grimme, J. Chem. Theory Comput., 2019, 155, 2847-2862
     DOI: 10.1021/acs.jctc.9b00143
   
   for SPH calculations refer to:
   * S. Spicher and S. Grimme, J. Chem. Theory Comput., 2021, 17, 1701-1714
     DOI: 10.1021/acs.jctc.0c01306
   
   with help from (in alphabetical order)
   P. Atkinson, C. Bannwarth, F. Bohle, G. Brandenburg, E. Caldeweyher
   M. Checinski, S. Dohm, S. Ehlert, S. Ehrlich, I. Gerasimov, J. Koopman
   C. Lavigne, S. Lehtola, F. März, M. Müller, F. Musil, H. Neugebauer
   J. Pisarek, C. Plett, P. Pracht, J. Seibert, P. Shushkov, S. Spicher
   M. Stahn, M. Steiner, T. Strunk, J. Stückrath, T. Rose, and J. Unsleber
   
 * started run on 2021/11/21 at 19:25:39.283     

           -------------------------------------------------
          |                Calculation Setup                |
           -------------------------------------------------

          program call               : /home/jeff/miniconda3/bin/xtb /home/jeff/chem/final-year-proejct/Zn+2_2_9_outenergy/input_structure.xyz --gfn 2 --parallel 1 --etemp 300 --chrg 0 --uhf 0 -I det_control.in
          coordinate file            : /home/jeff/chem/final-year-proejct/Zn+2_2_9_outenergy/input_structure.xyz
          omp threads                :                     1
          number of atoms            :                   333
          number of electrons        :                  1074
          charge                     :                     0
          spin                       :                   0.0
          first test random number   :      0.98805157066917

   ID    Z sym.   atoms
    1   30 Zn     1, 37, 89, 124, 159, 194, 229, 264, 299
    2    6 C      2-9, 11-15, 17-21, 23, 24, 38-45, 47-51, 53-57, 59, 60,
                  73-88, 90-97, 99-103, 105-109, 111, 112, 125-132, 134-138,
                  140-144, 146, 147, 160-167, 169-173, 175-179, 181, 182,
                  195-202, 204-208, 210-214, 216, 217, 230-237, 239-243,
                  245-249, 251, 252, 265-272, 274-278, 280-284, 286, 287,
                  300-307, 309-313, 315-319, 321, 322
    3    7 N      10, 16, 22, 25, 46, 52, 58, 61, 98, 104, 110, 113, 133,
                  139, 145, 148, 168, 174, 180, 183, 203, 209, 215, 218, 238,
                  244, 250, 253, 273, 279, 285, 288, 308, 314, 320, 323
    4    1 H      26-36, 62-72, 114-123, 149-158, 184-193, 219-228, 254-263,
                  289-298, 324-333

           -------------------------------------------------
          |                 G F N 2 - x T B                 |
           -------------------------------------------------

        Reference                      10.1021/acs.jctc.8b01176
      * Hamiltonian:
        H0-scaling (s, p, d)           1.850000    2.230000    2.230000
        zeta-weighting                 0.500000
      * Dispersion:
        s8                             2.700000
        a1                             0.520000
        a2                             5.000000
        s9                             5.000000
      * Repulsion:
        kExp                           1.500000    1.000000
        rExp                           1.000000
      * Coulomb:
        alpha                          2.000000
        third order                    shell-resolved
        anisotropic                    true
        a3                             3.000000
        a5                             4.000000
        cn-shift                       1.200000
        cn-exp                         4.000000
        max-rad                        5.000000


          ...................................................
          :                      SETUP                      :
          :.................................................:
          :  # basis functions                1056          :
          :  # atomic orbitals                1056          :
          :  # shells                          574          :
          :  # electrons                      1074          :
          :  max. iterations                   250          :
          :  Hamiltonian                  GFN2-xTB          :
          :  restarted?                      false          :
          :  GBSA solvation                  false          :
          :  PC potential                    false          :
          :  electronic temp.          300.0000000     K    :
          :  accuracy                    1.0000000          :
          :  -> integral cutoff          0.2500000E+02      :
          :  -> integral neglect         0.1000000E-07      :
          :  -> SCF convergence          0.1000000E-05 Eh   :
          :  -> wf. convergence          0.1000000E-03 e    :
          :  Broyden damping             0.4000000          :
          ...................................................

 iter      E             dE          RMSdq      gap      omega  full diag
   1   -585.5014577 -0.585501E+03  0.629E+00    0.86       0.0  T
   2   -586.7302526 -0.122879E+01  0.324E+00    0.78       1.0  T
   3   -586.6945502  0.357024E-01  0.233E+00    0.89       1.0  T
   4   -587.7159089 -0.102136E+01  0.375E-01    0.81       1.0  T
   5   -587.7242567 -0.834783E-02  0.237E-01    0.84       1.0  T
   6   -587.7296891 -0.543239E-02  0.134E-01    0.84       1.0  T
   7   -587.7333469 -0.365773E-02  0.700E-02    0.83       1.0  T
   8   -587.7351648 -0.181789E-02  0.277E-02    0.83       1.0  T
   9   -587.7354608 -0.296002E-03  0.131E-02    0.83       1.0  T
  10   -587.7355148 -0.540239E-04  0.522E-03    0.83       1.0  T
  11   -587.7355235 -0.872947E-05  0.208E-03    0.83       2.6  T
  12   -587.7355247 -0.116421E-05  0.100E-03    0.83       5.5  T
  13   -587.7355247 -0.625603E-07  0.513E-04    0.83      10.7  T
  14   -587.7355248 -0.687266E-07  0.178E-04    0.83      30.7  T

   *** convergence criteria satisfied after 14 iterations ***

         #    Occupation            Energy/Eh            Energy/eV
      -------------------------------------------------------------
         1        2.0000           -0.6680601             -18.1788
       ...           ...                  ...                  ...
       531        2.0000           -0.3688578             -10.0371
       532        2.0000           -0.3655523              -9.9472
       533        2.0000           -0.3614637              -9.8359
       534        2.0000           -0.3573381              -9.7237
       535        2.0000           -0.3534704              -9.6184
       536        2.0000           -0.3501747              -9.5287
       537        2.0000           -0.3478694              -9.4660 (HOMO)
       538        0.0000           -0.3174310              -8.6377 (LUMO)
       539                         -0.3145732              -8.5600
       540                         -0.3109546              -8.4615
       541                         -0.3068240              -8.3491
       542                         -0.3024041              -8.2288
       ...                                ...                  ...
      1056                          1.4073783              38.2967
      -------------------------------------------------------------
                  HL-Gap            0.0304384 Eh            0.8283 eV
             Fermi-level           -0.3326321 Eh           -9.0514 eV

 SCC (total)                   0 d,  0 h,  0 min,  6.879 sec
 SCC setup                      ...        0 min,  0.019 sec (  0.280%)
 Dispersion                     ...        0 min,  0.039 sec (  0.573%)
 classical contributions        ...        0 min,  0.003 sec (  0.049%)
 integral evaluation            ...        0 min,  0.286 sec (  4.155%)
 iterations                     ...        0 min,  5.710 sec ( 83.013%)
 molecular gradient             ...        0 min,  0.768 sec ( 11.166%)
 printout                       ...        0 min,  0.053 sec (  0.764%)

         :::::::::::::::::::::::::::::::::::::::::::::::::::::
         ::                     SUMMARY                     ::
         :::::::::::::::::::::::::::::::::::::::::::::::::::::
         :: total energy            -577.354313135557 Eh    ::
         :: gradient norm              0.000315762021 Eh/a0 ::
         :: HOMO-LUMO gap              0.828270656284 eV    ::
         ::.................................................::
         :: SCC energy              -587.735524809823 Eh    ::
         :: -> isotropic ES            0.586020162836 Eh    ::
         :: -> anisotropic ES          0.082723713410 Eh    ::
         :: -> anisotropic XC          0.298414335735 Eh    ::
         :: -> dispersion             -0.572797867341 Eh    ::
         :: repulsion energy          10.392295490364 Eh    ::
         :: add. restraining           0.000000000000 Eh    ::
         :: total charge               0.000000000001 e     ::
         :::::::::::::::::::::::::::::::::::::::::::::::::::::

           -------------------------------------------------
          |                Property Printout                |
           -------------------------------------------------

    * Orbital Energies and Occupations

         #    Occupation            Energy/Eh            Energy/eV
      -------------------------------------------------------------
         1        2.0000           -0.6680601             -18.1788
       ...           ...                  ...                  ...
       525        2.0000           -0.3702112             -10.0740
       526        2.0000           -0.3702096             -10.0739
       527        2.0000           -0.3699692             -10.0674
       528        2.0000           -0.3699674             -10.0673
       529        2.0000           -0.3693118             -10.0495
       530        2.0000           -0.3688636             -10.0373
       531        2.0000           -0.3688578             -10.0371
       532        2.0000           -0.3655523              -9.9472
       533        2.0000           -0.3614637              -9.8359
       534        2.0000           -0.3573381              -9.7237
       535        2.0000           -0.3534704              -9.6184
       536        2.0000           -0.3501747              -9.5287
       537        2.0000           -0.3478694              -9.4660 (HOMO)
       538        0.0000           -0.3174310              -8.6377 (LUMO)
       539                         -0.3145732              -8.5600
       540                         -0.3109546              -8.4615
       541                         -0.3068240              -8.3491
       542                         -0.3024041              -8.2288
       543                         -0.2996333              -8.1534
       544                         -0.2996059              -8.1527
       545                         -0.2996035              -8.1526
       546                         -0.2994869              -8.1495
       547                         -0.2994854              -8.1494
       548                         -0.2992229              -8.1423
       ...                                ...                  ...
      1056                          1.4073783              38.2967
      -------------------------------------------------------------
                  HL-Gap            0.0304384 Eh            0.8283 eV
             Fermi-level           -0.3326321 Eh           -9.0514 eV

     #   Z          covCN         q      C6AA      α(0)
     1  30 Zn       3.042     0.244   122.302    21.603
     2   6 C        3.020    -0.052    29.269     8.874
     3   6 C        3.018    -0.050    29.230     8.869
     4   6 C        3.163     0.077    25.967     8.329
     5   6 C        2.953     0.018    27.602     8.617
     6   6 C        3.164     0.077    25.966     8.328
     7   6 C        3.018    -0.051    29.232     8.869
     8   6 C        3.020    -0.052    29.269     8.874
     9   6 C        3.148     0.076    26.053     8.350
    10   7 N        2.632    -0.176    24.826     7.400
    11   6 C        2.901    -0.050    29.241     8.866
    12   6 C        3.145     0.077    26.040     8.349
    13   6 C        3.017    -0.051    29.245     8.871
    14   6 C        3.018    -0.051    29.248     8.871
    15   6 C        3.145     0.077    26.029     8.347
    16   7 N        2.634    -0.175    24.790     7.395
    17   6 C        2.901    -0.052    29.283     8.873
    18   6 C        3.145     0.077    26.029     8.347
    19   6 C        3.018    -0.051    29.248     8.871
    20   6 C        3.017    -0.051    29.245     8.871
    21   6 C        3.145     0.077    26.039     8.349
    22   7 N        2.634    -0.175    24.790     7.395
    23   6 C        2.901    -0.050    29.241     8.866
    24   6 C        3.148     0.076    26.053     8.350
    25   7 N        2.632    -0.176    24.826     7.400
    26   1 H        0.926     0.034     2.533     2.489
    27   1 H        0.926     0.035     2.518     2.481
    28   1 H        0.926     0.035     2.516     2.481
    29   1 H        0.926     0.034     2.533     2.489
    30   1 H        0.926     0.049     2.330     2.387
    31   1 H        0.926     0.034     2.527     2.486
    32   1 H        0.926     0.034     2.528     2.486
    33   1 H        0.926     0.048     2.339     2.391
    34   1 H        0.926     0.034     2.528     2.486
    35   1 H        0.926     0.034     2.527     2.486
    36   1 H        0.926     0.049     2.330     2.387
    37  30 Zn       3.042     0.244   122.302    21.603
    38   6 C        3.020    -0.052    29.269     8.874
    39   6 C        3.018    -0.051    29.232     8.869
    40   6 C        3.164     0.077    25.966     8.328
    41   6 C        2.953     0.018    27.602     8.617
    42   6 C        3.164     0.077    25.967     8.328
    43   6 C        3.018    -0.051    29.231     8.869
    44   6 C        3.020    -0.052    29.269     8.874
    45   6 C        3.148     0.076    26.053     8.350
    46   7 N        2.632    -0.176    24.827     7.400
    47   6 C        2.901    -0.050    29.241     8.866
    48   6 C        3.145     0.077    26.040     8.349
    49   6 C        3.017    -0.051    29.245     8.871
    50   6 C        3.018    -0.051    29.248     8.871
    51   6 C        3.145     0.077    26.029     8.347
    52   7 N        2.635    -0.175    24.789     7.395
    53   6 C        2.901    -0.052    29.283     8.873
    54   6 C        3.145     0.077    26.029     8.347
    55   6 C        3.018    -0.051    29.248     8.871
    56   6 C        3.017    -0.051    29.245     8.871
    57   6 C        3.145     0.077    26.039     8.349
    58   7 N        2.634    -0.175    24.790     7.395
    59   6 C        2.901    -0.050    29.241     8.866
    60   6 C        3.148     0.076    26.053     8.350
    61   7 N        2.632    -0.176    24.826     7.400
    62   1 H        0.926     0.034     2.533     2.489
    63   1 H        0.926     0.035     2.517     2.481
    64   1 H        0.926     0.035     2.517     2.481
    65   1 H        0.926     0.034     2.533     2.489
    66   1 H        0.926     0.049     2.330     2.387
    67   1 H        0.926     0.034     2.527     2.486
    68   1 H        0.926     0.034     2.528     2.486
    69   1 H        0.926     0.048     2.339     2.391
    70   1 H        0.926     0.034     2.528     2.486
    71   1 H        0.926     0.034     2.527     2.486
    72   1 H        0.926     0.049     2.330     2.387
    73   6 C        1.994    -0.028    31.801     9.107
    74   6 C        1.993    -0.029    31.822     9.110
    75   6 C        1.993    -0.029    31.805     9.108
    76   6 C        1.993    -0.029    31.814     9.109
    77   6 C        1.993    -0.029    31.807     9.108
    78   6 C        1.993    -0.029    31.811     9.108
    79   6 C        1.993    -0.029    31.808     9.108
    80   6 C        1.993    -0.029    31.809     9.108
    81   6 C        1.993    -0.029    31.809     9.108
    82   6 C        1.993    -0.029    31.808     9.108
    83   6 C        1.993    -0.029    31.811     9.108
    84   6 C        1.993    -0.029    31.807     9.108
    85   6 C        1.993    -0.029    31.814     9.109
    86   6 C        1.993    -0.029    31.805     9.108
    87   6 C        1.993    -0.029    31.822     9.110
    88   6 C        1.994    -0.028    31.801     9.107
    89  30 Zn       3.039     0.246   122.281    21.601
    90   6 C        3.020    -0.052    29.265     8.874
    91   6 C        3.019    -0.050    29.229     8.868
    92   6 C        3.165     0.077    25.957     8.326
    93   6 C        2.953     0.019    27.593     8.616
    94   6 C        3.165     0.077    25.958     8.326
    95   6 C        3.019    -0.051    29.230     8.868
    96   6 C        3.020    -0.052    29.265     8.874
    97   6 C        3.150     0.075    26.057     8.350
    98   7 N        2.633    -0.176    24.825     7.400
    99   6 C        2.901    -0.048    29.194     8.859
   100   6 C        3.150     0.075    26.059     8.350
   101   6 C        3.020    -0.052    29.265     8.874
   102   6 C        3.019    -0.051    29.232     8.869
   103   6 C        3.164     0.077    25.959     8.327
   104   7 N        2.633    -0.176    24.826     7.400
   105   6 C        2.953     0.018    27.602     8.617
   106   6 C        3.164     0.077    25.958     8.327
   107   6 C        3.019    -0.051    29.234     8.869
   108   6 C        3.020    -0.052    29.265     8.874
   109   6 C        3.150     0.075    26.059     8.350
   110   7 N        2.632    -0.176    24.827     7.400
   111   6 C        2.901    -0.048    29.193     8.859
   112   6 C        3.150     0.075    26.056     8.349
   113   7 N        2.633    -0.176    24.825     7.400
   114   1 H        0.926     0.034     2.530     2.487
   115   1 H        0.926     0.035     2.515     2.480
   116   1 H        0.926     0.035     2.513     2.479
   117   1 H        0.926     0.034     2.530     2.488
   118   1 H        0.925     0.050     2.321     2.382
   119   1 H        0.926     0.034     2.531     2.488
   120   1 H        0.926     0.035     2.517     2.481
   121   1 H        0.926     0.035     2.516     2.480
   122   1 H        0.926     0.034     2.531     2.488
   123   1 H        0.925     0.050     2.321     2.382
   124  30 Zn       3.040     0.246   122.280    21.601
   125   6 C        3.020    -0.052    29.265     8.874
   126   6 C        3.019    -0.051    29.233     8.869
   127   6 C        3.164     0.077    25.958     8.327
   128   6 C        2.953     0.019    27.595     8.616
   129   6 C        3.164     0.077    25.958     8.327
   130   6 C        3.019    -0.051    29.230     8.868
   131   6 C        3.020    -0.052    29.265     8.874
   132   6 C        3.150     0.075    26.059     8.350
   133   7 N        2.633    -0.176    24.825     7.400
   134   6 C        2.901    -0.048    29.189     8.859
   135   6 C        3.150     0.075    26.060     8.350
   136   6 C        3.020    -0.052    29.265     8.874
   137   6 C        3.020    -0.051    29.233     8.869
   138   6 C        3.164     0.077    25.960     8.327
   139   7 N        2.633    -0.176    24.825     7.400
   140   6 C        2.953     0.018    27.598     8.617
   141   6 C        3.164     0.077    25.960     8.327
   142   6 C        3.020    -0.051    29.233     8.869
   143   6 C        3.020    -0.052    29.265     8.874
   144   6 C        3.150     0.075    26.060     8.350
   145   7 N        2.633    -0.176    24.825     7.400
   146   6 C        2.901    -0.048    29.189     8.859
   147   6 C        3.150     0.075    26.059     8.350
   148   7 N        2.633    -0.176    24.825     7.400
   149   1 H        0.926     0.034     2.530     2.487
   150   1 H        0.926     0.035     2.514     2.480
   151   1 H        0.926     0.035     2.516     2.481
   152   1 H        0.926     0.034     2.530     2.487
   153   1 H        0.925     0.050     2.320     2.382
   154   1 H        0.926     0.034     2.530     2.487
   155   1 H        0.926     0.035     2.516     2.481
   156   1 H        0.926     0.035     2.516     2.481
   157   1 H        0.926     0.034     2.530     2.487
   158   1 H        0.925     0.050     2.320     2.382
   159  30 Zn       3.040     0.246   122.279    21.601
   160   6 C        3.020    -0.052    29.265     8.874
   161   6 C        3.020    -0.051    29.232     8.869
   162   6 C        3.164     0.077    25.960     8.327
   163   6 C        2.953     0.019    27.595     8.616
   164   6 C        3.164     0.077    25.960     8.327
   165   6 C        3.020    -0.051    29.232     8.869
   166   6 C        3.020    -0.052    29.265     8.874
   167   6 C        3.150     0.075    26.059     8.350
   168   7 N        2.633    -0.176    24.825     7.400
   169   6 C        2.901    -0.048    29.188     8.858
   170   6 C        3.150     0.075    26.060     8.350
   171   6 C        3.020    -0.052    29.266     8.874
   172   6 C        3.020    -0.051    29.233     8.869
   173   6 C        3.163     0.077    25.961     8.328
   174   7 N        2.633    -0.176    24.825     7.400
   175   6 C        2.953     0.018    27.596     8.616
   176   6 C        3.163     0.077    25.960     8.328
   177   6 C        3.020    -0.051    29.232     8.869
   178   6 C        3.020    -0.052    29.265     8.874
   179   6 C        3.150     0.075    26.060     8.350
   180   7 N        2.633    -0.176    24.825     7.400
   181   6 C        2.901    -0.048    29.188     8.858
   182   6 C        3.150     0.075    26.059     8.350
   183   7 N        2.633    -0.176    24.825     7.400
   184   1 H        0.926     0.034     2.530     2.487
   185   1 H        0.926     0.035     2.516     2.480
   186   1 H        0.926     0.035     2.516     2.480
   187   1 H        0.926     0.034     2.530     2.487
   188   1 H        0.925     0.050     2.319     2.381
   189   1 H        0.926     0.034     2.530     2.487
   190   1 H        0.926     0.035     2.515     2.480
   191   1 H        0.926     0.035     2.517     2.481
   192   1 H        0.926     0.034     2.530     2.487
   193   1 H        0.925     0.050     2.319     2.381
   194  30 Zn       3.041     0.246   122.278    21.601
   195   6 C        3.020    -0.052    29.265     8.874
   196   6 C        3.020    -0.051    29.231     8.869
   197   6 C        3.163     0.077    25.961     8.328
   198   6 C        2.953     0.018    27.595     8.616
   199   6 C        3.163     0.077    25.960     8.328
   200   6 C        3.020    -0.051    29.233     8.869
   201   6 C        3.020    -0.052    29.266     8.874
   202   6 C        3.150     0.075    26.060     8.350
   203   7 N        2.633    -0.176    24.825     7.400
   204   6 C        2.901    -0.048    29.187     8.858
   205   6 C        3.150     0.075    26.060     8.350
   206   6 C        3.020    -0.052    29.266     8.874
   207   6 C        3.020    -0.051    29.232     8.869
   208   6 C        3.163     0.077    25.961     8.328
   209   7 N        2.633    -0.176    24.824     7.400
   210   6 C        2.953     0.018    27.595     8.616
   211   6 C        3.163     0.077    25.961     8.328
   212   6 C        3.020    -0.051    29.232     8.869
   213   6 C        3.020    -0.052    29.266     8.874
   214   6 C        3.150     0.075    26.060     8.350
   215   7 N        2.633    -0.176    24.825     7.400
   216   6 C        2.901    -0.048    29.187     8.858
   217   6 C        3.150     0.075    26.060     8.350
   218   7 N        2.633    -0.176    24.825     7.400
   219   1 H        0.926     0.034     2.530     2.487
   220   1 H        0.926     0.035     2.517     2.481
   221   1 H        0.926     0.035     2.515     2.480
   222   1 H        0.926     0.034     2.530     2.487
   223   1 H        0.925     0.050     2.319     2.381
   224   1 H        0.926     0.034     2.530     2.487
   225   1 H        0.926     0.035     2.516     2.481
   226   1 H        0.926     0.035     2.516     2.480
   227   1 H        0.926     0.034     2.530     2.487
   228   1 H        0.925     0.050     2.319     2.381
   229  30 Zn       3.040     0.246   122.278    21.601
   230   6 C        3.020    -0.052    29.266     8.874
   231   6 C        3.020    -0.051    29.233     8.869
   232   6 C        3.163     0.077    25.960     8.328
   233   6 C        2.953     0.018    27.596     8.616
   234   6 C        3.163     0.077    25.961     8.328
   235   6 C        3.020    -0.051    29.232     8.869
   236   6 C        3.020    -0.052    29.266     8.874
   237   6 C        3.150     0.075    26.060     8.350
   238   7 N        2.633    -0.176    24.825     7.400
   239   6 C        2.901    -0.048    29.188     8.858
   240   6 C        3.150     0.075    26.060     8.350
   241   6 C        3.020    -0.052    29.265     8.874
   242   6 C        3.020    -0.051    29.231     8.869
   243   6 C        3.163     0.077    25.960     8.328
   244   7 N        2.633    -0.176    24.825     7.400
   245   6 C        2.953     0.019    27.595     8.616
   246   6 C        3.164     0.077    25.960     8.327
   247   6 C        3.020    -0.051    29.233     8.869
   248   6 C        3.020    -0.052    29.266     8.874
   249   6 C        3.150     0.075    26.059     8.350
   250   7 N        2.633    -0.176    24.825     7.400
   251   6 C        2.901    -0.048    29.187     8.858
   252   6 C        3.150     0.075    26.060     8.350
   253   7 N        2.633    -0.176    24.825     7.400
   254   1 H        0.926     0.034     2.530     2.487
   255   1 H        0.926     0.035     2.516     2.480
   256   1 H        0.926     0.035     2.517     2.481
   257   1 H        0.926     0.034     2.530     2.487
   258   1 H        0.925     0.050     2.319     2.381
   259   1 H        0.926     0.034     2.530     2.487
   260   1 H        0.926     0.035     2.516     2.481
   261   1 H        0.926     0.035     2.515     2.480
   262   1 H        0.926     0.034     2.530     2.487
   263   1 H        0.925     0.050     2.319     2.381
   264  30 Zn       3.040     0.246   122.279    21.601
   265   6 C        3.020    -0.052    29.265     8.874
   266   6 C        3.020    -0.051    29.234     8.869
   267   6 C        3.163     0.077    25.960     8.327
   268   6 C        2.953     0.018    27.598     8.617
   269   6 C        3.163     0.077    25.960     8.327
   270   6 C        3.020    -0.051    29.232     8.869
   271   6 C        3.020    -0.052    29.266     8.874
   272   6 C        3.150     0.075    26.060     8.350
   273   7 N        2.633    -0.176    24.826     7.400
   274   6 C        2.901    -0.048    29.189     8.859
   275   6 C        3.150     0.075    26.059     8.350
   276   6 C        3.020    -0.052    29.265     8.874
   277   6 C        3.019    -0.051    29.231     8.869
   278   6 C        3.164     0.077    25.958     8.327
   279   7 N        2.633    -0.176    24.825     7.400
   280   6 C        2.953     0.019    27.595     8.616
   281   6 C        3.164     0.077    25.958     8.327
   282   6 C        3.019    -0.051    29.231     8.869
   283   6 C        3.020    -0.052    29.265     8.874
   284   6 C        3.150     0.075    26.058     8.350
   285   7 N        2.633    -0.176    24.825     7.400
   286   6 C        2.901    -0.048    29.189     8.858
   287   6 C        3.150     0.075    26.060     8.350
   288   7 N        2.633    -0.176    24.825     7.400
   289   1 H        0.926     0.034     2.530     2.487
   290   1 H        0.926     0.035     2.516     2.480
   291   1 H        0.926     0.035     2.517     2.481
   292   1 H        0.926     0.034     2.530     2.487
   293   1 H        0.925     0.050     2.320     2.382
   294   1 H        0.926     0.034     2.530     2.487
   295   1 H        0.926     0.035     2.515     2.480
   296   1 H        0.926     0.035     2.516     2.480
   297   1 H        0.926     0.034     2.530     2.487
   298   1 H        0.925     0.050     2.320     2.382
   299  30 Zn       3.039     0.246   122.281    21.601
   300   6 C        3.020    -0.052    29.265     8.874
   301   6 C        3.019    -0.051    29.233     8.869
   302   6 C        3.164     0.077    25.959     8.327
   303   6 C        2.953     0.018    27.602     8.617
   304   6 C        3.164     0.077    25.958     8.327
   305   6 C        3.019    -0.051    29.233     8.869
   306   6 C        3.020    -0.052    29.265     8.874
   307   6 C        3.150     0.075    26.059     8.350
   308   7 N        2.633    -0.176    24.826     7.400
   309   6 C        2.901    -0.048    29.193     8.859
   310   6 C        3.150     0.075    26.057     8.349
   311   6 C        3.020    -0.052    29.265     8.874
   312   6 C        3.019    -0.051    29.230     8.869
   313   6 C        3.165     0.077    25.957     8.326
   314   7 N        2.632    -0.176    24.825     7.400
   315   6 C        2.953     0.019    27.593     8.616
   316   6 C        3.165     0.077    25.957     8.326
   317   6 C        3.019    -0.050    29.228     8.868
   318   6 C        3.020    -0.052    29.265     8.874
   319   6 C        3.150     0.075    26.057     8.349
   320   7 N        2.632    -0.176    24.826     7.400
   321   6 C        2.901    -0.048    29.194     8.859
   322   6 C        3.150     0.075    26.059     8.350
   323   7 N        2.633    -0.176    24.826     7.400
   324   1 H        0.926     0.034     2.531     2.488
   325   1 H        0.926     0.035     2.517     2.481
   326   1 H        0.926     0.035     2.516     2.481
   327   1 H        0.926     0.034     2.531     2.488
   328   1 H        0.925     0.050     2.321     2.382
   329   1 H        0.926     0.034     2.530     2.487
   330   1 H        0.926     0.035     2.513     2.479
   331   1 H        0.926     0.035     2.514     2.479
   332   1 H        0.926     0.034     2.530     2.488
   333   1 H        0.925     0.050     2.321     2.382

 Mol. C6AA /au·bohr⁶  :    2131793.427480
 Mol. C8AA /au·bohr⁸  :   60741516.760172
 Mol. α(0) /au        :       2387.334968


Wiberg/Mayer (AO) data.
largest (>0.10) Wiberg bond orders for each atom

 ---------------------------------------------------------------------------
     #   Z sym  total        # sym  WBO       # sym  WBO       # sym  WBO
 ---------------------------------------------------------------------------
     1  30 Zn   2.081 --    22 N    0.492    16 N    0.492    25 N    0.489
                            10 N    0.489
     2   6 C    3.954 --     3 C    1.651    24 C    1.171    26 H    0.972
     3   6 C    3.958 --     2 C    1.651     4 C    1.178    27 H    0.969
     4   6 C    3.918 --    25 N    1.284     5 C    1.259     3 C    1.178
     5   6 C    3.941 --     4 C    1.259     6 C    1.258    73 C    1.168
     6   6 C    3.918 --    10 N    1.284     5 C    1.258     7 C    1.178
     7   6 C    3.958 --     8 C    1.651     6 C    1.178    28 H    0.969
     8   6 C    3.954 --     7 C    1.651     9 C    1.171    29 H    0.972
     9   6 C    3.925 --    11 C    1.357    10 N    1.248     8 C    1.171
    10   7 N    3.467 --     6 C    1.284     9 C    1.248     1 Zn   0.489
    11   6 C    3.932 --     9 C    1.357    12 C    1.355    30 H    0.964
    12   6 C    3.930 --    11 C    1.355    16 N    1.261    13 C    1.163
    13   6 C    3.957 --    14 C    1.666    12 C    1.163    31 H    0.972
    14   6 C    3.955 --    13 C    1.666    15 C    1.162    32 H    0.972
    15   6 C    3.932 --    17 C    1.354    16 N    1.263    14 C    1.162
    16   7 N    3.465 --    15 C    1.263    12 C    1.261     1 Zn   0.492
    17   6 C    3.927 --    18 C    1.354    15 C    1.354    33 H    0.964
    18   6 C    3.932 --    17 C    1.354    22 N    1.263    19 C    1.162
    19   6 C    3.955 --    20 C    1.666    18 C    1.162    34 H    0.972
    20   6 C    3.957 --    19 C    1.666    21 C    1.163    35 H    0.972
    21   6 C    3.930 --    23 C    1.355    22 N    1.261    20 C    1.163
    22   7 N    3.465 --    18 C    1.263    21 C    1.261     1 Zn   0.492
    23   6 C    3.932 --    24 C    1.357    21 C    1.355    36 H    0.964
    24   6 C    3.925 --    23 C    1.357    25 N    1.248     2 C    1.171
    25   7 N    3.467 --     4 C    1.284    24 C    1.248     1 Zn   0.489
    26   1 H    0.998 --     2 C    0.972
    27   1 H    0.998 --     3 C    0.969
    28   1 H    0.998 --     7 C    0.969
    29   1 H    0.998 --     8 C    0.972
    30   1 H    0.996 --    11 C    0.964
    31   1 H    0.998 --    13 C    0.972
    32   1 H    0.998 --    14 C    0.972
    33   1 H    0.996 --    17 C    0.964
    34   1 H    0.998 --    19 C    0.972
    35   1 H    0.998 --    20 C    0.972
    36   1 H    0.996 --    23 C    0.964
    37  30 Zn   2.081 --    52 N    0.492    58 N    0.492    61 N    0.489
                            46 N    0.489
    38   6 C    3.954 --    39 C    1.651    60 C    1.171    62 H    0.972
    39   6 C    3.958 --    38 C    1.651    40 C    1.178    63 H    0.969
    40   6 C    3.918 --    61 N    1.284    41 C    1.259    39 C    1.178
    41   6 C    3.941 --    42 C    1.259    40 C    1.259    88 C    1.168
    42   6 C    3.918 --    46 N    1.284    41 C    1.259    43 C    1.178
    43   6 C    3.958 --    44 C    1.651    42 C    1.178    64 H    0.969
    44   6 C    3.954 --    43 C    1.651    45 C    1.171    65 H    0.972
    45   6 C    3.925 --    47 C    1.357    46 N    1.248    44 C    1.171
    46   7 N    3.467 --    42 C    1.284    45 C    1.248    37 Zn   0.489
    47   6 C    3.932 --    45 C    1.357    48 C    1.355    66 H    0.964
    48   6 C    3.930 --    47 C    1.355    52 N    1.261    49 C    1.163
    49   6 C    3.957 --    50 C    1.666    48 C    1.163    67 H    0.972
    50   6 C    3.955 --    49 C    1.666    51 C    1.162    68 H    0.972
    51   6 C    3.932 --    53 C    1.354    52 N    1.263    50 C    1.162
    52   7 N    3.465 --    51 C    1.263    48 C    1.261    37 Zn   0.492
    53   6 C    3.927 --    54 C    1.354    51 C    1.354    69 H    0.964
    54   6 C    3.932 --    53 C    1.354    58 N    1.263    55 C    1.162
    55   6 C    3.955 --    56 C    1.666    54 C    1.162    70 H    0.972
    56   6 C    3.957 --    55 C    1.666    57 C    1.163    71 H    0.972
    57   6 C    3.930 --    59 C    1.355    58 N    1.261    56 C    1.163
    58   7 N    3.465 --    54 C    1.263    57 C    1.261    37 Zn   0.492
    59   6 C    3.932 --    60 C    1.357    57 C    1.355    72 H    0.964
    60   6 C    3.925 --    59 C    1.357    61 N    1.248    38 C    1.171
    61   7 N    3.467 --    40 C    1.284    60 C    1.248    37 Zn   0.489
    62   1 H    0.998 --    38 C    0.972
    63   1 H    0.998 --    39 C    0.969
    64   1 H    0.998 --    43 C    0.969
    65   1 H    0.998 --    44 C    0.972
    66   1 H    0.996 --    47 C    0.964
    67   1 H    0.998 --    49 C    0.972
    68   1 H    0.998 --    50 C    0.972
    69   1 H    0.996 --    53 C    0.964
    70   1 H    0.998 --    55 C    0.972
    71   1 H    0.998 --    56 C    0.972
    72   1 H    0.996 --    59 C    0.964
    73   6 C    3.923 --    74 C    2.579     5 C    1.168
    74   6 C    3.926 --    73 C    2.579    93 C    1.169
    75   6 C    3.923 --    76 C    2.574   105 C    1.172
    76   6 C    3.924 --    75 C    2.574   128 C    1.173
    77   6 C    3.924 --    78 C    2.573   140 C    1.174
    78   6 C    3.924 --    77 C    2.573   163 C    1.174
    79   6 C    3.924 --    80 C    2.572   175 C    1.175
    80   6 C    3.924 --    79 C    2.572   198 C    1.175
    81   6 C    3.924 --    82 C    2.572   210 C    1.175
    82   6 C    3.924 --    81 C    2.572   233 C    1.175
    83   6 C    3.924 --    84 C    2.573   245 C    1.174
    84   6 C    3.924 --    83 C    2.573   268 C    1.174
    85   6 C    3.924 --    86 C    2.574   280 C    1.173
    86   6 C    3.923 --    85 C    2.574   303 C    1.172
    87   6 C    3.926 --    88 C    2.579   315 C    1.169
    88   6 C    3.923 --    87 C    2.579    41 C    1.168
    89  30 Zn   2.077 --    98 N    0.489   113 N    0.489   104 N    0.489
                           110 N    0.489
    90   6 C    3.954 --    91 C    1.649   112 C    1.172   114 H    0.972
    91   6 C    3.956 --    90 C    1.649    92 C    1.180   115 H    0.969
    92   6 C    3.918 --   113 N    1.285    93 C    1.257    91 C    1.180
    93   6 C    3.930 --    92 C    1.257    94 C    1.257    74 C    1.169
    94   6 C    3.918 --    98 N    1.285    93 C    1.257    95 C    1.180
    95   6 C    3.956 --    96 C    1.649    94 C    1.180   116 H    0.969
    96   6 C    3.954 --    95 C    1.649    97 C    1.172   117 H    0.972
    97   6 C    3.924 --    99 C    1.355    98 N    1.247    96 C    1.172
    98   7 N    3.461 --    94 C    1.285    97 C    1.247    89 Zn   0.489
    99   6 C    3.926 --   100 C    1.357    97 C    1.355   118 H    0.964
   100   6 C    3.924 --    99 C    1.357   104 N    1.246   101 C    1.172
   101   6 C    3.954 --   102 C    1.649   100 C    1.172   119 H    0.972
   102   6 C    3.956 --   101 C    1.649   103 C    1.180   120 H    0.968
   103   6 C    3.917 --   104 N    1.286   105 C    1.255   102 C    1.180
   104   7 N    3.461 --   103 C    1.286   100 C    1.246    89 Zn   0.489
   105   6 C    3.931 --   103 C    1.255   106 C    1.255    75 C    1.172
   106   6 C    3.917 --   110 N    1.286   105 C    1.255   107 C    1.180
   107   6 C    3.956 --   108 C    1.649   106 C    1.180   121 H    0.968
   108   6 C    3.954 --   107 C    1.649   109 C    1.172   122 H    0.972
   109   6 C    3.924 --   111 C    1.357   110 N    1.246   108 C    1.172
   110   7 N    3.461 --   106 C    1.286   109 C    1.246    89 Zn   0.489
   111   6 C    3.926 --   109 C    1.357   112 C    1.355   123 H    0.964
   112   6 C    3.924 --   111 C    1.355   113 N    1.247    90 C    1.172
   113   7 N    3.461 --    92 C    1.285   112 C    1.247    89 Zn   0.489
   114   1 H    0.998 --    90 C    0.972
   115   1 H    0.998 --    91 C    0.969
   116   1 H    0.998 --    95 C    0.969
   117   1 H    0.998 --    96 C    0.972
   118   1 H    0.996 --    99 C    0.964
   119   1 H    0.998 --   101 C    0.972
   120   1 H    0.998 --   102 C    0.968
   121   1 H    0.998 --   107 C    0.968
   122   1 H    0.998 --   108 C    0.972
   123   1 H    0.996 --   111 C    0.964
   124  30 Zn   2.077 --   145 N    0.489   133 N    0.489   139 N    0.489
                           148 N    0.489
   125   6 C    3.954 --   126 C    1.649   147 C    1.173   149 H    0.972
   126   6 C    3.956 --   125 C    1.649   127 C    1.180   150 H    0.968
   127   6 C    3.917 --   148 N    1.286   128 C    1.255   126 C    1.180
   128   6 C    3.930 --   129 C    1.255   127 C    1.255    76 C    1.173
   129   6 C    3.917 --   133 N    1.286   128 C    1.255   130 C    1.180
   130   6 C    3.956 --   131 C    1.649   129 C    1.180   151 H    0.968
   131   6 C    3.954 --   130 C    1.649   132 C    1.173   152 H    0.972
   132   6 C    3.923 --   134 C    1.356   133 N    1.246   131 C    1.173
   133   7 N    3.461 --   129 C    1.286   132 C    1.246   124 Zn   0.489
   134   6 C    3.925 --   135 C    1.356   132 C    1.356   153 H    0.964
   135   6 C    3.924 --   134 C    1.356   139 N    1.246   136 C    1.173
   136   6 C    3.954 --   137 C    1.649   135 C    1.173   154 H    0.972
   137   6 C    3.956 --   136 C    1.649   138 C    1.180   155 H    0.968
   138   6 C    3.917 --   139 N    1.286   140 C    1.254   137 C    1.180
   139   7 N    3.461 --   138 C    1.286   135 C    1.246   124 Zn   0.489
   140   6 C    3.930 --   138 C    1.254   141 C    1.254    77 C    1.174
   141   6 C    3.917 --   145 N    1.286   140 C    1.254   142 C    1.180
   142   6 C    3.956 --   143 C    1.649   141 C    1.180   156 H    0.968
   143   6 C    3.954 --   142 C    1.649   144 C    1.173   157 H    0.972
   144   6 C    3.924 --   146 C    1.356   145 N    1.246   143 C    1.173
   145   7 N    3.461 --   141 C    1.286   144 C    1.246   124 Zn   0.489
   146   6 C    3.925 --   144 C    1.356   147 C    1.356   158 H    0.964
   147   6 C    3.923 --   146 C    1.356   148 N    1.246   125 C    1.173
   148   7 N    3.461 --   127 C    1.286   147 C    1.246   124 Zn   0.489
   149   1 H    0.998 --   125 C    0.972
   150   1 H    0.998 --   126 C    0.968
   151   1 H    0.998 --   130 C    0.968
   152   1 H    0.998 --   131 C    0.972
   153   1 H    0.996 --   134 C    0.964
   154   1 H    0.998 --   136 C    0.972
   155   1 H    0.998 --   137 C    0.968
   156   1 H    0.998 --   142 C    0.968
   157   1 H    0.998 --   143 C    0.972
   158   1 H    0.996 --   146 C    0.964
   159  30 Zn   2.077 --   183 N    0.489   168 N    0.489   174 N    0.489
                           180 N    0.489
   160   6 C    3.954 --   161 C    1.648   182 C    1.173   184 H    0.972
   161   6 C    3.956 --   160 C    1.648   162 C    1.180   185 H    0.968
   162   6 C    3.917 --   183 N    1.286   163 C    1.254   161 C    1.180
   163   6 C    3.930 --   164 C    1.254   162 C    1.254    78 C    1.174
   164   6 C    3.917 --   168 N    1.286   163 C    1.254   165 C    1.180
   165   6 C    3.956 --   166 C    1.648   164 C    1.180   186 H    0.968
   166   6 C    3.954 --   165 C    1.648   167 C    1.173   187 H    0.972
   167   6 C    3.923 --   169 C    1.356   168 N    1.246   166 C    1.173
   168   7 N    3.460 --   164 C    1.286   167 C    1.246   159 Zn   0.489
   169   6 C    3.925 --   170 C    1.356   167 C    1.356   188 H    0.964
   170   6 C    3.923 --   169 C    1.356   174 N    1.246   171 C    1.173
   171   6 C    3.954 --   172 C    1.648   170 C    1.173   189 H    0.972
   172   6 C    3.956 --   171 C    1.648   173 C    1.180   190 H    0.967
   173   6 C    3.917 --   174 N    1.286   175 C    1.254   172 C    1.180
   174   7 N    3.460 --   173 C    1.286   170 C    1.246   159 Zn   0.489
   175   6 C    3.930 --   176 C    1.254   173 C    1.254    79 C    1.175
   176   6 C    3.917 --   180 N    1.286   175 C    1.254   177 C    1.180
   177   6 C    3.956 --   178 C    1.648   176 C    1.180   191 H    0.967
   178   6 C    3.954 --   177 C    1.648   179 C    1.173   192 H    0.972
   179   6 C    3.923 --   181 C    1.356   180 N    1.246   178 C    1.173
   180   7 N    3.460 --   176 C    1.286   179 C    1.246   159 Zn   0.489
   181   6 C    3.925 --   179 C    1.356   182 C    1.356   193 H    0.964
   182   6 C    3.923 --   181 C    1.356   183 N    1.246   160 C    1.173
   183   7 N    3.460 --   162 C    1.286   182 C    1.246   159 Zn   0.489
   184   1 H    0.998 --   160 C    0.972
   185   1 H    0.998 --   161 C    0.968
   186   1 H    0.998 --   165 C    0.968
   187   1 H    0.998 --   166 C    0.972
   188   1 H    0.996 --   169 C    0.964
   189   1 H    0.998 --   171 C    0.972
   190   1 H    0.998 --   172 C    0.967
   191   1 H    0.998 --   177 C    0.967
   192   1 H    0.998 --   178 C    0.972
   193   1 H    0.996 --   181 C    0.964
   194  30 Zn   2.077 --   209 N    0.489   218 N    0.489   215 N    0.489
                           203 N    0.489
   195   6 C    3.954 --   196 C    1.648   217 C    1.173   219 H    0.972
   196   6 C    3.956 --   195 C    1.648   197 C    1.180   220 H    0.967
   197   6 C    3.917 --   218 N    1.286   198 C    1.254   196 C    1.180
   198   6 C    3.930 --   197 C    1.254   199 C    1.254    80 C    1.175
   199   6 C    3.917 --   203 N    1.286   198 C    1.254   200 C    1.180
   200   6 C    3.956 --   201 C    1.648   199 C    1.180   221 H    0.967
   201   6 C    3.954 --   200 C    1.648   202 C    1.173   222 H    0.972
   202   6 C    3.923 --   204 C    1.356   203 N    1.246   201 C    1.173
   203   7 N    3.460 --   199 C    1.286   202 C    1.246   194 Zn   0.489
   204   6 C    3.925 --   205 C    1.356   202 C    1.356   223 H    0.964
   205   6 C    3.923 --   204 C    1.356   209 N    1.246   206 C    1.173
   206   6 C    3.954 --   207 C    1.648   205 C    1.173   224 H    0.972
   207   6 C    3.956 --   206 C    1.648   208 C    1.180   225 H    0.967
   208   6 C    3.917 --   209 N    1.286   210 C    1.254   207 C    1.180
   209   7 N    3.460 --   208 C    1.286   205 C    1.246   194 Zn   0.489
   210   6 C    3.930 --   211 C    1.254   208 C    1.254    81 C    1.175
   211   6 C    3.917 --   215 N    1.286   210 C    1.254   212 C    1.180
   212   6 C    3.956 --   213 C    1.648   211 C    1.180   226 H    0.967
   213   6 C    3.954 --   212 C    1.648   214 C    1.173   227 H    0.972
   214   6 C    3.923 --   216 C    1.356   215 N    1.246   213 C    1.173
   215   7 N    3.460 --   211 C    1.286   214 C    1.246   194 Zn   0.489
   216   6 C    3.925 --   217 C    1.356   214 C    1.356   228 H    0.964
   217   6 C    3.923 --   216 C    1.356   218 N    1.246   195 C    1.173
   218   7 N    3.460 --   197 C    1.286   217 C    1.246   194 Zn   0.489
   219   1 H    0.998 --   195 C    0.972
   220   1 H    0.998 --   196 C    0.967
   221   1 H    0.998 --   200 C    0.967
   222   1 H    0.998 --   201 C    0.972
   223   1 H    0.996 --   204 C    0.964
   224   1 H    0.998 --   206 C    0.972
   225   1 H    0.998 --   207 C    0.967
   226   1 H    0.998 --   212 C    0.967
   227   1 H    0.998 --   213 C    0.972
   228   1 H    0.996 --   216 C    0.964
   229  30 Zn   2.077 --   238 N    0.489   244 N    0.489   253 N    0.489
                           250 N    0.489
   230   6 C    3.954 --   231 C    1.648   252 C    1.173   254 H    0.972
   231   6 C    3.956 --   230 C    1.648   232 C    1.180   255 H    0.967
   232   6 C    3.917 --   253 N    1.286   233 C    1.254   231 C    1.180
   233   6 C    3.930 --   234 C    1.254   232 C    1.254    82 C    1.175
   234   6 C    3.917 --   238 N    1.286   233 C    1.254   235 C    1.180
   235   6 C    3.956 --   236 C    1.648   234 C    1.180   256 H    0.967
   236   6 C    3.954 --   235 C    1.648   237 C    1.173   257 H    0.972
   237   6 C    3.923 --   239 C    1.356   238 N    1.246   236 C    1.173
   238   7 N    3.460 --   234 C    1.286   237 C    1.246   229 Zn   0.489
   239   6 C    3.925 --   237 C    1.356   240 C    1.356   258 H    0.964
   240   6 C    3.923 --   239 C    1.356   244 N    1.246   241 C    1.173
   241   6 C    3.954 --   242 C    1.648   240 C    1.173   259 H    0.972
   242   6 C    3.956 --   241 C    1.648   243 C    1.180   260 H    0.967
   243   6 C    3.917 --   244 N    1.286   245 C    1.254   242 C    1.180
   244   7 N    3.460 --   243 C    1.286   240 C    1.246   229 Zn   0.489
   245   6 C    3.930 --   243 C    1.254   246 C    1.254    83 C    1.174
   246   6 C    3.917 --   250 N    1.286   245 C    1.254   247 C    1.180
   247   6 C    3.956 --   248 C    1.648   246 C    1.180   261 H    0.967
   248   6 C    3.954 --   247 C    1.648   249 C    1.173   262 H    0.972
   249   6 C    3.923 --   251 C    1.356   250 N    1.246   248 C    1.173
   250   7 N    3.460 --   246 C    1.286   249 C    1.246   229 Zn   0.489
   251   6 C    3.925 --   252 C    1.356   249 C    1.356   263 H    0.964
   252   6 C    3.923 --   251 C    1.356   253 N    1.245   230 C    1.173
   253   7 N    3.460 --   232 C    1.286   252 C    1.245   229 Zn   0.489
   254   1 H    0.998 --   230 C    0.972
   255   1 H    0.998 --   231 C    0.967
   256   1 H    0.998 --   235 C    0.967
   257   1 H    0.998 --   236 C    0.972
   258   1 H    0.996 --   239 C    0.964
   259   1 H    0.998 --   241 C    0.972
   260   1 H    0.998 --   242 C    0.967
   261   1 H    0.998 --   247 C    0.967
   262   1 H    0.998 --   248 C    0.972
   263   1 H    0.996 --   251 C    0.964
   264  30 Zn   2.077 --   288 N    0.489   279 N    0.489   273 N    0.489
                           285 N    0.489
   265   6 C    3.954 --   266 C    1.649   287 C    1.173   289 H    0.972
   266   6 C    3.956 --   265 C    1.649   267 C    1.180   290 H    0.967
   267   6 C    3.917 --   288 N    1.286   268 C    1.254   266 C    1.180
   268   6 C    3.930 --   269 C    1.254   267 C    1.254    84 C    1.174
   269   6 C    3.917 --   273 N    1.286   268 C    1.254   270 C    1.180
   270   6 C    3.956 --   271 C    1.649   269 C    1.180   291 H    0.967
   271   6 C    3.954 --   270 C    1.649   272 C    1.173   292 H    0.972
   272   6 C    3.924 --   274 C    1.356   273 N    1.246   271 C    1.173
   273   7 N    3.460 --   269 C    1.286   272 C    1.246   264 Zn   0.489
   274   6 C    3.925 --   272 C    1.356   275 C    1.356   293 H    0.964
   275   6 C    3.923 --   274 C    1.356   279 N    1.246   276 C    1.173
   276   6 C    3.954 --   277 C    1.649   275 C    1.173   294 H    0.972
   277   6 C    3.956 --   276 C    1.649   278 C    1.180   295 H    0.968
   278   6 C    3.917 --   279 N    1.286   280 C    1.255   277 C    1.180
   279   7 N    3.461 --   278 C    1.286   275 C    1.246   264 Zn   0.489
   280   6 C    3.930 --   278 C    1.255   281 C    1.255    85 C    1.173
   281   6 C    3.917 --   285 N    1.286   280 C    1.255   282 C    1.180
   282   6 C    3.956 --   283 C    1.649   281 C    1.180   296 H    0.968
   283   6 C    3.954 --   282 C    1.649   284 C    1.173   297 H    0.972
   284   6 C    3.923 --   286 C    1.356   285 N    1.246   283 C    1.173
   285   7 N    3.461 --   281 C    1.286   284 C    1.246   264 Zn   0.489
   286   6 C    3.925 --   287 C    1.356   284 C    1.356   298 H    0.964
   287   6 C    3.924 --   286 C    1.356   288 N    1.246   265 C    1.173
   288   7 N    3.461 --   267 C    1.286   287 C    1.246   264 Zn   0.489
   289   1 H    0.998 --   265 C    0.972
   290   1 H    0.998 --   266 C    0.967
   291   1 H    0.998 --   270 C    0.967
   292   1 H    0.998 --   271 C    0.972
   293   1 H    0.996 --   274 C    0.964
   294   1 H    0.998 --   276 C    0.972
   295   1 H    0.998 --   277 C    0.968
   296   1 H    0.998 --   282 C    0.968
   297   1 H    0.998 --   283 C    0.972
   298   1 H    0.996 --   286 C    0.964
   299  30 Zn   2.077 --   323 N    0.489   308 N    0.489   314 N    0.489
                           320 N    0.489
   300   6 C    3.954 --   301 C    1.649   322 C    1.172   324 H    0.972
   301   6 C    3.956 --   300 C    1.649   302 C    1.180   325 H    0.968
   302   6 C    3.917 --   323 N    1.286   303 C    1.255   301 C    1.180
   303   6 C    3.931 --   302 C    1.255   304 C    1.255    86 C    1.172
   304   6 C    3.917 --   308 N    1.286   303 C    1.255   305 C    1.180
   305   6 C    3.956 --   306 C    1.649   304 C    1.180   326 H    0.968
   306   6 C    3.954 --   305 C    1.649   307 C    1.172   327 H    0.972
   307   6 C    3.924 --   309 C    1.357   308 N    1.246   306 C    1.172
   308   7 N    3.461 --   304 C    1.286   307 C    1.246   299 Zn   0.489
   309   6 C    3.926 --   307 C    1.357   310 C    1.355   328 H    0.964
   310   6 C    3.924 --   309 C    1.355   314 N    1.247   311 C    1.172
   311   6 C    3.955 --   312 C    1.649   310 C    1.172   329 H    0.972
   312   6 C    3.956 --   311 C    1.649   313 C    1.179   330 H    0.969
   313   6 C    3.918 --   314 N    1.285   315 C    1.257   312 C    1.179
   314   7 N    3.461 --   313 C    1.285   310 C    1.247   299 Zn   0.489
   315   6 C    3.930 --   316 C    1.257   313 C    1.257    87 C    1.169
   316   6 C    3.918 --   320 N    1.285   315 C    1.257   317 C    1.179
   317   6 C    3.956 --   318 C    1.649   316 C    1.179   331 H    0.969
   318   6 C    3.955 --   317 C    1.649   319 C    1.172   332 H    0.972
   319   6 C    3.924 --   321 C    1.355   320 N    1.247   318 C    1.172
   320   7 N    3.461 --   316 C    1.285   319 C    1.247   299 Zn   0.489
   321   6 C    3.926 --   322 C    1.357   319 C    1.355   333 H    0.964
   322   6 C    3.924 --   321 C    1.357   323 N    1.246   300 C    1.172
   323   7 N    3.461 --   302 C    1.286   322 C    1.246   299 Zn   0.489
   324   1 H    0.998 --   300 C    0.972
   325   1 H    0.998 --   301 C    0.968
   326   1 H    0.998 --   305 C    0.968
   327   1 H    0.998 --   306 C    0.972
   328   1 H    0.996 --   309 C    0.964
   329   1 H    0.998 --   311 C    0.972
   330   1 H    0.998 --   312 C    0.969
   331   1 H    0.998 --   317 C    0.969
   332   1 H    0.998 --   318 C    0.972
   333   1 H    0.996 --   321 C    0.964
 ---------------------------------------------------------------------------

Topologies differ in total number of bonds
Writing topology from bond orders to xtbtopo.mol

molecular dipole:
                 x           y           z       tot (Debye)
 q only:       -0.000       0.003      -0.000
   full:       -0.000       0.006      -0.000       0.015
molecular quadrupole (traceless):
                xx          xy          yy          xz          yz          zz
 q only:      107.127       0.499     -52.633       0.079       0.062     -54.494
  q+dip:      192.174       1.053     -94.495       0.076       0.268     -97.679
   full:      132.686       1.122     -65.312       0.040       0.119     -67.374


           -------------------------------------------------
          | TOTAL ENERGY             -577.354313135557 Eh   |
          | GRADIENT NORM               0.000315762021 Eh/α |
          | HOMO-LUMO GAP               0.828270656284 eV   |
           -------------------------------------------------

------------------------------------------------------------------------
 * finished run on 2021/11/21 at 19:25:46.390     
------------------------------------------------------------------------
 total:
 * wall-time:     0 d,  0 h,  0 min,  7.107 sec
 *  cpu-time:     0 d,  0 h,  0 min,  7.107 sec
 * ratio c/w:     1.000 speedup
 SCF:
 * wall-time:     0 d,  0 h,  0 min,  6.884 sec
 *  cpu-time:     0 d,  0 h,  0 min,  6.884 sec
 * ratio c/w:     1.000 speedup

