349
 energy: -609.019723521096 gnorm: 1.133954181627 xtb: 6.4.1 (bd6e46d)
Zn       56.67075600000000    0.04587700000000   -0.01451300000000
C        58.99974700000001   -3.10091600000000    1.30817600000000
C        59.91585400000001   -2.15670900000000    1.25789400000000
C        59.50467400000000   -1.10280500000000    0.33660200000000
C        60.12354500000000    0.02154100000000   -0.00980800000000
C        59.41950300000000    1.24148900000000   -0.37391300000000
C        59.74761300000000    2.20154400000000   -1.22138700000000
C        58.71283400000001    3.21783000000000   -1.23828500000000
C        57.77656500000001    2.84136800000000   -0.39139300000000
N        58.17855600000000    1.60835700000000    0.17242400000000
C        56.51549100000000    3.48636700000000   -0.01224100000000
C        55.42027400000000    2.85158500000000    0.33851900000000
C        54.34664800000001    3.16954000000000    1.30754700000000
C        53.50908500000000    2.17278700000000    1.23038100000000
C        53.94738300000001    1.16910300000000    0.24992900000000
N        55.05232100000000    1.60795600000000   -0.23436300000000
C        53.33654800000000   -0.08416800000000   -0.16361900000000
C        54.00070900000001   -1.18867400000000   -0.41804400000000
C        53.62686000000000   -2.25161600000000   -1.37557100000000
C        54.57560700000000   -3.14537100000000   -1.28655200000000
C        55.56133100000001   -2.70792100000000   -0.30367400000000
N        55.20828500000000   -1.56211600000000    0.19312300000000
C        56.79221900000000   -3.36399200000000    0.14204700000000
C        57.91526000000001   -2.71813100000000    0.40916800000000
N        58.24386100000000   -1.47068900000000   -0.18923500000000
H        59.06000900000000   -4.01069700000000    1.92572300000000
H        60.83218100000000   -2.19665800000000    1.83594200000000
H        60.67497800000000    2.21834000000000   -1.82253000000000
H        58.72973300000001    4.12251800000000   -1.85090600000000
H        56.46776800000000    4.58117000000000   -0.01601900000000
H        54.29382700000001    4.04826500000000    1.93253900000000
H        52.59745500000000    2.13711700000000    1.84770500000000
H        52.23829800000000   -0.08125700000000   -0.26289000000000
H        52.75800400000000   -2.30408100000000   -2.02452100000000
H        54.57276100000001   -4.06168000000000   -1.88531100000000
H        56.75673700000001   -4.45979300000000    0.25397200000000
Zn      166.65708900000001   -0.00149900000000   -0.01894600000000
C       164.32809800000004    2.84529300000000    1.86455900000000
C       163.41199100000000    1.92680300000000    1.63998500000000
C       163.82317000000000    1.06210600000000    0.53917100000000
C       163.20430000000002    0.02154100000000   -0.00980800000000
C       163.90834200000000   -1.10968400000000   -0.59391100000000
C       163.58023200000002   -1.89585500000000   -1.60477800000000
C       164.61501100000004   -2.89136500000000   -1.80991800000000
C       165.55127999999999   -2.67854800000000   -0.90788800000000
N       165.14928900000001   -1.57153600000000   -0.12511600000000
C       166.81235400000003   -3.38268900000000   -0.65497400000000
C       167.90757099999999   -2.82399700000000   -0.19254100000000
C       168.98119700000001   -3.31620200000000    0.70068100000000
C       169.81875900000000   -2.32243500000000    0.80976600000000
C       169.38046200000002   -1.15428600000000    0.03253100000000
N       168.27552399999999   -1.49567800000000   -0.52476800000000
C       169.99129700000000    0.15394900000000   -0.14133900000000
C       169.32713600000002    1.28648200000000   -0.18644500000000
C       169.70098500000000    2.50860800000000   -0.93016000000000
C       168.75223800000003    3.37033500000000   -0.67688100000000
C       167.76651400000000    2.75814100000000    0.20778200000000
N       168.11956000000001    1.54006200000000    0.48339200000000
C       166.53562600000001    3.32013500000000    0.76747600000000
C       165.41258400000004    2.63593000000000    0.91014400000000
N       165.08398399999999    1.52115500000000    0.09070900000000
H       164.26783599999999    3.62471700000000    2.64016300000000
H       162.49566400000000    1.85882300000000    2.21541100000000
H       162.65286699999999   -1.80083900000000   -2.19860200000000
H       164.59811199999999   -3.66669900000000   -2.57973800000000
H       166.86007699999999   -4.45778700000000   -0.86178800000000
H       169.03401800000000   -4.29561900000000    1.15180800000000
H       170.73039000000000   -2.40190700000000    1.42299200000000
H       171.08954700000004    0.16950500000000   -0.23942600000000
H       170.56984100000003    2.68055200000000   -1.55811200000000
H       168.75508400000001    4.38181600000000   -1.09525900000000
H       166.57110800000001    4.37615200000000    1.08074500000000
C        63.01824900000000    0.01950600000000   -0.01092000000000
C        64.22622500000000    0.02696000000000   -0.00922500000000
C        65.64499300000000    0.02765700000000   -0.00408800000000
C        66.86051000000000    0.01950600000000   -0.01092000000000
C        76.36839900000000    0.01950600000000   -0.01092000000000
C        77.57637600000000    0.02696000000000   -0.00922500000000
C        78.99514400000000    0.02765700000000   -0.00408800000000
C        80.21066000000000    0.01950600000000   -0.01092000000000
C        89.71855000000001    0.01950600000000   -0.01092000000000
C        90.92652600000000    0.02696000000000   -0.00922500000000
C        92.34529400000000    0.02765700000000   -0.00408800000000
C        93.56081100000000    0.01950600000000   -0.01092000000000
C       103.06870000000002    0.01950600000000   -0.01092000000000
C       104.27667700000001    0.02696000000000   -0.00922500000000
C       105.69544500000001    0.02765700000000   -0.00408800000000
C       106.91096100000000    0.01950600000000   -0.01092000000000
C       116.41885000000002    0.01950600000000   -0.01092000000000
C       117.62682700000001    0.02696000000000   -0.00922500000000
C       119.04559500000001    0.02765700000000   -0.00408800000000
C       120.26111200000000    0.01950600000000   -0.01092000000000
C       129.76900100000000    0.01950600000000   -0.01092000000000
C       130.97697800000000    0.02696000000000   -0.00922500000000
C       132.39574600000000    0.02765700000000   -0.00408800000000
C       133.61126200000001    0.01950600000000   -0.01092000000000
C       143.11915099999999    0.01950600000000   -0.01092000000000
C       144.32712800000002    0.02696000000000   -0.00922500000000
C       145.74589599999999    0.02765700000000   -0.00408800000000
C       146.96141299999999    0.01950600000000   -0.01092000000000
C       156.46930200000000    0.01950600000000   -0.01092000000000
C       157.67727900000000    0.02696000000000   -0.00922500000000
C       159.09604700000000    0.02765700000000   -0.00408800000000
C       160.31156300000001    0.01950600000000   -0.01092000000000
Zn       71.64909100000000    0.03964100000000    0.00121900000000
C        69.36928000000000   -3.22180600000000   -0.90844700000000
C        68.41307100000000   -2.32245600000000   -1.01047300000000
C        68.80544500000001   -1.16015100000000   -0.20795800000000
C        68.17032900000000   -0.00887800000000    0.00430900000000
C        68.85578599999999    1.26572100000000    0.23053800000000
C        68.52049500000000    2.34432100000000    0.93477800000000
C        69.54503699999999    3.36363800000000    0.84419700000000
C        70.49563400000000    2.86671300000000    0.07083200000000
N        70.11864000000000    1.55010800000000   -0.34531100000000
C        71.74277400000000    3.47841500000000   -0.34603400000000
C        72.84432500000000    2.81115800000000   -0.67780500000000
C        73.83787200000002    3.06314200000000   -1.71197500000000
C        74.73175500000001    2.10228300000000   -1.61049100000000
C        74.35205700000002    1.19039900000000   -0.50651400000000
N        73.25714200000000    1.63971800000000    0.00085300000000
C        75.00926400000000   -0.00887800000000    0.00430900000000
C        74.38585200000000   -1.07806000000000    0.46582500000000
C        74.76456500000000   -2.01017600000000    1.54130100000000
C        73.82389600000000   -2.92432200000000    1.62716700000000
C        72.81559500000000   -2.62854300000000    0.62974000000000
N        73.15337000000000   -1.57516500000000   -0.01955500000000
C        71.56320200000000   -3.33555000000000    0.29854700000000
C        70.44932500000000   -2.73885300000000   -0.04879500000000
N        70.06721300000000   -1.45609600000000    0.36888800000000
H        69.36962500000000   -4.21288000000000   -1.39968200000000
H        67.50453700000000   -2.44415000000000   -1.59162200000000
H        67.59564300000000    2.46267300000000    1.51170400000000
H        69.57233200000000    4.35280200000000    1.30084700000000
H        71.82871400000001    4.57579300000000   -0.40805600000000
H        73.87054400000000    3.86935800000000   -2.43879900000000
H        75.62481600000000    1.98931500000000   -2.24426500000000
H        75.67931500000000   -1.93576900000000    2.15147100000000
H        73.84294300000001   -3.73793000000000    2.33543400000000
H        71.60168600000002   -4.43550900000000    0.35758300000000
Zn       84.99924100000000    0.03964100000000    0.00121900000000
C        82.71943100000001   -3.22180600000000   -0.90844700000000
C        81.76322100000000   -2.32245600000000   -1.01047300000000
C        82.15559600000000   -1.16015100000000   -0.20795800000000
C        81.52047899999999   -0.00887800000000    0.00430900000000
C        82.20593599999999    1.26572100000000    0.23053800000000
C        81.87064599999999    2.34432100000000    0.93477800000000
C        82.89518700000001    3.36363800000000    0.84419700000000
C        83.84578500000001    2.86671300000000    0.07083200000000
N        83.46879000000000    1.55010800000000   -0.34531100000000
C        85.09292400000000    3.47841500000000   -0.34603400000000
C        86.19447599999999    2.81115800000000   -0.67780500000000
C        87.18802200000002    3.06314200000000   -1.71197500000000
C        88.08190500000001    2.10228300000000   -1.61049100000000
C        87.70220700000002    1.19039900000000   -0.50651400000000
N        86.60729200000000    1.63971800000000    0.00085300000000
C        88.35941400000000   -0.00887800000000    0.00430900000000
C        87.73600300000000   -1.07806000000000    0.46582500000000
C        88.11471500000000   -2.01017600000000    1.54130100000000
C        87.17404700000000   -2.92432200000000    1.62716700000000
C        86.16574500000000   -2.62854300000000    0.62974000000000
N        86.50351999999999   -1.57516500000000   -0.01955500000000
C        84.91335200000000   -3.33555000000000    0.29854700000000
C        83.79947600000000   -2.73885300000000   -0.04879500000000
N        83.41736299999999   -1.45609600000000    0.36888800000000
H        82.71977500000000   -4.21288000000000   -1.39968200000000
H        80.85468700000000   -2.44415000000000   -1.59162200000000
H        80.94579400000001    2.46267300000000    1.51170400000000
H        82.92248200000000    4.35280200000000    1.30084700000000
H        85.17886400000000    4.57579300000000   -0.40805600000000
H        87.22069500000001    3.86935800000000   -2.43879900000000
H        88.97496700000001    1.98931500000000   -2.24426500000000
H        89.02946600000000   -1.93576900000000    2.15147100000000
H        87.19309300000000   -3.73793000000000    2.33543400000000
H        84.95183700000000   -4.43550900000000    0.35758300000000
Zn       98.34939199999999    0.03964100000000    0.00121900000000
C        96.06958100000001   -3.22180600000000   -0.90844700000000
C        95.11337200000000   -2.32245600000000   -1.01047300000000
C        95.50574600000000   -1.16015100000000   -0.20795800000000
C        94.87063000000001   -0.00887800000000    0.00430900000000
C        95.55608700000002    1.26572100000000    0.23053800000000
C        95.22079600000001    2.34432100000000    0.93477800000000
C        96.24533800000000    3.36363800000000    0.84419700000000
C        97.19593500000001    2.86671300000000    0.07083200000000
N        96.81894100000000    1.55010800000000   -0.34531100000000
C        98.44307500000001    3.47841500000000   -0.34603400000000
C        99.54462599999999    2.81115800000000   -0.67780500000000
C       100.53817300000000    3.06314200000000   -1.71197500000000
C       101.43205600000000    2.10228300000000   -1.61049100000000
C       101.05235800000000    1.19039900000000   -0.50651400000000
N        99.95744200000000    1.63971800000000    0.00085300000000
C       101.70956500000001   -0.00887800000000    0.00430900000000
C       101.08615300000000   -1.07806000000000    0.46582500000000
C       101.46486600000000   -2.01017600000000    1.54130100000000
C       100.52419700000000   -2.92432200000000    1.62716700000000
C        99.51589600000000   -2.62854300000000    0.62974000000000
N        99.85367100000002   -1.57516500000000   -0.01955500000000
C        98.26350300000000   -3.33555000000000    0.29854700000000
C        97.14962600000000   -2.73885300000000   -0.04879500000000
N        96.76751400000001   -1.45609600000000    0.36888800000000
H        96.06992600000000   -4.21288000000000   -1.39968200000000
H        94.20483800000001   -2.44415000000000   -1.59162200000000
H        94.29594400000001    2.46267300000000    1.51170400000000
H        96.27263200000000    4.35280200000000    1.30084700000000
H        98.52901400000000    4.57579300000000   -0.40805600000000
H       100.57084500000001    3.86935800000000   -2.43879900000000
H       102.32511700000001    1.98931500000000   -2.24426500000000
H       102.37961600000000   -1.93576900000000    2.15147100000000
H       100.54324400000002   -3.73793000000000    2.33543400000000
H        98.30198700000000   -4.43550900000000    0.35758300000000
Zn      111.69954199999999    0.03964100000000    0.00121900000000
C       109.41973200000001   -3.22180600000000   -0.90844700000000
C       108.46352200000000   -2.32245600000000   -1.01047300000000
C       108.85589600000000   -1.16015100000000   -0.20795800000000
C       108.22078000000000   -0.00887800000000    0.00430900000000
C       108.90623700000002    1.26572100000000    0.23053800000000
C       108.57094700000000    2.34432100000000    0.93477800000000
C       109.59548800000000    3.36363800000000    0.84419700000000
C       110.54608500000001    2.86671300000000    0.07083200000000
N       110.16909099999999    1.55010800000000   -0.34531100000000
C       111.79322500000002    3.47841500000000   -0.34603400000000
C       112.89477700000002    2.81115800000000   -0.67780500000000
C       113.88832300000000    3.06314200000000   -1.71197500000000
C       114.78220600000000    2.10228300000000   -1.61049100000000
C       114.40250800000001    1.19039900000000   -0.50651400000000
N       113.30759300000000    1.63971800000000    0.00085300000000
C       115.05971500000001   -0.00887800000000    0.00430900000000
C       114.43630400000001   -1.07806000000000    0.46582500000000
C       114.81501600000000   -2.01017600000000    1.54130100000000
C       113.87434800000000   -2.92432200000000    1.62716700000000
C       112.86604600000000   -2.62854300000000    0.62974000000000
N       113.20382100000002   -1.57516500000000   -0.01955500000000
C       111.61365300000000   -3.33555000000000    0.29854700000000
C       110.49977600000000   -2.73885300000000   -0.04879500000000
N       110.11766400000000   -1.45609600000000    0.36888800000000
H       109.42007599999999   -4.21288000000000   -1.39968200000000
H       107.55498799999999   -2.44415000000000   -1.59162200000000
H       107.64609500000000    2.46267300000000    1.51170400000000
H       109.62278300000000    4.35280200000000    1.30084700000000
H       111.87916500000000    4.57579300000000   -0.40805600000000
H       113.92099500000000    3.86935800000000   -2.43879900000000
H       115.67526800000000    1.98931500000000   -2.24426500000000
H       115.72976700000000   -1.93576900000000    2.15147100000000
H       113.89339400000001   -3.73793000000000    2.33543400000000
H       111.65213799999999   -4.43550900000000    0.35758300000000
Zn      125.04969300000000    0.03964100000000    0.00121900000000
C       122.76988200000001   -3.22180600000000   -0.90844700000000
C       121.81367299999999   -2.32245600000000   -1.01047300000000
C       122.20604700000000   -1.16015100000000   -0.20795800000000
C       121.57093000000000   -0.00887800000000    0.00430900000000
C       122.25638700000002    1.26572100000000    0.23053800000000
C       121.92109700000000    2.34432100000000    0.93477800000000
C       122.94563900000000    3.36363800000000    0.84419700000000
C       123.89623600000002    2.86671300000000    0.07083200000000
N       123.51924200000002    1.55010800000000   -0.34531100000000
C       125.14337500000002    3.47841500000000   -0.34603400000000
C       126.24492700000002    2.81115800000000   -0.67780500000000
C       127.23847400000000    3.06314200000000   -1.71197500000000
C       128.13235700000001    2.10228300000000   -1.61049100000000
C       127.75265899999999    1.19039900000000   -0.50651400000000
N       126.65774300000000    1.63971800000000    0.00085300000000
C       128.40986599999999   -0.00887800000000    0.00430900000000
C       127.78645400000001   -1.07806000000000    0.46582500000000
C       128.16516700000000   -2.01017600000000    1.54130100000000
C       127.22449800000000   -2.92432200000000    1.62716700000000
C       126.21619700000001   -2.62854300000000    0.62974000000000
N       126.55397200000002   -1.57516500000000   -0.01955500000000
C       124.96380400000000   -3.33555000000000    0.29854700000000
C       123.84992699999999   -2.73885300000000   -0.04879500000000
N       123.46781500000000   -1.45609600000000    0.36888800000000
H       122.77022700000002   -4.21288000000000   -1.39968200000000
H       120.90513799999999   -2.44415000000000   -1.59162200000000
H       120.99624500000000    2.46267300000000    1.51170400000000
H       122.97293300000000    4.35280200000000    1.30084700000000
H       125.22931500000000    4.57579300000000   -0.40805600000000
H       127.27114600000000    3.86935800000000   -2.43879900000000
H       129.02541800000000    1.98931500000000   -2.24426500000000
H       129.07991699999999   -1.93576900000000    2.15147100000000
H       127.24354500000001   -3.73793000000000    2.33543400000000
H       125.00228799999999   -4.43550900000000    0.35758300000000
Zn      138.39984300000003    0.03964100000000    0.00121900000000
C       136.12003300000001   -3.22180600000000   -0.90844700000000
C       135.16382300000001   -2.32245600000000   -1.01047300000000
C       135.55619700000000   -1.16015100000000   -0.20795800000000
C       134.92108099999999   -0.00887800000000    0.00430900000000
C       135.60653800000000    1.26572100000000    0.23053800000000
C       135.27124800000001    2.34432100000000    0.93477800000000
C       136.29578900000001    3.36363800000000    0.84419700000000
C       137.24638600000000    2.86671300000000    0.07083200000000
N       136.86939200000000    1.55010800000000   -0.34531100000000
C       138.49352600000000    3.47841500000000   -0.34603400000000
C       139.59507800000000    2.81115800000000   -0.67780500000000
C       140.58862400000001    3.06314200000000   -1.71197500000000
C       141.48250700000000    2.10228300000000   -1.61049100000000
C       141.10280900000001    1.19039900000000   -0.50651400000000
N       140.00789399999999    1.63971800000000    0.00085300000000
C       141.76001600000001   -0.00887800000000    0.00430900000000
C       141.13660500000000   -1.07806000000000    0.46582500000000
C       141.51531700000001   -2.01017600000000    1.54130100000000
C       140.57464899999999   -2.92432200000000    1.62716700000000
C       139.56634700000001   -2.62854300000000    0.62974000000000
N       139.90412200000000   -1.57516500000000   -0.01955500000000
C       138.31395400000000   -3.33555000000000    0.29854700000000
C       137.20007699999999   -2.73885300000000   -0.04879500000000
N       136.81796499999999   -1.45609600000000    0.36888800000000
H       136.12037699999999   -4.21288000000000   -1.39968200000000
H       134.25528900000000   -2.44415000000000   -1.59162200000000
H       134.34639600000000    2.46267300000000    1.51170400000000
H       136.32308399999999    4.35280200000000    1.30084700000000
H       138.57946600000000    4.57579300000000   -0.40805600000000
H       140.62129600000003    3.86935800000000   -2.43879900000000
H       142.37556900000001    1.98931500000000   -2.24426500000000
H       142.43006700000004   -1.93576900000000    2.15147100000000
H       140.59369500000000   -3.73793000000000    2.33543400000000
H       138.35243800000001   -4.43550900000000    0.35758300000000
Zn      151.74999399999999    0.03964100000000    0.00121900000000
C       149.47018299999999   -3.22180600000000   -0.90844700000000
C       148.51397399999999   -2.32245600000000   -1.01047300000000
C       148.90634800000001   -1.16015100000000   -0.20795800000000
C       148.27123100000000   -0.00887800000000    0.00430900000000
C       148.95668800000001    1.26572100000000    0.23053800000000
C       148.62139800000000    2.34432100000000    0.93477800000000
C       149.64593900000000    3.36363800000000    0.84419700000000
C       150.59653700000001    2.86671300000000    0.07083200000000
N       150.21954299999999    1.55010800000000   -0.34531100000000
C       151.84367599999999    3.47841500000000   -0.34603400000000
C       152.94522799999999    2.81115800000000   -0.67780500000000
C       153.93877400000000    3.06314200000000   -1.71197500000000
C       154.83265800000001    2.10228300000000   -1.61049100000000
C       154.45296000000002    1.19039900000000   -0.50651400000000
N       153.35804400000001    1.63971800000000    0.00085300000000
C       155.11016599999999   -0.00887800000000    0.00430900000000
C       154.48675500000002   -1.07806000000000    0.46582500000000
C       154.86546799999999   -2.01017600000000    1.54130100000000
C       153.92479900000001   -2.92432200000000    1.62716700000000
C       152.91649799999999   -2.62854300000000    0.62974000000000
N       153.25427300000004   -1.57516500000000   -0.01955500000000
C       151.66410400000001   -3.33555000000000    0.29854700000000
C       150.55022800000000   -2.73885300000000   -0.04879500000000
N       150.16811600000000   -1.45609600000000    0.36888800000000
H       149.47052800000000   -4.21288000000000   -1.39968200000000
H       147.60543899999999   -2.44415000000000   -1.59162200000000
H       147.69654600000001    2.46267300000000    1.51170400000000
H       149.67323400000001    4.35280200000000    1.30084700000000
H       151.92961600000001    4.57579300000000   -0.40805600000000
H       153.97144700000001    3.86935800000000   -2.43879900000000
H       155.72571900000000    1.98931500000000   -2.24426500000000
H       155.78021799999999   -1.93576900000000    2.15147100000000
H       153.94384600000004   -3.73793000000000    2.33543400000000
H       151.70258900000002   -4.43550900000000    0.35758300000000
349
 energy: -609.508565398230 gnorm: 0.678631988784 xtb: 6.4.1 (bd6e46d)
Zn       56.67910157322584    0.04613235388465   -0.01361931655975
C        58.99859467942499   -3.10861241781338    1.30225238905389
C        59.92769156191904   -2.15547972441085    1.25554652005483
C        59.50103537425554   -1.10599419621852    0.34196828283042
C        60.10797763880574    0.03719813101339   -0.01268868492158
C        59.40976936663004    1.23638347715563   -0.36610053364934
C        59.75717225179159    2.22446736185890   -1.23696189787325
C        58.73753147267020    3.21996260947153   -1.25024761783972
C        57.77004803382009    2.82352112057929   -0.38412391380893
N        58.16178732249213    1.59543292499336    0.17540718577749
C        56.53123006793052    3.48672968798022   -0.01365410016875
C        55.40971663086574    2.83873558732113    0.33983861344611
C        54.35000077754831    3.17625237670073    1.29488551797363
C        53.48780533419895    2.16528788794454    1.23307448446437
C        53.94029493047014    1.16996637860693    0.26272195138811
N        55.07748663860112    1.59511952297746   -0.22378948422246
C        53.32675506178210   -0.06519181873068   -0.15778090649066
C        54.00435592415041   -1.19393381412165   -0.42264047710016
C        53.62004771612239   -2.24916488610999   -1.36558435996188
C        54.58253150745703   -3.16328842396150   -1.28412355517930
C        55.56969943909638   -2.71803339569670   -0.30971641405262
N        55.21336171879923   -1.54449042701458    0.17576267883460
C        56.77559795721816   -3.36956496253341    0.13548814538011
C        57.92220641707886   -2.70524491846595    0.41047668097822
N        58.24098834550549   -1.47108346485637   -0.16924554999441
H        59.05410455073808   -4.00630145838807    1.91968462400650
H        60.83508906382421   -2.19005096960931    1.83378784830240
H        60.67226225109912    2.22385521937112   -1.82290042417835
H        58.73401622945158    4.11985867851803   -1.85113728460235
H        56.47817581844464    4.57818803247006   -0.01175498909315
H        54.29872178764359    4.04696316255157    1.92844276755340
H        52.59525196682191    2.13065723103781    1.84621416388843
H        52.24027585032779   -0.07600985820916   -0.26615685161262
H        52.75970409615375   -2.29734303405065   -2.01922854833022
H        54.58035647147384   -4.06377976618525   -1.88234014055269
H        56.75349012451727   -4.45598742877058    0.25424841761920
Zn      166.64874486801531   -0.00190652582381   -0.01812248385253
C       164.32925581458522    2.85395338466081    1.86016598726629
C       163.40017413994710    1.92602239390756    1.63744647654515
C       163.82683653225564    1.06423212962022    0.54504661406542
C       163.21988660012917    0.00665273966616   -0.01542951251170
C       163.91809766172861   -1.10611282165390   -0.58528869222446
C       163.57068019519326   -1.91548243948463   -1.62431519447782
C       164.59032387609435   -2.89124354428656   -1.82206231373891
C       165.55780258638941   -2.66237109297739   -0.89743965974970
N       165.16605680842801   -1.55939565349122   -0.11979704442083
C       166.79661136918151   -3.38279177058251   -0.65643137484496
C       167.91812940308105   -2.81161258586835   -0.18885565789033
C       168.97783868807531   -3.32044597746432    0.68699261632306
C       169.84003998612991   -2.31555985530294    0.81380015148547
C       169.38755550147525   -1.15750667755041    0.04494360230014
N       168.25035501843195   -1.48503296866382   -0.51199772432312
C       170.00109043811219    0.13421684272932   -0.13912033048759
C       169.32348851740468    1.29250388557102   -0.18998723760278
C       169.70779501250780    2.50434358100971   -0.92080125663076
C       168.74531129310785    3.38749106626614   -0.67116888592882
C       167.75814368853298    2.76920019385294    0.20371921840494
N       168.11448445821756    1.52596192435666    0.46306573385938
C       166.55224824994812    3.32683527565670    0.76206559208785
C       165.40563629447414    2.62302978805060    0.90902906756113
N       165.08686680001227    1.51784483571948    0.11042886456509
H       164.27373877043297    3.62152064824396    2.63341438313235
H       162.49275979499828    1.85273730384498    2.21206731943554
H       162.65558804971761   -1.80617801621757   -2.19998721259672
H       164.59383324687442   -3.66404613801047   -2.57947622975449
H       166.84967348851103   -4.45565314330142   -0.85705268303095
H       169.02912347581318   -4.29358073700707    1.14802307464039
H       170.73259405386338   -2.39528249411235    1.42272439161912
H       171.08756948090985    0.16495495755985   -0.24360810348943
H       170.56814059761311    2.67294891183017   -1.55416032454299
H       168.74748775572093    4.38332901097116   -1.09194853691698
H       166.57435574903172    4.37236350563732    1.08031527136570
C        63.01015168955895    0.01977936000740   -0.00962101996144
C        64.23158078211912    0.02714490281359   -0.00939048964175
C        65.62062461702432    0.02801843795965   -0.00431816928409
C        66.83808500871197    0.02539495811182   -0.01314942421124
C        76.38139364034642    0.02457651166100   -0.00923582706510
C        77.59792221986565    0.02717555955077   -0.00787327905903
C        78.97197439986596    0.02794250088353   -0.00460499411225
C        80.18923690358575    0.02529942526387   -0.01390144904611
C        89.73162217651378    0.02462199627703   -0.00905996564555
C        90.94800206043288    0.02718911603890   -0.00782465282080
C        92.32221497845062    0.02794086049244   -0.00463204142231
C        93.53932045921516    0.02528353921908   -0.01397097765930
C       103.08179006656715    0.02463116524384   -0.00901960245635
C       104.29813911907375    0.02719185640142   -0.00781317094955
C       105.67238238409941    0.02794027187971   -0.00463809729198
C       106.88945883360934    0.02527946086458   -0.01398773324024
C       116.43192988431460    0.02463090523240   -0.00901545081233
C       117.64830658458936    0.02719312074102   -0.00780730027772
C       119.02251507951742    0.02793997755086   -0.00463723931928
C       120.23962371664692    0.02527587303799   -0.01399319216448
C       129.78203609579836    0.02462418853673   -0.00902763939652
C       130.99852097525161    0.02719456545928   -0.00779791119977
C       132.37259949331201    0.02793913096287   -0.00463063305721
C       133.58982322687919    0.02526961352042   -0.01399761743516