      -----------------------------------------------------------      
     |                   =====================                   |     
     |                           x T B                           |     
     |                   =====================                   |     
     |                         S. Grimme                         |     
     |          Mulliken Center for Theoretical Chemistry        |     
     |                    University of Bonn                     |     
      -----------------------------------------------------------      

   * xtb version 6.4.1 (bd6e46d) compiled by 'conda@4901f00b25ba' on 2021-06-10

   xtb is free software: you can redistribute it and/or modify it under
   the terms of the GNU Lesser General Public License as published by
   the Free Software Foundation, either version 3 of the License, or
   (at your option) any later version.
   
   xtb is distributed in the hope that it will be useful,
   but WITHOUT ANY WARRANTY; without even the implied warranty of
   MERCHANTABILITY or FITNESS FOR A PARTICULAR PURPOSE.  See the
   GNU Lesser General Public License for more details.
   
   Cite this work as:
   * C. Bannwarth, E. Caldeweyher, S. Ehlert, A. Hansen, P. Pracht,
     J. Seibert, S. Spicher, S. Grimme, WIREs Comput. Mol. Sci., 2020, 11,
     e01493. DOI: 10.1002/wcms.1493
   
   for GFN2-xTB:
   * C. Bannwarth, S. Ehlert and S. Grimme., J. Chem. Theory Comput., 2019,
     15, 1652-1671. DOI: 10.1021/acs.jctc.8b01176
   for GFN1-xTB:
   * S. Grimme, C. Bannwarth, P. Shushkov, J. Chem. Theory Comput., 2017,
     13, 1989-2009. DOI: 10.1021/acs.jctc.7b00118
   for GFN0-xTB:
   * P. Pracht, E. Caldeweyher, S. Ehlert, S. Grimme, ChemRxiv, 2019, preprint.
     DOI: 10.26434/chemrxiv.8326202.v1
   for GFN-FF:
   * S. Spicher and S. Grimme, Angew. Chem. Int. Ed., 2020, 59, 15665-15673.
     DOI: 10.1002/anie.202004239
   
   for DFT-D4:
   * E. Caldeweyher, C. Bannwarth and S. Grimme, J. Chem. Phys., 2017,
     147, 034112. DOI: 10.1063/1.4993215
   * E. Caldeweyher, S. Ehlert, A. Hansen, H. Neugebauer, S. Spicher,
     C. Bannwarth and S. Grimme, J. Chem. Phys., 2019, 150, 154122.
     DOI: 10.1063/1.5090222
   * E. Caldeweyher, J.-M. Mewes, S. Ehlert and S. Grimme, Phys. Chem. Chem. Phys.
     2020, 22, 8499-8512. DOI: 10.1039/D0CP00502A
   
   for sTDA-xTB:
   * S. Grimme and C. Bannwarth, J. Chem. Phys., 2016, 145, 054103.
     DOI: 10.1063/1.4959605
   
   in the mass-spec context:
   * V. Asgeirsson, C. Bauer and S. Grimme, Chem. Sci., 2017, 8, 4879.
     DOI: 10.1039/c7sc00601b
   * J. Koopman and S. Grimme, ACS Omega 2019, 4, 12, 15120-15133.
     DOI: 10.1021/acsomega.9b02011
   
   for metadynamics refer to:
   * S. Grimme, J. Chem. Theory Comput., 2019, 155, 2847-2862
     DOI: 10.1021/acs.jctc.9b00143
   
   for SPH calculations refer to:
   * S. Spicher and S. Grimme, J. Chem. Theory Comput., 2021, 17, 1701-1714
     DOI: 10.1021/acs.jctc.0c01306
   
   with help from (in alphabetical order)
   P. Atkinson, C. Bannwarth, F. Bohle, G. Brandenburg, E. Caldeweyher
   M. Checinski, S. Dohm, S. Ehlert, S. Ehrlich, I. Gerasimov, J. Koopman
   C. Lavigne, S. Lehtola, F. März, M. Müller, F. Musil, H. Neugebauer
   J. Pisarek, C. Plett, P. Pracht, J. Seibert, P. Shushkov, S. Spicher
   M. Stahn, M. Steiner, T. Strunk, J. Stückrath, T. Rose, and J. Unsleber
   
 * started run on 2021/11/18 at 17:23:43.016     

           -------------------------------------------------
          |                Calculation Setup                |
           -------------------------------------------------

          program call               : /home/jeff/miniconda3/bin/xtb input_structure_1.xyz --gfn 2 --ohess normal --parallel 1 --etemp 300 --chrg 0 --uhf 0 -I det_control.in
          hostname                   : jelfscompute1
          coordinate file            : input_structure_1.xyz
          omp threads                :                     1
          number of atoms            :                   118
          number of electrons        :                   370
          charge                     :                     0
          spin                       :                   0.0
          first test random number   :      0.86469577930842

   ID    Z sym.   atoms
    1    6 C      1-8, 10-14, 16-20, 22, 23, 38-45, 47-51, 53-57, 59, 60,
                  75-90, 92-96, 98-102, 104, 105
    2    7 N      9, 15, 21, 24, 46, 52, 58, 61, 91, 97, 103, 106
    3    1 H      25-37, 62-74, 107-118

           -------------------------------------------------
          |                 G F N 2 - x T B                 |
           -------------------------------------------------

        Reference                      10.1021/acs.jctc.8b01176
      * Hamiltonian:
        H0-scaling (s, p, d)           1.850000    2.230000    2.230000
        zeta-weighting                 0.500000
      * Dispersion:
        s8                             2.700000
        a1                             0.520000
        a2                             5.000000
        s9                             5.000000
      * Repulsion:
        kExp                           1.500000    1.000000
        rExp                           1.000000
      * Coulomb:
        alpha                          2.000000
        third order                    shell-resolved
        anisotropic                    true
        a3                             3.000000
        a5                             4.000000
        cn-shift                       1.200000
        cn-exp                         4.000000
        max-rad                        5.000000


          ...................................................
          :                      SETUP                      :
          :.................................................:
          :  # basis functions                 358          :
          :  # atomic orbitals                 358          :
          :  # shells                          198          :
          :  # electrons                       370          :
          :  max. iterations                   250          :
          :  Hamiltonian                  GFN2-xTB          :
          :  restarted?                      false          :
          :  GBSA solvation                  false          :
          :  PC potential                    false          :
          :  electronic temp.          300.0000000     K    :
          :  accuracy                    1.0000000          :
          :  -> integral cutoff          0.2500000E+02      :
          :  -> integral neglect         0.1000000E-07      :
          :  -> SCF convergence          0.1000000E-05 Eh   :
          :  -> wf. convergence          0.1000000E-03 e    :
          :  Broyden damping             0.4000000          :
          ...................................................

 iter      E             dE          RMSdq      gap      omega  full diag
   1   -202.6903244 -0.202690E+03  0.521E+00    0.62       0.0  T
   2   -202.9787766 -0.288452E+00  0.326E+00    0.69       1.0  T
   3   -202.7673923  0.211384E+00  0.168E+00    0.72       1.0  T
   4   -202.5884938  0.178899E+00  0.147E+00    0.47       1.0  T
   5   -202.9982524 -0.409759E+00  0.450E-01    0.75       1.0  T
   6   -203.0350774 -0.368250E-01  0.149E-01    0.68       1.0  T
   7   -203.0375035 -0.242607E-02  0.802E-02    0.69       1.0  T
   8   -203.0375349 -0.314736E-04  0.612E-02    0.68       1.0  T
   9   -203.0378330 -0.298090E-03  0.441E-02    0.68       1.0  T
  10   -203.0381033 -0.270279E-03  0.198E-02    0.69       1.0  T
  11   -203.0381553 -0.519715E-04  0.841E-03    0.69       1.1  T
  12   -203.0381633 -0.803752E-05  0.445E-03    0.68       2.1  T
  13   -203.0381646 -0.132579E-05  0.295E-03    0.69       3.1  T
  14   -203.0381662 -0.160679E-05  0.841E-04    0.69      11.0  T
  15   -203.0381664 -0.108092E-06  0.387E-04    0.69      23.8  T
  16   -203.0381664 -0.765991E-08  0.229E-04    0.69      40.1  T

   *** convergence criteria satisfied after 16 iterations ***

         #    Occupation            Energy/Eh            Energy/eV
      -------------------------------------------------------------
         1        2.0000           -0.6898827             -18.7727
       ...           ...                  ...                  ...
       179        2.0000           -0.3551892              -9.6652
       180        2.0000           -0.3543462              -9.6423
       181        2.0000           -0.3494731              -9.5096
       182        2.0000           -0.3457553              -9.4085
       183        2.0000           -0.3446952              -9.3796
       184        2.0000           -0.3417993              -9.3008
       185        2.0000           -0.3383337              -9.2065 (HOMO)
       186        0.0000           -0.3131554              -8.5214 (LUMO)
       187                         -0.3049728              -8.2987
       188                         -0.3037693              -8.2660
       189                         -0.2949547              -8.0261
       190                         -0.2936001              -7.9893
       ...                                ...                  ...
       358                          1.5047997              40.9477
      -------------------------------------------------------------
                  HL-Gap            0.0251783 Eh            0.6851 eV
             Fermi-level           -0.3257317 Eh           -8.8636 eV

 SCC (total)                   0 d,  0 h,  0 min,  0.637 sec
 SCC setup                      ...        0 min,  0.002 sec (  0.380%)
 Dispersion                     ...        0 min,  0.005 sec (  0.827%)
 classical contributions        ...        0 min,  0.001 sec (  0.129%)
 integral evaluation            ...        0 min,  0.043 sec (  6.704%)
 iterations                     ...        0 min,  0.438 sec ( 68.777%)
 molecular gradient             ...        0 min,  0.145 sec ( 22.738%)
 printout                       ...        0 min,  0.003 sec (  0.443%)

         :::::::::::::::::::::::::::::::::::::::::::::::::::::
         ::                     SUMMARY                     ::
         :::::::::::::::::::::::::::::::::::::::::::::::::::::
         :: total energy            -199.401135691159 Eh    ::
         :: gradient norm              0.440954766585 Eh/a0 ::
         :: HOMO-LUMO gap              0.685135496431 eV    ::
         ::.................................................::
         :: SCC energy              -203.038166363735 Eh    ::
         :: -> isotropic ES            0.116598102510 Eh    ::
         :: -> anisotropic ES         -0.003082970024 Eh    ::
         :: -> anisotropic XC          0.153136126652 Eh    ::
         :: -> dispersion             -0.160317878952 Eh    ::
         :: repulsion energy           3.637053242293 Eh    ::
         :: add. restraining           0.000000000000 Eh    ::
         :: total charge               0.000000000006 e     ::
         :::::::::::::::::::::::::::::::::::::::::::::::::::::

      ----------------------------------------------------------- 
     |                   =====================                   |
     |                        A N C O P T                        |
     |                   =====================                   |
     |               Approximate Normal Coordinate               |
     |                Rational Function Optimizer                |
      ----------------------------------------------------------- 

          ...................................................
          :                      SETUP                      :
          :.................................................:
          :   optimization level            normal          :
          :   max. optcycles                   354          :
          :   ANC micro-cycles                  20          :
          :   degrees of freedom               348          :
          :.................................................:
          :   RF solver                   davidson          :
          :   write xtbopt.log                true          :
          :   linear?                        false          :
          :   energy convergence         0.5000000E-05 Eh   :
          :   grad. convergence          0.1000000E-02 Eh/α :
          :   maximium RF displ.         1.0000000          :
          :   Hlow (freq-cutoff)         0.1000000E-01      :
          :   Hmax (freq-cutoff)         5.0000000          :
          :   S6 in model hess.         20.0000000          :
          ...................................................

generating ANC from model Hessian ...
Using Lindh-Hessian (1995)
 Shifting diagonal of input Hessian by    1.0001210382808811E-002
 Lowest  eigenvalues of input Hessian
    0.010000    0.000000    0.000000    0.000000    0.000000    0.000000
    0.000000    0.010004    0.010007    0.010010    0.010020    0.010029
    0.010055    0.010100    0.010166    0.010344    0.010555    0.010865
 Highest eigenvalues
    2.248284    2.255192    2.282383    2.298124    2.704435    2.731374


........................................................................
.............................. CYCLE    1 ..............................
........................................................................
   1   -203.0381664 -0.203038E+03  0.874E-05    0.69       0.0  T
   2   -203.0381664  0.176124E-08  0.114E-04    0.69      80.9  T
   3   -203.0381664 -0.238194E-08  0.444E-05    0.69     207.5  T
     SCC iter.                  ...        0 min,  0.078 sec
     gradient                   ...        0 min,  0.144 sec
 * total energy  :  -199.4011357 Eh     change       -0.5478114E-08 Eh
   gradient norm :     0.4409535 Eh/α   predicted     0.0000000E+00 (-100.00%)
   displ. norm   :     0.5466708 α      lambda       -0.1803394E+00
   maximum displ.:     0.1543185 α      in ANC's #220, #176, #173, ...

........................................................................
.............................. CYCLE    2 ..............................
........................................................................
   1   -203.1459520 -0.203146E+03  0.336E-01    0.67       0.0  T
   2   -203.1467293 -0.777311E-03  0.203E-01    0.68       1.0  T
   3   -203.1417056  0.502372E-02  0.183E-01    0.68       1.0  T
   4   -203.1455131 -0.380752E-02  0.972E-02    0.67       1.0  T
   5   -203.1472544 -0.174129E-02  0.343E-02    0.68       1.0  T
   6   -203.1474437 -0.189303E-03  0.125E-02    0.68       1.0  T
   7   -203.1474610 -0.172954E-04  0.670E-03    0.68       1.4  T
   8   -203.1474614 -0.414587E-06  0.571E-03    0.68       1.6  T
   9   -203.1474672 -0.578687E-05  0.192E-03    0.68       4.8  T
  10   -203.1474678 -0.635177E-06  0.691E-04    0.68      13.3  T
  11   -203.1474679 -0.396558E-07  0.314E-04    0.68      29.3  T
     SCC iter.                  ...        0 min,  0.274 sec
     gradient                   ...        0 min,  0.144 sec
 * total energy  :  -199.5429712 Eh     change       -0.1418355E+00 Eh
   gradient norm :     0.2310620 Eh/α   predicted    -0.1172085E+00 ( -17.36%)
   displ. norm   :     0.6202399 α      lambda       -0.1064222E+00
   maximum displ.:     0.1449146 α      in ANC's #220, #58, #65, ...

........................................................................
.............................. CYCLE    3 ..............................
........................................................................
   1   -203.2524109 -0.203252E+03  0.334E-01    0.65       0.0  T
   2   -203.2531776 -0.766703E-03  0.199E-01    0.65       1.0  T
   3   -203.2491668  0.401088E-02  0.164E-01    0.65       1.0  T
   4   -203.2520352 -0.286841E-02  0.919E-02    0.65       1.0  T
   5   -203.2536248 -0.158964E-02  0.321E-02    0.65       1.0  T
   6   -203.2537892 -0.164367E-03  0.151E-02    0.65       1.0  T
   7   -203.2538289 -0.397210E-04  0.650E-03    0.65       1.4  T
   8   -203.2538335 -0.456432E-05  0.393E-03    0.65       2.3  T
   9   -203.2538353 -0.178551E-05  0.163E-03    0.65       5.6  T
  10   -203.2538357 -0.396226E-06  0.579E-04    0.65      15.9  T
  11   -203.2538357 -0.321002E-07  0.267E-04    0.65      34.4  T
     SCC iter.                  ...        0 min,  0.274 sec
     gradient                   ...        0 min,  0.144 sec
 * total energy  :  -199.6132723 Eh     change       -0.7030112E-01 Eh
   gradient norm :     0.0771457 Eh/α   predicted    -0.7368131E-01 (   4.81%)
   displ. norm   :     0.7227577 α      lambda       -0.4068836E-01
   maximum displ.:     0.2457452 α      in ANC's #58, #65, #41, ...

........................................................................
.............................. CYCLE    4 ..............................
........................................................................
   1   -203.3041801 -0.203304E+03  0.247E-01    0.67       0.0  T
   2   -203.3041728  0.729654E-05  0.147E-01    0.67       1.0  T
   3   -203.3014734  0.269943E-02  0.118E-01    0.67       1.0  T
   4   -203.3038786 -0.240524E-02  0.416E-02    0.68       1.0  T
   5   -203.3042858 -0.407203E-03  0.107E-02    0.67       1.0  T
   6   -203.3043078 -0.220150E-04  0.379E-03    0.67       2.4  T
   7   -203.3043089 -0.109354E-05  0.251E-03    0.67       3.7  T
   8   -203.3043094 -0.445149E-06  0.135E-03    0.67       6.8  T
   9   -203.3043097 -0.286218E-06  0.497E-04    0.67      18.5  T
  10   -203.3043097 -0.369505E-07  0.215E-04    0.67      42.7  T
     SCC iter.                  ...        0 min,  0.249 sec
     gradient                   ...        0 min,  0.144 sec
 * total energy  :  -199.6474934 Eh     change       -0.3422116E-01 Eh
   gradient norm :     0.0548204 Eh/α   predicted    -0.3097157E-01 (  -9.50%)
   displ. norm   :     0.8268877 α      lambda       -0.3302363E-01
   maximum displ.:     0.3175658 α      in ANC's #58, #25, #41, ...

........................................................................
.............................. CYCLE    5 ..............................
........................................................................
   1   -203.3563948 -0.203356E+03  0.224E-01    0.72       0.0  T
   2   -203.3563610  0.337409E-04  0.132E-01    0.72       1.0  T
   3   -203.3537601  0.260096E-02  0.116E-01    0.72       1.0  T
   4   -203.3561787 -0.241859E-02  0.353E-02    0.72       1.0  T
   5   -203.3564829 -0.304201E-03  0.716E-03    0.72       1.3  T
   6   -203.3564913 -0.845833E-05  0.303E-03    0.72       3.0  T
   7   -203.3564919 -0.584812E-06  0.176E-03    0.72       5.2  T
   8   -203.3564922 -0.294953E-06  0.103E-03    0.72       8.9  T
   9   -203.3564924 -0.201719E-06  0.342E-04    0.72      26.9  T
  10   -203.3564924 -0.176717E-07  0.144E-04    0.72      63.8  T
     SCC iter.                  ...        0 min,  0.249 sec
     gradient                   ...        0 min,  0.144 sec
 * total energy  :  -199.6763862 Eh     change       -0.2889282E-01 Eh
   gradient norm :     0.0416638 Eh/α   predicted    -0.2780166E-01 (  -3.78%)
   displ. norm   :     0.8619764 α      lambda       -0.2714774E-01
   maximum displ.:     0.3254170 α      in ANC's #58, #25, #41, ...

........................................................................
.............................. CYCLE    6 ..............................
........................................................................
   1   -203.4049921 -0.203405E+03  0.204E-01    0.77       0.0  T
   2   -203.4049937 -0.158015E-05  0.120E-01    0.77       1.0  T
   3   -203.4033992  0.159444E-02  0.972E-02    0.77       1.0  T
   4   -203.4048854 -0.148619E-02  0.289E-02    0.77       1.0  T
   5   -203.4050826 -0.197156E-03  0.804E-03    0.77       1.1  T
   6   -203.4050949 -0.123449E-04  0.318E-03    0.77       2.9  T
   7   -203.4050961 -0.120409E-05  0.164E-03    0.77       5.6  T
   8   -203.4050963 -0.161081E-06  0.111E-03    0.77       8.3  T
   9   -203.4050965 -0.241031E-06  0.301E-04    0.77      30.6  T
  10   -203.4050965 -0.126209E-07  0.118E-04    0.77      78.2  T
     SCC iter.                  ...        0 min,  0.250 sec
     gradient                   ...        0 min,  0.144 sec
 * total energy  :  -199.7007302 Eh     change       -0.2434396E-01 Eh
   gradient norm :     0.0348220 Eh/α   predicted    -0.2365930E-01 (  -2.81%)
   displ. norm   :     0.8886383 α      lambda       -0.2326675E-01
   maximum displ.:     0.3545053 α      in ANC's #25, #58, #41, ...

........................................................................
.............................. CYCLE    7 ..............................
........................................................................
   1   -203.4448307 -0.203445E+03  0.206E-01    0.84       0.0  T
   2   -203.4448555 -0.247137E-04  0.121E-01    0.83       1.0  T
   3   -203.4439108  0.944665E-03  0.758E-02    0.84       1.0  T
   4   -203.4447757 -0.864908E-03  0.237E-02    0.84       1.0  T
   5   -203.4449131 -0.137439E-03  0.627E-03    0.83       1.5  T
   6   -203.4449196 -0.646500E-05  0.293E-03    0.83       3.1  T
   7   -203.4449206 -0.941146E-06  0.134E-03    0.83       6.9  T
   8   -203.4449206 -0.987182E-07  0.736E-04    0.83      12.5  T
   9   -203.4449208 -0.100784E-06  0.228E-04    0.83      40.3  T
     SCC iter.                  ...        0 min,  0.226 sec
     gradient                   ...        0 min,  0.144 sec
 * total energy  :  -199.7212426 Eh     change       -0.2051241E-01 Eh
   gradient norm :     0.0288571 Eh/α   predicted    -0.2082001E-01 (   1.50%)
   displ. norm   :     0.9143228 α      lambda       -0.2023181E-01
   maximum displ.:     0.4134343 α      in ANC's #25, #58, #24, ...

........................................................................
.............................. CYCLE    8 ..............................
........................................................................
   1   -203.4744127 -0.203474E+03  0.222E-01    0.90       0.0  T
   2   -203.4744537 -0.410148E-04  0.131E-01    0.89       1.0  T
   3   -203.4740945  0.359210E-03  0.541E-02    0.90       1.0  T
   4   -203.4744569 -0.362436E-03  0.141E-02    0.90       1.0  T
   5   -203.4744910 -0.340376E-04  0.425E-03    0.90       2.2  T
   6   -203.4744913 -0.339122E-06  0.312E-03    0.90       2.9  T
   7   -203.4744925 -0.121502E-05  0.140E-03    0.90       6.6  T
   8   -203.4744928 -0.285059E-06  0.569E-04    0.90      16.2  T
   9   -203.4744929 -0.491464E-07  0.266E-04    0.90      34.7  T
     SCC iter.                  ...        0 min,  0.226 sec
     gradient                   ...        0 min,  0.144 sec
 * total energy  :  -199.7377448 Eh     change       -0.1650215E-01 Eh
   gradient norm :     0.0269335 Eh/α   predicted    -0.1857266E-01 (  12.55%)
   displ. norm   :     0.8784105 α      lambda       -0.1663017E-01
   maximum displ.:     0.4075788 α      in ANC's #25, #24, #58, ...

........................................................................
.............................. CYCLE    9 ..............................
........................................................................
   1   -203.4941657 -0.203494E+03  0.198E-01    0.94       0.0  T
   2   -203.4941903 -0.245373E-04  0.117E-01    0.93       1.0  T
   3   -203.4938317  0.358566E-03  0.536E-02    0.94       1.0  T
   4   -203.4942066 -0.374917E-03  0.116E-02    0.94       1.0  T
   5   -203.4942246 -0.179639E-04  0.364E-03    0.94       2.5  T
   6   -203.4942247 -0.977328E-07  0.282E-03    0.94       3.3  T
   7   -203.4942258 -0.109973E-05  0.920E-04    0.94      10.0  T
   8   -203.4942259 -0.931389E-07  0.328E-04    0.94      28.0  T
   9   -203.4942259 -0.940616E-08  0.152E-04    0.94      60.8  T
     SCC iter.                  ...        0 min,  0.226 sec
     gradient                   ...        0 min,  0.144 sec
 * total energy  :  -199.7514952 Eh     change       -0.1375047E-01 Eh
   gradient norm :     0.0266739 Eh/α   predicted    -0.1473107E-01 (   7.13%)
   displ. norm   :     0.8555616 α      lambda       -0.1273731E-01
   maximum displ.:     0.4500294 α      in ANC's #25, #24, #22, ...

........................................................................
.............................. CYCLE   10 ..............................
........................................................................
   1   -203.5056194 -0.203506E+03  0.202E-01    0.96       0.0  T
   2   -203.5056237 -0.434554E-05  0.119E-01    0.96       1.0  T
   3   -203.5047384  0.885354E-03  0.701E-02    0.96       1.0  T
   4   -203.5056474 -0.909084E-03  0.123E-02    0.96       1.0  T
   5   -203.5056727 -0.253081E-04  0.317E-03    0.96       2.9  T
   6   -203.5056733 -0.541051E-06  0.205E-03    0.96       4.5  T
   7   -203.5056736 -0.350619E-06  0.991E-04    0.96       9.3  T
   8   -203.5056737 -0.101851E-06  0.492E-04    0.96      18.7  T
     SCC iter.                  ...        0 min,  0.203 sec
     gradient                   ...        0 min,  0.144 sec
 * total energy  :  -199.7623592 Eh     change       -0.1086397E-01 Eh
   gradient norm :     0.0241604 Eh/α   predicted    -0.1103042E-01 (   1.53%)
   displ. norm   :     0.8541926 α      lambda       -0.1077454E-01
   maximum displ.:     0.4666890 α      in ANC's #25, #24, #15, ...

........................................................................
.............................. CYCLE   11 ..............................
........................................................................
   1   -203.5205528 -0.203521E+03  0.176E-01    0.97       0.0  T
   2   -203.5205573 -0.453301E-05  0.104E-01    0.97       1.0  T
   3   -203.5199473  0.609962E-03  0.621E-02    0.97       1.0  T
   4   -203.5205793 -0.631921E-03  0.106E-02    0.97       1.0  T
   5   -203.5205970 -0.177150E-04  0.385E-03    0.97       2.4  T
   6   -203.5205990 -0.206018E-05  0.212E-03    0.97       4.3  T
   7   -203.5205995 -0.485203E-06  0.946E-04    0.97       9.7  T
   8   -203.5205996 -0.805589E-07  0.345E-04    0.97      26.7  T
     SCC iter.                  ...        0 min,  0.201 sec
     gradient                   ...        0 min,  0.144 sec
 * total energy  :  -199.7716157 Eh     change       -0.9256457E-02 Eh
   gradient norm :     0.0195288 Eh/α   predicted    -0.9318072E-02 (   0.67%)
   displ. norm   :     0.8399648 α      lambda       -0.8806601E-02
   maximum displ.:     0.4655055 α      in ANC's #25, #24, #15, ...

........................................................................
.............................. CYCLE   12 ..............................
........................................................................
   1   -203.5302717 -0.203530E+03  0.167E-01    0.98       0.0  T
   2   -203.5302775 -0.576264E-05  0.985E-02    0.97       1.0  T
   3   -203.5298192  0.458298E-03  0.434E-02    0.98       1.0  T
   4   -203.5302922 -0.473070E-03  0.890E-03    0.97       1.0  T
   5   -203.5303046 -0.123107E-04  0.326E-03    0.97       2.8  T
   6   -203.5303054 -0.813890E-06  0.193E-03    0.97       4.8  T
   7   -203.5303057 -0.303914E-06  0.858E-04    0.97      10.7  T
   8   -203.5303057 -0.666249E-07  0.320E-04    0.97      28.8  T
     SCC iter.                  ...        0 min,  0.201 sec
     gradient                   ...        0 min,  0.144 sec
 * total energy  :  -199.7791785 Eh     change       -0.7562830E-02 Eh
   gradient norm :     0.0171928 Eh/α   predicted    -0.7510026E-02 (  -0.70%)
   displ. norm   :     0.8769729 α      lambda       -0.8416385E-02
   maximum displ.:     0.4717470 α      in ANC's #25, #24, #15, ...

........................................................................
.............................. CYCLE   13 ..............................
........................................................................
   1   -203.5390079 -0.203539E+03  0.234E-01    0.98       0.0  T
   2   -203.5389934  0.145482E-04  0.139E-01    0.97       1.0  T
   3   -203.5377490  0.124442E-02  0.850E-02    0.98       1.0  T
   4   -203.5390426 -0.129364E-02  0.108E-02    0.98       1.0  T
   5   -203.5390596 -0.170188E-04  0.429E-03    0.97       2.1  T
   6   -203.5390609 -0.122908E-05  0.249E-03    0.97       3.7  T
   7   -203.5390612 -0.397674E-06  0.106E-03    0.97       8.7  T
   8   -203.5390614 -0.101635E-06  0.411E-04    0.98      22.4  T
   9   -203.5390614 -0.204385E-07  0.204E-04    0.97      45.1  T
     SCC iter.                  ...        0 min,  0.226 sec
     gradient                   ...        0 min,  0.144 sec
 * total energy  :  -199.7849576 Eh     change       -0.5779121E-02 Eh
   gradient norm :     0.0231347 Eh/α   predicted    -0.7444636E-02 (  28.82%)
   displ. norm   :     0.7561743 α      lambda       -0.7215874E-02
   maximum displ.:     0.3837429 α      in ANC's #25, #24, #15, ...

........................................................................
.............................. CYCLE   14 ..............................
........................................................................
   1   -203.5457556 -0.203546E+03  0.181E-01    0.98       0.0  T
   2   -203.5457480  0.761176E-05  0.108E-01    0.98       1.0  T
   3   -203.5450258  0.722212E-03  0.673E-02    0.98       1.0  T
   4   -203.5457873 -0.761498E-03  0.865E-03    0.98       1.1  T
   5   -203.5457986 -0.112453E-04  0.359E-03    0.98       2.6  T
   6   -203.5457998 -0.122823E-05  0.220E-03    0.98       4.2  T
   7   -203.5458002 -0.430136E-06  0.811E-04    0.98      11.3  T
   8   -203.5458003 -0.710752E-07  0.248E-04    0.98      37.1  T
     SCC iter.                  ...        0 min,  0.201 sec
     gradient                   ...        0 min,  0.144 sec
 * total energy  :  -199.7905652 Eh     change       -0.5607558E-02 Eh
   gradient norm :     0.0202587 Eh/α   predicted    -0.5670948E-02 (   1.13%)
   displ. norm   :     0.7652431 α      lambda       -0.5295303E-02
   maximum displ.:     0.3695863 α      in ANC's #25, #15, #24, ...

........................................................................
.............................. CYCLE   15 ..............................
........................................................................
   1   -203.5509462 -0.203551E+03  0.158E-01    0.99       0.0  T
   2   -203.5509503 -0.410557E-05  0.932E-02    0.99       1.0  T
   3   -203.5506316  0.318750E-03  0.396E-02    0.99       1.0  T
   4   -203.5509630 -0.331470E-03  0.782E-03    0.99       1.2  T
   5   -203.5509719 -0.889413E-05  0.253E-03    0.99       3.6  T
   6   -203.5509721 -0.179427E-06  0.180E-03    0.99       5.1  T
   7   -203.5509725 -0.401188E-06  0.693E-04    0.99      13.3  T
   8   -203.5509726 -0.548258E-07  0.210E-04    0.99      43.7  T
     SCC iter.                  ...        0 min,  0.233 sec
     gradient                   ...        0 min,  0.146 sec
 * total energy  :  -199.7949010 Eh     change       -0.4335783E-02 Eh
   gradient norm :     0.0169808 Eh/α   predicted    -0.4198115E-02 (  -3.18%)
   displ. norm   :     0.8029649 α      lambda       -0.4806095E-02
   maximum displ.:     0.3582596 α      in ANC's #15, #25, #24, ...

........................................................................
.............................. CYCLE   16 ..............................
........................................................................
   1   -203.5541996 -0.203554E+03  0.166E-01    0.99       0.0  T
   2   -203.5542056 -0.596134E-05  0.974E-02    0.99       1.0  T
   3   -203.5538690  0.336528E-03  0.384E-02    0.99       1.0  T
   4   -203.5542199 -0.350877E-03  0.768E-03    0.99       1.2  T
   5   -203.5542284 -0.848529E-05  0.287E-03    0.99       3.2  T
   6   -203.5542288 -0.364206E-06  0.189E-03    0.99       4.9  T
   7   -203.5542291 -0.324421E-06  0.713E-04    0.99      12.9  T
   8   -203.5542291 -0.505651E-07  0.198E-04    0.99      46.4  T
     SCC iter.                  ...        0 min,  0.202 sec
     gradient                   ...        0 min,  0.145 sec
 * total energy  :  -199.7986075 Eh     change       -0.3706573E-02 Eh
   gradient norm :     0.0180254 Eh/α   predicted    -0.3952423E-02 (   6.63%)
   displ. norm   :     0.7471598 α      lambda       -0.3905409E-02
   maximum displ.:     0.3644811 α      in ANC's #15, #25, #24, ...

........................................................................
.............................. CYCLE   17 ..............................
........................................................................
   1   -203.5626487 -0.203563E+03  0.155E-01    0.99       0.0  T
   2   -203.5626556 -0.692467E-05  0.912E-02    0.99       1.0  T
   3   -203.5624788  0.176771E-03  0.289E-02    1.00       1.0  T
   4   -203.5626638 -0.185028E-03  0.605E-03    0.99       1.5  T
   5   -203.5626689 -0.502402E-05  0.242E-03    0.99       3.8  T
   6   -203.5626691 -0.242905E-06  0.154E-03    0.99       6.0  T
   7   -203.5626693 -0.228785E-06  0.700E-04    0.99      13.2  T
   8   -203.5626694 -0.619705E-07  0.175E-04    0.99      52.5  T
     SCC iter.                  ...        0 min,  0.202 sec
     gradient                   ...        0 min,  0.145 sec
 * total energy  :  -199.8015918 Eh     change       -0.2984237E-02 Eh
   gradient norm :     0.0175648 Eh/α   predicted    -0.3042801E-02 (   1.96%)
   displ. norm   :     0.7371107 α      lambda       -0.3324445E-02
   maximum displ.:     0.3977044 α      in ANC's #15, #25, #24, ...

........................................................................
.............................. CYCLE   18 ..............................
........................................................................
   1   -203.5655869 -0.203566E+03  0.149E-01    1.00       0.0  T
   2   -203.5655972 -0.103133E-04  0.876E-02    1.00       1.0  T
   3   -203.5654554  0.141784E-03  0.269E-02    1.00       1.0  T
   4   -203.5655960 -0.140571E-03  0.761E-03    1.00       1.2  T
   5   -203.5656080 -0.120529E-04  0.262E-03    1.00       3.5  T
   6   -203.5656086 -0.587624E-06  0.156E-03    1.00       5.9  T
   7   -203.5656089 -0.233412E-06  0.721E-04    1.00      12.8  T
   8   -203.5656089 -0.650901E-07  0.265E-04    1.00      34.8  T
     SCC iter.                  ...        0 min,  0.201 sec
     gradient                   ...        0 min,  0.145 sec
 * total energy  :  -199.8033919 Eh     change       -0.1800092E-02 Eh
   gradient norm :     0.0276311 Eh/α   predicted    -0.2565370E-02 (  42.51%)
   displ. norm   :     0.5803402 α      lambda       -0.2807597E-02
   maximum displ.:     0.2987647 α      in ANC's #15, #25, #14, ...

........................................................................
.............................. CYCLE   19 ..............................
........................................................................
   1   -203.5702676 -0.203570E+03  0.120E-01    1.00       0.0  T
   2   -203.5702733 -0.566810E-05  0.705E-02    1.00       1.0  T
   3   -203.5701755  0.978296E-04  0.225E-02    1.00       1.0  T
   4   -203.5702775 -0.102053E-03  0.449E-03    1.00       2.1  T
   5   -203.5702804 -0.284449E-05  0.215E-03    1.00       4.3  T
   6   -203.5702808 -0.398713E-06  0.122E-03    1.00       7.6  T
   7   -203.5702809 -0.962799E-07  0.646E-04    1.00      14.2  T
   8   -203.5702809 -0.469508E-07  0.169E-04    1.00      54.5  T
     SCC iter.                  ...        0 min,  0.202 sec
     gradient                   ...        0 min,  0.145 sec
 * total energy  :  -199.8051124 Eh     change       -0.1720551E-02 Eh
   gradient norm :     0.0186169 Eh/α   predicted    -0.1876593E-02 (   9.07%)
   displ. norm   :     0.5835050 α      lambda       -0.2244249E-02
   maximum displ.:     0.3715392 α      in ANC's #15, #14, #25, ...

........................................................................
.............................. CYCLE   20 ..............................
........................................................................
   1   -203.5634542 -0.203563E+03  0.116E-01    1.01       0.0  T
   2   -203.5634555 -0.135866E-05  0.687E-02    1.01       1.0  T
   3   -203.5631101  0.345382E-03  0.403E-02    1.01       1.0  T
   4   -203.5634694 -0.359269E-03  0.681E-03    1.01       1.4  T
   5   -203.5634778 -0.844471E-05  0.251E-03    1.01       3.7  T
   6   -203.5634783 -0.482965E-06  0.172E-03    1.01       5.4  T
   7   -203.5634787 -0.402376E-06  0.593E-04    1.01      15.5  T
   8   -203.5634788 -0.363202E-07  0.277E-04    1.01      33.3  T
     SCC iter.                  ...        0 min,  0.201 sec
     gradient                   ...        0 min,  0.145 sec
 * total energy  :  -199.8058857 Eh     change       -0.7732947E-03 Eh
   gradient norm :     0.0310393 Eh/α   predicted    -0.1504184E-02 (  94.52%)
   displ. norm   :     0.4083573 α      lambda       -0.2358707E-02
   maximum displ.:     0.2417667 α      in ANC's #15, #14, #24, ...
 * RMSD in coord.:     1.1229092 α      energy gain  -0.4047500E+00 Eh

generating ANC from model Hessian ...
Using Lindh-Hessian (1995)
 Shifting diagonal of input Hessian by    9.9958643795699138E-003
 Lowest  eigenvalues of input Hessian
    0.000000    0.000000    0.000000    0.000000    0.000000    0.000000
    0.010000    0.010004    0.010006    0.010012    0.010015    0.010016
    0.010088    0.010107    0.010229    0.010338    0.010851    0.010864
 Highest eigenvalues
    2.246561    2.255306    2.396596    2.399764    2.914674    2.916321


........................................................................
.............................. CYCLE   21 ..............................
........................................................................
   1   -203.5754484 -0.203575E+03  0.809E-02    1.00       0.0  T
   2   -203.5754437  0.470951E-05  0.472E-02    1.00       1.0  T
   3   -203.5751585  0.285229E-03  0.338E-02    1.00       1.0  T
   4   -203.5754577 -0.299237E-03  0.422E-03    1.00       2.2  T
   5   -203.5754597 -0.198979E-05  0.199E-03    1.00       4.6  T
   6   -203.5754601 -0.348408E-06  0.105E-03    1.00       8.8  T
   7   -203.5754601 -0.611087E-07  0.455E-04    1.00      20.2  T
   8   -203.5754601 -0.331467E-07  0.179E-04    1.00      51.5  T
     SCC iter.                  ...        0 min,  0.199 sec
     gradient                   ...        0 min,  0.145 sec
 * total energy  :  -199.8068775 Eh     change       -0.9917687E-03 Eh
   gradient norm :     0.0290394 Eh/α   predicted     0.0000000E+00 (-100.00%)
   displ. norm   :     0.2483263 α      lambda       -0.1951582E-02
   maximum displ.:     0.1445002 α      in ANC's #14, #11, #25, ...

........................................................................
.............................. CYCLE   22 ..............................
........................................................................
   1   -203.5752555 -0.203575E+03  0.768E-02    1.00       0.0  T
   2   -203.5752562 -0.641910E-06  0.456E-02    1.00       1.0  T
   3   -203.5751729  0.832677E-04  0.195E-02    1.00       1.0  T
   4   -203.5752593 -0.863903E-04  0.319E-03    1.00       2.9  T
   5   -203.5752610 -0.170292E-05  0.154E-03    1.00       6.0  T
   6   -203.5752612 -0.216022E-06  0.920E-04    1.00      10.0  T
   7   -203.5752613 -0.703631E-07  0.396E-04    1.00      23.2  T
     SCC iter.                  ...        0 min,  0.177 sec
     gradient                   ...        0 min,  0.145 sec
 * total energy  :  -199.8081972 Eh     change       -0.1319711E-02 Eh
   gradient norm :     0.0100922 Eh/α   predicted    -0.1036109E-02 ( -21.49%)
   displ. norm   :     0.5065751 α      lambda       -0.2391705E-02
   maximum displ.:     0.3060620 α      in ANC's #14, #11, #16, ...

........................................................................
.............................. CYCLE   23 ..............................
........................................................................
   1   -203.5726038 -0.203573E+03  0.144E-01    1.01       0.0  T
   2   -203.5726036  0.204878E-06  0.858E-02    1.01       1.0  T
   3   -203.5722876  0.315978E-03  0.362E-02    1.01       1.0  T
   4   -203.5726143 -0.326734E-03  0.611E-03    1.01       1.5  T
   5   -203.5726203 -0.600420E-05  0.276E-03    1.01       3.3  T
   6   -203.5726209 -0.598327E-06  0.159E-03    1.01       5.8  T
   7   -203.5726211 -0.169736E-06  0.709E-04    1.01      13.0  T
   8   -203.5726212 -0.594597E-07  0.213E-04    1.01      43.1  T
     SCC iter.                  ...        0 min,  0.201 sec
     gradient                   ...        0 min,  0.145 sec
 * total energy  :  -199.8085244 Eh     change       -0.3272539E-03 Eh
   gradient norm :     0.0241401 Eh/α   predicted    -0.1502730E-02 ( 359.19%)
   displ. norm   :     0.2422951 α      lambda       -0.1953281E-02
   maximum displ.:     0.1309238 α      in ANC's #14, #11, #25, ...

........................................................................
.............................. CYCLE   24 ..............................
........................................................................
   1   -203.5750936 -0.203575E+03  0.857E-02    1.00       0.0  T
   2   -203.5750942 -0.562778E-06  0.509E-02    1.00       1.0  T
   3   -203.5750708  0.234324E-04  0.124E-02    1.01       1.0  T
   4   -203.5750954 -0.245845E-04  0.202E-03    1.00       4.6  T
   5   -203.5750957 -0.318861E-06  0.124E-03    1.00       7.4  T
   6   -203.5750958 -0.787361E-07  0.744E-04    1.00      12.4  T
   7   -203.5750958 -0.667755E-07  0.215E-04    1.00      42.7  T
     SCC iter.                  ...        0 min,  0.177 sec
     gradient                   ...        0 min,  0.145 sec
 * total energy  :  -199.8098436 Eh     change       -0.1319163E-02 Eh
   gradient norm :     0.0153626 Eh/α   predicted    -0.1033978E-02 ( -21.62%)
   displ. norm   :     0.3956667 α      lambda       -0.1163539E-02
   maximum displ.:     0.2547156 α      in ANC's #14, #11, #17, ...

........................................................................
.............................. CYCLE   25 ..............................
........................................................................
   1   -203.5747761 -0.203575E+03  0.781E-02    1.01       0.0  T
   2   -203.5747770 -0.888737E-06  0.461E-02    1.01       1.0  T
   3   -203.5747493  0.276662E-04  0.135E-02    1.01       1.0  T
   4   -203.5747785 -0.291930E-04  0.196E-03    1.01       4.7  T
   5   -203.5747789 -0.354078E-06  0.111E-03    1.01       8.3  T
   6   -203.5747790 -0.725071E-07  0.728E-04    1.01      12.6  T
   7   -203.5747790 -0.621162E-07  0.209E-04    1.01      44.1  T
     SCC iter.                  ...        0 min,  0.175 sec
     gradient                   ...        0 min,  0.145 sec
 * total energy  :  -199.8107694 Eh     change       -0.9258190E-03 Eh
   gradient norm :     0.0088498 Eh/α   predicted    -0.6728478E-03 ( -27.32%)
   displ. norm   :     0.5585729 α      lambda       -0.1285244E-02
   maximum displ.:     0.3566617 α      in ANC's #14, #11, #17, ...

........................................................................
.............................. CYCLE   26 ..............................
........................................................................
   1   -203.5748505 -0.203575E+03  0.104E-01    1.01       0.0  T
   2   -203.5748526 -0.211262E-05  0.612E-02    1.01       1.0  T
   3   -203.5748314  0.211806E-04  0.125E-02    1.01       1.0  T
   4   -203.5748532 -0.218126E-04  0.298E-03    1.01       3.1  T
   5   -203.5748545 -0.122325E-05  0.122E-03    1.01       7.5  T
   6   -203.5748545 -0.311899E-07  0.859E-04    1.01      10.7  T
   7   -203.5748546 -0.108016E-06  0.251E-04    1.01      36.6  T
     SCC iter.                  ...        0 min,  0.175 sec
     gradient                   ...        0 min,  0.145 sec
 * total energy  :  -199.8117381 Eh     change       -0.9686858E-03 Eh
   gradient norm :     0.0080322 Eh/α   predicted    -0.8431230E-03 ( -12.96%)
   displ. norm   :     0.6057044 α      lambda       -0.1302061E-02
   maximum displ.:     0.3775460 α      in ANC's #14, #11, #16, ...

........................................................................
.............................. CYCLE   27 ..............................
........................................................................
   1   -203.5767381 -0.203577E+03  0.111E-01    1.01       0.0  T
   2   -203.5767400 -0.185896E-05  0.653E-02    1.01       1.0  T
   3   -203.5767103  0.296885E-04  0.140E-02    1.01       1.0  T
   4   -203.5767416 -0.313227E-04  0.267E-03    1.01       3.4  T
   5   -203.5767424 -0.758133E-06  0.129E-03    1.01       7.1  T
   6   -203.5767424 -0.346148E-07  0.857E-04    1.01      10.7  T
   7   -203.5767425 -0.870878E-07  0.277E-04    1.01      33.3  T
     SCC iter.                  ...        0 min,  0.175 sec
     gradient                   ...        0 min,  0.145 sec
 * total energy  :  -199.8127124 Eh     change       -0.9742929E-03 Eh
   gradient norm :     0.0108202 Eh/α   predicted    -0.8898815E-03 (  -8.66%)
   displ. norm   :     0.5953210 α      lambda       -0.1032774E-02
   maximum displ.:     0.3796551 α      in ANC's #14, #11, #16, ...

........................................................................
.............................. CYCLE   28 ..............................
........................................................................
   1   -203.5763378 -0.203576E+03  0.995E-02    1.00       0.0  T
   2   -203.5763393 -0.154553E-05  0.583E-02    1.00       1.0  T
   3   -203.5763202  0.191151E-04  0.110E-02    1.00       1.0  T
   4   -203.5763409 -0.206777E-04  0.178E-03    1.00       5.2  T
   5   -203.5763411 -0.233168E-06  0.101E-03    1.00       9.1  T
   6   -203.5763411 -0.182162E-07  0.566E-04    1.00      16.3  T
   7   -203.5763412 -0.467726E-07  0.243E-04    1.00      37.8  T
     SCC iter.                  ...        0 min,  0.178 sec
     gradient                   ...        0 min,  0.145 sec
 * total energy  :  -199.8135803 Eh     change       -0.8678713E-03 Eh
   gradient norm :     0.0070959 Eh/α   predicted    -0.6993997E-03 ( -19.41%)
   displ. norm   :     0.6377765 α      lambda       -0.9305233E-03
   maximum displ.:     0.4126002 α      in ANC's #14, #11, #16, ...

........................................................................
.............................. CYCLE   29 ..............................
........................................................................
   1   -203.5803801 -0.203580E+03  0.101E-01    1.00       0.0  T
   2   -203.5803823 -0.210688E-05  0.589E-02    1.00       1.0  T
   3   -203.5803621  0.201563E-04  0.119E-02    1.00       1.0  T
   4   -203.5803838 -0.216836E-04  0.224E-03    1.00       4.1  T
   5   -203.5803842 -0.443862E-06  0.118E-03    1.00       7.8  T
   6   -203.5803843 -0.295773E-07  0.768E-04    1.00      12.0  T
   7   -203.5803844 -0.111458E-06  0.277E-04    1.00      33.3  T
     SCC iter.                  ...        0 min,  0.177 sec
     gradient                   ...        0 min,  0.145 sec
 * total energy  :  -199.8143526 Eh     change       -0.7722999E-03 Eh
   gradient norm :     0.0038445 Eh/α   predicted    -0.6545123E-03 ( -15.25%)
   displ. norm   :     0.6899885 α      lambda       -0.7756090E-03
   maximum displ.:     0.4468811 α      in ANC's #14, #11, #5, ...

........................................................................
.............................. CYCLE   30 ..............................
........................................................................
   1   -203.5802578 -0.203580E+03  0.104E-01    1.00       0.0  T
   2   -203.5802602 -0.236198E-05  0.611E-02    1.00       1.0  T
   3   -203.5802398  0.204193E-04  0.117E-02    1.00       1.0  T
   4   -203.5802615 -0.217707E-04  0.233E-03    1.00       4.0  T
   5   -203.5802620 -0.490242E-06  0.135E-03    1.00       6.8  T
   6   -203.5802622 -0.166418E-06  0.734E-04    1.00      12.5  T
   7   -203.5802623 -0.922143E-07  0.242E-04    1.00      38.1  T
     SCC iter.                  ...        0 min,  0.174 sec
     gradient                   ...        0 min,  0.145 sec
 * total energy  :  -199.8150273 Eh     change       -0.6747138E-03 Eh
   gradient norm :     0.0045966 Eh/α   predicted    -0.5724380E-03 ( -15.16%)
   displ. norm   :     0.7185493 α      lambda       -0.7597088E-03
   maximum displ.:     0.4572844 α      in ANC's #14, #11, #5, ...

........................................................................
.............................. CYCLE   31 ..............................
........................................................................
   1   -203.5849080 -0.203585E+03  0.105E-01    1.00       0.0  T
   2   -203.5849110 -0.299949E-05  0.614E-02    1.00       1.0  T
   3   -203.5848828  0.282579E-04  0.123E-02    1.00       1.0  T
   4   -203.5849125 -0.297410E-04  0.277E-03    1.00       3.3  T
   5   -203.5849134 -0.859956E-06  0.147E-03    1.00       6.3  T
   6   -203.5849136 -0.184731E-06  0.758E-04    1.00      12.2  T
   7   -203.5849137 -0.908880E-07  0.317E-04    1.00      29.0  T
     SCC iter.                  ...        0 min,  0.175 sec
     gradient                   ...        0 min,  0.145 sec
 * total energy  :  -199.8156727 Eh     change       -0.6454515E-03 Eh
   gradient norm :     0.0053395 Eh/α   predicted    -0.5759779E-03 ( -10.76%)
   displ. norm   :     0.7443456 α      lambda       -0.6547172E-03
   maximum displ.:     0.4719816 α      in ANC's #14, #11, #8, ...

........................................................................
.............................. CYCLE   32 ..............................
........................................................................
   1   -203.5822630 -0.203582E+03  0.108E-01    1.00       0.0  T
   2   -203.5822663 -0.323194E-05  0.634E-02    1.00       1.0  T
   3   -203.5822466  0.197116E-04  0.105E-02    1.00       1.0  T
   4   -203.5822677 -0.211290E-04  0.263E-03    1.00       3.5  T
   5   -203.5822683 -0.601509E-06  0.151E-03    1.00       6.1  T
   6   -203.5822685 -0.208030E-06  0.708E-04    1.00      13.0  T
   7   -203.5822686 -0.847312E-07  0.228E-04    1.00      40.4  T
     SCC iter.                  ...        0 min,  0.177 sec
     gradient                   ...        0 min,  0.145 sec
 * total energy  :  -199.8162142 Eh     change       -0.5415116E-03 Eh
   gradient norm :     0.0049992 Eh/α   predicted    -0.5087332E-03 (  -6.05%)
   displ. norm   :     0.6972634 α      lambda       -0.5596216E-03
   maximum displ.:     0.4146696 α      in ANC's #14, #11, #8, ...

........................................................................
.............................. CYCLE   33 ..............................
........................................................................
   1   -203.5873610 -0.203587E+03  0.101E-01    1.00       0.0  T
   2   -203.5873646 -0.352075E-05  0.590E-02    1.00       1.0  T
   3   -203.5873417  0.228544E-04  0.994E-03    1.00       1.0  T
   4   -203.5873659 -0.241714E-04  0.289E-03    1.00       3.2  T
   5   -203.5873669 -0.102626E-05  0.150E-03    1.00       6.1  T
   6   -203.5873670 -0.114413E-06  0.899E-04    1.00      10.2  T
   7   -203.5873672 -0.146641E-06  0.247E-04    1.00      37.2  T
     SCC iter.                  ...        0 min,  0.177 sec
     gradient                   ...        0 min,  0.145 sec
 * total energy  :  -199.8166494 Eh     change       -0.4351398E-03 Eh
   gradient norm :     0.0052653 Eh/α   predicted    -0.4158539E-03 (  -4.43%)
   displ. norm   :     0.6695438 α      lambda       -0.3897892E-03
   maximum displ.:     0.4058249 α      in ANC's #14, #11, #8, ...

........................................................................
.............................. CYCLE   34 ..............................
........................................................................
   1   -203.5838770 -0.203584E+03  0.949E-02    0.99       0.0  T
   2   -203.5838800 -0.295539E-05  0.555E-02    0.99       1.0  T
   3   -203.5838745  0.552953E-05  0.606E-03    0.99       1.5  T
   4   -203.5838808 -0.637159E-05  0.222E-03    0.99       4.1  T
   5   -203.5838813 -0.455451E-06  0.131E-03    0.99       7.0  T
   6   -203.5838814 -0.155171E-06  0.593E-04    0.99      15.5  T
   7   -203.5838815 -0.747219E-07  0.204E-04    0.99      45.2  T
     SCC iter.                  ...        0 min,  0.177 sec
     gradient                   ...        0 min,  0.145 sec
 * total energy  :  -199.8169495 Eh     change       -0.3001425E-03 Eh
   gradient norm :     0.0040085 Eh/α   predicted    -0.2822640E-03 (  -5.96%)
   displ. norm   :     0.5493452 α      lambda       -0.2830509E-03
   maximum displ.:     0.2968954 α      in ANC's #14, #8, #5, ...

........................................................................
.............................. CYCLE   35 ..............................
........................................................................
   1   -203.5865280 -0.203587E+03  0.778E-02    0.99       0.0  T
   2   -203.5865303 -0.237618E-05  0.455E-02    0.99       1.0  T
   3   -203.5865212  0.911540E-05  0.752E-03    0.99       1.2  T
   4   -203.5865308 -0.959208E-05  0.254E-03    0.99       3.6  T
   5   -203.5865316 -0.805193E-06  0.113E-03    0.99       8.1  T
   6   -203.5865317 -0.373747E-07  0.676E-04    0.99      13.6  T
   7   -203.5865317 -0.655944E-07  0.183E-04    0.99      50.2  T
     SCC iter.                  ...        0 min,  0.177 sec
     gradient                   ...        0 min,  0.144 sec
 * total energy  :  -199.8171621 Eh     change       -0.2125365E-03 Eh
   gradient norm :     0.0041214 Eh/α   predicted    -0.1842357E-03 ( -13.32%)
   displ. norm   :     0.5001060 α      lambda       -0.2029009E-03
   maximum displ.:     0.2610232 α      in ANC's #14, #8, #5, ...

........................................................................
.............................. CYCLE   36 ..............................
........................................................................
   1   -203.5865490 -0.203587E+03  0.675E-02    0.99       0.0  T
   2   -203.5865505 -0.151108E-05  0.396E-02    0.99       1.0  T
   3   -203.5865378  0.127058E-04  0.833E-03    0.99       1.1  T
   4   -203.5865512 -0.133804E-04  0.209E-03    0.99       4.4  T
   5   -203.5865517 -0.467805E-06  0.103E-03    0.99       8.9  T
   6   -203.5865517 -0.566876E-07  0.523E-04    0.99      17.6  T
   7   -203.5865518 -0.446203E-07  0.179E-04    0.99      51.4  T
     SCC iter.                  ...        0 min,  0.178 sec
     gradient                   ...        0 min,  0.145 sec
 * total energy  :  -199.8173173 Eh     change       -0.1552052E-03 Eh
   gradient norm :     0.0039868 Eh/α   predicted    -0.1268284E-03 ( -18.28%)
   displ. norm   :     0.4566634 α      lambda       -0.1944243E-03
   maximum displ.:     0.2141747 α      in ANC's #8, #5, #14, ...

........................................................................
.............................. CYCLE   37 ..............................
........................................................................
   1   -203.5872176 -0.203587E+03  0.587E-02    0.99       0.0  T
   2   -203.5872186 -0.953972E-06  0.344E-02    0.99       1.0  T
   3   -203.5871991  0.194426E-04  0.105E-02    0.99       1.0  T
   4   -203.5872195 -0.203380E-04  0.193E-03    0.99       4.8  T
   5   -203.5872199 -0.425061E-06  0.923E-04    0.99      10.0  T
   6   -203.5872199 -0.407666E-07  0.491E-04    0.99      18.7  T
     SCC iter.                  ...        0 min,  0.152 sec
     gradient                   ...        0 min,  0.144 sec
 * total energy  :  -199.8174716 Eh     change       -0.1542932E-03 Eh
   gradient norm :     0.0037548 Eh/α   predicted    -0.1174891E-03 ( -23.85%)
   displ. norm   :     0.4510280 α      lambda       -0.2120198E-03
   maximum displ.:     0.2217876 α      in ANC's #8, #5, #3, ...

........................................................................
.............................. CYCLE   38 ..............................
........................................................................
   1   -203.5887135 -0.203589E+03  0.570E-02    0.99       0.0  T
   2   -203.5887138 -0.325494E-06  0.335E-02    0.99       1.0  T
   3   -203.5886738  0.399975E-04  0.147E-02    0.99       1.0  T
   4   -203.5887153 -0.415178E-04  0.220E-03    0.99       4.2  T
   5   -203.5887160 -0.652528E-06  0.857E-04    0.99      10.7  T
   6   -203.5887160 -0.198795E-07  0.518E-04    0.99      17.8  T
     SCC iter.                  ...        0 min,  0.151 sec
     gradient                   ...        0 min,  0.144 sec
 * total energy  :  -199.8176435 Eh     change       -0.1719188E-03 Eh
   gradient norm :     0.0041959 Eh/α   predicted    -0.1275761E-03 ( -25.79%)
   displ. norm   :     0.4873457 α      lambda       -0.2321856E-03
   maximum displ.:     0.2468538 α      in ANC's #5, #8, #3, ...

........................................................................
.............................. CYCLE   39 ..............................
........................................................................
   1   -203.5877558 -0.203588E+03  0.604E-02    1.00       0.0  T
   2   -203.5877563 -0.497590E-06  0.354E-02    1.00       1.0  T
   3   -203.5877205  0.357654E-04  0.142E-02    1.00       1.0  T
   4   -203.5877576 -0.370351E-04  0.232E-03    1.00       4.0  T
   5   -203.5877583 -0.758817E-06  0.824E-04    1.00      11.2  T
   6   -203.5877583 -0.666219E-08  0.567E-04    1.00      16.2  T
     SCC iter.                  ...        0 min,  0.153 sec
     gradient                   ...        0 min,  0.144 sec
 * total energy  :  -199.8178274 Eh     change       -0.1839569E-03 Eh
   gradient norm :     0.0046966 Eh/α   predicted    -0.1436753E-03 ( -21.90%)
   displ. norm   :     0.4524050 α      lambda       -0.2048488E-03
   maximum displ.:     0.2302487 α      in ANC's #5, #8, #3, ...

........................................................................
.............................. CYCLE   40 ..............................
........................................................................
   1   -203.5873540 -0.203587E+03  0.554E-02    1.00       0.0  T
   2   -203.5873541 -0.932264E-07  0.325E-02    1.00       1.0  T
   3   -203.5873160  0.380875E-04  0.146E-02    1.00       1.0  T
   4   -203.5873556 -0.395775E-04  0.202E-03    1.00       4.6  T
   5   -203.5873562 -0.548866E-06  0.728E-04    1.00      12.6  T
   6   -203.5873562 -0.755864E-08  0.499E-04    1.00      18.5  T
     SCC iter.                  ...        0 min,  0.152 sec
     gradient                   ...        0 min,  0.144 sec
 * total energy  :  -199.8179877 Eh     change       -0.1602189E-03 Eh
   gradient norm :     0.0048158 Eh/α   predicted    -0.1233912E-03 ( -22.99%)
   displ. norm   :     0.4299317 α      lambda       -0.1872943E-03
   maximum displ.:     0.2256106 α      in ANC's #5, #8, #3, ...

........................................................................
.............................. CYCLE   41 ..............................
........................................................................
   1   -203.5871464 -0.203587E+03  0.504E-02    1.00       0.0  T
   2   -203.5871467 -0.291771E-06  0.296E-02    1.00       1.0  T
   3   -203.5871242  0.224821E-04  0.113E-02    1.00       1.0  T
   4   -203.5871476 -0.234209E-04  0.165E-03    1.00       5.6  T
   5   -203.5871480 -0.335466E-06  0.692E-04    1.00      13.3  T
   6   -203.5871480 -0.174247E-07  0.436E-04    1.00      21.1  T
     SCC iter.                  ...        0 min,  0.150 sec
     gradient                   ...        0 min,  0.143 sec
 * total energy  :  -199.8181374 Eh     change       -0.1497624E-03 Eh
   gradient norm :     0.0047320 Eh/α   predicted    -0.1109627E-03 ( -25.91%)
   displ. norm   :     0.4195979 α      lambda       -0.1995322E-03
   maximum displ.:     0.2222538 α      in ANC's #5, #8, #3, ...

........................................................................
.............................. CYCLE   42 ..............................
........................................................................
   1   -203.5876417 -0.203588E+03  0.459E-02    0.99       0.0  T
   2   -203.5876423 -0.634082E-06  0.269E-02    0.99       1.0  T
   3   -203.5876313  0.109729E-04  0.806E-03    0.99       1.1  T
   4   -203.5876427 -0.113423E-04  0.176E-03    0.99       5.2  T
   5   -203.5876431 -0.423277E-06  0.675E-04    0.99      13.6  T
   6   -203.5876431 -0.207228E-07  0.406E-04    0.99      22.6  T
     SCC iter.                  ...        0 min,  0.151 sec
     gradient                   ...        0 min,  0.143 sec
 * total energy  :  -199.8183004 Eh     change       -0.1629809E-03 Eh
   gradient norm :     0.0047844 Eh/α   predicted    -0.1173328E-03 ( -28.01%)
   displ. norm   :     0.4838969 α      lambda       -0.2377569E-03
   maximum displ.:     0.2638091 α      in ANC's #5, #8, #3, ...
 * RMSD in coord.:     0.8739042 α      energy gain  -0.1241470E-01 Eh

generating ANC from model Hessian ...
Using Lindh-Hessian (1995)
 Shifting diagonal of input Hessian by    9.9963764302167749E-003
 Lowest  eigenvalues of input Hessian
    0.000000    0.000000    0.000000    0.000000    0.000000    0.000000
    0.010000    0.010004    0.010006    0.010011    0.010019    0.010034
    0.010069    0.010114    0.010322    0.010421    0.010823    0.010852
 Highest eigenvalues
    2.247451    2.247870    2.401973    2.403056    2.919647    2.925400


........................................................................
.............................. CYCLE   43 ..............................
........................................................................
   1   -203.5883420 -0.203588E+03  0.509E-02    0.99       0.0  T
   2   -203.5883430 -0.104827E-05  0.298E-02    0.99       1.0  T
   3   -203.5883372  0.585790E-05  0.578E-03    0.99       1.6  T
   4   -203.5883432 -0.600215E-05  0.179E-03    0.99       5.2  T
   5   -203.5883437 -0.536889E-06  0.748E-04    0.99      12.3  T
   6   -203.5883437 -0.292827E-07  0.402E-04    0.99      22.9  T
     SCC iter.                  ...        0 min,  0.150 sec
     gradient                   ...        0 min,  0.143 sec
 * total energy  :  -199.8184958 Eh     change       -0.1954397E-03 Eh
   gradient norm :     0.0054534 Eh/α   predicted     0.0000000E+00 (-100.00%)
   displ. norm   :     0.0757018 α      lambda       -0.9843212E-04
   maximum displ.:     0.0271993 α      in ANC's #5, #23, #17, ...

........................................................................
.............................. CYCLE   44 ..............................
........................................................................
   1   -203.5890838 -0.203589E+03  0.257E-02    0.99       0.0  T
   2   -203.5890841 -0.231000E-06  0.152E-02    0.99       1.0  T
   3   -203.5890793  0.476100E-05  0.567E-03    0.99       1.6  T
   4   -203.5890842 -0.487054E-05  0.117E-03    0.99       7.9  T
   5   -203.5890844 -0.195686E-06  0.455E-04    0.99      20.2  T
   6   -203.5890844 -0.249591E-07  0.235E-04    0.99      39.2  T
     SCC iter.                  ...        0 min,  0.149 sec
     gradient                   ...        0 min,  0.143 sec
 * total energy  :  -199.8185857 Eh     change       -0.8988723E-04 Eh
   gradient norm :     0.0031590 Eh/α   predicted    -0.5791035E-04 ( -35.57%)
   displ. norm   :     0.2298008 α      lambda       -0.2302473E-03
   maximum displ.:     0.0982201 α      in ANC's #5, #23, #11, ...

........................................................................
.............................. CYCLE   45 ..............................
........................................................................
   1   -203.5898660 -0.203590E+03  0.596E-02    0.99       0.0  T
   2   -203.5898674 -0.133960E-05  0.351E-02    0.99       1.0  T
   3   -203.5898423  0.250683E-04  0.127E-02    0.99       1.0  T
   4   -203.5898678 -0.254390E-04  0.291E-03    0.99       3.2  T
   5   -203.5898690 -0.127079E-05  0.111E-03    0.99       8.3  T
   6   -203.5898691 -0.102257E-06  0.583E-04    0.99      15.8  T
   7   -203.5898691 -0.126031E-07  0.317E-04    0.99      29.0  T
     SCC iter.                  ...        0 min,  0.175 sec
     gradient                   ...        0 min,  0.143 sec
 * total energy  :  -199.8186756 Eh     change       -0.8989107E-04 Eh
   gradient norm :     0.0055817 Eh/α   predicted    -0.1212171E-03 (  34.85%)
   displ. norm   :     0.2289473 α      lambda       -0.2449368E-03
   maximum displ.:     0.0944991 α      in ANC's #5, #23, #6, ...

........................................................................
.............................. CYCLE   46 ..............................
........................................................................
   1   -203.5897797 -0.203590E+03  0.546E-02    1.00       0.0  T
   2   -203.5897802 -0.505201E-06  0.323E-02    1.00       1.0  T
   3   -203.5897574  0.228451E-04  0.110E-02    1.00       1.0  T
   4   -203.5897811 -0.237138E-04  0.188E-03    1.00       4.9  T
   5   -203.5897815 -0.431876E-06  0.944E-04    1.00       9.7  T
   6   -203.5897815 -0.426495E-07  0.592E-04    1.00      15.5  T
     SCC iter.                  ...        0 min,  0.150 sec
     gradient                   ...        0 min,  0.143 sec
 * total energy  :  -199.8187591 Eh     change       -0.8350402E-04 Eh
   gradient norm :     0.0069946 Eh/α   predicted    -0.1288884E-03 (  54.35%)
   displ. norm   :     0.1032482 α      lambda       -0.1551689E-03
   maximum displ.:     0.0467413 α      in ANC's #5, #16, #6, ...

........................................................................
.............................. CYCLE   47 ..............................
........................................................................
   1   -203.5894970 -0.203589E+03  0.361E-02    0.99       0.0  T
   2   -203.5894972 -0.158898E-06  0.216E-02    0.99       1.0  T
   3   -203.5894905  0.660879E-05  0.548E-03    0.99       1.7  T
   4   -203.5894973 -0.674054E-05  0.128E-03    0.99       7.2  T
   5   -203.5894975 -0.224964E-06  0.551E-04    0.99      16.7  T
   6   -203.5894975 -0.158211E-07  0.300E-04    0.99      30.7  T
     SCC iter.                  ...        0 min,  0.149 sec
     gradient                   ...        0 min,  0.143 sec
 * total energy  :  -199.8188068 Eh     change       -0.4769006E-04 Eh
   gradient norm :     0.0055726 Eh/α   predicted    -0.7841179E-04 (  64.42%)
   displ. norm   :     0.1132731 α      lambda       -0.2290629E-03
   maximum displ.:     0.0596223 α      in ANC's #5, #6, #31, ...

........................................................................
.............................. CYCLE   48 ..............................
........................................................................
   1   -203.5893793 -0.203589E+03  0.336E-02    0.99       0.0  T
   2   -203.5893800 -0.729870E-06  0.200E-02    0.99       1.0  T
   3   -203.5893707  0.932443E-05  0.691E-03    0.99       1.3  T
   4   -203.5893796 -0.891630E-05  0.219E-03    0.99       4.2  T
   5   -203.5893806 -0.102844E-05  0.832E-04    0.99      11.1  T
   6   -203.5893807 -0.983010E-07  0.326E-04    0.99      28.2  T
   7   -203.5893807 -0.971596E-09  0.215E-04    0.99      42.8  T
     SCC iter.                  ...        0 min,  0.175 sec
     gradient                   ...        0 min,  0.143 sec
 * total energy  :  -199.8189202 Eh     change       -0.1133953E-03 Eh
   gradient norm :     0.0026357 Eh/α   predicted    -0.1160052E-03 (   2.30%)
   displ. norm   :     0.1771194 α      lambda       -0.9198058E-04
   maximum displ.:     0.0900197 α      in ANC's #5, #6, #11, ...

........................................................................
.............................. CYCLE   49 ..............................
........................................................................
   1   -203.5889616 -0.203589E+03  0.287E-02    0.99       0.0  T
   2   -203.5889617 -0.100829E-06  0.169E-02    0.99       1.0  T
   3   -203.5889551  0.654225E-05  0.610E-03    0.99       1.5  T
   4   -203.5889620 -0.685293E-05  0.822E-04    0.99      11.2  T
   5   -203.5889620 -0.594848E-07  0.459E-04    0.99      20.1  T
   6   -203.5889621 -0.111216E-07  0.239E-04    0.99      38.5  T
     SCC iter.                  ...        0 min,  0.150 sec
     gradient                   ...        0 min,  0.144 sec
 * total energy  :  -199.8189957 Eh     change       -0.7549676E-04 Eh
   gradient norm :     0.0020569 Eh/α   predicted    -0.4743705E-04 ( -37.17%)
   displ. norm   :     0.3688887 α      lambda       -0.1512763E-03
   maximum displ.:     0.1969227 α      in ANC's #5, #6, #11, ...

........................................................................
.............................. CYCLE   50 ..............................
........................................................................
   1   -203.5882748 -0.203588E+03  0.481E-02    0.99       0.0  T
   2   -203.5882753 -0.485147E-06  0.282E-02    0.99       1.0  T
   3   -203.5882587  0.165651E-04  0.102E-02    0.99       1.0  T
   4   -203.5882761 -0.173410E-04  0.146E-03    0.99       6.3  T
   5   -203.5882763 -0.199242E-06  0.818E-04    0.99      11.2  T
   6   -203.5882763 -0.526315E-07  0.384E-04    0.99      24.0  T
     SCC iter.                  ...        0 min,  0.150 sec
     gradient                   ...        0 min,  0.143 sec
 * total energy  :  -199.8191159 Eh     change       -0.1201657E-03 Eh
   gradient norm :     0.0018527 Eh/α   predicted    -0.8593421E-04 ( -28.49%)
   displ. norm   :     0.6050022 α      lambda       -0.1402867E-03
   maximum displ.:     0.3408903 α      in ANC's #5, #6, #11, ...

........................................................................
.............................. CYCLE   51 ..............................
........................................................................
   1   -203.5882668 -0.203588E+03  0.695E-02    0.99       0.0  T
   2   -203.5882681 -0.133327E-05  0.407E-02    0.99       1.0  T
   3   -203.5882424  0.257016E-04  0.137E-02    0.99       1.0  T
   4   -203.5882692 -0.268041E-04  0.231E-03    0.99       4.0  T
   5   -203.5882698 -0.598096E-06  0.122E-03    0.99       7.6  T
   6   -203.5882699 -0.136818E-06  0.531E-04    0.99      17.3  T
   7   -203.5882700 -0.307112E-07  0.242E-04    0.99      38.1  T
     SCC iter.                  ...        0 min,  0.174 sec
     gradient                   ...        0 min,  0.143 sec
 * total energy  :  -199.8192739 Eh     change       -0.1579904E-03 Eh
   gradient norm :     0.0033940 Eh/α   predicted    -0.8155492E-04 ( -48.38%)
   displ. norm   :     0.2883116 α      lambda       -0.1132546E-03
   maximum displ.:     0.1693545 α      in ANC's #5, #6, #3, ...

........................................................................
.............................. CYCLE   52 ..............................
........................................................................
   1   -203.5892618 -0.203589E+03  0.300E-02    0.99       0.0  T
   2   -203.5892620 -0.194502E-06  0.176E-02    0.99       1.0  T
   3   -203.5892581  0.388877E-05  0.502E-03    0.99       1.8  T
   4   -203.5892622 -0.412691E-05  0.764E-04    0.99      12.1  T
   5   -203.5892622 -0.353180E-07  0.497E-04    0.99      18.5  T
   6   -203.5892623 -0.275841E-07  0.272E-04    0.99      33.8  T
     SCC iter.                  ...        0 min,  0.150 sec
     gradient                   ...        0 min,  0.143 sec
 * total energy  :  -199.8193767 Eh     change       -0.1028284E-03 Eh
   gradient norm :     0.0031841 Eh/α   predicted    -0.6133450E-04 ( -40.35%)
   displ. norm   :     0.3948825 α      lambda       -0.1821357E-03
   maximum displ.:     0.2286371 α      in ANC's #5, #6, #3, ...

........................................................................
.............................. CYCLE   53 ..............................
........................................................................
   1   -203.5907837 -0.203591E+03  0.420E-02    0.99       0.0  T
   2   -203.5907840 -0.324536E-06  0.246E-02    0.99       1.0  T
   3   -203.5907719  0.121128E-04  0.737E-03    0.99       1.2  T
   4   -203.5907847 -0.127217E-04  0.130E-03    0.99       7.1  T
   5   -203.5907848 -0.197099E-06  0.651E-04    0.99      14.1  T
   6   -203.5907849 -0.292450E-07  0.369E-04    0.99      24.9  T
     SCC iter.                  ...        0 min,  0.150 sec
     gradient                   ...        0 min,  0.143 sec
 * total energy  :  -199.8195346 Eh     change       -0.1579480E-03 Eh
   gradient norm :     0.0028001 Eh/α   predicted    -0.1052706E-03 ( -33.35%)
   displ. norm   :     0.5051395 α      lambda       -0.2015287E-03
   maximum displ.:     0.2927680 α      in ANC's #5, #6, #3, ...

........................................................................
.............................. CYCLE   54 ..............................
........................................................................
   1   -203.5898667 -0.203590E+03  0.532E-02    0.99       0.0  T
   2   -203.5898673 -0.596301E-06  0.312E-02    0.99       1.0  T
   3   -203.5898560  0.113371E-04  0.718E-03    0.99       1.3  T
   4   -203.5898679 -0.119227E-04  0.152E-03    0.99       6.1  T
   5   -203.5898682 -0.271336E-06  0.761E-04    0.99      12.1  T
   6   -203.5898682 -0.322927E-07  0.434E-04    0.99      21.2  T
     SCC iter.                  ...        0 min,  0.150 sec
     gradient                   ...        0 min,  0.143 sec
 * total energy  :  -199.8197064 Eh     change       -0.1717969E-03 Eh
   gradient norm :     0.0028548 Eh/α   predicted    -0.1264793E-03 ( -26.38%)
   displ. norm   :     0.5201437 α      lambda       -0.1772922E-03
   maximum displ.:     0.3048739 α      in ANC's #5, #6, #3, ...

........................................................................
.............................. CYCLE   55 ..............................
........................................................................
   1   -203.5884946 -0.203588E+03  0.520E-02    0.99       0.0  T
   2   -203.5884953 -0.613062E-06  0.304E-02    0.99       1.0  T
   3   -203.5884894  0.588212E-05  0.530E-03    0.99       1.7  T
   4   -203.5884956 -0.625364E-05  0.134E-03    0.99       6.9  T
   5   -203.5884958 -0.187033E-06  0.710E-04    0.99      13.0  T
   6   -203.5884958 -0.249905E-07  0.365E-04    0.99      25.2  T
     SCC iter.                  ...        0 min,  0.150 sec
     gradient                   ...        0 min,  0.143 sec
 * total energy  :  -199.8198614 Eh     change       -0.1549997E-03 Eh
   gradient norm :     0.0032397 Eh/α   predicted    -0.1126334E-03 ( -27.33%)
   displ. norm   :     0.5140632 α      lambda       -0.1714269E-03
   maximum displ.:     0.3062694 α      in ANC's #5, #6, #3, ...

........................................................................
.............................. CYCLE   56 ..............................
........................................................................
   1   -203.5875827 -0.203588E+03  0.481E-02    0.98       0.0  T
   2   -203.5875833 -0.602407E-06  0.282E-02    0.98       1.0  T
   3   -203.5875803  0.305601E-05  0.421E-03    0.98       2.2  T
   4   -203.5875836 -0.332741E-05  0.117E-03    0.98       7.9  T
   5   -203.5875837 -0.111112E-06  0.660E-04    0.98      14.0  T
   6   -203.5875838 -0.283973E-07  0.269E-04    0.98      34.2  T
     SCC iter.                  ...        0 min,  0.150 sec
     gradient                   ...        0 min,  0.143 sec
 * total energy  :  -199.8200172 Eh     change       -0.1557244E-03 Eh
   gradient norm :     0.0032050 Eh/α   predicted    -0.1083645E-03 ( -30.41%)
   displ. norm   :     0.5536252 α      lambda       -0.1999523E-03
   maximum displ.:     0.3342580 α      in ANC's #5, #6, #3, ...

........................................................................
.............................. CYCLE   57 ..............................
........................................................................
   1   -203.5874878 -0.203587E+03  0.493E-02    0.98       0.0  T
   2   -203.5874886 -0.732639E-06  0.288E-02    0.98       1.0  T
   3   -203.5874845  0.401848E-05  0.515E-03    0.98       1.8  T
   4   -203.5874889 -0.438259E-05  0.123E-03    0.98       7.5  T
   5   -203.5874890 -0.944193E-07  0.715E-04    0.98      12.9  T
   6   -203.5874891 -0.323280E-07  0.358E-04    0.98      25.7  T
     SCC iter.                  ...        0 min,  0.150 sec
     gradient                   ...        0 min,  0.143 sec
 * total energy  :  -199.8202013 Eh     change       -0.1841878E-03 Eh
   gradient norm :     0.0028202 Eh/α   predicted    -0.1306257E-03 ( -29.08%)
   displ. norm   :     0.6326437 α      lambda       -0.2426980E-03
   maximum displ.:     0.3847536 α      in ANC's #5, #6, #3, ...

........................................................................
.............................. CYCLE   58 ..............................
........................................................................
   1   -203.5877994 -0.203588E+03  0.556E-02    0.98       0.0  T
   2   -203.5878004 -0.104341E-05  0.324E-02    0.98       1.0  T
   3   -203.5877932  0.718321E-05  0.688E-03    0.98       1.3  T
   4   -203.5878010 -0.776263E-05  0.151E-03    0.98       6.1  T
   5   -203.5878011 -0.146015E-06  0.862E-04    0.98      10.7  T
   6   -203.5878012 -0.377857E-07  0.493E-04    0.98      18.7  T
     SCC iter.                  ...        0 min,  0.150 sec
     gradient                   ...        0 min,  0.142 sec
 * total energy  :  -199.8204236 Eh     change       -0.2222283E-03 Eh
   gradient norm :     0.0027065 Eh/α   predicted    -0.1699204E-03 ( -23.54%)
   displ. norm   :     0.6980371 α      lambda       -0.2670457E-03
   maximum displ.:     0.4256270 α      in ANC's #5, #6, #3, ...

........................................................................
.............................. CYCLE   59 ..............................
........................................................................
   1   -203.5879680 -0.203588E+03  0.618E-02    0.98       0.0  T
   2   -203.5879694 -0.135481E-05  0.360E-02    0.98       1.0  T
   3   -203.5879601  0.926203E-05  0.783E-03    0.98       1.2  T
   4   -203.5879701 -0.100180E-04  0.174E-03    0.98       5.3  T
   5   -203.5879703 -0.192134E-06  0.985E-04    0.98       9.3  T
   6   -203.5879704 -0.458621E-07  0.564E-04    0.98      16.3  T
     SCC iter.                  ...        0 min,  0.150 sec
     gradient                   ...        0 min,  0.142 sec
 * total energy  :  -199.8206659 Eh     change       -0.2423070E-03 Eh
   gradient norm :     0.0032517 Eh/α   predicted    -0.1985854E-03 ( -18.04%)
   displ. norm   :     0.7251350 α      lambda       -0.2653884E-03
   maximum displ.:     0.4428282 α      in ANC's #5, #6, #3, ...

........................................................................
.............................. CYCLE   60 ..............................
........................................................................
   1   -203.5878659 -0.203588E+03  0.647E-02    0.97       0.0  T
   2   -203.5878674 -0.149957E-05  0.378E-02    0.97       1.0  T
   3   -203.5878587  0.868678E-05  0.763E-03    0.97       1.2  T
   4   -203.5878681 -0.945895E-05  0.181E-03    0.97       5.1  T
   5   -203.5878683 -0.201297E-06  0.105E-03    0.97       8.8  T
[...]
  65: 11.92  66: 11.92  67: 11.14  68: 11.62  69: 11.15  70: 11.09  71: 11.04  72: 11.21
  73: 10.40  74: 10.53  75: 10.93  76: 10.85  77: 10.90  78: 10.92  79: 11.52  80: 11.98
  81: 11.24  82: 11.98  83: 11.98  84:  9.90  85:  9.91  86:  9.92  87: 10.32  88: 10.27
  89: 10.29  90: 10.34  91:  9.91  92:  9.91  93: 11.81  94: 11.69  95: 11.70  96: 11.60
  97: 11.39  98: 11.59  99: 11.73 100: 11.50 101: 11.64 102: 11.58 103: 11.25 104: 11.25
 105: 11.28 106: 10.93 107: 10.96 108: 11.08 109: 10.70 110: 10.66 111: 10.66 112: 10.81
 113: 10.81 114: 11.17 115: 10.97 116: 10.97 117: 10.85 118: 10.61 119: 10.36 120: 10.26
 121: 10.19 122: 10.18 123:  3.54 124:  3.41 125: 11.11 126: 11.23 127: 11.24 128: 10.04
 129:  3.89 130: 11.08 131: 11.10 132: 10.47 133: 10.65 134:  2.53 135:  2.35 136: 10.11
 137:  2.56 138: 10.85 139: 10.85 140: 10.76 141: 10.44 142: 10.44 143: 11.43 144: 11.19
 145: 11.14 146: 11.19 147: 11.30 148: 11.30 149: 11.59 150: 11.53 151: 11.56 152: 11.56
 153:  3.69 154:  3.70 155:  3.86 156:  3.87 157:  3.86 158:  3.88 159:  4.26 160:  4.25
 161: 11.42 162: 11.26 163:  4.50 164:  4.39 165:  4.41 166:  4.41 167:  3.80 168:  3.80
 169:  3.71 170:  3.73 171:  3.65 172:  3.65 173:  4.02 174:  4.01 175:  3.74 176:  3.73
 177:  3.72 178:  3.73 179:  3.81 180:  3.81 181:  3.43 182:  3.43 183:  3.39 184:  3.40
 185:  3.38 186:  3.37 187: 11.29 188: 11.34 189:  7.14 190:  6.63 191:  6.64 192:  8.62
 193:  8.69 194:  8.93 195: 10.70 196: 10.70 197: 10.74 198: 11.47 199:  8.77 200:  8.69
 201:  8.74 202:  8.74 203:  8.29 204:  8.24 205:  9.08 206:  9.00 207:  8.84 208: 10.84
 209: 10.84 210: 10.96 211:  1.91 212:  1.86 213:  2.13 214:  1.96 215:  1.96 216:  1.94
 217:  2.19 218:  2.15 219:  2.13 220:  2.17 221:  1.95 222:  1.96 223:  6.81 224:  7.10
 225:  7.24 226:  5.92 227:  5.33 228:  5.29 229:  6.12 230:  6.72 231:  7.39 232:  5.74
 233:  6.14 234:  5.96 235:  7.21 236:  7.20 237:  6.52 238:  5.99 239:  6.12 240: 10.23
 241:  9.79 242:  9.55 243:  8.90 244:  8.39 245:  8.45 246:  8.21 247:  9.64 248:  8.07
 249:  9.25 250:  9.89 251:  8.68 252:  8.70 253:  8.72 254: 11.59 255: 10.97 256: 10.98
 257: 11.95 258: 11.10 259: 10.82 260: 10.85 261: 11.22 262: 11.22 263: 10.23 264: 10.46
 265: 10.36 266: 10.78 267:  9.58 268:  9.58 269: 10.81 270: 11.30 271: 11.27 272: 11.50
 273: 11.09 274: 10.80 275: 10.64 276: 10.71 277: 10.64 278: 11.53 279: 11.61 280: 11.65
 281: 11.56 282: 11.58 283: 11.43 284: 11.41 285: 11.40 286: 11.88 287: 11.87 288: 11.82
 289: 11.87 290: 11.58 291: 11.75 292: 11.76 293: 11.51 294: 11.60 295: 11.60 296: 11.46
 297: 11.45 298: 11.76 299: 11.69 300: 11.72 301: 11.71 302: 11.66 303: 11.66 304: 11.64
 305: 11.61 306: 11.61 307: 11.69 308: 11.73 309: 11.72 310: 11.77 311: 11.71 312: 11.72
 313: 12.01 314: 12.01 315: 12.01 316: 12.01 317:  1.80 318:  1.80 319:  1.80 320:  1.80
 321:  1.80 322:  1.80 323:  1.81 324:  1.81 325:  1.80 326:  1.80 327:  1.81 328:  1.81
 329:  1.81 330:  1.81 331:  1.98 332:  1.98 333:  1.82 334:  1.82 335:  1.84 336:  1.82
 337:  1.95 338:  1.97 339:  1.82 340:  1.82 341:  1.97 342:  1.97 343:  1.96 344:  1.96
 345:  1.96 346:  1.96 347:  1.95 348:  1.95 349:  1.90 350:  1.89 351:  1.89 352:  1.89
 353:  1.89 354:  1.89
 IR intensities (km·mol⁻¹)
   1:  7.07   2:  0.22   3:  4.78   4:111.66   5:  2.22   6:  0.46   7:  2.19   8: 13.80
   9:  1.41  10:  0.53  11:  0.03  12:  2.22  13:  0.50  14:  0.23  15:  7.95  16:  0.08
  17:  0.28  18:  3.47  19: 10.15  20:  6.27  21:  3.32  22:  1.11  23:  6.80  24:  0.41
  25: 20.12  26: 18.51  27:126.00  28: 13.10  29: 10.80  30:  6.97  31:  0.32  32:  2.12
  33:  1.32  34:  0.31  35:  0.71  36:  2.06  37:  0.55  38:  0.38  39:  0.13  40:  3.82
  41:  0.67  42:  2.83  43:  0.63  44:  2.35  45:  1.63  46:  1.27  47:  0.75  48:  0.71
  49:  1.67  50:  3.47  51: 39.80  52:  0.19  53:  8.88  54:119.02  55:  2.39  56: 16.74
  57: 26.92  58:  7.04  59:  0.38  60:  1.48  61:  5.58  62:  0.24  63:  3.48  64: 11.13
  65:  1.64  66:  3.37  67:  2.03  68: 71.22  69:  0.45  70:  3.82  71:115.54  72:  0.08
  73:  2.81  74: 11.08  75:  4.22  76:  0.39  77: 11.55  78:  2.46  79:  2.20  80:  0.35
  81:  5.55  82:  1.94  83:  3.36  84:  1.18  85:  4.41  86:  0.20  87:  3.52  88:  0.36
  89:  1.10  90:  0.17  91: 10.19  92: 15.55  93:  3.47  94:  0.06  95:  4.51  96:  0.06
  97: 21.25  98:  0.25  99:  1.30 100: 24.94 101:  4.18 102: 51.24 103:  5.89 104:  8.78
 105:  7.91 106:  0.88 107:  0.35 108:  0.94 109:  0.36 110:  0.37 111:  1.35 112: 21.81
 113: 15.06 114:  3.64 115: 22.08 116:  6.00 117:  6.54 118:  0.97 119: 14.35 120:  6.25
 121: 21.44 122:100.21 123: 11.32 124:  2.08 125:  8.24 126:  1.03 127:  9.44 128:  0.36
 129:  0.53 130:  8.53 131: 18.51 132: 52.53 133: 94.07 134:534.53 135:****** 136: 11.26
 137:232.45 138:  7.33 139: 57.41 140:  7.28 141: 26.43 142: 16.91 143:  0.82 144: 11.35
 145:  1.44 146: 10.46 147: 18.54 148:  7.62 149:127.83 150:  0.24 151:  4.38 152:  0.03
 153: 25.69 154: 23.51 155: 51.72 156:  1.21 157:  5.95 158:  0.18 159: 16.56 160: 22.87
 161:  0.22 162:  7.23 163:  0.59 164: 47.05 165: 22.74 166: 11.65 167:  3.74 168: 13.43
 169:  6.67 170:  7.53 171: 21.54 172:  9.36 173: 41.26 174:184.19 175: 42.38 176: 38.09
 177:  7.57 178:  4.64 179: 36.09 180:  0.60 181: 14.24 182:  1.46 183:  7.54 184: 31.64
 185:  2.08 186: 11.66 187:  4.40 188:  1.22 189:  0.45 190: 14.57 191:  5.54 192: 80.93
 193: 12.85 194:938.98 195:  7.95 196:197.00 197:  2.18 198: 18.29 199:  9.57 200: 16.79
 201:293.42 202:  0.15 203:  7.51 204:  0.11 205: 23.21 206:  0.31 207: 17.59 208:  8.44
 209:  6.57 210:  0.06 211: 45.56 212:  6.68 213: 11.65 214:  1.25 215:  0.92 216:  5.18
 217: 11.45 218:  3.18 219:  2.06 220:  1.03 221: 29.52 222: 17.88 223:  0.84 224:115.02
 225:  0.24 226:721.10 227:  3.62 228: 43.88 229: 58.09 230:  8.37 231: 16.42 232:  2.59
 233: 45.50 234:  0.17 235:  0.47 236: 34.91 237:  1.79 238: 54.18 239:  0.08 240:299.79
 241:  0.16 242: 19.61 243:208.33 244: 91.01 245:  0.34 246:106.16 247:  2.64 248: 18.55
 249:  0.34 250:103.69 251:  0.05 252:  3.61 253:  2.05 254:  0.59 255:  0.99 256:  0.44
 257:185.07 258:  1.17 259: 76.66 260: 10.57 261:  5.58 262: 12.92 263:  0.27 264: 11.79
 265:  2.43 266:187.11 267: 59.37 268: 31.88 269: 82.79 270:  2.54 271: 12.45 272:  0.65
 273: 35.19 274: 16.93 275: 21.13 276:  0.00 277: 43.15 278:  0.05 279: 26.66 280:  0.32
 281:  3.11 282:  2.89 283:  0.15 284: 12.41 285:  0.22 286:104.64 287:  8.94 288:  9.34
 289: 17.19 290: 34.18 291: 16.74 292: 14.33 293: 34.71 294:  2.88 295: 28.65 296: 17.07
 297: 11.68 298:  0.57 299: 94.11 300: 37.30 301: 52.85 302:  7.57 303: 33.91 304: 10.52
 305: 33.77 306: 15.97 307:271.94 308: 39.02 309: 40.33 310:  2.65 311: 84.90 312: 45.53
 313:  0.55 314: 17.64 315:  0.01 316:  0.36 317: 20.49 318: 80.77 319: 44.18 320: 57.29
 321:  7.14 322:  4.21 323:  9.35 324: 12.87 325: 19.43 326: 29.05 327: 36.20 328: 50.09
 329: 46.84 330: 36.94 331:429.85 332:161.08 333: 52.86 334: 44.14 335: 12.29 336: 70.69
 337: 66.39 338: 36.17 339: 70.59 340: 35.63 341: 32.15 342: 71.68 343:347.87 344: 19.52
 345: 29.86 346: 62.52 347: 28.84 348: 50.32 349:****** 350:  1.43 351:135.59 352: 69.27
 353: 43.79 354: 13.35
 Raman intensities (amu)
   1:  0.00   2:  0.00   3:  0.00   4:  0.00   5:  0.00   6:  0.00   7:  0.00   8:  0.00
   9:  0.00  10:  0.00  11:  0.00  12:  0.00  13:  0.00  14:  0.00  15:  0.00  16:  0.00
  17:  0.00  18:  0.00  19:  0.00  20:  0.00  21:  0.00  22:  0.00  23:  0.00  24:  0.00
  25:  0.00  26:  0.00  27:  0.00  28:  0.00  29:  0.00  30:  0.00  31:  0.00  32:  0.00
  33:  0.00  34:  0.00  35:  0.00  36:  0.00  37:  0.00  38:  0.00  39:  0.00  40:  0.00
  41:  0.00  42:  0.00  43:  0.00  44:  0.00  45:  0.00  46:  0.00  47:  0.00  48:  0.00
  49:  0.00  50:  0.00  51:  0.00  52:  0.00  53:  0.00  54:  0.00  55:  0.00  56:  0.00
  57:  0.00  58:  0.00  59:  0.00  60:  0.00  61:  0.00  62:  0.00  63:  0.00  64:  0.00
  65:  0.00  66:  0.00  67:  0.00  68:  0.00  69:  0.00  70:  0.00  71:  0.00  72:  0.00
  73:  0.00  74:  0.00  75:  0.00  76:  0.00  77:  0.00  78:  0.00  79:  0.00  80:  0.00
  81:  0.00  82:  0.00  83:  0.00  84:  0.00  85:  0.00  86:  0.00  87:  0.00  88:  0.00
  89:  0.00  90:  0.00  91:  0.00  92:  0.00  93:  0.00  94:  0.00  95:  0.00  96:  0.00
  97:  0.00  98:  0.00  99:  0.00 100:  0.00 101:  0.00 102:  0.00 103:  0.00 104:  0.00
 105:  0.00 106:  0.00 107:  0.00 108:  0.00 109:  0.00 110:  0.00 111:  0.00 112:  0.00
 113:  0.00 114:  0.00 115:  0.00 116:  0.00 117:  0.00 118:  0.00 119:  0.00 120:  0.00
 121:  0.00 122:  0.00 123:  0.00 124:  0.00 125:  0.00 126:  0.00 127:  0.00 128:  0.00
 129:  0.00 130:  0.00 131:  0.00 132:  0.00 133:  0.00 134:  0.00 135:  0.00 136:  0.00
 137:  0.00 138:  0.00 139:  0.00 140:  0.00 141:  0.00 142:  0.00 143:  0.00 144:  0.00
 145:  0.00 146:  0.00 147:  0.00 148:  0.00 149:  0.00 150:  0.00 151:  0.00 152:  0.00
 153:  0.00 154:  0.00 155:  0.00 156:  0.00 157:  0.00 158:  0.00 159:  0.00 160:  0.00
 161:  0.00 162:  0.00 163:  0.00 164:  0.00 165:  0.00 166:  0.00 167:  0.00 168:  0.00
 169:  0.00 170:  0.00 171:  0.00 172:  0.00 173:  0.00 174:  0.00 175:  0.00 176:  0.00
 177:  0.00 178:  0.00 179:  0.00 180:  0.00 181:  0.00 182:  0.00 183:  0.00 184:  0.00
 185:  0.00 186:  0.00 187:  0.00 188:  0.00 189:  0.00 190:  0.00 191:  0.00 192:  0.00
 193:  0.00 194:  0.00 195:  0.00 196:  0.00 197:  0.00 198:  0.00 199:  0.00 200:  0.00
 201:  0.00 202:  0.00 203:  0.00 204:  0.00 205:  0.00 206:  0.00 207:  0.00 208:  0.00
 209:  0.00 210:  0.00 211:  0.00 212:  0.00 213:  0.00 214:  0.00 215:  0.00 216:  0.00
 217:  0.00 218:  0.00 219:  0.00 220:  0.00 221:  0.00 222:  0.00 223:  0.00 224:  0.00
 225:  0.00 226:  0.00 227:  0.00 228:  0.00 229:  0.00 230:  0.00 231:  0.00 232:  0.00
 233:  0.00 234:  0.00 235:  0.00 236:  0.00 237:  0.00 238:  0.00 239:  0.00 240:  0.00
 241:  0.00 242:  0.00 243:  0.00 244:  0.00 245:  0.00 246:  0.00 247:  0.00 248:  0.00
 249:  0.00 250:  0.00 251:  0.00 252:  0.00 253:  0.00 254:  0.00 255:  0.00 256:  0.00
 257:  0.00 258:  0.00 259:  0.00 260:  0.00 261:  0.00 262:  0.00 263:  0.00 264:  0.00
 265:  0.00 266:  0.00 267:  0.00 268:  0.00 269:  0.00 270:  0.00 271:  0.00 272:  0.00
 273:  0.00 274:  0.00 275:  0.00 276:  0.00 277:  0.00 278:  0.00 279:  0.00 280:  0.00
 281:  0.00 282:  0.00 283:  0.00 284:  0.00 285:  0.00 286:  0.00 287:  0.00 288:  0.00
 289:  0.00 290:  0.00 291:  0.00 292:  0.00 293:  0.00 294:  0.00 295:  0.00 296:  0.00
 297:  0.00 298:  0.00 299:  0.00 300:  0.00 301:  0.00 302:  0.00 303:  0.00 304:  0.00
 305:  0.00 306:  0.00 307:  0.00 308:  0.00 309:  0.00 310:  0.00 311:  0.00 312:  0.00
 313:  0.00 314:  0.00 315:  0.00 316:  0.00 317:  0.00 318:  0.00 319:  0.00 320:  0.00
 321:  0.00 322:  0.00 323:  0.00 324:  0.00 325:  0.00 326:  0.00 327:  0.00 328:  0.00
 329:  0.00 330:  0.00 331:  0.00 332:  0.00 333:  0.00 334:  0.00 335:  0.00 336:  0.00
 337:  0.00 338:  0.00 339:  0.00 340:  0.00 341:  0.00 342:  0.00 343:  0.00 344:  0.00
 345:  0.00 346:  0.00 347:  0.00 348:  0.00 349:  0.00 350:  0.00 351:  0.00 352:  0.00
 353:  0.00 354:  0.00
 output can be read by thermo (or use thermo option).
 writing <g98.out> molden fake output.
 recommended (thermochemical) frequency scaling factor: 1.0
           -------------------------------------------------
          |             Thermodynamic Functions             |
           -------------------------------------------------
Refinement of some symmetry elements was terminated before convergence was reached.
Some symmetry elements may remain unidentified.
Molecule has no symmetry elements
It seems to be the C1 point group

c1  symmetry found (for desy threshold:  0.10E+00) used in thermo
 inverting freq            1   1.6983786611738614     

          ...................................................
          :                      SETUP                      :
          :.................................................:
          :  # frequencies                         348      :
          :  # imaginary freq.                       0      :
          :  linear?                             false      :
          :  only rotor calc.                    false      :
          :  symmetry                               c1      :
          :  rotational number                       1      :
          :  scaling factor                  1.0000000      :
          :  rotor cutoff                   50.0000000 cm⁻¹ :
          :  imag. cutoff                  -20.0000000 cm⁻¹ :
          :.................................................:

    mode    ω/cm⁻¹     T·S(HO)/kcal·mol⁻¹    T·S(FR)/kcal·mol⁻¹   T·S(vib)
   ------------------------------------------------------------------------
       1      1.70    -3.43886 (  0.00%)    -2.05851 (100.00%)    -2.05851
       2      2.70    -3.16442 (  0.00%)    -1.92130 (100.00%)    -1.92131
       3      3.14    -3.07436 (  0.00%)    -1.87628 (100.00%)    -1.87629
       4      5.01    -2.79838 (  0.01%)    -1.73829 ( 99.99%)    -1.73840
       5      8.52    -2.48328 (  0.08%)    -1.58073 ( 99.92%)    -1.58149
       6      9.52    -2.41793 (  0.13%)    -1.54805 ( 99.87%)    -1.54919
       7     15.50    -2.12883 (  0.92%)    -1.40346 ( 99.08%)    -1.41010
       8     25.51    -1.83405 (  6.34%)    -1.25595 ( 93.66%)    -1.29261
       9     28.30    -1.77248 (  9.31%)    -1.22513 ( 90.69%)    -1.27609
      10     30.09    -1.73630 ( 11.59%)    -1.20701 ( 88.41%)    -1.26837
      11     38.19    -1.59537 ( 25.39%)    -1.13638 ( 74.61%)    -1.25292
      12     41.76    -1.54257 ( 32.73%)    -1.10990 ( 67.27%)    -1.25152
      13     42.37    -1.53397 ( 34.03%)    -1.10559 ( 65.97%)    -1.25135
      14     42.71    -1.52925 ( 34.75%)    -1.10322 ( 65.25%)    -1.25126
      15     44.80    -1.50103 ( 39.20%)    -1.08905 ( 60.80%)    -1.25055
      16     53.90    -1.39202 ( 57.46%)    -1.03429 ( 42.54%)    -1.23983
      17     56.40    -1.36530 ( 61.82%)    -1.02085 ( 38.18%)    -1.23380
      18     69.05    -1.24634 ( 78.44%)    -0.96092 ( 21.56%)    -1.18479
      19     70.26    -1.23617 ( 79.59%)    -0.95579 ( 20.41%)    -1.17893
      20     90.53    -1.08781 ( 91.49%)    -0.88068 (  8.51%)    -1.07018
      21     94.82    -1.06081 ( 92.82%)    -0.86695 (  7.18%)    -1.04690
      22     96.37    -1.05140 ( 93.24%)    -0.86216 (  6.76%)    -1.03862
      23     96.80    -1.04881 ( 93.35%)    -0.86084 (  6.65%)    -1.03632
      24    109.38    -0.97792 ( 95.82%)    -0.82466 (  4.18%)    -0.97150
      25    113.64    -0.95582 ( 96.39%)    -0.81334 (  3.61%)    -0.95067
      26    115.79    -0.94499 ( 96.64%)    -0.80779 (  3.36%)    -0.94038
      27    116.60    -0.94093 ( 96.73%)    -0.80571 (  3.27%)    -0.93651
      28    117.20    -0.93800 ( 96.79%)    -0.80420 (  3.21%)    -0.93371
      29    131.73    -0.87080 ( 97.97%)    -0.76958 (  2.03%)    -0.86874
      30    133.13    -0.86475 ( 98.05%)    -0.76645 (  1.95%)    -0.86283
      31    138.40    -0.84254 ( 98.33%)    -0.75494 (  1.67%)    -0.84107
      32    139.77    -0.83691 ( 98.39%)    -0.75202 (  1.61%)    -0.83554
      33    142.38    -0.82635 ( 98.50%)    -0.74653 (  1.50%)    -0.82516
      34    146.10    -0.81167 ( 98.65%)    -0.73889 (  1.35%)    -0.81068
      35    148.49    -0.80246 ( 98.73%)    -0.73409 (  1.27%)    -0.80159
      36    164.77    -0.74367 ( 99.16%)    -0.70327 (  0.84%)    -0.74333
      37    178.96    -0.69744 ( 99.39%)    -0.67880 (  0.61%)    -0.69732
      38    181.69    -0.68901 ( 99.43%)    -0.67431 (  0.57%)    -0.68893
      39    185.56    -0.67732 ( 99.48%)    -0.66807 (  0.52%)    -0.67727
      40    190.42    -0.66302 ( 99.53%)    -0.66042 (  0.47%)    -0.66301
      41    193.53    -0.65407 ( 99.56%)    -0.65561 (  0.44%)    -0.65407
      42    195.73    -0.64784 ( 99.58%)    -0.65227 (  0.42%)    -0.64786
      43    201.99    -0.63056 ( 99.63%)    -0.64294 (  0.37%)    -0.63060
      44    202.86    -0.62820 ( 99.63%)    -0.64166 (  0.37%)    -0.62825
      45    203.20    -0.62729 ( 99.63%)    -0.64117 (  0.37%)    -0.62734
      46    212.46    -0.60298 ( 99.69%)    -0.62797 (  0.31%)    -0.60306
      47    252.98    -0.50976 ( 99.85%)    -0.57626 (  0.15%)    -0.50986
      48    258.33    -0.49881 ( 99.86%)    -0.57005 (  0.14%)    -0.49891
      49    265.10    -0.48538 ( 99.87%)    -0.56240 (  0.13%)    -0.48547
      50    265.57    -0.48445 ( 99.87%)    -0.56187 (  0.13%)    -0.48455
      51    265.71    -0.48418 ( 99.87%)    -0.56171 (  0.13%)    -0.48428
      52    266.24    -0.48315 ( 99.88%)    -0.56112 (  0.12%)    -0.48324
      53    267.11    -0.48146 ( 99.88%)    -0.56015 (  0.12%)    -0.48156
      54    275.35    -0.46582 ( 99.89%)    -0.55115 (  0.11%)    -0.46591
      55    279.64    -0.45792 ( 99.90%)    -0.54658 (  0.10%)    -0.45801
      56    287.50    -0.44383 ( 99.91%)    -0.53836 (  0.09%)    -0.44392
      57    298.29    -0.42531 ( 99.92%)    -0.52745 (  0.08%)    -0.42539
      58    299.17    -0.42383 ( 99.92%)    -0.52658 (  0.08%)    -0.42391
      59    299.36    -0.42351 ( 99.92%)    -0.52638 (  0.08%)    -0.42359
   ------------------------------------------------------------------------

   temp. (K)  partition function   enthalpy   heat capacity  entropy
                                   cal/mol     cal/K/mol   cal/K/mol   J/K/mol
 298.15  VIB  0.745E+34            38928.570    253.595    249.295
         ROT  0.740E+09              888.752      2.981     43.565
         INT  0.551E+43            39817.322    256.576    292.860
         TR   0.317E+29             1481.254      4.968     46.628
         TOT                       41298.5761   261.5438   339.4881  1420.4184

       T/K    H(0)-H(T)+PV         H(T)/Eh          T*S/Eh         G(T)/Eh
   ------------------------------------------------------------------------
    298.15    0.658135E-01    0.919045E+00    0.161302E+00    0.757743E+00
   ------------------------------------------------------------------------

         :::::::::::::::::::::::::::::::::::::::::::::::::::::
         ::                  THERMODYNAMIC                  ::
         :::::::::::::::::::::::::::::::::::::::::::::::::::::
         :: total free energy        -199.067588234874 Eh   ::
         ::.................................................::
         :: total energy             -199.825331156299 Eh   ::
         :: zero point energy           0.853231222953 Eh   ::
         :: G(RRHO) w/o ZPVE           -0.095488301528 Eh   ::
         :: G(RRHO) contrib.            0.757742921425 Eh   ::
         :::::::::::::::::::::::::::::::::::::::::::::::::::::

optimized geometry written to: xtbopt.xyz


           -------------------------------------------------
          | TOTAL ENERGY             -199.825331156299 Eh   |
          | TOTAL ENTHALPY           -198.906286463121 Eh   |
          | TOTAL FREE ENERGY        -199.067588234874 Eh   |
          | GRADIENT NORM               0.000486570899 Eh/α |
          | HOMO-LUMO GAP               0.911886157317 eV   |
           -------------------------------------------------

------------------------------------------------------------------------
 * finished run on 2021/11/18 at 17:28:18.427     
------------------------------------------------------------------------
 total:
 * wall-time:     0 d,  0 h,  4 min, 35.412 sec
 *  cpu-time:     0 d,  0 h,  4 min, 35.404 sec
 * ratio c/w:     1.000 speedup
 SCF:
 * wall-time:     0 d,  0 h,  0 min,  0.638 sec
 *  cpu-time:     0 d,  0 h,  0 min,  0.638 sec
 * ratio c/w:     1.000 speedup
 ANC optimizer:
 * wall-time:     0 d,  0 h,  0 min, 53.905 sec
 *  cpu-time:     0 d,  0 h,  0 min, 53.893 sec
 * ratio c/w:     1.000 speedup
 analytical hessian:
 * wall-time:     0 d,  0 h,  3 min, 40.724 sec
 *  cpu-time:     0 d,  0 h,  3 min, 40.728 sec
 * ratio c/w:     1.000 speedup

