118
 energy: -199.401135696637 gnorm: 0.440953490298 xtb: 6.4.1 (bd6e46d)
C        -9.83664400000000   -0.80504100000000   -4.37467400000000
C        -9.31900800000000   -1.57512700000000   -3.40021000000000
C        -9.90161000000000   -1.12541300000000   -2.13922500000000
C        -9.76877600000000   -1.49301300000000   -0.79755100000000
C       -10.76838000000000   -1.45191700000000    0.19240000000000
C       -10.38663900000000   -1.41606300000000    1.53885700000000
C       -11.53608600000000   -1.31325900000000    2.26672600000000
C       -12.58679400000000   -1.29070100000000    1.32681500000000
N       -12.10922800000000   -1.37995400000000    0.07364200000000
C       -13.90306100000000   -1.15018500000000    1.79981800000000
C       -14.86503900000000   -0.25271800000000    1.36991900000000
C       -16.21243000000000    0.14569500000000    1.74869300000000
C       -16.59559500000000    1.08948400000000    0.91327000000000
C       -15.54359300000000    1.35116600000000   -0.03216300000000
N       -14.52610700000000    0.49962200000000    0.30583000000000
C       -15.32170600000000    2.16963700000000   -1.11509900000000
C       -14.43054000000000    2.00179200000000   -2.18983700000000
C       -14.87806500000000    2.33045800000000   -3.49708700000000
C       -13.84073000000000    2.05363300000000   -4.33557800000000
C       -12.79150500000000    1.56440600000000   -3.51312100000000
N       -13.17259400000000    1.54561600000000   -2.23493600000000
C       -11.58826400000000    1.17508800000000   -4.13064000000000
C       -10.74959500000000    0.13682000000000   -3.75992000000000
N       -10.72520400000000   -0.12007200000000   -2.45385200000000
H        -9.64876100000000   -0.84672300000000   -5.41856500000000
H        -8.61022700000000   -2.38215400000000   -3.48682300000000
H        -9.36773200000000   -1.45832900000000    1.98217100000000
H       -11.58394600000000   -1.26815600000000    3.37223800000000
H       -12.70723100000000   -1.41293100000000   -0.86025900000000
H       -14.25277100000000   -1.80153400000000    2.64001100000000
H       -16.75255200000000   -0.29676100000000    2.57389500000000
H       -17.55261800000000    1.62786300000000    0.90013700000000
H       -15.98207300000000    3.07077300000000   -1.09635400000000
H       -15.86018200000000    2.74052400000000   -3.79866800000000
H       -13.84197700000000    2.19457300000000   -5.43296600000000
H       -12.55015600000000    1.23903700000000   -1.35391900000000
H       -11.21959600000000    1.71869200000000   -5.02436900000000
C        11.55782600000000    1.28934100000000    4.41932800000000
C        10.39426600000000    1.57964200000000    3.86968100000000
C        10.46616500000000    1.35141600000000    2.46745000000000
C         9.68113800000000    1.44201900000000    1.34611100000000
C        10.05322500000000    1.84319300000000    0.04691200000000
C         9.06815700000000    1.94629000000000   -0.97238100000000
C         9.69410600000000    2.29052800000000   -2.11379100000000
C        11.06902000000000    2.39389000000000   -1.78518100000000
N        11.24881800000000    2.12549700000000   -0.48036800000000
C        11.99014800000000    2.70359100000000   -2.80330900000000
C        13.19578500000000    2.08129700000000   -3.05948900000000
C        14.10823700000000    1.90048000000000   -4.17458600000000
C        15.09756600000000    1.15923500000000   -3.74176500000000
C        14.89580000000000    0.82640500000000   -2.36720700000000
N        13.72156400000000    1.41518300000000   -2.01198800000000
C        15.51713800000000    0.11897800000000   -1.33807100000000
C        15.29937600000000    0.22786900000000    0.03359700000000
C        16.40482200000000    0.42488000000000    0.90083000000000
C        15.92754100000000    0.50476700000000    2.17709500000000
C        14.52244700000000    0.35034600000000    2.05138900000000
N        14.17619700000000    0.18680800000000    0.77548700000000
C        13.74340000000000    0.39580000000000    3.22754400000000
C        12.43911100000000    0.85267500000000    3.35759600000000
N        11.74527600000000    0.90662000000000    2.21253300000000
H        11.81848200000000    1.36694700000000    5.47016300000000
H         9.51805200000000    1.93295100000000    4.38828100000000
H         7.97727600000000    1.77940600000000   -0.87130200000000
H         9.22168400000000    2.46756300000000   -3.10316900000000
H        12.22825300000000    2.15880600000000    0.06295900000000
H        11.74654000000000    3.51842900000000   -3.53078400000000
H        13.95124900000000    2.32991700000000   -5.17227900000000
H        15.93749100000000    0.84190400000000   -4.33339500000000
H        16.27859900000000   -0.58075500000000   -1.76833400000000
H        17.47821000000000    0.50182300000000    0.63578700000000
H        16.52291100000000    0.65669200000000    3.09323800000000
H        13.14489000000000    0.01712500000000    0.36576500000000
H        14.15520000000000    0.04411100000000    4.19071500000000
C        -8.38916300000000   -1.85869900000000   -0.46652600000000
C        -7.21485800000000   -2.08273800000000   -0.18872500000000
C        -5.84564500000000   -2.23157100000000    0.12203400000000
C        -4.66295700000000   -2.26191100000000    0.37872200000000
C         4.59074000000000    0.00097100000000    1.86195400000000
C         5.78659600000000    0.29012200000000    1.87988400000000
C         7.13756400000000    0.66360700000000    1.80151800000000
C         8.29919400000000    1.01244800000000    1.64003600000000
C        -2.21152600000000   -4.80644800000000    2.93988600000000
C        -3.21230800000000   -4.26376500000000    2.26865600000000
C        -2.70375800000000   -3.12300500000000    1.51290900000000
C        -3.25215400000000   -2.18962300000000    0.66733300000000
C        -2.56896700000000   -1.11754100000000    0.01283500000000
C        -2.69200300000000   -0.89291900000000   -1.37902100000000
C        -1.92437700000000    0.18717900000000   -1.68811500000000
C        -1.34259700000000    0.61151000000000   -0.50218900000000
N        -1.74445000000000   -0.18221500000000    0.50011800000000
C        -0.45053700000000    1.71354500000000   -0.50839600000000
C         0.79511900000000    1.78351500000000    0.14634400000000
C         1.73549100000000    2.80275100000000    0.48911500000000
C         2.74754400000000    2.23748900000000    1.12013600000000
C         2.50090900000000    0.81195100000000    1.21439900000000
N         1.32463500000000    0.63807500000000    0.61350900000000
C         3.18644800000000   -0.30813400000000    1.75660900000000
C         2.65463800000000   -1.56002100000000    2.07234000000000
C         3.37302900000000   -2.76039700000000    1.79144600000000
C         2.59637200000000   -3.79788200000000    2.14497100000000
C         1.37780600000000   -3.28991300000000    2.65492400000000
N         1.48831000000000   -1.95864100000000    2.58400800000000
C         0.33429300000000   -4.13712300000000    3.05593700000000
C        -1.00324800000000   -4.05313700000000    2.65760400000000
N        -1.40560600000000   -3.10352400000000    1.82247000000000
H        -2.31101800000000   -5.67291400000000    3.59346200000000
H        -4.22855200000000   -4.62958600000000    2.29490000000000
H        -3.30872700000000   -1.48335500000000   -2.09084200000000
H        -1.79967900000000    0.63292300000000   -2.69216300000000
H        -1.44487300000000   -0.06685000000000    1.58757100000000
H        -0.69378500000000    2.62061200000000   -1.08017900000000
H         1.61009700000000    3.86052300000000    0.25904700000000
H         3.65140200000000    2.70963000000000    1.52630600000000
H         4.39002800000000   -2.83003200000000    1.36507900000000
H         2.88973800000000   -4.87419800000000    2.04921400000000
H         0.67982700000000   -1.23354000000000    2.95785800000000
H         0.55206000000000   -4.97367000000000    3.71683900000000
118
 energy: -199.542971151773 gnorm: 0.231062021545 xtb: 6.4.1 (bd6e46d)
C        -9.82904368191200   -0.79261877668393   -4.37292007914501
C        -9.30841692135668   -1.56769314260007   -3.39691184807911
C        -9.90796429336350   -1.12295911410233   -2.14648621825117
C        -9.73635432541582   -1.51094989529655   -0.80571504086960
C       -10.73658483887771   -1.44960870712546    0.18608008898315
C       -10.37896327132637   -1.42262044436732    1.54801602735472
C       -11.53742348031907   -1.33417764788909    2.27231732779324
C       -12.60060961241164   -1.29752623104728    1.34152116381623
N       -12.09804541413004   -1.36581301509053    0.07935934337617
C       -13.92872042106452   -1.16175396938285    1.80354940402080
C       -14.86468898506120   -0.25904273949840    1.33990359393121
C       -16.21051104886561    0.13524678604885    1.75240370806730
C       -16.59708802550903    1.10614500961036    0.91689506171396
C       -15.51289931173752    1.34688897693058   -0.01742246318261
N       -14.50469047659564    0.49067252596872    0.28098375808891
C       -15.33222193373605    2.18350710110600   -1.10016382249409
C       -14.44518716505196    2.01783552799991   -2.18026443503373
C       -14.87391957031357    2.34804022842625   -3.49429708075694
C       -13.83357119174852    2.06953144895772   -4.33615862075933
C       -12.77247422134849    1.57224578828804   -3.53152650166181
N       -13.17834647197205    1.53501698205461   -2.23807817108192
C       -11.57109507180911    1.17497149285764   -4.14259336059722
C       -10.74002758435185    0.14076439930140   -3.73042336784632
N       -10.76843736082834   -0.13697920537981   -2.41791791829487
H        -9.64864165665873   -0.84622087195235   -5.42584516655062
H        -8.61142472213828   -2.38188491595186   -3.48839259371891
H        -9.37744230501716   -1.45538349947885    1.96944697142341
H       -11.59509733434315   -1.26976525745069    3.35536323900043
H       -12.67112570492779   -1.39866613696115   -0.81176257101986
H       -14.23970564637465   -1.78238817879826    2.65443921193499
H       -16.75226611818140   -0.30043355769608    2.57417252100574
H       -17.54788346288435    1.62802057439305    0.89981280439563
H       -16.00204739739026    3.05265553721937   -1.12196266740027
H       -15.84777545022225    2.73242328241092   -3.78644437705234
H       -13.83520207927007    2.18849240684310   -5.41641105831126
H       -12.58420124177194    1.24124073051312   -1.40159518536967
H       -11.24666030736456    1.70019438364438   -5.04449293300296
C        11.56869537747659    1.27694371396096    4.42674345721554
C        10.38186927937512    1.57020454987573    3.87305216273690
C        10.48654143248960    1.34045347653816    2.46222617276620
C         9.64434985684757    1.43561590763628    1.35359052857590
C        10.02762216800344    1.82329971177104    0.05554718219313
C         9.05421733957293    1.94033230822555   -0.97240495910420
C         9.69201168081089    2.31408092388810   -2.11350628754446
C        11.07318564751758    2.41344939956886   -1.79733224271502
N        11.24505818477575    2.11542310067073   -0.48178869511232
C        11.99798229872477    2.72183300414336   -2.81535202171534
C        13.20794177567884    2.09016586364078   -3.03127486660804
C        14.10203130091076    1.91793221970121   -4.17272762104897
C        15.10391291976428    1.14329594881728   -3.74550215227302
C        14.86438666107608    0.81619301298694   -2.35712872153311
N        13.70845491884996    1.41361532397719   -1.98386036219632
C        15.52147808968497    0.10665925278027   -1.36425047685640
C        15.31320149036310    0.21621386116867    0.02473278783761
C        16.41368715763839    0.40569255351423    0.89996865750403
C        15.92772523059205    0.49044727329094    2.17727339638325
C        14.51979638442720    0.34299960918785    2.07787293312262
N        14.17718561456131    0.20096883553454    0.77443642573421
C        13.73581546283994    0.38991259239119    3.24551329883320
C        12.42978117684454    0.84015836129513    3.34194464832815
N        11.75209377168651    0.93367028931536    2.18329166856292
H        11.82921127889078    1.36448175330508    5.46869371967720
H         9.51020188478956    1.93558189116954    4.38596960522004
H         7.98743538791372    1.77465530776251   -0.86660602182432
H         9.23654656582920    2.46965563923111   -3.08953454188413
H        12.17715024300649    2.14609503774887    0.03599999157362
H        11.72256124373346    3.49169163780070   -3.54758987928161
H        13.94841399611675    2.33213403694693   -5.16253864162449
H        15.94734920907175    0.83223530091549   -4.33323826409504
H        16.30619434685264   -0.55693519354214   -1.75259259376670
H        17.46220168738736    0.49991879937025    0.62833697073315
H        16.50715325289721    0.65566338766414    3.08047364626795
H        13.19414039355214    0.03843227073017    0.39123083531351
H        14.17454634862280    0.06641374227962    4.18988816012577
C        -8.38382042343923   -1.86260337505160   -0.45639213764037
C        -7.20984522523880   -2.08042227869672   -0.18564100385848
C        -5.86504931905515   -2.22693408859193    0.11287932647043
C        -4.66831754532340   -2.26476011806489    0.36859696460857
C         4.60646870600548   -0.01056137339057    1.85537865279230
C         5.79497882915741    0.29133198801662    1.87581345739614
C         7.12374215701027    0.66540957494877    1.79090646176171
C         8.27977123484103    1.03651329023332    1.62840578265508
C        -2.20926544906343   -4.81483194255179    2.94843723407608
C        -3.22476404672584   -4.26677892118721    2.26887865923217
C        -2.69260255189364   -3.11917642427830    1.52925475263417
C        -3.27577746726786   -2.19226937827239    0.67559729858440
C        -2.57840371930024   -1.12620825865201    0.00842794730025
C        -2.70931975712288   -0.89264304119211   -1.37931578106643
C        -1.93826498064397    0.19773203666197   -1.69210695786866
C        -1.32814057625641    0.62670355595285   -0.50506071119340
N        -1.72700154963038   -0.19296241558868    0.50238866813821
C        -0.43638212955286    1.72791738663019   -0.49124134740544
C         0.79116066463455    1.76447721608956    0.16403908517689
C         1.73636954318219    2.81251594549228    0.48057202925711
C         2.76541084432682    2.23876584492372    1.12242615838223
C         2.47967852922029    0.81297734176117    1.21785435385965
N         1.29407259468389    0.60096996679681    0.64036640248216
C         3.20532004646529   -0.28292327353272    1.75986676770452
C         2.67032853704621   -1.55429364426159    2.06533567300263
C         3.39070573165309   -2.75737494689301    1.80194667745753
C         2.60677607152119   -3.80778141428505    2.16341870303529
C         1.37586656948758   -3.29438003489157    2.65393269416088
N         1.47116278600740   -1.94413887856673    2.56982896363583
C         0.31582943095459   -4.13374062633227    3.06229251703098
C        -1.01115923819496   -4.02625503300985    2.65795502851678
N        -1.38103192567714   -3.05665440707445    1.81182558856155
H        -2.30012830654996   -5.67448731405812    3.59562484558939
H        -4.23815414954318   -4.62523175859449    2.28839986212870
H        -3.30255844190744   -1.48167438620946   -2.07553494310440
H        -1.79960920168924    0.62888414034351   -2.67868212610458
H        -1.45130242611049   -0.08174220247200    1.52974841224916
H        -0.68921265814242    2.60994015715418   -1.08272909820764
H         1.60873210515466    3.86121806885613    0.25754269413284
H         3.65181604923599    2.71011666051548    1.52660047094788
H         4.38160187229197   -2.82173999291094    1.36628406972991
H         2.87666824688081   -4.86028548436566    2.05343183361543
H         0.71357918198642   -1.26726083285384    2.92588769820364
H         0.55470140305646   -4.98235390963050    3.69800672799120
118
 energy: -199.613272268627 gnorm: 0.077145704520 xtb: 6.4.1 (bd6e46d)
C        -9.82144758788196   -0.76964165930460   -4.36305080972739
C        -9.30063007191998   -1.55593920924817   -3.38863457094290
C        -9.92179437904238   -1.12775852508652   -2.15012041128862
C        -9.70372793509170   -1.53147167507279   -0.80858054147643
C       -10.70489864970263   -1.44478329496005    0.18665534861375
C       -10.37343517581886   -1.43167024478362    1.56029684537743
C       -11.53674851199880   -1.35911906091232    2.27776478590810
C       -12.60857692481580   -1.30762755354540    1.35713360268493
N       -12.08139389688955   -1.34895916148873    0.09027692486192
C       -13.94795421799987   -1.17546761407998    1.80709183124440
C       -14.85835144200345   -0.26943901974129    1.30452979171087
C       -16.20079002432525    0.12352548964783    1.74473320240211
C       -16.58575177008660    1.12231924864139    0.91997638926659
C       -15.47525975353238    1.33912963834783   -0.00850774459231
N       -14.48346011583202    0.48031516233043    0.25428081612628
C       -15.34455685695402    2.19501257955861   -1.09164643276591
C       -14.45863160793147    2.03552616616768   -2.17436969762270
C       -14.86569128830820    2.37159772225927   -3.49259341824292
C       -13.82569837637295    2.09249048911766   -4.33418360775214
C       -12.75750820005808    1.58216894261556   -3.54854643378673
N       -13.18817597583861    1.52297214655043   -2.24442883260898
C       -11.56093147663924    1.16779074177633   -4.15338637286496
C       -10.74139124094186    0.14095805318394   -3.69624940740674
N       -10.80928605513583   -0.15844494419646   -2.38234521922672
H        -9.64963031763073   -0.83422264961953   -5.42243780304801
H        -8.61308634503805   -2.37623044106928   -3.48629739686190
H        -9.38134622062734   -1.45392191260551    1.95983440460868
H       -11.60860861805294   -1.27803667216415    3.34398977354769
H       -12.62782660491785   -1.37702106343845   -0.75850826042669
H       -14.22310468899654   -1.75960370619256    2.67508182139939
H       -16.74579090553800   -0.30480370556377    2.56561630743582
H       -17.53193862157323    1.63222510310094    0.90100905995825
H       -16.03247006528713    3.02802872759200   -1.15479653703617
H       -15.83676648047963    2.73070148816692   -3.77484512118987
H       -13.82606186219156    2.18778273350475   -5.40291302562554
H       -12.62409584461038    1.24122915810107   -1.45581681941613
H       -11.28147422710190    1.66876572191469   -5.07116464042630
C        11.57496142219144    1.25711266034154    4.42280185709972
C        10.37278077448522    1.55643867154752    3.86940984941533
C        10.51218424305898    1.33627226448022    2.44860363206000
C         9.60341621996693    1.43660555248035    1.36270406839709
C         9.99990088376570    1.80293400448717    0.06034331733248
C         9.04118207454007    1.93646070233807   -0.97704891954402
C         9.68709493764340    2.34105139670832   -2.11020860520625
C        11.07092319628306    2.43542497133650   -1.80621865908924
N        11.23506277562070    2.10295980182497   -0.48393048638571
C        11.99861352259444    2.73754747801603   -2.82611557134992
C        13.21746678500474    2.09895475851660   -2.99315753074257
C        14.09761412929451    1.93456930853144   -4.15482004927929
C        15.09916922016943    1.12512726693069   -3.74146737583773
C        14.82806557723215    0.80525645279215   -2.33974894235080
N        13.69416881676880    1.41262352356609   -1.95210899150152
C        15.52850970277165    0.09546932188199   -1.38574744282861
C        15.32975450243611    0.20183745992464    0.01868627033499
C        16.42260506645121    0.38188817246056    0.89999006134126
C        15.92963721287629    0.46918007807538    2.17551571594245
C        14.52232224395068    0.33476633555990    2.10055207906749
N        14.18369240887965    0.21680203454447    0.77259116830030
C        13.73019366182836    0.39141241682205    3.26012245644325
C        12.42308550254202    0.83458051991760    3.31881832833124
N        11.75287065255053    0.95350778575928    2.15282914765376
H        11.83984362137988    1.35441948669660    5.45857266409027
H         9.50463709773915    1.93315974428735    4.37693790033626
H         7.99188597837899    1.76698146348291   -0.86535926725541
H         9.24776467975556    2.48075018591332   -3.07798459891211
H        12.11718570388053    2.12788908801845    0.00662993073589
H        11.68946707688067    3.45575364377921   -3.57327817579341
H        13.94722286051499    2.33727514793479   -5.14063477040984
H        15.94694869733510    0.81833272458674   -4.32466879599397
H        16.34500404555983   -0.52430620760781   -1.73299348445259
H        17.45079304209524    0.49203168053661    0.61850429126528
H        16.49383231067366    0.65030913707709    3.07090330653108
H        13.25104186964855    0.06453399847127    0.41887686675582
H        14.19768789686965    0.09959652935995    4.19010921540468
C        -8.37915819557331   -1.86870077561949   -0.45008962672873
C        -7.19680419989643   -2.07861302397502   -0.18719150389636
C        -5.87879925253141   -2.22047597666377    0.10923247887715
C        -4.67688876999120   -2.26733888199822    0.36122339187147
C         4.61692191556906   -0.01936919729799    1.85068247353606
C         5.80435795611004    0.29536919993531    1.87040586895637
C         7.11062357202165    0.66954264344434    1.78012841562016
C         8.26349047693243    1.05769186040655    1.61409605607805
C        -2.20290122227766   -4.80993318594672    2.95340290105434
C        -3.22895265849049   -4.26032426230721    2.26859791989829
C        -2.68421124510517   -3.10775430525610    1.54793845674786
C        -3.30558101986398   -2.19355643409721    0.68124922688026
C        -2.58952930128301   -1.13487001176232    0.00144521886860
C        -2.72860901618344   -0.88763253890079   -1.37753039065726
C        -1.95552516564424    0.20747061134117   -1.69259474735710
C        -1.31886461119105    0.63669928512654   -0.51112956884180
N        -1.70948202922611   -0.20976925253003    0.49953924644458
C        -0.42548038426620    1.73825264160469   -0.47235466334266
C         0.78318441934415    1.74259292760719    0.19320299842632
C         1.73605058904356    2.81039241721226    0.47547456934026
C         2.77548717548085    2.23157773278216    1.12271717310067
C         2.45523415032000    0.81045807774710    1.23034689985241
N         1.26250025544963    0.57022749911436    0.68517048550030
C         3.22523903617392   -0.26180365151921    1.76466676818694
C         2.68885575073849   -1.55301870431266    2.05735204045285
C         3.40551152012178   -2.75371911226850    1.81598502296934
C         2.61627652769029   -3.81224230742292    2.18367743591206
C         1.37928446212954   -3.29632049384481    2.65114013271747
N         1.45706567251947   -1.92945532878697    2.54900356625033
C         0.29978187485619   -4.12515247602764    3.06450919947411
C        -1.01935696416695   -3.99160630319466    2.65835013797474
N        -1.36925658830160   -3.00303154408170    1.81100346031956
H        -2.27802881052068   -5.66871557135187    3.59377712564886
H        -4.24208266740260   -4.61257117756530    2.27482687202318
H        -3.30256589311545   -1.47816234013071   -2.06214096233031
H        -1.80231505890638    0.62854604596325   -2.66618413948966
H        -1.45320572133848   -0.10514598821875    1.46199602788473
H        -0.68435883855794    2.59629880603249   -1.08580376700214
H         1.60618313034998    3.85219168091668    0.25208811506281
H         3.65111493787606    2.70373489253628    1.52182177849649
H         4.37772852169787   -2.81315631114223    1.37139402060259
H         2.86446891067776   -4.84793221310636    2.06469226311843
H         0.75226541356894   -1.30519406808946    2.87847322623858
H         0.56003626871049   -4.98937164523668    3.67003513454427
118
 energy: -199.647493425705 gnorm: 0.054820500124 xtb: 6.4.1 (bd6e46d)
C        -9.81727491024283   -0.74432055330244   -4.34178435125439
C        -9.29698798931856   -1.54039048183990   -3.37420815346616
C        -9.93613558691784   -1.13728585280866   -2.13826552991955
C        -9.68883568791875   -1.54545526227671   -0.79954028119815
C       -10.67968746632202   -1.44538164647129    0.20587904589853
C       -10.36156944147388   -1.44745762577391    1.58111028830749
C       -11.52976919095543   -1.39109112068732    2.29323873578213
C       -12.59843574207725   -1.32172855761696    1.37409393403580
N       -12.05416230499547   -1.33543825068997    0.11393410168177
C       -13.94491948769215   -1.18985524439240    1.80440442151833
C       -14.84353873677120   -0.28929433200384    1.27158602211148
C       -16.17955977532094    0.11203794181798    1.72452825278029
C       -16.55536590008413    1.13062311730053    0.91864081576124
C       -15.44253966372408    1.33869698835153   -0.01282405723772
N       -14.46262977617763    0.46277424175671    0.22420398318051
C       -15.34852567147452    2.20134601110813   -1.09689901754904
C       -14.46717757711093    2.05531835289014   -2.18246431848876
C       -14.85926074197413    2.40843628907448   -3.49808409285294
C       -13.82054928718068    2.12721858182221   -4.33884278775911
C       -12.76030070579194    1.59401707044163   -3.56290350343461
N       -13.20453022584559    1.52415598518717   -2.26284730236159
C       -11.56894197187433    1.15585890149468   -4.15633430203158
C       -10.75623158573007    0.13913978651032   -3.66696419665712
N       -10.84544941132619   -0.18376654330603   -2.35632693218941
H        -9.64599479421188   -0.80259134361834   -5.40254986816925
H        -8.60889046692338   -2.35916362036015   -3.47911732781073
H        -9.36594821264102   -1.45780674456689    1.96980947245980
H       -11.62023532085773   -1.30375772696882    3.35577692958012
H       -12.59354399074846   -1.33851272071889   -0.73529619885054
H       -14.20391877258546   -1.72537167291922    2.71223792827399
H       -16.72700198515631   -0.31527318453085    2.54550366547950
H       -17.49853491485414    1.64593961886747    0.90509360783434
H       -16.09093888359418    2.98973111349005   -1.19820010699591
H       -15.83634650985908    2.75051904927510   -3.77241121896753
H       -13.81685843145269    2.20424647316563   -5.40702823468453
H       -12.64844193770862    1.21694122537581   -1.48160708901272
H       -11.32620181330041    1.60799845970626   -5.11545730976507
C        11.57449312264063    1.23337350450246    4.40254024073745
C        10.36916542172750    1.53572134179538    3.85333771296344
C        10.51807251603377    1.32960398937182    2.42698468298713
C         9.57863711698479    1.43598565662573    1.35789547163957
C         9.96873883137655    1.79145384468833    0.05103910136756
C         9.01806762669516    1.93958659236181   -0.98861280022270
C         9.66763666961879    2.37177484927438   -2.11037210492083
C        11.05041444563800    2.45341133952900   -1.81048354173020
N        11.20389736436755    2.09182072231518   -0.49388394984156
C        11.98793922932788    2.74724697941834   -2.82171514425879
C        13.21600852934253    2.11181208811064   -2.95207779367173
C        14.09204298080738    1.94532136677381   -4.11772502802908
C        15.07974578383832    1.10909862959722   -3.71958017008882
C        14.80149551423366    0.78910340771619   -2.31570183015321
N        13.67977351669394    1.41115461905336   -1.91609620911025
C        15.53591809562067    0.08581682170822   -1.38392708713504
C        15.34988570813607    0.18538929642261    0.02337350096486
C        16.44010447973276    0.34830966954241    0.90436732626608
C        15.94577986873039    0.44125367027183    2.17932768309563
C        14.54055784919922    0.32996117285266    2.11196412662192
N        14.20747603110317    0.22458878639054    0.77995768272893
C        13.73613613526020    0.40189636877467    3.26177573218827
C        12.42498902719312    0.83246020428585    3.29358463246206
N        11.75852564790473    0.97083269963970    2.12240555701880
H        11.85042601913130    1.32979966549018    5.43661599780333
H         9.50064692628728    1.91714360780848    4.35846635025710
H         7.97200865634485    1.75459230218077   -0.87433703133353
H         9.24182591456366    2.51328910080414   -3.08108963188282
H        12.08354945236228    2.09570298183730   -0.00404507809196
H        11.64173625998674    3.40008756354034   -3.62247185610581
H        13.94335964328965    2.35383554663528   -5.10129365253559
H        15.92835990301950    0.79533843443905   -4.30130478724562
H        16.40929086736409   -0.47151199379904   -1.71783530087495
H        17.46135212001598    0.46993498412988    0.60849507959399
H        16.49990061965723    0.63617522418457    3.07494770246173
H        13.27167101540236    0.09624217083933    0.43269067361486
H        14.22347526530935    0.15740073288655    4.19843323519111
C        -8.37351371331939   -1.87817904483177   -0.44844634859932
C        -7.19226488841857   -2.08107036082622   -0.18687332464028
C        -5.88222746624248   -2.22019699796306    0.10043307044200
C        -4.68192463145955   -2.26909358415264    0.35465698108203
C         4.62030439554556   -0.02497500680297    1.84487912312530
C         5.80379953649479    0.29695342237635    1.85884252340931
C         7.09637524129867    0.68134891053814    1.76800773213213
C         8.23945428928190    1.09512569311969    1.60475275433840
C        -2.19287796007688   -4.78254736912137    2.95435052887637
C        -3.22469233802948   -4.23723075450076    2.27164916767955
C        -2.68459789101898   -3.07659549778076    1.56551311494480
C        -3.32280955008236   -2.18485284491794    0.68275454697557
C        -2.60137534946733   -1.13940554729285   -0.01304253499570
C        -2.75390697012821   -0.87632173594631   -1.38329528744934
C        -1.97781309438695    0.21809787667366   -1.69730924775348