      -----------------------------------------------------------      
     |                   =====================                   |     
     |                           x T B                           |     
     |                   =====================                   |     
     |                         S. Grimme                         |     
     |          Mulliken Center for Theoretical Chemistry        |     
     |                    University of Bonn                     |     
      -----------------------------------------------------------      

   * xtb version 6.4.1 (bd6e46d) compiled by 'conda@4901f00b25ba' on 2021-06-10

   xtb is free software: you can redistribute it and/or modify it under
   the terms of the GNU Lesser General Public License as published by
   the Free Software Foundation, either version 3 of the License, or
   (at your option) any later version.
   
   xtb is distributed in the hope that it will be useful,
   but WITHOUT ANY WARRANTY; without even the implied warranty of
   MERCHANTABILITY or FITNESS FOR A PARTICULAR PURPOSE.  See the
   GNU Lesser General Public License for more details.
   
   Cite this work as:
   * C. Bannwarth, E. Caldeweyher, S. Ehlert, A. Hansen, P. Pracht,
     J. Seibert, S. Spicher, S. Grimme, WIREs Comput. Mol. Sci., 2020, 11,
     e01493. DOI: 10.1002/wcms.1493
   
   for GFN2-xTB:
   * C. Bannwarth, S. Ehlert and S. Grimme., J. Chem. Theory Comput., 2019,
     15, 1652-1671. DOI: 10.1021/acs.jctc.8b01176
   for GFN1-xTB:
   * S. Grimme, C. Bannwarth, P. Shushkov, J. Chem. Theory Comput., 2017,
     13, 1989-2009. DOI: 10.1021/acs.jctc.7b00118
   for GFN0-xTB:
   * P. Pracht, E. Caldeweyher, S. Ehlert, S. Grimme, ChemRxiv, 2019, preprint.
     DOI: 10.26434/chemrxiv.8326202.v1
   for GFN-FF:
   * S. Spicher and S. Grimme, Angew. Chem. Int. Ed., 2020, 59, 15665-15673.
     DOI: 10.1002/anie.202004239
   
   for DFT-D4:
   * E. Caldeweyher, C. Bannwarth and S. Grimme, J. Chem. Phys., 2017,
     147, 034112. DOI: 10.1063/1.4993215
   * E. Caldeweyher, S. Ehlert, A. Hansen, H. Neugebauer, S. Spicher,
     C. Bannwarth and S. Grimme, J. Chem. Phys., 2019, 150, 154122.
     DOI: 10.1063/1.5090222
   * E. Caldeweyher, J.-M. Mewes, S. Ehlert and S. Grimme, Phys. Chem. Chem. Phys.
     2020, 22, 8499-8512. DOI: 10.1039/D0CP00502A
   
   for sTDA-xTB:
   * S. Grimme and C. Bannwarth, J. Chem. Phys., 2016, 145, 054103.
     DOI: 10.1063/1.4959605
   
   in the mass-spec context:
   * V. Asgeirsson, C. Bauer and S. Grimme, Chem. Sci., 2017, 8, 4879.
     DOI: 10.1039/c7sc00601b
   * J. Koopman and S. Grimme, ACS Omega 2019, 4, 12, 15120-15133.
     DOI: 10.1021/acsomega.9b02011
   
   for metadynamics refer to:
   * S. Grimme, J. Chem. Theory Comput., 2019, 155, 2847-2862
     DOI: 10.1021/acs.jctc.9b00143
   
   for SPH calculations refer to:
   * S. Spicher and S. Grimme, J. Chem. Theory Comput., 2021, 17, 1701-1714
     DOI: 10.1021/acs.jctc.0c01306
   
   with help from (in alphabetical order)
   P. Atkinson, C. Bannwarth, F. Bohle, G. Brandenburg, E. Caldeweyher
   M. Checinski, S. Dohm, S. Ehlert, S. Ehrlich, I. Gerasimov, J. Koopman
   C. Lavigne, S. Lehtola, F. März, M. Müller, F. Musil, H. Neugebauer
   J. Pisarek, C. Plett, P. Pracht, J. Seibert, P. Shushkov, S. Spicher
   M. Stahn, M. Steiner, T. Strunk, J. Stückrath, T. Rose, and J. Unsleber
   
 * started run on 2021/11/21 at 21:10:55.569     

           -------------------------------------------------
          |                Calculation Setup                |
           -------------------------------------------------

          program call               : /home/jeff/miniconda3/bin/xtb /home/jeff/chem/final-year-proejct/Ni+2_6_4_outenergy/input_structure.xyz --gfn 2 --parallel 1 --etemp 300 --chrg 0 --uhf 0 -I det_control.in
          coordinate file            : /home/jeff/chem/final-year-proejct/Ni+2_6_4_outenergy/input_structure.xyz
          omp threads                :                     1
          number of atoms            :                   160
          number of electrons        :                   554
          charge                     :                     0
          spin                       :                   0.0
          first test random number   :      0.62922812813171

   ID    Z sym.   atoms
    1   28 Ni     1, 37, 91, 126
    2    6 C      2-9, 11-15, 17-21, 23, 24, 38-45, 47-51, 53-57, 59, 60,
                  73-90, 92-99, 101-105, 107-111, 113, 114, 127-134, 136-140,
                  142-146, 148, 149
    3    7 N      10, 16, 22, 25, 46, 52, 58, 61, 100, 106, 112, 115, 135,
                  141, 147, 150
    4    1 H      26-36, 62-72, 116-125, 151-160

           -------------------------------------------------
          |                 G F N 2 - x T B                 |
           -------------------------------------------------

        Reference                      10.1021/acs.jctc.8b01176
      * Hamiltonian:
        H0-scaling (s, p, d)           1.850000    2.230000    2.230000
        zeta-weighting                 0.500000
      * Dispersion:
        s8                             2.700000
        a1                             0.520000
        a2                             5.000000
        s9                             5.000000
      * Repulsion:
        kExp                           1.500000    1.000000
        rExp                           1.000000
      * Coulomb:
        alpha                          2.000000
        third order                    shell-resolved
        anisotropic                    true
        a3                             3.000000
        a5                             4.000000
        cn-shift                       1.200000
        cn-exp                         4.000000
        max-rad                        5.000000


          ...................................................
          :                      SETUP                      :
          :.................................................:
          :  # basis functions                 538          :
          :  # atomic orbitals                 534          :
          :  # shells                          282          :
          :  # electrons                       554          :
          :  max. iterations                   250          :
          :  Hamiltonian                  GFN2-xTB          :
          :  restarted?                      false          :
          :  GBSA solvation                  false          :
          :  PC potential                    false          :
          :  electronic temp.          300.0000000     K    :
          :  accuracy                    1.0000000          :
          :  -> integral cutoff          0.2500000E+02      :
          :  -> integral neglect         0.1000000E-07      :
          :  -> SCF convergence          0.1000000E-05 Eh   :
          :  -> wf. convergence          0.1000000E-03 e    :
          :  Broyden damping             0.4000000          :
          ...................................................

 iter      E             dE          RMSdq      gap      omega  full diag
   1   -302.2789186 -0.302279E+03  0.810E+00    0.67       0.0  T
   2   -302.6316275 -0.352709E+00  0.443E+00    1.01       1.0  T
   3   -302.5878886  0.437390E-01  0.118E+00    0.84       1.0  T
   4   -302.6076380 -0.197494E-01  0.619E-01    1.04       1.0  T
   5   -302.6478700 -0.402321E-01  0.301E-01    1.02       1.0  T
   6   -302.6534099 -0.553983E-02  0.197E-01    1.02       1.0  T
   7   -302.6511377  0.227219E-02  0.157E-01    1.03       1.0  T
   8   -302.6555242 -0.438648E-02  0.312E-02    1.02       1.0  T
   9   -302.6556428 -0.118689E-03  0.164E-02    1.02       1.0  T
  10   -302.6556780 -0.351468E-04  0.882E-03    1.02       1.0  T
  11   -302.6556914 -0.134402E-04  0.382E-03    1.02       2.1  T
  12   -302.6556933 -0.181822E-05  0.239E-03    1.02       3.3  T
  13   -302.6556937 -0.452900E-06  0.128E-03    1.02       6.2  T
  14   -302.6556938 -0.575994E-07  0.718E-04    1.02      11.0  T
  15   -302.6556938 -0.347369E-07  0.507E-04    1.02      15.6  T

   *** convergence criteria satisfied after 15 iterations ***

         #    Occupation            Energy/Eh            Energy/eV
      -------------------------------------------------------------
         1        2.0000           -0.6774094             -18.4332
       ...           ...                  ...                  ...
       271        2.0000           -0.3666635              -9.9774
       272        2.0000           -0.3632150              -9.8836
       273        2.0000           -0.3632080              -9.8834
       274        2.0000           -0.3614965              -9.8368
       275        2.0000           -0.3614867              -9.8366
       276        2.0000           -0.3596981              -9.7879
       277        2.0000           -0.3541358              -9.6365 (HOMO)
       278                         -0.3165109              -8.6127 (LUMO)
       279                         -0.3100055              -8.4357
       280                         -0.3025956              -8.2340
       281                         -0.3011766              -8.1954
       282                         -0.3011585              -8.1949
       ...                                ...                  ...
       534                          1.7144720              46.6532
      -------------------------------------------------------------
                  HL-Gap            0.0376250 Eh            1.0238 eV
             Fermi-level           -0.3353220 Eh           -9.1246 eV

 SCC (total)                   0 d,  0 h,  0 min,  1.373 sec
 SCC setup                      ...        0 min,  0.005 sec (  0.329%)
 Dispersion                     ...        0 min,  0.010 sec (  0.735%)
 classical contributions        ...        0 min,  0.001 sec (  0.078%)
 integral evaluation            ...        0 min,  0.083 sec (  6.016%)
 iterations                     ...        0 min,  1.031 sec ( 75.032%)
 molecular gradient             ...        0 min,  0.236 sec ( 17.204%)
 printout                       ...        0 min,  0.008 sec (  0.603%)

         :::::::::::::::::::::::::::::::::::::::::::::::::::::
         ::                     SUMMARY                     ::
         :::::::::::::::::::::::::::::::::::::::::::::::::::::
         :: total energy            -297.204822698540 Eh    ::
         :: gradient norm              0.000522032523 Eh/a0 ::
         :: HOMO-LUMO gap              1.023827225833 eV    ::
         ::.................................................::
         :: SCC energy              -302.655693796536 Eh    ::
         :: -> isotropic ES            0.082673186162 Eh    ::
         :: -> anisotropic ES          0.021195837212 Eh    ::
         :: -> anisotropic XC          0.143156084563 Eh    ::
         :: -> dispersion             -0.256630371734 Eh    ::
         :: repulsion energy           5.454764721198 Eh    ::
         :: add. restraining           0.000000000000 Eh    ::
         :: total charge               0.000000000014 e     ::
         :::::::::::::::::::::::::::::::::::::::::::::::::::::

           -------------------------------------------------
          |                Property Printout                |
           -------------------------------------------------

    * Orbital Energies and Occupations

         #    Occupation            Energy/Eh            Energy/eV
      -------------------------------------------------------------
         1        2.0000           -0.6774094             -18.4332
       ...           ...                  ...                  ...
       265        2.0000           -0.3690280             -10.0418
       266        2.0000           -0.3690238             -10.0416
       267        2.0000           -0.3674063              -9.9976
       268        2.0000           -0.3674035              -9.9976
       269        2.0000           -0.3674001              -9.9975
       270        2.0000           -0.3673906              -9.9972
       271        2.0000           -0.3666635              -9.9774
       272        2.0000           -0.3632150              -9.8836
       273        2.0000           -0.3632080              -9.8834
       274        2.0000           -0.3614965              -9.8368
       275        2.0000           -0.3614867              -9.8366
       276        2.0000           -0.3596981              -9.7879
       277        2.0000           -0.3541358              -9.6365 (HOMO)
       278                         -0.3165109              -8.6127 (LUMO)
       279                         -0.3100055              -8.4357
       280                         -0.3025956              -8.2340
       281                         -0.3011766              -8.1954
       282                         -0.3011585              -8.1949
       283                         -0.3010761              -8.1927
       284                         -0.3010758              -8.1927
       285                         -0.2996469              -8.1538
       286                         -0.2996359              -8.1535
       287                         -0.2987364              -8.1290
       288                         -0.2987198              -8.1286
       ...                                ...                  ...
       534                          1.7144720              46.6532
      -------------------------------------------------------------
                  HL-Gap            0.0376250 Eh            1.0238 eV
             Fermi-level           -0.3353220 Eh           -9.1246 eV

     #   Z          covCN         q      C6AA      α(0)
     1  28 Ni       3.021    -0.292   189.381    28.395
     2   6 C        3.024    -0.052    29.267     8.874
     3   6 C        3.021    -0.051    29.230     8.868
     4   6 C        3.186     0.074    25.915     8.307
     5   6 C        2.956     0.025    27.442     8.592
     6   6 C        3.186     0.074    25.915     8.307
     7   6 C        3.021    -0.051    29.230     8.868
     8   6 C        3.024    -0.052    29.267     8.874
     9   6 C        3.172     0.073    26.004     8.330
    10   7 N        2.625    -0.048    22.178     6.994
    11   6 C        2.904    -0.041    29.027     8.834
    12   6 C        3.168     0.074    25.996     8.331
    13   6 C        3.020    -0.051    29.247     8.871
    14   6 C        3.021    -0.051    29.248     8.871
    15   6 C        3.168     0.075    25.990     8.330
    16   7 N        2.625    -0.047    22.159     6.991
    17   6 C        2.904    -0.043    29.070     8.841
    18   6 C        3.168     0.075    25.990     8.330
    19   6 C        3.021    -0.051    29.248     8.871
    20   6 C        3.020    -0.051    29.247     8.871
    21   6 C        3.168     0.074    25.996     8.331
    22   7 N        2.625    -0.047    22.159     6.991
    23   6 C        2.904    -0.041    29.027     8.834
    24   6 C        3.172     0.073    26.004     8.330
    25   7 N        2.625    -0.048    22.178     6.994
    26   1 H        0.926     0.035     2.511     2.478
    27   1 H        0.926     0.037     2.483     2.464
    28   1 H        0.926     0.037     2.483     2.464
    29   1 H        0.926     0.035     2.511     2.478
    30   1 H        0.926     0.049     2.330     2.387
    31   1 H        0.926     0.036     2.504     2.474
    32   1 H        0.926     0.036     2.505     2.475
    33   1 H        0.926     0.049     2.337     2.391
    34   1 H        0.926     0.036     2.505     2.475
    35   1 H        0.926     0.036     2.504     2.474
    36   1 H        0.926     0.049     2.329     2.387
    37  28 Ni       3.021    -0.292   189.382    28.395
    38   6 C        3.024    -0.052    29.267     8.874
    39   6 C        3.021    -0.051    29.230     8.868
    40   6 C        3.186     0.074    25.914     8.306
    41   6 C        2.956     0.025    27.442     8.592
    42   6 C        3.186     0.074    25.915     8.307
    43   6 C        3.021    -0.051    29.230     8.868
    44   6 C        3.024    -0.052    29.267     8.874
    45   6 C        3.172     0.073    26.004     8.330
    46   7 N        2.625    -0.048    22.177     6.994
    47   6 C        2.904    -0.041    29.027     8.834
    48   6 C        3.168     0.074    25.996     8.331
    49   6 C        3.020    -0.051    29.247     8.871
    50   6 C        3.021    -0.051    29.248     8.871
    51   6 C        3.168     0.075    25.990     8.330
    52   7 N        2.625    -0.047    22.159     6.991
    53   6 C        2.904    -0.043    29.070     8.841
    54   6 C        3.168     0.075    25.990     8.330
    55   6 C        3.021    -0.051    29.248     8.871
    56   6 C        3.020    -0.051    29.247     8.871
    57   6 C        3.168     0.074    25.996     8.331
    58   7 N        2.625    -0.047    22.159     6.991
    59   6 C        2.904    -0.041    29.027     8.834
    60   6 C        3.172     0.073    26.004     8.330
    61   7 N        2.624    -0.048    22.180     6.994
    62   1 H        0.926     0.035     2.511     2.478
    63   1 H        0.926     0.037     2.483     2.464
    64   1 H        0.926     0.037     2.483     2.464
    65   1 H        0.926     0.035     2.511     2.478
    66   1 H        0.926     0.049     2.330     2.387
    67   1 H        0.926     0.036     2.504     2.474
    68   1 H        0.926     0.036     2.505     2.475
    69   1 H        0.926     0.049     2.337     2.391
    70   1 H        0.926     0.036     2.505     2.475
    71   1 H        0.926     0.036     2.504     2.475
    72   1 H        0.926     0.049     2.330     2.387
    73   6 C        1.992    -0.020    31.568     9.074
    74   6 C        1.963    -0.010    31.322     9.038
    75   6 C        1.964    -0.001    31.109     9.007
    76   6 C        1.964    -0.002    31.127     9.010
    77   6 C        1.963    -0.009    31.306     9.036
    78   6 C        1.992    -0.020    31.588     9.077
    79   6 C        1.992    -0.020    31.576     9.075
    80   6 C        1.963    -0.009    31.311     9.036
    81   6 C        1.965    -0.002    31.115     9.008
    82   6 C        1.965    -0.002    31.115     9.008
    83   6 C        1.963    -0.009    31.311     9.036
    84   6 C        1.992    -0.020    31.576     9.075
    85   6 C        1.992    -0.020    31.587     9.076
    86   6 C        1.963    -0.009    31.305     9.036
    87   6 C        1.964    -0.002    31.126     9.010
    88   6 C        1.964    -0.001    31.108     9.007
    89   6 C        1.963    -0.009    31.322     9.038
    90   6 C        1.992    -0.020    31.567     9.073
    91  28 Ni       3.015    -0.286   189.253    28.385
    92   6 C        3.024    -0.052    29.263     8.873
    93   6 C        3.022    -0.050    29.228     8.868
    94   6 C        3.187     0.074    25.900     8.303
    95   6 C        2.956     0.025    27.436     8.591
    96   6 C        3.187     0.074    25.900     8.303
    97   6 C        3.022    -0.050    29.227     8.868
    98   6 C        3.024    -0.052    29.263     8.873
    99   6 C        3.173     0.073    25.999     8.328
   100   7 N        2.623    -0.050    22.213     7.000
   101   6 C        2.904    -0.039    28.977     8.826
   102   6 C        3.173     0.073    25.998     8.328
   103   6 C        3.024    -0.052    29.262     8.873
   104   6 C        3.022    -0.051    29.229     8.868
   105   6 C        3.187     0.074    25.897     8.303
   106   7 N        2.623    -0.050    22.216     7.000
   107   6 C        2.956     0.025    27.441     8.592
   108   6 C        3.187     0.074    25.896     8.303
   109   6 C        3.022    -0.051    29.229     8.868
   110   6 C        3.024    -0.052    29.261     8.873
   111   6 C        3.173     0.073    25.998     8.328
   112   7 N        2.623    -0.050    22.216     7.000
   113   6 C        2.904    -0.039    28.977     8.826
   114   6 C        3.173     0.073    25.999     8.328
   115   7 N        2.623    -0.050    22.212     7.000
   116   1 H        0.926     0.036     2.509     2.477
   117   1 H        0.926     0.038     2.482     2.463
   118   1 H        0.926     0.038     2.482     2.463
   119   1 H        0.926     0.035     2.509     2.477
   120   1 H        0.926     0.050     2.321     2.382
   121   1 H        0.926     0.035     2.509     2.477
   122   1 H        0.926     0.037     2.483     2.464
   123   1 H        0.926     0.037     2.483     2.464
   124   1 H        0.926     0.036     2.509     2.477
   125   1 H        0.926     0.050     2.321     2.382
   126  28 Ni       3.015    -0.286   189.254    28.385
   127   6 C        3.024    -0.052    29.261     8.873
   128   6 C        3.022    -0.051    29.229     8.868
   129   6 C        3.187     0.074    25.897     8.303
   130   6 C        2.956     0.025    27.441     8.592
   131   6 C        3.187     0.074    25.897     8.303
   132   6 C        3.022    -0.051    29.229     8.868
   133   6 C        3.024    -0.052    29.261     8.873
   134   6 C        3.173     0.073    25.998     8.328
   135   7 N        2.623    -0.050    22.217     7.000
   136   6 C        2.904    -0.039    28.977     8.827
   137   6 C        3.173     0.073    25.998     8.328
   138   6 C        3.024    -0.052    29.262     8.873
   139   6 C        3.022    -0.050    29.228     8.868
   140   6 C        3.187     0.074    25.899     8.303
   141   7 N        2.624    -0.050    22.212     6.999
   142   6 C        2.956     0.025    27.435     8.591
   143   6 C        3.187     0.074    25.900     8.303
   144   6 C        3.022    -0.050    29.227     8.868
   145   6 C        3.024    -0.052    29.262     8.873
   146   6 C        3.173     0.073    25.998     8.328
   147   7 N        2.623    -0.050    22.213     7.000
   148   6 C        2.904    -0.039    28.977     8.827
   149   6 C        3.173     0.073    25.998     8.328
   150   7 N        2.623    -0.050    22.216     7.000
   151   1 H        0.926     0.036     2.509     2.477
   152   1 H        0.926     0.037     2.483     2.464
   153   1 H        0.926     0.037     2.483     2.464
   154   1 H        0.926     0.035     2.509     2.477
   155   1 H        0.926     0.050     2.321     2.382
   156   1 H        0.926     0.036     2.509     2.477
   157   1 H        0.926     0.038     2.482     2.463
   158   1 H        0.926     0.038     2.482     2.464
   159   1 H        0.926     0.035     2.509     2.477
   160   1 H        0.926     0.050     2.321     2.382

 Mol. C6AA /au·bohr⁶  :     513937.476010
 Mol. C8AA /au·bohr⁸  :   15081597.689042
 Mol. α(0) /au        :       1181.150703


Wiberg/Mayer (AO) data.
largest (>0.10) Wiberg bond orders for each atom

 ---------------------------------------------------------------------------
     #   Z sym  total        # sym  WBO       # sym  WBO       # sym  WBO
 ---------------------------------------------------------------------------
     1  28 Ni   3.475 --    25 N    0.753    10 N    0.753    22 N    0.751
                            16 N    0.751
     2   6 C    3.953 --     3 C    1.645    24 C    1.170    26 H    0.972
     3   6 C    3.957 --     2 C    1.645     4 C    1.179    27 H    0.970
     4   6 C    3.916 --    25 N    1.262     5 C    1.251     3 C    1.179
     5   6 C    3.945 --     6 C    1.251     4 C    1.251    73 C    1.183
     6   6 C    3.916 --    10 N    1.262     5 C    1.251     7 C    1.179
     7   6 C    3.957 --     8 C    1.645     6 C    1.179    28 H    0.970
     8   6 C    3.953 --     7 C    1.645     9 C    1.170    29 H    0.972
     9   6 C    3.930 --    11 C    1.355    10 N    1.227     8 C    1.170
    10   7 N    3.577 --     6 C    1.262     9 C    1.227     1 Ni   0.753
    11   6 C    3.935 --     9 C    1.355    12 C    1.353    30 H    0.964
    12   6 C    3.935 --    11 C    1.353    16 N    1.239    13 C    1.161
    13   6 C    3.957 --    14 C    1.661    12 C    1.161    31 H    0.972
    14   6 C    3.955 --    13 C    1.661    15 C    1.161    32 H    0.972
    15   6 C    3.937 --    17 C    1.353    16 N    1.242    14 C    1.161
    16   7 N    3.571 --    15 C    1.242    12 C    1.239     1 Ni   0.751
    17   6 C    3.931 --    18 C    1.353    15 C    1.353    33 H    0.964
    18   6 C    3.937 --    17 C    1.353    22 N    1.242    19 C    1.160
    19   6 C    3.955 --    20 C    1.661    18 C    1.160    34 H    0.972
    20   6 C    3.957 --    19 C    1.661    21 C    1.161    35 H    0.972
    21   6 C    3.935 --    23 C    1.353    22 N    1.239    20 C    1.161
    22   7 N    3.571 --    18 C    1.242    21 C    1.239     1 Ni   0.751
    23   6 C    3.935 --    24 C    1.355    21 C    1.353    36 H    0.964
    24   6 C    3.930 --    23 C    1.355    25 N    1.227     2 C    1.170
    25   7 N    3.577 --     4 C    1.262    24 C    1.227     1 Ni   0.753
    26   1 H    0.998 --     2 C    0.972
    27   1 H    0.998 --     3 C    0.970
    28   1 H    0.998 --     7 C    0.970
    29   1 H    0.998 --     8 C    0.972
    30   1 H    0.996 --    11 C    0.964
    31   1 H    0.998 --    13 C    0.972
    32   1 H    0.998 --    14 C    0.972
    33   1 H    0.997 --    17 C    0.964
    34   1 H    0.998 --    19 C    0.972
    35   1 H    0.998 --    20 C    0.972
    36   1 H    0.996 --    23 C    0.964
    37  28 Ni   3.475 --    46 N    0.753    61 N    0.753    52 N    0.751
                            58 N    0.751
    38   6 C    3.953 --    39 C    1.645    60 C    1.170    62 H    0.972
    39   6 C    3.957 --    38 C    1.645    40 C    1.179    63 H    0.970
    40   6 C    3.916 --    61 N    1.262    41 C    1.252    39 C    1.179
    41   6 C    3.945 --    40 C    1.252    42 C    1.251    90 C    1.183
    42   6 C    3.916 --    46 N    1.262    41 C    1.251    43 C    1.179
    43   6 C    3.957 --    44 C    1.645    42 C    1.179    64 H    0.970
    44   6 C    3.953 --    43 C    1.645    45 C    1.170    65 H    0.972
    45   6 C    3.930 --    47 C    1.355    46 N    1.227    44 C    1.170
    46   7 N    3.577 --    42 C    1.262    45 C    1.227    37 Ni   0.753
    47   6 C    3.935 --    45 C    1.355    48 C    1.353    66 H    0.964
    48   6 C    3.935 --    47 C    1.353    52 N    1.239    49 C    1.161
    49   6 C    3.957 --    50 C    1.661    48 C    1.161    67 H    0.972
    50   6 C    3.955 --    49 C    1.661    51 C    1.161    68 H    0.972
    51   6 C    3.937 --    53 C    1.353    52 N    1.242    50 C    1.161
    52   7 N    3.571 --    51 C    1.242    48 C    1.239    37 Ni   0.751
    53   6 C    3.931 --    51 C    1.353    54 C    1.353    69 H    0.964
    54   6 C    3.937 --    53 C    1.353    58 N    1.242    55 C    1.161
    55   6 C    3.955 --    56 C    1.661    54 C    1.161    70 H    0.972
    56   6 C    3.957 --    55 C    1.661    57 C    1.161    71 H    0.972
    57   6 C    3.935 --    59 C    1.353    58 N    1.239    56 C    1.161
    58   7 N    3.571 --    54 C    1.242    57 C    1.239    37 Ni   0.751
    59   6 C    3.935 --    60 C    1.355    57 C    1.353    72 H    0.964
    60   6 C    3.930 --    59 C    1.355    61 N    1.227    38 C    1.170
    61   7 N    3.577 --    40 C    1.262    60 C    1.227    37 Ni   0.753
    62   1 H    0.998 --    38 C    0.972
    63   1 H    0.998 --    39 C    0.970
    64   1 H    0.998 --    43 C    0.970
    65   1 H    0.998 --    44 C    0.972
    66   1 H    0.996 --    47 C    0.964
    67   1 H    0.998 --    49 C    0.972
    68   1 H    0.998 --    50 C    0.972
    69   1 H    0.997 --    53 C    0.964
    70   1 H    0.998 --    55 C    0.972
    71   1 H    0.998 --    56 C    0.972
    72   1 H    0.996 --    59 C    0.964
    73   6 C    3.884 --    74 C    2.448     5 C    1.183    76 C    0.193
    74   6 C    3.930 --    73 C    2.448    75 C    1.329
    75   6 C    3.920 --    76 C    2.361    74 C    1.329    78 C    0.193
    76   6 C    3.921 --    75 C    2.361    77 C    1.330    73 C    0.193
    77   6 C    3.927 --    78 C    2.445    76 C    1.330
    78   6 C    3.885 --    77 C    2.445    95 C    1.186    75 C    0.193
    79   6 C    3.883 --    80 C    2.443   107 C    1.186    82 C    0.193
    80   6 C    3.927 --    79 C    2.443    81 C    1.332
    81   6 C    3.920 --    82 C    2.358    80 C    1.332    84 C    0.193
    82   6 C    3.920 --    81 C    2.358    83 C    1.332    79 C    0.193
    83   6 C    3.927 --    84 C    2.443    82 C    1.332
    84   6 C    3.883 --    83 C    2.443   130 C    1.186    81 C    0.193
    85   6 C    3.884 --    86 C    2.445   142 C    1.185    88 C    0.193
    86   6 C    3.927 --    85 C    2.445    87 C    1.330
    87   6 C    3.921 --    88 C    2.361    86 C    1.330    90 C    0.193
    88   6 C    3.920 --    87 C    2.361    89 C    1.329    85 C    0.193
    89   6 C    3.930 --    90 C    2.448    88 C    1.329
    90   6 C    3.884 --    89 C    2.448    41 C    1.183    87 C    0.193
    91  28 Ni   3.459 --   115 N    0.749   100 N    0.749   106 N    0.749
                           112 N    0.749
    92   6 C    3.953 --    93 C    1.644   114 C    1.171   116 H    0.972
    93   6 C    3.955 --    92 C    1.644    94 C    1.180   117 H    0.970
    94   6 C    3.916 --   115 N    1.264    95 C    1.249    93 C    1.180
    95   6 C    3.934 --    96 C    1.249    94 C    1.249    78 C    1.186
    96   6 C    3.916 --   100 N    1.264    95 C    1.249    97 C    1.180
    97   6 C    3.955 --    98 C    1.644    96 C    1.180   118 H    0.970
    98   6 C    3.953 --    97 C    1.644    99 C    1.171   119 H    0.972
    99   6 C    3.928 --   101 C    1.354   100 N    1.225    98 C    1.171
   100   7 N    3.568 --    96 C    1.264    99 C    1.225    91 Ni   0.749
   101   6 C    3.930 --   102 C    1.355    99 C    1.354   120 H    0.963
   102   6 C    3.928 --   101 C    1.355   106 N    1.225   103 C    1.171
   103   6 C    3.953 --   104 C    1.644   102 C    1.171   121 H    0.972
   104   6 C    3.955 --   103 C    1.644   105 C    1.179   122 H    0.970
   105   6 C    3.916 --   106 N    1.265   107 C    1.248   104 C    1.179
   106   7 N    3.568 --   105 C    1.265   102 C    1.225    91 Ni   0.749
   107   6 C    3.934 --   105 C    1.248   108 C    1.248    79 C    1.186
   108   6 C    3.916 --   112 N    1.265   107 C    1.248   109 C    1.179
   109   6 C    3.955 --   110 C    1.644   108 C    1.179   123 H    0.970
   110   6 C    3.953 --   109 C    1.644   111 C    1.171   124 H    0.972
   111   6 C    3.928 --   113 C    1.355   112 N    1.225   110 C    1.171
   112   7 N    3.568 --   108 C    1.265   111 C    1.225    91 Ni   0.749
   113   6 C    3.930 --   111 C    1.355   114 C    1.354   125 H    0.963
   114   6 C    3.928 --   113 C    1.354   115 N    1.225    92 C    1.171
   115   7 N    3.568 --    94 C    1.264   114 C    1.225    91 Ni   0.749
   116   1 H    0.998 --    92 C    0.972
   117   1 H    0.998 --    93 C    0.970
   118   1 H    0.998 --    97 C    0.970
   119   1 H    0.998 --    98 C    0.972
   120   1 H    0.996 --   101 C    0.963
   121   1 H    0.998 --   103 C    0.972
   122   1 H    0.998 --   104 C    0.970
   123   1 H    0.998 --   109 C    0.970
   124   1 H    0.998 --   110 C    0.972
   125   1 H    0.996 --   113 C    0.963
   126  28 Ni   3.459 --   141 N    0.749   147 N    0.749   150 N    0.749
                           135 N    0.749
   127   6 C    3.953 --   128 C    1.644   149 C    1.171   151 H    0.972
   128   6 C    3.955 --   127 C    1.644   129 C    1.179   152 H    0.970
   129   6 C    3.916 --   150 N    1.265   130 C    1.248   128 C    1.179
   130   6 C    3.935 --   131 C    1.248   129 C    1.248    84 C    1.186
   131   6 C    3.916 --   135 N    1.265   130 C    1.248   132 C    1.179
   132   6 C    3.955 --   133 C    1.644   131 C    1.179   153 H    0.970
   133   6 C    3.953 --   132 C    1.644   134 C    1.171   154 H    0.972
   134   6 C    3.928 --   136 C    1.355   135 N    1.225   133 C    1.171
   135   7 N    3.568 --   131 C    1.265   134 C    1.225   126 Ni   0.749
   136   6 C    3.930 --   134 C    1.355   137 C    1.354   155 H    0.963
   137   6 C    3.928 --   136 C    1.354   141 N    1.225   138 C    1.171
   138   6 C    3.953 --   139 C    1.644   137 C    1.171   156 H    0.972
   139   6 C    3.955 --   138 C    1.644   140 C    1.179   157 H    0.970
   140   6 C    3.916 --   141 N    1.264   142 C    1.249   139 C    1.179
   141   7 N    3.568 --   140 C    1.264   137 C    1.225   126 Ni   0.749
   142   6 C    3.934 --   143 C    1.249   140 C    1.249    85 C    1.185
   143   6 C    3.916 --   147 N    1.264   142 C    1.249   144 C    1.180
   144   6 C    3.955 --   145 C    1.644   143 C    1.180   158 H    0.970
   145   6 C    3.953 --   144 C    1.644   146 C    1.171   159 H    0.972
   146   6 C    3.928 --   148 C    1.354   147 N    1.225   145 C    1.171
   147   7 N    3.568 --   143 C    1.264   146 C    1.225   126 Ni   0.749
   148   6 C    3.930 --   149 C    1.355   146 C    1.354   160 H    0.963
   149   6 C    3.928 --   148 C    1.355   150 N    1.225   127 C    1.171
   150   7 N    3.568 --   129 C    1.265   149 C    1.225   126 Ni   0.749
   151   1 H    0.998 --   127 C    0.972
   152   1 H    0.998 --   128 C    0.970
   153   1 H    0.998 --   132 C    0.970
   154   1 H    0.998 --   133 C    0.972
   155   1 H    0.996 --   136 C    0.963
   156   1 H    0.998 --   138 C    0.972
   157   1 H    0.998 --   139 C    0.970
   158   1 H    0.998 --   144 C    0.970
   159   1 H    0.998 --   145 C    0.972
   160   1 H    0.996 --   148 C    0.963
 ---------------------------------------------------------------------------

Topologies differ in total number of bonds
Writing topology from bond orders to xtbtopo.mol

molecular dipole:
                 x           y           z       tot (Debye)
 q only:       -0.001      -0.001      -0.002
   full:       -0.001      -0.001      -0.004       0.011
molecular quadrupole (traceless):
                xx          xy          yy          xz          yz          zz
 q only:       69.518       0.162       1.902      -0.137      -1.001     -71.421
  q+dip:      131.423       0.382       8.259      -0.354      -1.973    -139.681
   full:       91.891       0.335      -1.775      -0.333      -1.223     -90.116


           -------------------------------------------------
          | TOTAL ENERGY             -297.204822698540 Eh   |
          | GRADIENT NORM               0.000522032523 Eh/α |
          | HOMO-LUMO GAP               1.023827225833 eV   |
           -------------------------------------------------

------------------------------------------------------------------------
 * finished run on 2021/11/21 at 21:10:57.022     
------------------------------------------------------------------------
 total:
 * wall-time:     0 d,  0 h,  0 min,  1.453 sec
 *  cpu-time:     0 d,  0 h,  0 min,  1.453 sec
 * ratio c/w:     1.000 speedup
 SCF:
 * wall-time:     0 d,  0 h,  0 min,  1.375 sec
 *  cpu-time:     0 d,  0 h,  0 min,  1.375 sec
 * ratio c/w:     1.000 speedup

