      -----------------------------------------------------------      
     |                   =====================                   |     
     |                           x T B                           |     
     |                   =====================                   |     
     |                         S. Grimme                         |     
     |          Mulliken Center for Theoretical Chemistry        |     
     |                    University of Bonn                     |     
      -----------------------------------------------------------      

   * xtb version 6.4.1 (bd6e46d) compiled by 'conda@4901f00b25ba' on 2021-06-10

   xtb is free software: you can redistribute it and/or modify it under
   the terms of the GNU Lesser General Public License as published by
   the Free Software Foundation, either version 3 of the License, or
   (at your option) any later version.
   
   xtb is distributed in the hope that it will be useful,
   but WITHOUT ANY WARRANTY; without even the implied warranty of
   MERCHANTABILITY or FITNESS FOR A PARTICULAR PURPOSE.  See the
   GNU Lesser General Public License for more details.
   
   Cite this work as:
   * C. Bannwarth, E. Caldeweyher, S. Ehlert, A. Hansen, P. Pracht,
     J. Seibert, S. Spicher, S. Grimme, WIREs Comput. Mol. Sci., 2020, 11,
     e01493. DOI: 10.1002/wcms.1493
   
   for GFN2-xTB:
   * C. Bannwarth, S. Ehlert and S. Grimme., J. Chem. Theory Comput., 2019,
     15, 1652-1671. DOI: 10.1021/acs.jctc.8b01176
   for GFN1-xTB:
   * S. Grimme, C. Bannwarth, P. Shushkov, J. Chem. Theory Comput., 2017,
     13, 1989-2009. DOI: 10.1021/acs.jctc.7b00118
   for GFN0-xTB:
   * P. Pracht, E. Caldeweyher, S. Ehlert, S. Grimme, ChemRxiv, 2019, preprint.
     DOI: 10.26434/chemrxiv.8326202.v1
   for GFN-FF:
   * S. Spicher and S. Grimme, Angew. Chem. Int. Ed., 2020, 59, 15665-15673.
     DOI: 10.1002/anie.202004239
   
   for DFT-D4:
   * E. Caldeweyher, C. Bannwarth and S. Grimme, J. Chem. Phys., 2017,
     147, 034112. DOI: 10.1063/1.4993215
   * E. Caldeweyher, S. Ehlert, A. Hansen, H. Neugebauer, S. Spicher,
     C. Bannwarth and S. Grimme, J. Chem. Phys., 2019, 150, 154122.
     DOI: 10.1063/1.5090222
   * E. Caldeweyher, J.-M. Mewes, S. Ehlert and S. Grimme, Phys. Chem. Chem. Phys.
     2020, 22, 8499-8512. DOI: 10.1039/D0CP00502A
   
   for sTDA-xTB:
   * S. Grimme and C. Bannwarth, J. Chem. Phys., 2016, 145, 054103.
     DOI: 10.1063/1.4959605
   
   in the mass-spec context:
   * V. Asgeirsson, C. Bauer and S. Grimme, Chem. Sci., 2017, 8, 4879.
     DOI: 10.1039/c7sc00601b
   * J. Koopman and S. Grimme, ACS Omega 2019, 4, 12, 15120-15133.
     DOI: 10.1021/acsomega.9b02011
   
   for metadynamics refer to:
   * S. Grimme, J. Chem. Theory Comput., 2019, 155, 2847-2862
     DOI: 10.1021/acs.jctc.9b00143
   
   for SPH calculations refer to:
   * S. Spicher and S. Grimme, J. Chem. Theory Comput., 2021, 17, 1701-1714
     DOI: 10.1021/acs.jctc.0c01306
   
   with help from (in alphabetical order)
   P. Atkinson, C. Bannwarth, F. Bohle, G. Brandenburg, E. Caldeweyher
   M. Checinski, S. Dohm, S. Ehlert, S. Ehrlich, I. Gerasimov, J. Koopman
   C. Lavigne, S. Lehtola, F. März, M. Müller, F. Musil, H. Neugebauer
   J. Pisarek, C. Plett, P. Pracht, J. Seibert, P. Shushkov, S. Spicher
   M. Stahn, M. Steiner, T. Strunk, J. Stückrath, T. Rose, and J. Unsleber
   
 * started run on 2021/11/21 at 19:21:44.763     

           -------------------------------------------------
          |                Calculation Setup                |
           -------------------------------------------------

          program call               : /home/jeff/miniconda3/bin/xtb /home/jeff/chem/final-year-proejct/Zn+2_2_8_outenergy/input_structure.xyz --gfn 2 --parallel 1 --etemp 300 --chrg 0 --uhf 0 -I det_control.in
          coordinate file            : /home/jeff/chem/final-year-proejct/Zn+2_2_8_outenergy/input_structure.xyz
          omp threads                :                     1
          number of atoms            :                   296
          number of electrons        :                   954
          charge                     :                     0
          spin                       :                   0.0
          first test random number   :      0.68045360490079

   ID    Z sym.   atoms
    1   30 Zn     1, 37, 87, 122, 157, 192, 227, 262
    2    6 C      2-9, 11-15, 17-21, 23, 24, 38-45, 47-51, 53-57, 59, 60,
                  73-86, 88-95, 97-101, 103-107, 109, 110, 123-130, 132-136,
                  138-142, 144, 145, 158-165, 167-171, 173-177, 179, 180,
                  193-200, 202-206, 208-212, 214, 215, 228-235, 237-241,
                  243-247, 249, 250, 263-270, 272-276, 278-282, 284, 285
    3    7 N      10, 16, 22, 25, 46, 52, 58, 61, 96, 102, 108, 111, 131,
                  137, 143, 146, 166, 172, 178, 181, 201, 207, 213, 216, 236,
                  242, 248, 251, 271, 277, 283, 286
    4    1 H      26-36, 62-72, 112-121, 147-156, 182-191, 217-226, 252-261,
                  287-296

           -------------------------------------------------
          |                 G F N 2 - x T B                 |
           -------------------------------------------------

        Reference                      10.1021/acs.jctc.8b01176
      * Hamiltonian:
        H0-scaling (s, p, d)           1.850000    2.230000    2.230000
        zeta-weighting                 0.500000
      * Dispersion:
        s8                             2.700000
        a1                             0.520000
        a2                             5.000000
        s9                             5.000000
      * Repulsion:
        kExp                           1.500000    1.000000
        rExp                           1.000000
      * Coulomb:
        alpha                          2.000000
        third order                    shell-resolved
        anisotropic                    true
        a3                             3.000000
        a5                             4.000000
        cn-shift                       1.200000
        cn-exp                         4.000000
        max-rad                        5.000000


          ...................................................
          :                      SETUP                      :
          :.................................................:
          :  # basis functions                 938          :
          :  # atomic orbitals                 938          :
          :  # shells                          510          :
          :  # electrons                       954          :
          :  max. iterations                   250          :
          :  Hamiltonian                  GFN2-xTB          :
          :  restarted?                      false          :
          :  GBSA solvation                  false          :
          :  PC potential                    false          :
          :  electronic temp.          300.0000000     K    :
          :  accuracy                    1.0000000          :
          :  -> integral cutoff          0.2500000E+02      :
          :  -> integral neglect         0.1000000E-07      :
          :  -> SCF convergence          0.1000000E-05 Eh   :
          :  -> wf. convergence          0.1000000E-03 e    :
          :  Broyden damping             0.4000000          :
          ...................................................

 iter      E             dE          RMSdq      gap      omega  full diag
   1   -520.0750609 -0.520075E+03  0.617E+00    0.87       0.0  T
   2   -521.1672272 -0.109217E+01  0.319E+00    0.79       1.0  T
   3   -521.1589715  0.825571E-02  0.229E+00    0.91       1.0  T
   4   -522.0439547 -0.884983E+00  0.367E-01    0.82       1.0  T
   5   -522.0511403 -0.718559E-02  0.230E-01    0.86       1.0  T
   6   -522.0560386 -0.489829E-02  0.130E-01    0.85       1.0  T
   7   -522.0594570 -0.341842E-02  0.674E-02    0.84       1.0  T
   8   -522.0610177 -0.156067E-02  0.269E-02    0.84       1.0  T
   9   -522.0612643 -0.246602E-03  0.129E-02    0.85       1.0  T
  10   -522.0613117 -0.474316E-04  0.504E-03    0.85       1.2  T
  11   -522.0613190 -0.730067E-05  0.201E-03    0.85       2.9  T
  12   -522.0613200 -0.100920E-05  0.970E-04    0.85       6.0  T
  13   -522.0613201 -0.477488E-07  0.512E-04    0.85      11.4  T
  14   -522.0613202 -0.636073E-07  0.181E-04    0.85      32.0  T

   *** convergence criteria satisfied after 14 iterations ***

         #    Occupation            Energy/Eh            Energy/eV
      -------------------------------------------------------------
         1        2.0000           -0.6680046             -18.1773
       ...           ...                  ...                  ...
       471        2.0000           -0.3688226             -10.0362
       472        2.0000           -0.3679836             -10.0133
       473        2.0000           -0.3636517              -9.8955
       474        2.0000           -0.3591689              -9.7735
       475        2.0000           -0.3547173              -9.6523
       476        2.0000           -0.3508282              -9.5465
       477        2.0000           -0.3480583              -9.4711 (HOMO)
       478        0.0000           -0.3169976              -8.6259 (LUMO)
       479                         -0.3136386              -8.5345
       480                         -0.3094025              -8.4193
       481                         -0.3046169              -8.2890
       482                         -0.2997627              -8.1570
       ...                                ...                  ...
       938                          1.4082003              38.3191
      -------------------------------------------------------------
                  HL-Gap            0.0310607 Eh            0.8452 eV
             Fermi-level           -0.3325163 Eh           -9.0482 eV

 SCC (total)                   0 d,  0 h,  0 min,  5.068 sec
 SCC setup                      ...        0 min,  0.015 sec (  0.304%)
 Dispersion                     ...        0 min,  0.032 sec (  0.633%)
 classical contributions        ...        0 min,  0.003 sec (  0.058%)
 integral evaluation            ...        0 min,  0.238 sec (  4.689%)
 iterations                     ...        0 min,  4.087 sec ( 80.649%)
 molecular gradient             ...        0 min,  0.654 sec ( 12.911%)
 printout                       ...        0 min,  0.038 sec (  0.756%)

         :::::::::::::::::::::::::::::::::::::::::::::::::::::
         ::                     SUMMARY                     ::
         :::::::::::::::::::::::::::::::::::::::::::::::::::::
         :: total energy            -512.844163542050 Eh    ::
         :: gradient norm              0.000329463557 Eh/a0 ::
         :: HOMO-LUMO gap              0.845204631906 eV    ::
         ::.................................................::
         :: SCC energy              -522.061320160433 Eh    ::
         :: -> isotropic ES            0.520825020248 Eh    ::
         :: -> anisotropic ES          0.073606527475 Eh    ::
         :: -> anisotropic XC          0.264978156014 Eh    ::
         :: -> dispersion             -0.507580235872 Eh    ::
         :: repulsion energy           9.226770597910 Eh    ::
         :: add. restraining           0.000000000000 Eh    ::
         :: total charge               0.000000000000 e     ::
         :::::::::::::::::::::::::::::::::::::::::::::::::::::

           -------------------------------------------------
          |                Property Printout                |
           -------------------------------------------------

    * Orbital Energies and Occupations

         #    Occupation            Energy/Eh            Energy/eV
      -------------------------------------------------------------
         1        2.0000           -0.6680046             -18.1773
       ...           ...                  ...                  ...
       465        2.0000           -0.3702602             -10.0753
       466        2.0000           -0.3701703             -10.0728
       467        2.0000           -0.3701694             -10.0728
       468        2.0000           -0.3699444             -10.0667
       469        2.0000           -0.3699365             -10.0665
       470        2.0000           -0.3688429             -10.0367
       471        2.0000           -0.3688226             -10.0362
       472        2.0000           -0.3679836             -10.0133
       473        2.0000           -0.3636517              -9.8955
       474        2.0000           -0.3591689              -9.7735
       475        2.0000           -0.3547173              -9.6523
       476        2.0000           -0.3508282              -9.5465
       477        2.0000           -0.3480583              -9.4711 (HOMO)
       478        0.0000           -0.3169976              -8.6259 (LUMO)
       479                         -0.3136386              -8.5345
       480                         -0.3094025              -8.4193
       481                         -0.3046169              -8.2890
       482                         -0.2997627              -8.1570
       483                         -0.2995379              -8.1508
       484                         -0.2995357              -8.1508
       485                         -0.2994451              -8.1483
       486                         -0.2994360              -8.1481
       487                         -0.2991926              -8.1414
       488                         -0.2991863              -8.1413
       ...                                ...                  ...
       938                          1.4082003              38.3191
      -------------------------------------------------------------
                  HL-Gap            0.0310607 Eh            0.8452 eV
             Fermi-level           -0.3325163 Eh           -9.0482 eV

     #   Z          covCN         q      C6AA      α(0)
     1  30 Zn       3.042     0.244   122.302    21.603
     2   6 C        3.020    -0.052    29.268     8.874
     3   6 C        3.018    -0.050    29.230     8.869
     4   6 C        3.164     0.077    25.965     8.328
     5   6 C        2.953     0.018    27.603     8.617
     6   6 C        3.164     0.077    25.965     8.328
     7   6 C        3.018    -0.051    29.231     8.869
     8   6 C        3.020    -0.052    29.268     8.874
     9   6 C        3.148     0.076    26.052     8.349
    10   7 N        2.632    -0.176    24.827     7.400
    11   6 C        2.901    -0.050    29.242     8.867
    12   6 C        3.145     0.077    26.040     8.349
    13   6 C        3.017    -0.051    29.245     8.871
    14   6 C        3.018    -0.051    29.248     8.871
    15   6 C        3.145     0.077    26.030     8.347
    16   7 N        2.634    -0.175    24.790     7.395
    17   6 C        2.901    -0.052    29.284     8.873
    18   6 C        3.145     0.077    26.030     8.347
    19   6 C        3.018    -0.051    29.249     8.871
    20   6 C        3.017    -0.051    29.245     8.871
    21   6 C        3.145     0.077    26.040     8.349
    22   7 N        2.635    -0.175    24.789     7.395
    23   6 C        2.901    -0.050    29.242     8.867
    24   6 C        3.148     0.076    26.053     8.349
    25   7 N        2.632    -0.176    24.828     7.400
    26   1 H        0.926     0.034     2.533     2.489
    27   1 H        0.926     0.035     2.517     2.481
    28   1 H        0.926     0.035     2.517     2.481
    29   1 H        0.926     0.034     2.533     2.489
    30   1 H        0.926     0.049     2.331     2.387
    31   1 H        0.926     0.034     2.527     2.486
    32   1 H        0.926     0.034     2.528     2.486
    33   1 H        0.926     0.048     2.339     2.392
    34   1 H        0.926     0.034     2.528     2.486
    35   1 H        0.926     0.034     2.527     2.486
    36   1 H        0.926     0.049     2.331     2.387
    37  30 Zn       3.042     0.244   122.302    21.603
    38   6 C        3.020    -0.052    29.269     8.874
    39   6 C        3.018    -0.051    29.232     8.869
    40   6 C        3.164     0.077    25.967     8.328
    41   6 C        2.953     0.018    27.602     8.617
    42   6 C        3.164     0.077    25.967     8.329
    43   6 C        3.018    -0.051    29.231     8.869
    44   6 C        3.020    -0.052    29.269     8.874
    45   6 C        3.148     0.076    26.054     8.350
    46   7 N        2.632    -0.176    24.827     7.400
    47   6 C        2.901    -0.050    29.241     8.866
    48   6 C        3.145     0.077    26.040     8.349
    49   6 C        3.017    -0.051    29.245     8.871
    50   6 C        3.018    -0.051    29.248     8.871
    51   6 C        3.145     0.077    26.029     8.347
    52   7 N        2.635    -0.175    24.789     7.395
    53   6 C        2.901    -0.052    29.283     8.873
    54   6 C        3.145     0.077    26.029     8.347
    55   6 C        3.018    -0.051    29.248     8.871
    56   6 C        3.017    -0.051    29.245     8.871
    57   6 C        3.145     0.077    26.040     8.349
    58   7 N        2.634    -0.175    24.790     7.395
    59   6 C        2.901    -0.050    29.241     8.866
    60   6 C        3.148     0.076    26.053     8.350
    61   7 N        2.632    -0.176    24.826     7.400
    62   1 H        0.926     0.034     2.533     2.489
    63   1 H        0.926     0.035     2.517     2.481
    64   1 H        0.926     0.035     2.517     2.481
    65   1 H        0.926     0.034     2.533     2.489
    66   1 H        0.926     0.049     2.330     2.387
    67   1 H        0.926     0.034     2.527     2.486
    68   1 H        0.926     0.034     2.528     2.486
    69   1 H        0.926     0.048     2.339     2.391
    70   1 H        0.926     0.034     2.528     2.486
    71   1 H        0.926     0.034     2.527     2.486
    72   1 H        0.926     0.049     2.330     2.387
    73   6 C        1.994    -0.028    31.800     9.107
    74   6 C        1.994    -0.029    31.821     9.110
    75   6 C        1.993    -0.029    31.806     9.108
    76   6 C        1.993    -0.029    31.814     9.109
    77   6 C        1.993    -0.029    31.808     9.108
    78   6 C        1.993    -0.029    31.811     9.108
    79   6 C        1.993    -0.029    31.809     9.108
    80   6 C        1.993    -0.029    31.810     9.108
    81   6 C        1.993    -0.029    31.811     9.108
    82   6 C        1.993    -0.029    31.808     9.108
    83   6 C        1.993    -0.029    31.814     9.109
    84   6 C        1.993    -0.029    31.806     9.108
    85   6 C        1.993    -0.029    31.822     9.110
    86   6 C        1.994    -0.028    31.801     9.107
    87  30 Zn       3.039     0.246   122.282    21.601
    88   6 C        3.020    -0.052    29.264     8.874
    89   6 C        3.019    -0.050    29.228     8.868
    90   6 C        3.165     0.077    25.956     8.326
    91   6 C        2.953     0.019    27.593     8.616
    92   6 C        3.165     0.077    25.956     8.326
    93   6 C        3.019    -0.050    29.229     8.868
    94   6 C        3.020    -0.052    29.264     8.874
    95   6 C        3.150     0.075    26.056     8.349
    96   7 N        2.632    -0.176    24.825     7.400
    97   6 C        2.901    -0.048    29.195     8.859
    98   6 C        3.150     0.075    26.059     8.350
    99   6 C        3.020    -0.052    29.265     8.874
   100   6 C        3.019    -0.051    29.232     8.869
   101   6 C        3.164     0.077    25.958     8.327
   102   7 N        2.633    -0.176    24.826     7.400
   103   6 C        2.953     0.018    27.603     8.617
   104   6 C        3.164     0.077    25.957     8.326
   105   6 C        3.019    -0.051    29.234     8.869
   106   6 C        3.020    -0.052    29.265     8.874
   107   6 C        3.150     0.075    26.058     8.350
   108   7 N        2.633    -0.176    24.826     7.400
   109   6 C        2.901    -0.048    29.195     8.859
   110   6 C        3.150     0.075    26.055     8.349
   111   7 N        2.632    -0.176    24.826     7.400
   112   1 H        0.926     0.034     2.530     2.487
   113   1 H        0.926     0.035     2.513     2.479
   114   1 H        0.926     0.035     2.513     2.479
   115   1 H        0.926     0.034     2.530     2.487
   116   1 H        0.925     0.050     2.321     2.383
   117   1 H        0.926     0.034     2.531     2.488
   118   1 H        0.926     0.035     2.517     2.481
   119   1 H        0.926     0.035     2.516     2.480
   120   1 H        0.926     0.034     2.531     2.488
   121   1 H        0.925     0.050     2.321     2.382
   122  30 Zn       3.040     0.246   122.280    21.601
   123   6 C        3.020    -0.052    29.265     8.874
   124   6 C        3.019    -0.051    29.231     8.869
   125   6 C        3.164     0.077    25.958     8.327
   126   6 C        2.953     0.018    27.595     8.616
   127   6 C        3.165     0.077    25.957     8.326
   128   6 C        3.019    -0.051    29.231     8.869
   129   6 C        3.020    -0.052    29.265     8.874
   130   6 C        3.150     0.075    26.058     8.350
   131   7 N        2.633    -0.176    24.825     7.400
   132   6 C        2.901    -0.048    29.190     8.859
   133   6 C        3.150     0.075    26.059     8.350
   134   6 C        3.020    -0.052    29.265     8.874
   135   6 C        3.020    -0.051    29.233     8.869
   136   6 C        3.164     0.077    25.957     8.327
   137   7 N        2.633    -0.176    24.825     7.400
   138   6 C        2.953     0.018    27.599     8.617
   139   6 C        3.164     0.077    25.957     8.327
   140   6 C        3.019    -0.051    29.233     8.869
   141   6 C        3.020    -0.052    29.265     8.874
   142   6 C        3.150     0.075    26.059     8.350
   143   7 N        2.633    -0.176    24.825     7.400
   144   6 C        2.901    -0.048    29.190     8.859
   145   6 C        3.150     0.075    26.058     8.350
   146   7 N        2.633    -0.176    24.825     7.400
   147   1 H        0.926     0.034     2.530     2.487
   148   1 H        0.926     0.035     2.515     2.480
   149   1 H        0.926     0.035     2.515     2.480
   150   1 H        0.926     0.034     2.530     2.487
   151   1 H        0.925     0.050     2.320     2.382
   152   1 H        0.926     0.034     2.530     2.487
   153   1 H        0.926     0.035     2.516     2.480
   154   1 H        0.926     0.035     2.516     2.480
   155   1 H        0.926     0.034     2.530     2.487
   156   1 H        0.925     0.050     2.320     2.382
   157  30 Zn       3.040     0.246   122.279    21.601
   158   6 C        3.020    -0.052    29.265     8.874
   159   6 C        3.019    -0.051    29.231     8.869
   160   6 C        3.164     0.077    25.957     8.327
   161   6 C        2.953     0.018    27.596     8.616
   162   6 C        3.164     0.077    25.957     8.327
   163   6 C        3.020    -0.051    29.233     8.869
   164   6 C        3.020    -0.052    29.265     8.874
   165   6 C        3.150     0.075    26.058     8.350
   166   7 N        2.633    -0.176    24.825     7.400
   167   6 C        2.901    -0.048    29.188     8.858
   168   6 C        3.150     0.075    26.058     8.350
   169   6 C        3.020    -0.052    29.265     8.874
   170   6 C        3.020    -0.051    29.233     8.869
   171   6 C        3.164     0.077    25.958     8.327
   172   7 N        2.633    -0.176    24.825     7.400
   173   6 C        2.953     0.018    27.597     8.616
   174   6 C        3.164     0.077    25.958     8.327
   175   6 C        3.020    -0.051    29.233     8.869
   176   6 C        3.020    -0.052    29.265     8.874
   177   6 C        3.150     0.075    26.059     8.350
   178   7 N        2.633    -0.176    24.825     7.400
   179   6 C        2.901    -0.048    29.188     8.858
   180   6 C        3.150     0.075    26.058     8.350
   181   7 N        2.633    -0.176    24.825     7.400
   182   1 H        0.926     0.034     2.530     2.487
   183   1 H        0.926     0.035     2.516     2.480
   184   1 H        0.926     0.035     2.515     2.480
   185   1 H        0.926     0.034     2.530     2.487
   186   1 H        0.925     0.050     2.319     2.381
   187   1 H        0.926     0.034     2.530     2.487
   188   1 H        0.926     0.035     2.516     2.480
   189   1 H        0.926     0.035     2.516     2.480
   190   1 H        0.926     0.034     2.530     2.487
   191   1 H        0.925     0.050     2.319     2.382
   192  30 Zn       3.040     0.246   122.279    21.601
   193   6 C        3.020    -0.052    29.265     8.874
   194   6 C        3.020    -0.051    29.234     8.869
   195   6 C        3.164     0.077    25.958     8.327
   196   6 C        2.953     0.018    27.597     8.616
   197   6 C        3.164     0.077    25.958     8.327
   198   6 C        3.020    -0.051    29.232     8.869
   199   6 C        3.020    -0.052    29.265     8.874
   200   6 C        3.150     0.075    26.059     8.350
   201   7 N        2.633    -0.176    24.825     7.400
   202   6 C        2.901    -0.048    29.188     8.858
   203   6 C        3.150     0.075    26.058     8.350
   204   6 C        3.020    -0.052    29.265     8.874
   205   6 C        3.020    -0.051    29.232     8.869
   206   6 C        3.164     0.077    25.957     8.327
   207   7 N        2.633    -0.176    24.825     7.400
   208   6 C        2.953     0.018    27.596     8.616
   209   6 C        3.164     0.077    25.957     8.327
   210   6 C        3.020    -0.051    29.233     8.869
   211   6 C        3.020    -0.052    29.265     8.874
   212   6 C        3.150     0.075    26.058     8.350
   213   7 N        2.633    -0.176    24.825     7.400
   214   6 C        2.901    -0.048    29.188     8.858
   215   6 C        3.150     0.075    26.058     8.350
   216   7 N        2.633    -0.176    24.825     7.400
   217   1 H        0.926     0.034     2.530     2.487
   218   1 H        0.926     0.035     2.515     2.480
   219   1 H        0.926     0.035     2.516     2.481
   220   1 H        0.926     0.034     2.530     2.487
   221   1 H        0.925     0.050     2.319     2.382
   222   1 H        0.926     0.034     2.530     2.487
   223   1 H        0.926     0.035     2.515     2.480
   224   1 H        0.926     0.035     2.515     2.480
   225   1 H        0.926     0.034     2.530     2.487
   226   1 H        0.925     0.050     2.319     2.381
   227  30 Zn       3.040     0.246   122.279    21.601
   228   6 C        3.020    -0.052    29.265     8.874
   229   6 C        3.020    -0.051    29.233     8.869
   230   6 C        3.164     0.077    25.957     8.327
   231   6 C        2.953     0.018    27.599     8.617
   232   6 C        3.164     0.077    25.957     8.327
   233   6 C        3.020    -0.051    29.233     8.869
   234   6 C        3.020    -0.052    29.265     8.874
   235   6 C        3.150     0.075    26.059     8.350
   236   7 N        2.633    -0.176    24.826     7.400
   237   6 C        2.901    -0.048    29.189     8.858
   238   6 C        3.150     0.075    26.058     8.350
   239   6 C        3.020    -0.052    29.265     8.874
   240   6 C        3.020    -0.051    29.231     8.869
   241   6 C        3.164     0.077    25.958     8.327
   242   7 N        2.633    -0.176    24.825     7.400
   243   6 C        2.953     0.019    27.595     8.616
   244   6 C        3.164     0.077    25.959     8.327
   245   6 C        3.020    -0.051    29.232     8.869
   246   6 C        3.020    -0.052    29.265     8.874
   247   6 C        3.150     0.075    26.058     8.350
   248   7 N        2.633    -0.176    24.825     7.400
   249   6 C        2.901    -0.048    29.189     8.858
   250   6 C        3.150     0.075    26.059     8.350
   251   7 N        2.633    -0.176    24.826     7.400
   252   1 H        0.926     0.034     2.530     2.487
   253   1 H        0.926     0.035     2.516     2.480
   254   1 H        0.926     0.035     2.516     2.481
   255   1 H        0.926     0.034     2.530     2.487
   256   1 H        0.925     0.050     2.320     2.382
   257   1 H        0.926     0.034     2.530     2.487
   258   1 H        0.926     0.035     2.516     2.480
   259   1 H        0.926     0.035     2.515     2.480
   260   1 H        0.926     0.034     2.530     2.487
   261   1 H        0.925     0.050     2.320     2.382
   262  30 Zn       3.039     0.246   122.281    21.601
   263   6 C        3.020    -0.052    29.265     8.874
   264   6 C        3.019    -0.051    29.234     8.869
   265   6 C        3.164     0.077    25.959     8.327
   266   6 C        2.953     0.018    27.602     8.617
   267   6 C        3.164     0.077    25.959     8.327
   268   6 C        3.020    -0.051    29.233     8.869
   269   6 C        3.020    -0.052    29.266     8.874
   270   6 C        3.150     0.075    26.059     8.350
   271   7 N        2.633    -0.176    24.826     7.400
   272   6 C        2.901    -0.048    29.193     8.859
   273   6 C        3.150     0.075    26.057     8.349
   274   6 C        3.020    -0.052    29.265     8.874
   275   6 C        3.019    -0.050    29.230     8.868
   276   6 C        3.165     0.077    25.958     8.326
   277   7 N        2.632    -0.176    24.826     7.400
   278   6 C        2.953     0.019    27.593     8.616
   279   6 C        3.165     0.077    25.957     8.326
   280   6 C        3.019    -0.050    29.229     8.868
   281   6 C        3.020    -0.052    29.265     8.874
   282   6 C        3.150     0.075    26.057     8.349
   283   7 N        2.633    -0.176    24.826     7.400
   284   6 C        2.901    -0.048    29.193     8.859
   285   6 C        3.150     0.075    26.059     8.350
   286   7 N        2.633    -0.176    24.826     7.400
   287   1 H        0.926     0.034     2.531     2.488
   288   1 H        0.926     0.035     2.516     2.481
   289   1 H        0.926     0.035     2.517     2.481
   290   1 H        0.926     0.034     2.531     2.488
   291   1 H        0.925     0.050     2.321     2.382
   292   1 H        0.926     0.034     2.530     2.488
   293   1 H        0.926     0.035     2.513     2.479
   294   1 H        0.926     0.035     2.514     2.479
   295   1 H        0.926     0.034     2.530     2.488
   296   1 H        0.925     0.050     2.321     2.382

 Mol. C6AA /au·bohr⁶  :    1682106.068586
 Mol. C8AA /au·bohr⁸  :   47919024.753969
 Mol. α(0) /au        :       2120.641449


Wiberg/Mayer (AO) data.
largest (>0.10) Wiberg bond orders for each atom

 ---------------------------------------------------------------------------
     #   Z sym  total        # sym  WBO       # sym  WBO       # sym  WBO
 ---------------------------------------------------------------------------
     1  30 Zn   2.081 --    22 N    0.492    16 N    0.492    10 N    0.489
                            25 N    0.489
     2   6 C    3.954 --     3 C    1.652    24 C    1.170    26 H    0.972
     3   6 C    3.958 --     2 C    1.652     4 C    1.178    27 H    0.969
     4   6 C    3.918 --    25 N    1.284     5 C    1.260     3 C    1.178
     5   6 C    3.941 --     6 C    1.260     4 C    1.260    73 C    1.166
     6   6 C    3.918 --    10 N    1.284     5 C    1.260     7 C    1.178
     7   6 C    3.958 --     8 C    1.652     6 C    1.178    28 H    0.969
     8   6 C    3.954 --     7 C    1.652     9 C    1.170    29 H    0.972
     9   6 C    3.925 --    11 C    1.357    10 N    1.249     8 C    1.170
    10   7 N    3.467 --     6 C    1.284     9 C    1.249     1 Zn   0.489
    11   6 C    3.932 --     9 C    1.357    12 C    1.355    30 H    0.964
    12   6 C    3.930 --    11 C    1.355    16 N    1.261    13 C    1.163
    13   6 C    3.957 --    14 C    1.666    12 C    1.163    31 H    0.972
    14   6 C    3.955 --    13 C    1.666    15 C    1.162    32 H    0.972
    15   6 C    3.932 --    17 C    1.354    16 N    1.263    14 C    1.162
    16   7 N    3.465 --    15 C    1.263    12 C    1.261     1 Zn   0.492
    17   6 C    3.928 --    15 C    1.354    18 C    1.354    33 H    0.964
    18   6 C    3.932 --    17 C    1.354    22 N    1.263    19 C    1.162
    19   6 C    3.955 --    20 C    1.666    18 C    1.162    34 H    0.972
    20   6 C    3.957 --    19 C    1.666    21 C    1.163    35 H    0.972
    21   6 C    3.930 --    23 C    1.355    22 N    1.261    20 C    1.163
    22   7 N    3.465 --    18 C    1.263    21 C    1.261     1 Zn   0.492
    23   6 C    3.932 --    24 C    1.357    21 C    1.355    36 H    0.964
    24   6 C    3.925 --    23 C    1.357    25 N    1.249     2 C    1.170
    25   7 N    3.467 --     4 C    1.284    24 C    1.249     1 Zn   0.489
    26   1 H    0.998 --     2 C    0.972
    27   1 H    0.998 --     3 C    0.969
    28   1 H    0.998 --     7 C    0.969
    29   1 H    0.998 --     8 C    0.972
    30   1 H    0.996 --    11 C    0.964
    31   1 H    0.998 --    13 C    0.972
    32   1 H    0.998 --    14 C    0.972
    33   1 H    0.996 --    17 C    0.964
    34   1 H    0.998 --    19 C    0.972
    35   1 H    0.998 --    20 C    0.972
    36   1 H    0.996 --    23 C    0.964
    37  30 Zn   2.081 --    52 N    0.492    58 N    0.492    61 N    0.489
                            46 N    0.489
    38   6 C    3.954 --    39 C    1.651    60 C    1.171    62 H    0.972
    39   6 C    3.958 --    38 C    1.651    40 C    1.178    63 H    0.969
    40   6 C    3.918 --    61 N    1.284    41 C    1.259    39 C    1.178
    41   6 C    3.941 --    42 C    1.259    40 C    1.259    86 C    1.168
    42   6 C    3.918 --    46 N    1.284    41 C    1.259    43 C    1.178
    43   6 C    3.958 --    44 C    1.651    42 C    1.178    64 H    0.969
    44   6 C    3.954 --    43 C    1.651    45 C    1.171    65 H    0.972
    45   6 C    3.925 --    47 C    1.357    46 N    1.248    44 C    1.171
    46   7 N    3.467 --    42 C    1.284    45 C    1.248    37 Zn   0.489
    47   6 C    3.932 --    45 C    1.357    48 C    1.355    66 H    0.964
    48   6 C    3.930 --    47 C    1.355    52 N    1.261    49 C    1.163
    49   6 C    3.957 --    50 C    1.666    48 C    1.163    67 H    0.972
    50   6 C    3.955 --    49 C    1.666    51 C    1.162    68 H    0.972
    51   6 C    3.932 --    53 C    1.354    52 N    1.263    50 C    1.162
    52   7 N    3.465 --    51 C    1.263    48 C    1.261    37 Zn   0.492
    53   6 C    3.927 --    54 C    1.354    51 C    1.354    69 H    0.964
    54   6 C    3.932 --    53 C    1.354    58 N    1.263    55 C    1.162
    55   6 C    3.955 --    56 C    1.666    54 C    1.162    70 H    0.972
    56   6 C    3.957 --    55 C    1.666    57 C    1.163    71 H    0.972
    57   6 C    3.930 --    59 C    1.355    58 N    1.261    56 C    1.163
    58   7 N    3.465 --    54 C    1.263    57 C    1.261    37 Zn   0.492
    59   6 C    3.932 --    60 C    1.357    57 C    1.355    72 H    0.964
    60   6 C    3.925 --    59 C    1.357    61 N    1.248    38 C    1.171
    61   7 N    3.467 --    40 C    1.284    60 C    1.248    37 Zn   0.489
    62   1 H    0.998 --    38 C    0.972
    63   1 H    0.998 --    39 C    0.969
    64   1 H    0.998 --    43 C    0.969
    65   1 H    0.998 --    44 C    0.972
    66   1 H    0.996 --    47 C    0.964
    67   1 H    0.998 --    49 C    0.972
    68   1 H    0.998 --    50 C    0.972
    69   1 H    0.996 --    53 C    0.964
    70   1 H    0.998 --    55 C    0.972
    71   1 H    0.998 --    56 C    0.972
    72   1 H    0.996 --    59 C    0.964
    73   6 C    3.923 --    74 C    2.580     5 C    1.166
    74   6 C    3.926 --    73 C    2.580    91 C    1.167
    75   6 C    3.923 --    76 C    2.574   103 C    1.172
    76   6 C    3.924 --    75 C    2.574   126 C    1.172
    77   6 C    3.924 --    78 C    2.573   138 C    1.174
    78   6 C    3.924 --    77 C    2.573   161 C    1.174
    79   6 C    3.924 --    80 C    2.572   173 C    1.175
    80   6 C    3.924 --    79 C    2.572   196 C    1.175
    81   6 C    3.924 --    82 C    2.573   208 C    1.174
    82   6 C    3.924 --    81 C    2.573   231 C    1.174
    83   6 C    3.924 --    84 C    2.574   243 C    1.173
    84   6 C    3.924 --    83 C    2.574   266 C    1.173
    85   6 C    3.926 --    86 C    2.579   278 C    1.169
    86   6 C    3.923 --    85 C    2.579    41 C    1.168
    87  30 Zn   2.077 --   102 N    0.489   108 N    0.489    96 N    0.489
                           111 N    0.489
    88   6 C    3.955 --    89 C    1.650   110 C    1.172   112 H    0.972
    89   6 C    3.956 --    88 C    1.650    90 C    1.179   113 H    0.969
    90   6 C    3.918 --   111 N    1.285    91 C    1.258    89 C    1.179
    91   6 C    3.930 --    90 C    1.258    92 C    1.258    74 C    1.167
    92   6 C    3.918 --    96 N    1.285    91 C    1.258    93 C    1.179
    93   6 C    3.956 --    94 C    1.650    92 C    1.179   114 H    0.969
    94   6 C    3.955 --    93 C    1.650    95 C    1.172   115 H    0.972
    95   6 C    3.924 --    97 C    1.355    96 N    1.247    94 C    1.172
    96   7 N    3.461 --    92 C    1.285    95 C    1.247    87 Zn   0.489
    97   6 C    3.926 --    98 C    1.357    95 C    1.355   116 H    0.964
    98   6 C    3.924 --    97 C    1.357   102 N    1.246    99 C    1.172
    99   6 C    3.954 --   100 C    1.649    98 C    1.172   117 H    0.972
   100   6 C    3.956 --    99 C    1.649   101 C    1.180   118 H    0.968
   101   6 C    3.917 --   102 N    1.286   103 C    1.255   100 C    1.180
   102   7 N    3.461 --   101 C    1.286    98 C    1.246    87 Zn   0.489
   103   6 C    3.931 --   101 C    1.255   104 C    1.255    75 C    1.172
   104   6 C    3.917 --   108 N    1.286   103 C    1.255   105 C    1.180
   105   6 C    3.956 --   106 C    1.649   104 C    1.180   119 H    0.968
   106   6 C    3.954 --   105 C    1.649   107 C    1.172   120 H    0.972
   107   6 C    3.924 --   109 C    1.357   108 N    1.246   106 C    1.172
   108   7 N    3.461 --   104 C    1.286   107 C    1.246    87 Zn   0.489
   109   6 C    3.926 --   107 C    1.357   110 C    1.355   121 H    0.964
   110   6 C    3.924 --   109 C    1.355   111 N    1.247    88 C    1.172
   111   7 N    3.461 --    90 C    1.285   110 C    1.247    87 Zn   0.489
   112   1 H    0.998 --    88 C    0.972
   113   1 H    0.998 --    89 C    0.969
   114   1 H    0.998 --    93 C    0.969
   115   1 H    0.998 --    94 C    0.972
   116   1 H    0.996 --    97 C    0.964
   117   1 H    0.998 --    99 C    0.972
   118   1 H    0.998 --   100 C    0.968
   119   1 H    0.998 --   105 C    0.968
   120   1 H    0.998 --   106 C    0.972
   121   1 H    0.996 --   109 C    0.964
   122  30 Zn   2.077 --   143 N    0.489   137 N    0.489   146 N    0.489
                           131 N    0.489
   123   6 C    3.954 --   124 C    1.649   145 C    1.173   147 H    0.972
   124   6 C    3.956 --   123 C    1.649   125 C    1.180   148 H    0.968
   125   6 C    3.917 --   146 N    1.286   126 C    1.255   124 C    1.180
   126   6 C    3.930 --   125 C    1.255   127 C    1.255    76 C    1.172
   127   6 C    3.917 --   131 N    1.286   126 C    1.255   128 C    1.180
   128   6 C    3.956 --   129 C    1.649   127 C    1.180   149 H    0.968
   129   6 C    3.954 --   128 C    1.649   130 C    1.173   150 H    0.972
   130   6 C    3.924 --   132 C    1.356   131 N    1.246   129 C    1.173
   131   7 N    3.461 --   127 C    1.286   130 C    1.246   122 Zn   0.489
   132   6 C    3.925 --   133 C    1.356   130 C    1.356   151 H    0.964
   133   6 C    3.924 --   132 C    1.356   137 N    1.246   134 C    1.173
   134   6 C    3.954 --   135 C    1.649   133 C    1.173   152 H    0.972
   135   6 C    3.956 --   134 C    1.649   136 C    1.180   153 H    0.968
   136   6 C    3.917 --   137 N    1.286   138 C    1.254   135 C    1.180
   137   7 N    3.461 --   136 C    1.286   133 C    1.246   122 Zn   0.489
   138   6 C    3.930 --   139 C    1.255   136 C    1.254    77 C    1.174
   139   6 C    3.917 --   143 N    1.286   138 C    1.255   140 C    1.180
   140   6 C    3.956 --   141 C    1.649   139 C    1.180   154 H    0.968
   141   6 C    3.954 --   140 C    1.649   142 C    1.173   155 H    0.972
   142   6 C    3.924 --   144 C    1.356   143 N    1.246   141 C    1.173
   143   7 N    3.461 --   139 C    1.286   142 C    1.246   122 Zn   0.489
   144   6 C    3.925 --   142 C    1.356   145 C    1.356   156 H    0.964
   145   6 C    3.924 --   144 C    1.356   146 N    1.246   123 C    1.173
   146   7 N    3.461 --   125 C    1.286   145 C    1.246   122 Zn   0.489
   147   1 H    0.998 --   123 C    0.972
   148   1 H    0.998 --   124 C    0.968
   149   1 H    0.998 --   128 C    0.968
   150   1 H    0.998 --   129 C    0.972
   151   1 H    0.996 --   132 C    0.964
   152   1 H    0.998 --   134 C    0.972
   153   1 H    0.998 --   135 C    0.968
   154   1 H    0.998 --   140 C    0.968
   155   1 H    0.998 --   141 C    0.972
   156   1 H    0.996 --   144 C    0.964
   157  30 Zn   2.077 --   178 N    0.489   181 N    0.489   166 N    0.489
                           172 N    0.489
   158   6 C    3.954 --   159 C    1.649   180 C    1.173   182 H    0.972
   159   6 C    3.956 --   158 C    1.649   160 C    1.180   183 H    0.968
   160   6 C    3.917 --   181 N    1.286   161 C    1.255   159 C    1.180
   161   6 C    3.930 --   160 C    1.255   162 C    1.254    78 C    1.174
   162   6 C    3.917 --   166 N    1.286   161 C    1.254   163 C    1.180
   163   6 C    3.956 --   164 C    1.649   162 C    1.180   184 H    0.968
   164   6 C    3.954 --   163 C    1.649   165 C    1.173   185 H    0.972
   165   6 C    3.923 --   167 C    1.356   166 N    1.246   164 C    1.173
   166   7 N    3.460 --   162 C    1.286   165 C    1.246   157 Zn   0.489
   167   6 C    3.925 --   168 C    1.356   165 C    1.356   186 H    0.964
   168   6 C    3.923 --   167 C    1.356   172 N    1.246   169 C    1.173
   169   6 C    3.954 --   170 C    1.649   168 C    1.173   187 H    0.972
   170   6 C    3.956 --   169 C    1.649   171 C    1.180   188 H    0.967
   171   6 C    3.917 --   172 N    1.286   173 C    1.254   170 C    1.180
   172   7 N    3.460 --   171 C    1.286   168 C    1.246   157 Zn   0.489
   173   6 C    3.930 --   174 C    1.254   171 C    1.254    79 C    1.175
   174   6 C    3.917 --   178 N    1.286   173 C    1.254   175 C    1.180
   175   6 C    3.956 --   176 C    1.648   174 C    1.180   189 H    0.967
   176   6 C    3.954 --   175 C    1.648   177 C    1.173   190 H    0.972
   177   6 C    3.923 --   179 C    1.356   178 N    1.246   176 C    1.173
   178   7 N    3.460 --   174 C    1.286   177 C    1.246   157 Zn   0.489
   179   6 C    3.925 --   177 C    1.356   180 C    1.356   191 H    0.964
   180   6 C    3.923 --   179 C    1.356   181 N    1.246   158 C    1.173
   181   7 N    3.460 --   160 C    1.286   180 C    1.246   157 Zn   0.489
   182   1 H    0.998 --   158 C    0.972
   183   1 H    0.998 --   159 C    0.968
   184   1 H    0.998 --   163 C    0.968
   185   1 H    0.998 --   164 C    0.972
   186   1 H    0.996 --   167 C    0.964
   187   1 H    0.998 --   169 C    0.972
   188   1 H    0.998 --   170 C    0.967
   189   1 H    0.998 --   175 C    0.967
   190   1 H    0.998 --   176 C    0.972
   191   1 H    0.996 --   179 C    0.964
   192  30 Zn   2.077 --   216 N    0.489   207 N    0.489   201 N    0.489
                           213 N    0.489
   193   6 C    3.954 --   194 C    1.648   215 C    1.173   217 H    0.972
   194   6 C    3.956 --   193 C    1.648   195 C    1.180   218 H    0.967
   195   6 C    3.917 --   216 N    1.286   196 C    1.254   194 C    1.180
   196   6 C    3.930 --   197 C    1.254   195 C    1.254    80 C    1.175
   197   6 C    3.917 --   201 N    1.286   196 C    1.254   198 C    1.180
   198   6 C    3.956 --   199 C    1.648   197 C    1.180   219 H    0.967
   199   6 C    3.954 --   198 C    1.648   200 C    1.173   220 H    0.972
   200   6 C    3.923 --   202 C    1.356   201 N    1.246   199 C    1.173
   201   7 N    3.460 --   197 C    1.286   200 C    1.246   192 Zn   0.489
   202   6 C    3.925 --   203 C    1.356   200 C    1.356   221 H    0.964
   203   6 C    3.923 --   202 C    1.356   207 N    1.246   204 C    1.173
   204   6 C    3.954 --   205 C    1.649   203 C    1.173   222 H    0.972
   205   6 C    3.956 --   204 C    1.649   206 C    1.180   223 H    0.968
   206   6 C    3.917 --   207 N    1.286   208 C    1.254   205 C    1.180
   207   7 N    3.460 --   206 C    1.286   203 C    1.246   192 Zn   0.489
   208   6 C    3.930 --   209 C    1.254   206 C    1.254    81 C    1.174
   209   6 C    3.917 --   213 N    1.286   208 C    1.254   210 C    1.180
   210   6 C    3.956 --   211 C    1.649   209 C    1.180   224 H    0.968
   211   6 C    3.954 --   210 C    1.649   212 C    1.173   225 H    0.972
   212   6 C    3.923 --   214 C    1.356   213 N    1.246   211 C    1.173
   213   7 N    3.460 --   209 C    1.286   212 C    1.246   192 Zn   0.489
   214   6 C    3.925 --   215 C    1.356   212 C    1.356   226 H    0.964
   215   6 C    3.923 --   214 C    1.356   216 N    1.246   193 C    1.173
   216   7 N    3.460 --   195 C    1.286   215 C    1.246   192 Zn   0.489
   217   1 H    0.998 --   193 C    0.972
   218   1 H    0.998 --   194 C    0.967
   219   1 H    0.998 --   198 C    0.967
   220   1 H    0.998 --   199 C    0.972
   221   1 H    0.996 --   202 C    0.964
   222   1 H    0.998 --   204 C    0.972
   223   1 H    0.998 --   205 C    0.968
   224   1 H    0.998 --   210 C    0.968
   225   1 H    0.998 --   211 C    0.972
   226   1 H    0.996 --   214 C    0.964
   227  30 Zn   2.077 --   242 N    0.489   236 N    0.489   251 N    0.489
                           248 N    0.489
   228   6 C    3.954 --   229 C    1.649   250 C    1.173   252 H    0.972
   229   6 C    3.956 --   228 C    1.649   230 C    1.180   253 H    0.968
   230   6 C    3.917 --   251 N    1.286   231 C    1.254   229 C    1.180
   231   6 C    3.930 --   232 C    1.254   230 C    1.254    82 C    1.174
   232   6 C    3.917 --   236 N    1.286   231 C    1.254   233 C    1.180
   233   6 C    3.956 --   234 C    1.649   232 C    1.180   254 H    0.968
   234   6 C    3.954 --   233 C    1.649   235 C    1.173   255 H    0.972
   235   6 C    3.924 --   237 C    1.356   236 N    1.246   234 C    1.173
   236   7 N    3.461 --   232 C    1.286   235 C    1.246   227 Zn   0.489
   237   6 C    3.925 --   235 C    1.356   238 C    1.356   256 H    0.964
   238   6 C    3.923 --   237 C    1.356   242 N    1.246   239 C    1.173
   239   6 C    3.954 --   240 C    1.649   238 C    1.173   257 H    0.972
   240   6 C    3.956 --   239 C    1.649   241 C    1.180   258 H    0.968
   241   6 C    3.917 --   242 N    1.286   243 C    1.255   240 C    1.180
   242   7 N    3.461 --   241 C    1.286   238 C    1.246   227 Zn   0.489
   243   6 C    3.930 --   244 C    1.255   241 C    1.255    83 C    1.173
   244   6 C    3.917 --   248 N    1.286   243 C    1.255   245 C    1.180
   245   6 C    3.956 --   246 C    1.649   244 C    1.180   259 H    0.968
   246   6 C    3.954 --   245 C    1.649   247 C    1.173   260 H    0.972
   247   6 C    3.923 --   249 C    1.356   248 N    1.246   246 C    1.173
   248   7 N    3.461 --   244 C    1.286   247 C    1.246   227 Zn   0.489
   249   6 C    3.925 --   250 C    1.356   247 C    1.356   261 H    0.964
   250   6 C    3.924 --   249 C    1.356   251 N    1.246   228 C    1.173
   251   7 N    3.461 --   230 C    1.286   250 C    1.246   227 Zn   0.489
   252   1 H    0.998 --   228 C    0.972
   253   1 H    0.998 --   229 C    0.968
   254   1 H    0.998 --   233 C    0.968
   255   1 H    0.998 --   234 C    0.972
   256   1 H    0.996 --   237 C    0.964
   257   1 H    0.998 --   239 C    0.972
   258   1 H    0.998 --   240 C    0.968
   259   1 H    0.998 --   245 C    0.968
   260   1 H    0.998 --   246 C    0.972
   261   1 H    0.996 --   249 C    0.964
   262  30 Zn   2.077 --   271 N    0.489   286 N    0.489   283 N    0.489
                           277 N    0.489
   263   6 C    3.954 --   264 C    1.649   285 C    1.173   287 H    0.972
   264   6 C    3.956 --   263 C    1.649   265 C    1.180   288 H    0.968
   265   6 C    3.917 --   286 N    1.286   266 C    1.255   264 C    1.180
   266   6 C    3.931 --   267 C    1.255   265 C    1.255    84 C    1.173
   267   6 C    3.917 --   271 N    1.286   266 C    1.255   268 C    1.180
   268   6 C    3.956 --   269 C    1.649   267 C    1.180   289 H    0.968
   269   6 C    3.954 --   268 C    1.649   270 C    1.172   290 H    0.972
   270   6 C    3.924 --   272 C    1.357   271 N    1.246   269 C    1.172
   271   7 N    3.461 --   267 C    1.286   270 C    1.246   262 Zn   0.489
   272   6 C    3.926 --   270 C    1.357   273 C    1.355   291 H    0.964
   273   6 C    3.924 --   272 C    1.355   277 N    1.247   274 C    1.172
   274   6 C    3.955 --   275 C    1.649   273 C    1.172   292 H    0.972
   275   6 C    3.956 --   274 C    1.649   276 C    1.179   293 H    0.969
   276   6 C    3.918 --   277 N    1.285   278 C    1.257   275 C    1.179
   277   7 N    3.461 --   276 C    1.285   273 C    1.247   262 Zn   0.489
   278   6 C    3.930 --   276 C    1.257   279 C    1.257    85 C    1.169
   279   6 C    3.918 --   283 N    1.285   278 C    1.257   280 C    1.180
   280   6 C    3.956 --   281 C    1.649   279 C    1.180   294 H    0.969
   281   6 C    3.954 --   280 C    1.649   282 C    1.173   295 H    0.972
   282   6 C    3.924 --   284 C    1.355   283 N    1.247   281 C    1.173
   283   7 N    3.461 --   279 C    1.285   282 C    1.247   262 Zn   0.489
   284   6 C    3.926 --   285 C    1.357   282 C    1.355   296 H    0.964
   285   6 C    3.924 --   284 C    1.357   286 N    1.246   263 C    1.173
   286   7 N    3.461 --   265 C    1.286   285 C    1.246   262 Zn   0.489
   287   1 H    0.998 --   263 C    0.972
   288   1 H    0.998 --   264 C    0.968
   289   1 H    0.998 --   268 C    0.968
   290   1 H    0.998 --   269 C    0.972
   291   1 H    0.996 --   272 C    0.964
   292   1 H    0.998 --   274 C    0.972
   293   1 H    0.998 --   275 C    0.969
   294   1 H    0.998 --   280 C    0.969
   295   1 H    0.998 --   281 C    0.972
   296   1 H    0.996 --   284 C    0.964
 ---------------------------------------------------------------------------

Topologies differ in total number of bonds
Writing topology from bond orders to xtbtopo.mol

molecular dipole:
                 x           y           z       tot (Debye)
 q only:       -0.003      -0.001       0.000
   full:       -0.003      -0.002       0.001       0.010
molecular quadrupole (traceless):
                xx          xy          yy          xz          yz          zz
 q only:       89.267      -0.373     -33.800       0.174      -6.173     -55.467
  q+dip:      164.285      -0.744     -54.820       0.423     -15.713    -109.465
   full:      111.676      -0.668     -41.216       0.414      -8.363     -70.460


           -------------------------------------------------
          | TOTAL ENERGY             -512.844163542050 Eh   |
          | GRADIENT NORM               0.000329463557 Eh/α |
          | HOMO-LUMO GAP               0.845204631906 eV   |
           -------------------------------------------------

------------------------------------------------------------------------
 * finished run on 2021/11/21 at 19:21:50.021     
------------------------------------------------------------------------
 total:
 * wall-time:     0 d,  0 h,  0 min,  5.258 sec
 *  cpu-time:     0 d,  0 h,  0 min,  5.258 sec
 * ratio c/w:     1.000 speedup
 SCF:
 * wall-time:     0 d,  0 h,  0 min,  5.073 sec
 *  cpu-time:     0 d,  0 h,  0 min,  5.073 sec
 * ratio c/w:     1.000 speedup

