      -----------------------------------------------------------      
     |                   =====================                   |     
     |                           x T B                           |     
     |                   =====================                   |     
     |                         S. Grimme                         |     
     |          Mulliken Center for Theoretical Chemistry        |     
     |                    University of Bonn                     |     
      -----------------------------------------------------------      

   * xtb version 6.4.1 (bd6e46d) compiled by 'conda@4901f00b25ba' on 2021-06-10

   xtb is free software: you can redistribute it and/or modify it under
   the terms of the GNU Lesser General Public License as published by
   the Free Software Foundation, either version 3 of the License, or
   (at your option) any later version.
   
   xtb is distributed in the hope that it will be useful,
   but WITHOUT ANY WARRANTY; without even the implied warranty of
   MERCHANTABILITY or FITNESS FOR A PARTICULAR PURPOSE.  See the
   GNU Lesser General Public License for more details.
   
   Cite this work as:
   * C. Bannwarth, E. Caldeweyher, S. Ehlert, A. Hansen, P. Pracht,
     J. Seibert, S. Spicher, S. Grimme, WIREs Comput. Mol. Sci., 2020, 11,
     e01493. DOI: 10.1002/wcms.1493
   
   for GFN2-xTB:
   * C. Bannwarth, S. Ehlert and S. Grimme., J. Chem. Theory Comput., 2019,
     15, 1652-1671. DOI: 10.1021/acs.jctc.8b01176
   for GFN1-xTB:
   * S. Grimme, C. Bannwarth, P. Shushkov, J. Chem. Theory Comput., 2017,
     13, 1989-2009. DOI: 10.1021/acs.jctc.7b00118
   for GFN0-xTB:
   * P. Pracht, E. Caldeweyher, S. Ehlert, S. Grimme, ChemRxiv, 2019, preprint.
     DOI: 10.26434/chemrxiv.8326202.v1
   for GFN-FF:
   * S. Spicher and S. Grimme, Angew. Chem. Int. Ed., 2020, 59, 15665-15673.
     DOI: 10.1002/anie.202004239
   
   for DFT-D4:
   * E. Caldeweyher, C. Bannwarth and S. Grimme, J. Chem. Phys., 2017,
     147, 034112. DOI: 10.1063/1.4993215
   * E. Caldeweyher, S. Ehlert, A. Hansen, H. Neugebauer, S. Spicher,
     C. Bannwarth and S. Grimme, J. Chem. Phys., 2019, 150, 154122.
     DOI: 10.1063/1.5090222
   * E. Caldeweyher, J.-M. Mewes, S. Ehlert and S. Grimme, Phys. Chem. Chem. Phys.
     2020, 22, 8499-8512. DOI: 10.1039/D0CP00502A
   
   for sTDA-xTB:
   * S. Grimme and C. Bannwarth, J. Chem. Phys., 2016, 145, 054103.
     DOI: 10.1063/1.4959605
   
   in the mass-spec context:
   * V. Asgeirsson, C. Bauer and S. Grimme, Chem. Sci., 2017, 8, 4879.
     DOI: 10.1039/c7sc00601b
   * J. Koopman and S. Grimme, ACS Omega 2019, 4, 12, 15120-15133.
     DOI: 10.1021/acsomega.9b02011
   
   for metadynamics refer to:
   * S. Grimme, J. Chem. Theory Comput., 2019, 155, 2847-2862
     DOI: 10.1021/acs.jctc.9b00143
   
   for SPH calculations refer to:
   * S. Spicher and S. Grimme, J. Chem. Theory Comput., 2021, 17, 1701-1714
     DOI: 10.1021/acs.jctc.0c01306
   
   with help from (in alphabetical order)
   P. Atkinson, C. Bannwarth, F. Bohle, G. Brandenburg, E. Caldeweyher
   M. Checinski, S. Dohm, S. Ehlert, S. Ehrlich, I. Gerasimov, J. Koopman
   C. Lavigne, S. Lehtola, F. März, M. Müller, F. Musil, H. Neugebauer
   J. Pisarek, C. Plett, P. Pracht, J. Seibert, P. Shushkov, S. Spicher
   M. Stahn, M. Steiner, T. Strunk, J. Stückrath, T. Rose, and J. Unsleber
   
 * started run on 2021/11/21 at 19:08:36.580     

           -------------------------------------------------
          |                Calculation Setup                |
           -------------------------------------------------

          program call               : /home/jeff/miniconda3/bin/xtb /home/jeff/chem/final-year-proejct/free_base/_2_3_outenergy/input_structure.xyz --gfn 2 --parallel 1 --etemp 300 --chrg 0 --uhf 0 -I det_control.in
          coordinate file            : /home/jeff/chem/final-year-proejct/free_base/_2_3_outenergy/input_structure.xyz
          omp threads                :                     1
          number of atoms            :                   114
          number of electrons        :                   354
          charge                     :                     0
          spin                       :                   0.0
          first test random number   :      0.80840729511856

   ID    Z sym.   atoms
    1    6 C      1-8, 10-14, 16-20, 22, 23, 38-45, 47-51, 53-57, 59, 60,
                  75-86, 88-92, 94-98, 100, 101
    2    7 N      9, 15, 21, 24, 46, 52, 58, 61, 87, 93, 99, 102
    3    1 H      25-37, 62-74, 103-114

           -------------------------------------------------
          |                 G F N 2 - x T B                 |
           -------------------------------------------------

        Reference                      10.1021/acs.jctc.8b01176
      * Hamiltonian:
        H0-scaling (s, p, d)           1.850000    2.230000    2.230000
        zeta-weighting                 0.500000
      * Dispersion:
        s8                             2.700000
        a1                             0.520000
        a2                             5.000000
        s9                             5.000000
      * Repulsion:
        kExp                           1.500000    1.000000
        rExp                           1.000000
      * Coulomb:
        alpha                          2.000000
        third order                    shell-resolved
        anisotropic                    true
        a3                             3.000000
        a5                             4.000000
        cn-shift                       1.200000
        cn-exp                         4.000000
        max-rad                        5.000000


          ...................................................
          :                      SETUP                      :
          :.................................................:
          :  # basis functions                 342          :
          :  # atomic orbitals                 342          :
          :  # shells                          190          :
          :  # electrons                       354          :
          :  max. iterations                   250          :
          :  Hamiltonian                  GFN2-xTB          :
          :  restarted?                      false          :
          :  GBSA solvation                  false          :
          :  PC potential                    false          :
          :  electronic temp.          300.0000000     K    :
          :  accuracy                    1.0000000          :
          :  -> integral cutoff          0.2500000E+02      :
          :  -> integral neglect         0.1000000E-07      :
          :  -> SCF convergence          0.1000000E-05 Eh   :
          :  -> wf. convergence          0.1000000E-03 e    :
          :  Broyden damping             0.4000000          :
          ...................................................

 iter      E             dE          RMSdq      gap      omega  full diag
   1   -194.5024985 -0.194502E+03  0.480E+00    0.69       0.0  T
   2   -194.7965819 -0.294083E+00  0.317E+00    0.97       1.0  T
   3   -194.7572704  0.393115E-01  0.145E+00    0.81       1.0  T
   4   -194.7642531 -0.698273E-02  0.698E-01    0.94       1.0  T
   5   -194.8468696 -0.826165E-01  0.241E-01    0.93       1.0  T
   6   -194.8572116 -0.103420E-01  0.740E-02    0.94       1.0  T
   7   -194.8574817 -0.270079E-03  0.444E-02    0.94       1.0  T
   8   -194.8576761 -0.194388E-03  0.197E-02    0.93       1.0  T
   9   -194.8577029 -0.268016E-04  0.102E-02    0.94       1.0  T
  10   -194.8577081 -0.516273E-05  0.427E-03    0.94       2.2  T
  11   -194.8577102 -0.216130E-05  0.139E-03    0.93       6.7  T
  12   -194.8577105 -0.250836E-06  0.625E-04    0.93      15.0  T
  13   -194.8577105 -0.554480E-07  0.347E-04    0.93      27.0  T

   *** convergence criteria satisfied after 13 iterations ***

         #    Occupation            Energy/Eh            Energy/eV
      -------------------------------------------------------------
         1        2.0000           -0.6836756             -18.6038
       ...           ...                  ...                  ...
       171        2.0000           -0.3704540             -10.0806
       172        2.0000           -0.3689007             -10.0383
       173        2.0000           -0.3682064             -10.0194
       174        2.0000           -0.3680099             -10.0141
       175        2.0000           -0.3655918              -9.9483
       176        2.0000           -0.3567148              -9.7067
       177        2.0000           -0.3461539              -9.4193 (HOMO)
       178                         -0.3117935              -8.4843 (LUMO)
       179                         -0.3002737              -8.1709
       180                         -0.2975419              -8.0965
       181                         -0.2970248              -8.0825
       182                         -0.2965997              -8.0709
       ...                                ...                  ...
       342                          1.4107194              38.3876
      -------------------------------------------------------------
                  HL-Gap            0.0343604 Eh            0.9350 eV
             Fermi-level           -0.3289737 Eh           -8.9518 eV

 SCC (total)                   0 d,  0 h,  0 min,  0.531 sec
 SCC setup                      ...        0 min,  0.002 sec (  0.416%)
 Dispersion                     ...        0 min,  0.005 sec (  0.899%)
 classical contributions        ...        0 min,  0.001 sec (  0.152%)
 integral evaluation            ...        0 min,  0.042 sec (  7.939%)
 iterations                     ...        0 min,  0.323 sec ( 60.835%)
 molecular gradient             ...        0 min,  0.155 sec ( 29.270%)
 printout                       ...        0 min,  0.003 sec (  0.486%)

         :::::::::::::::::::::::::::::::::::::::::::::::::::::
         ::                     SUMMARY                     ::
         :::::::::::::::::::::::::::::::::::::::::::::::::::::
         :: total energy            -191.375971638404 Eh    ::
         :: gradient norm              0.000283292196 Eh/a0 ::
         :: HOMO-LUMO gap              0.934993959261 eV    ::
         ::.................................................::
         :: SCC energy              -194.857710520570 Eh    ::
         :: -> isotropic ES            0.102160388550 Eh    ::
         :: -> anisotropic ES         -0.007771717458 Eh    ::
         :: -> anisotropic XC          0.123605467695 Eh    ::
         :: -> dispersion             -0.163378771849 Eh    ::
         :: repulsion energy           3.484107944980 Eh    ::
         :: add. restraining           0.000000000000 Eh    ::
         :: total charge               0.000000000000 e     ::
         :::::::::::::::::::::::::::::::::::::::::::::::::::::

           -------------------------------------------------
          |                Property Printout                |
           -------------------------------------------------

    * Orbital Energies and Occupations

         #    Occupation            Energy/Eh            Energy/eV
      -------------------------------------------------------------
         1        2.0000           -0.6836756             -18.6038
       ...           ...                  ...                  ...
       165        2.0000           -0.3875660             -10.5462
       166        2.0000           -0.3726679             -10.1408
       167        2.0000           -0.3720976             -10.1253
       168        2.0000           -0.3714624             -10.1080
       169        2.0000           -0.3714359             -10.1073
       170        2.0000           -0.3704838             -10.0814
       171        2.0000           -0.3704540             -10.0806
       172        2.0000           -0.3689007             -10.0383
       173        2.0000           -0.3682064             -10.0194
       174        2.0000           -0.3680099             -10.0141
       175        2.0000           -0.3655918              -9.9483
       176        2.0000           -0.3567148              -9.7067
       177        2.0000           -0.3461539              -9.4193 (HOMO)
       178                         -0.3117935              -8.4843 (LUMO)
       179                         -0.3002737              -8.1709
       180                         -0.2975419              -8.0965
       181                         -0.2970248              -8.0825
       182                         -0.2965997              -8.0709
       183                         -0.2889603              -7.8630
       184                         -0.2645369              -7.1984
       185                         -0.2562035              -6.9717
       186                         -0.2513906              -6.8407
       187                         -0.1912436              -5.2040
       188                         -0.1900538              -5.1716
       ...                                ...                  ...
       342                          1.4107194              38.3876
      -------------------------------------------------------------
                  HL-Gap            0.0343604 Eh            0.9350 eV
             Fermi-level           -0.3289737 Eh           -8.9518 eV

     #   Z          covCN         q      C6AA      α(0)
     1   6 C        3.016    -0.055    29.344     8.886
     2   6 C        3.010    -0.053    29.309     8.881
     3   6 C        3.194     0.086    25.600     8.250
     4   6 C        2.952     0.013    27.725     8.636
     5   6 C        3.095     0.064    26.461     8.431
     6   6 C        3.027    -0.049    29.198     8.863
     7   6 C        3.034    -0.052    29.254     8.872
     8   6 C        3.072     0.064    26.484     8.438
     9   7 N        2.786    -0.081    22.815     7.094
    10   6 C        2.899    -0.055    29.373     8.886
    11   6 C        3.170     0.087    25.719     8.285
    12   6 C        3.012    -0.054    29.317     8.882
    13   6 C        3.009    -0.054    29.319     8.882
    14   6 C        3.174     0.086    25.708     8.281
    15   7 N        1.870    -0.321    29.178     8.007
    16   6 C        2.899    -0.057    29.416     8.893
    17   6 C        3.074     0.065    26.471     8.436
    18   6 C        3.025    -0.051    29.242     8.870
    19   6 C        3.031    -0.051    29.233     8.869
    20   6 C        3.068     0.066    26.465     8.435
    21   7 N        2.787    -0.081    22.817     7.094
    22   6 C        2.899    -0.055    29.371     8.886
    23   6 C        3.174     0.085    25.732     8.285
    24   7 N        1.870    -0.324    29.261     8.018
    25   1 H        0.926     0.018     2.757     2.596
    26   1 H        0.926     0.019     2.742     2.590
    27   1 H        0.926     0.043     2.408     2.427
    28   1 H        0.926     0.041     2.429     2.437
    29   1 H        0.860     0.214     1.037     1.595
    30   1 H        0.925     0.047     2.360     2.402
    31   1 H        0.926     0.019     2.744     2.590
    32   1 H        0.926     0.019     2.744     2.590
    33   1 H        0.926     0.046     2.372     2.408
    34   1 H        0.926     0.042     2.426     2.436
    35   1 H        0.926     0.042     2.427     2.436
    36   1 H        0.860     0.214     1.035     1.594
    37   1 H        0.925     0.047     2.360     2.402
    38   6 C        3.016    -0.055    29.345     8.886
    39   6 C        3.010    -0.053    29.308     8.880
    40   6 C        3.193     0.086    25.607     8.252
    41   6 C        2.952     0.013    27.724     8.636
    42   6 C        3.095     0.064    26.463     8.431
    43   6 C        3.027    -0.049    29.199     8.864
    44   6 C        3.034    -0.052    29.256     8.872
    45   6 C        3.072     0.064    26.485     8.438
    46   7 N        2.786    -0.081    22.815     7.094
    47   6 C        2.899    -0.055    29.369     8.886
    48   6 C        3.170     0.087    25.719     8.285
    49   6 C        3.012    -0.054    29.317     8.882
    50   6 C        3.009    -0.054    29.319     8.882
    51   6 C        3.175     0.086    25.707     8.281
    52   7 N        1.870    -0.321    29.174     8.006
    53   6 C        2.899    -0.057    29.415     8.893
    54   6 C        3.074     0.065    26.471     8.436
    55   6 C        3.025    -0.051    29.243     8.870
    56   6 C        3.031    -0.051    29.233     8.869
    57   6 C        3.068     0.066    26.465     8.435
    58   7 N        2.787    -0.081    22.819     7.095
    59   6 C        2.899    -0.055    29.370     8.886
    60   6 C        3.174     0.085    25.735     8.285
    61   7 N        1.870    -0.324    29.259     8.018
    62   1 H        0.926     0.018     2.758     2.597
    63   1 H        0.926     0.019     2.747     2.592
    64   1 H        0.926     0.043     2.409     2.427
    65   1 H        0.926     0.041     2.430     2.438
    66   1 H        0.860     0.214     1.037     1.595
    67   1 H        0.925     0.047     2.359     2.402
    68   1 H        0.926     0.019     2.744     2.590
    69   1 H        0.926     0.019     2.743     2.590
    70   1 H        0.926     0.046     2.372     2.408
    71   1 H        0.926     0.042     2.426     2.436
    72   1 H        0.926     0.042     2.427     2.436
    73   1 H        0.860     0.214     1.035     1.594
    74   1 H        0.925     0.047     2.360     2.402
    75   6 C        1.993    -0.030    31.840     9.113
    76   6 C        1.991    -0.031    31.863     9.116
    77   6 C        1.991    -0.031    31.865     9.116
    78   6 C        1.992    -0.030    31.844     9.113
    79   6 C        3.017    -0.055    29.338     8.885
    80   6 C        3.009    -0.053    29.305     8.880
    81   6 C        3.194     0.086    25.603     8.250
    82   6 C        2.952     0.013    27.722     8.636
    83   6 C        3.098     0.063    26.467     8.431
    84   6 C        3.025    -0.050    29.208     8.865
    85   6 C        3.036    -0.052    29.252     8.871
    86   6 C        3.072     0.064    26.491     8.439
    87   7 N        2.786    -0.082    22.826     7.096
    88   6 C        2.899    -0.053    29.324     8.879
    89   6 C        3.172     0.085    25.746     8.288
    90   6 C        3.017    -0.055    29.340     8.885
    91   6 C        3.010    -0.053    29.307     8.880
    92   6 C        3.193     0.086    25.609     8.252
    93   7 N        1.871    -0.323    29.240     8.015
    94   6 C        2.952     0.013    27.722     8.636
    95   6 C        3.097     0.063    26.468     8.431
    96   6 C        3.026    -0.050    29.206     8.865
    97   6 C        3.036    -0.052    29.254     8.872
    98   6 C        3.072     0.064    26.493     8.439
    99   7 N        2.786    -0.082    22.825     7.096
   100   6 C        2.899    -0.053    29.322     8.879
   101   6 C        3.172     0.085    25.744     8.288
   102   7 N        1.871    -0.323    29.239     8.015
   103   1 H        0.926     0.019     2.755     2.595
   104   1 H        0.926     0.019     2.745     2.591
   105   1 H        0.926     0.043     2.410     2.428
   106   1 H        0.926     0.041     2.433     2.439
   107   1 H        0.860     0.215     1.034     1.593
   108   1 H        0.925     0.048     2.351     2.398
   109   1 H        0.926     0.019     2.756     2.596
   110   1 H        0.926     0.019     2.748     2.592
   111   1 H        0.926     0.043     2.414     2.430
   112   1 H        0.926     0.041     2.433     2.439
   113   1 H        0.860     0.215     1.035     1.593
   114   1 H        0.925     0.048     2.351     2.398

 Mol. C6AA /au·bohr⁶  :     209019.171969
 Mol. C8AA /au·bohr⁸  :    5331730.364715
 Mol. α(0) /au        :        735.355481


Wiberg/Mayer (AO) data.
largest (>0.10) Wiberg bond orders for each atom

 ---------------------------------------------------------------------------
     #   Z sym  total        # sym  WBO       # sym  WBO       # sym  WBO
 ---------------------------------------------------------------------------
     1   6 C    3.960 --     2 C    1.716    23 C    1.115    25 H    0.973
     2   6 C    3.961 --     1 C    1.716     3 C    1.121    26 H    0.970
     3   6 C    3.922 --    24 N    1.359     4 C    1.250     2 C    1.121
     4   6 C    3.940 --     5 C    1.254     3 C    1.250    75 C    1.175
     5   6 C    3.908 --     4 C    1.254     6 C    1.236     9 N    1.224
     6   6 C    3.956 --     7 C    1.594     5 C    1.236    27 H    0.970
     7   6 C    3.949 --     6 C    1.594     8 C    1.223    28 H    0.973
     8   6 C    3.918 --    10 C    1.344     7 C    1.223     9 N    1.203
     9   7 N    3.590 --     5 C    1.224     8 C    1.203    29 H    0.900
    10   6 C    3.922 --    11 C    1.357     8 C    1.344    30 H    0.964
    11   6 C    3.939 --    10 C    1.357    15 N    1.324    12 C    1.107
    12   6 C    3.963 --    13 C    1.731    11 C    1.107    31 H    0.973
    13   6 C    3.962 --    12 C    1.731    14 C    1.109    32 H    0.973
    14   6 C    3.938 --    16 C    1.354    15 N    1.325    13 C    1.109
    15   7 N    3.002 --    14 C    1.325    11 C    1.324
    16   6 C    3.924 --    14 C    1.354    17 C    1.347    33 H    0.965
    17   6 C    3.921 --    16 C    1.347    18 C    1.216    21 N    1.210
    18   6 C    3.949 --    19 C    1.608    17 C    1.216    34 H    0.973
    19   6 C    3.953 --    18 C    1.608    20 C    1.215    35 H    0.973
    20   6 C    3.916 --    22 C    1.343    19 C    1.215    21 N    1.211
    21   7 N    3.586 --    20 C    1.211    17 C    1.210    36 H    0.900
    22   6 C    3.937 --    23 C    1.365    20 C    1.343    37 H    0.964
    23   6 C    3.925 --    22 C    1.365    24 N    1.301     1 C    1.115
    24   7 N    3.010 --     3 C    1.359    23 C    1.301
    25   1 H    0.999 --     1 C    0.973
    26   1 H    0.999 --     2 C    0.970
    27   1 H    0.998 --     6 C    0.970
    28   1 H    0.998 --     7 C    0.973
    29   1 H    0.954 --     9 N    0.900
    30   1 H    0.997 --    10 C    0.964
    31   1 H    0.999 --    12 C    0.973
    32   1 H    0.999 --    13 C    0.973
    33   1 H    0.997 --    16 C    0.965
    34   1 H    0.998 --    18 C    0.973
    35   1 H    0.998 --    19 C    0.973
    36   1 H    0.954 --    21 N    0.900
    37   1 H    0.997 --    22 C    0.964
    38   6 C    3.960 --    39 C    1.716    60 C    1.115    62 H    0.973
    39   6 C    3.961 --    38 C    1.716    40 C    1.122    63 H    0.969
    40   6 C    3.921 --    61 N    1.360    41 C    1.248    39 C    1.122
    41   6 C    3.940 --    42 C    1.252    40 C    1.248    78 C    1.180
    42   6 C    3.907 --    41 C    1.252    43 C    1.237    46 N    1.225
    43   6 C    3.956 --    44 C    1.593    42 C    1.237    64 H    0.969
    44   6 C    3.948 --    43 C    1.593    45 C    1.224    65 H    0.973
    45   6 C    3.918 --    47 C    1.344    44 C    1.224    46 N    1.203
    46   7 N    3.590 --    42 C    1.225    45 C    1.203    66 H    0.900
    47   6 C    3.921 --    48 C    1.358    45 C    1.344    67 H    0.964
    48   6 C    3.939 --    47 C    1.358    52 N    1.324    49 C    1.107
    49   6 C    3.963 --    50 C    1.731    48 C    1.107    68 H    0.973
    50   6 C    3.962 --    49 C    1.731    51 C    1.109    69 H    0.973
    51   6 C    3.938 --    53 C    1.354    52 N    1.325    50 C    1.109
    52   7 N    3.001 --    51 C    1.325    48 C    1.324
    53   6 C    3.923 --    51 C    1.354    54 C    1.347    70 H    0.965
    54   6 C    3.921 --    53 C    1.347    55 C    1.216    58 N    1.210
    55   6 C    3.949 --    56 C    1.608    54 C    1.216    71 H    0.973
    56   6 C    3.953 --    55 C    1.608    57 C    1.215    72 H    0.973
    57   6 C    3.916 --    59 C    1.343    56 C    1.215    58 N    1.211
    58   7 N    3.586 --    57 C    1.211    54 C    1.210    73 H    0.900
    59   6 C    3.937 --    60 C    1.365    57 C    1.343    74 H    0.964
    60   6 C    3.925 --    59 C    1.365    61 N    1.300    38 C    1.115
    61   7 N    3.010 --    40 C    1.360    60 C    1.300
    62   1 H    0.999 --    38 C    0.973
    63   1 H    0.999 --    39 C    0.969
    64   1 H    0.998 --    43 C    0.969
    65   1 H    0.998 --    44 C    0.973
    66   1 H    0.954 --    46 N    0.900
    67   1 H    0.997 --    47 C    0.964
    68   1 H    0.999 --    49 C    0.973
    69   1 H    0.999 --    50 C    0.973
    70   1 H    0.997 --    53 C    0.965
    71   1 H    0.998 --    55 C    0.973
    72   1 H    0.998 --    56 C    0.973
    73   1 H    0.954 --    58 N    0.900
    74   1 H    0.997 --    59 C    0.964
    75   6 C    3.920 --    76 C    2.567     4 C    1.175
    76   6 C    3.924 --    75 C    2.567    82 C    1.178
    77   6 C    3.924 --    78 C    2.564    94 C    1.183
    78   6 C    3.921 --    77 C    2.564    41 C    1.180
    79   6 C    3.961 --    80 C    1.716   101 C    1.115   103 H    0.973
    80   6 C    3.961 --    79 C    1.716    81 C    1.123   104 H    0.970
    81   6 C    3.923 --   102 N    1.359    82 C    1.249    80 C    1.123
    82   6 C    3.927 --    83 C    1.251    81 C    1.249    76 C    1.178
    83   6 C    3.909 --    82 C    1.251    84 C    1.239    87 N    1.225
    84   6 C    3.953 --    85 C    1.589    83 C    1.239   105 H    0.970
    85   6 C    3.950 --    84 C    1.589    86 C    1.226   106 H    0.973
    86   6 C    3.915 --    88 C    1.337    85 C    1.226    87 N    1.204
    87   7 N    3.586 --    83 C    1.225    86 C    1.204   107 H    0.897
    88   6 C    3.923 --    89 C    1.370    86 C    1.337   108 H    0.963
    89   6 C    3.927 --    88 C    1.370    93 N    1.297    90 C    1.115
    90   6 C    3.961 --    91 C    1.715    89 C    1.115   109 H    0.973
    91   6 C    3.961 --    90 C    1.715    92 C    1.124   110 H    0.968
    92   6 C    3.922 --    93 N    1.361    94 C    1.246    91 C    1.124
    93   7 N    3.002 --    92 C    1.361    89 C    1.297
    94   6 C    3.928 --    95 C    1.249    92 C    1.246    77 C    1.183
    95   6 C    3.908 --    94 C    1.249    96 C    1.240    99 N    1.226
    96   6 C    3.953 --    97 C    1.589    95 C    1.240   111 H    0.969
    97   6 C    3.949 --    96 C    1.589    98 C    1.227   112 H    0.973
    98   6 C    3.915 --   100 C    1.337    97 C    1.227    99 N    1.204
    99   7 N    3.586 --    95 C    1.226    98 C    1.204   113 H    0.897
   100   6 C    3.922 --   101 C    1.370    98 C    1.337   114 H    0.963
   101   6 C    3.928 --   100 C    1.370   102 N    1.298    79 C    1.115
   102   7 N    3.001 --    81 C    1.359   101 C    1.298
   103   1 H    0.999 --    79 C    0.973
   104   1 H    0.999 --    80 C    0.970
   105   1 H    0.998 --    84 C    0.970
   106   1 H    0.998 --    85 C    0.973
   107   1 H    0.954 --    87 N    0.897
   108   1 H    0.997 --    88 C    0.963
   109   1 H    0.999 --    90 C    0.973
   110   1 H    0.999 --    91 C    0.968
   111   1 H    0.998 --    96 C    0.969
   112   1 H    0.998 --    97 C    0.973
   113   1 H    0.954 --    99 N    0.897
   114   1 H    0.997 --   100 C    0.963
 ---------------------------------------------------------------------------

Topologies differ in total number of bonds
Writing topology from bond orders to xtbtopo.mol

molecular dipole:
                 x           y           z       tot (Debye)
 q only:       -0.005       0.004       0.006
   full:       -0.005      -0.004      -0.031       0.081
molecular quadrupole (traceless):
                xx          xy          yy          xz          yz          zz
 q only:       17.079     -31.392       2.364       2.318      -1.100     -19.444
  q+dip:       44.937     -16.747      16.186      -1.739      -3.343     -61.123
   full:       28.687     -15.923       7.807      -1.987      -1.947     -36.494


           -------------------------------------------------
          | TOTAL ENERGY             -191.375971638404 Eh   |
          | GRADIENT NORM               0.000283292196 Eh/α |
          | HOMO-LUMO GAP               0.934993959261 eV   |
           -------------------------------------------------

------------------------------------------------------------------------
 * finished run on 2021/11/21 at 19:08:37.158     
------------------------------------------------------------------------
 total:
 * wall-time:     0 d,  0 h,  0 min,  0.578 sec
 *  cpu-time:     0 d,  0 h,  0 min,  0.578 sec
 * ratio c/w:     1.000 speedup
 SCF:
 * wall-time:     0 d,  0 h,  0 min,  0.531 sec
 *  cpu-time:     0 d,  0 h,  0 min,  0.531 sec
 * ratio c/w:     1.000 speedup

