      -----------------------------------------------------------      
     |                   =====================                   |     
     |                           x T B                           |     
     |                   =====================                   |     
     |                         S. Grimme                         |     
     |          Mulliken Center for Theoretical Chemistry        |     
     |                    University of Bonn                     |     
      -----------------------------------------------------------      

   * xtb version 6.4.1 (bd6e46d) compiled by 'conda@4901f00b25ba' on 2021-06-10

   xtb is free software: you can redistribute it and/or modify it under
   the terms of the GNU Lesser General Public License as published by
   the Free Software Foundation, either version 3 of the License, or
   (at your option) any later version.
   
   xtb is distributed in the hope that it will be useful,
   but WITHOUT ANY WARRANTY; without even the implied warranty of
   MERCHANTABILITY or FITNESS FOR A PARTICULAR PURPOSE.  See the
   GNU Lesser General Public License for more details.
   
   Cite this work as:
   * C. Bannwarth, E. Caldeweyher, S. Ehlert, A. Hansen, P. Pracht,
     J. Seibert, S. Spicher, S. Grimme, WIREs Comput. Mol. Sci., 2020, 11,
     e01493. DOI: 10.1002/wcms.1493
   
   for GFN2-xTB:
   * C. Bannwarth, S. Ehlert and S. Grimme., J. Chem. Theory Comput., 2019,
     15, 1652-1671. DOI: 10.1021/acs.jctc.8b01176
   for GFN1-xTB:
   * S. Grimme, C. Bannwarth, P. Shushkov, J. Chem. Theory Comput., 2017,
     13, 1989-2009. DOI: 10.1021/acs.jctc.7b00118
   for GFN0-xTB:
   * P. Pracht, E. Caldeweyher, S. Ehlert, S. Grimme, ChemRxiv, 2019, preprint.
     DOI: 10.26434/chemrxiv.8326202.v1
   for GFN-FF:
   * S. Spicher and S. Grimme, Angew. Chem. Int. Ed., 2020, 59, 15665-15673.
     DOI: 10.1002/anie.202004239
   
   for DFT-D4:
   * E. Caldeweyher, C. Bannwarth and S. Grimme, J. Chem. Phys., 2017,
     147, 034112. DOI: 10.1063/1.4993215
   * E. Caldeweyher, S. Ehlert, A. Hansen, H. Neugebauer, S. Spicher,
     C. Bannwarth and S. Grimme, J. Chem. Phys., 2019, 150, 154122.
     DOI: 10.1063/1.5090222
   * E. Caldeweyher, J.-M. Mewes, S. Ehlert and S. Grimme, Phys. Chem. Chem. Phys.
     2020, 22, 8499-8512. DOI: 10.1039/D0CP00502A
   
   for sTDA-xTB:
   * S. Grimme and C. Bannwarth, J. Chem. Phys., 2016, 145, 054103.
     DOI: 10.1063/1.4959605
   
   in the mass-spec context:
   * V. Asgeirsson, C. Bauer and S. Grimme, Chem. Sci., 2017, 8, 4879.
     DOI: 10.1039/c7sc00601b
   * J. Koopman and S. Grimme, ACS Omega 2019, 4, 12, 15120-15133.
     DOI: 10.1021/acsomega.9b02011
   
   for metadynamics refer to:
   * S. Grimme, J. Chem. Theory Comput., 2019, 155, 2847-2862
     DOI: 10.1021/acs.jctc.9b00143
   
   for SPH calculations refer to:
   * S. Spicher and S. Grimme, J. Chem. Theory Comput., 2021, 17, 1701-1714
     DOI: 10.1021/acs.jctc.0c01306
   
   with help from (in alphabetical order)
   P. Atkinson, C. Bannwarth, F. Bohle, G. Brandenburg, E. Caldeweyher
   M. Checinski, S. Dohm, S. Ehlert, S. Ehrlich, I. Gerasimov, J. Koopman
   C. Lavigne, S. Lehtola, F. März, M. Müller, F. Musil, H. Neugebauer
   J. Pisarek, C. Plett, P. Pracht, J. Seibert, P. Shushkov, S. Spicher
   M. Stahn, M. Steiner, T. Strunk, J. Stückrath, T. Rose, and J. Unsleber
   
 * started run on 2021/11/20 at 15:54:32.533     

           -------------------------------------------------
          |                Calculation Setup                |
           -------------------------------------------------

          program call               : /home/jeff/miniconda3/bin/xtb /home/jeff/chem/final-year-proejct/Zn+2_6_2_outenergy/input_structure.xyz --gfn 2 --parallel 1 --etemp 300 --chrg 0 --uhf 0 -I det_control.in
          coordinate file            : /home/jeff/chem/final-year-proejct/Zn+2_6_2_outenergy/input_structure.xyz
          omp threads                :                     1
          number of atoms            :                    78
          number of electrons        :                   250
          charge                     :                     0
          spin                       :                   0.0
          first test random number   :      0.41729096469660

   ID    Z sym.   atoms
    1   30 Zn     1, 43
    2    6 C      2-9, 11-15, 17-21, 23, 24, 37-42, 44-51, 53-57, 59-63, 65,
                  66
    3    7 N      10, 16, 22, 25, 52, 58, 64, 67
    4    1 H      26-36, 68-78

           -------------------------------------------------
          |                 G F N 2 - x T B                 |
           -------------------------------------------------

        Reference                      10.1021/acs.jctc.8b01176
      * Hamiltonian:
        H0-scaling (s, p, d)           1.850000    2.230000    2.230000
        zeta-weighting                 0.500000
      * Dispersion:
        s8                             2.700000
        a1                             0.520000
        a2                             5.000000
        s9                             5.000000
      * Repulsion:
        kExp                           1.500000    1.000000
        rExp                           1.000000
      * Coulomb:
        alpha                          2.000000
        third order                    shell-resolved
        anisotropic                    true
        a3                             3.000000
        a5                             4.000000
        cn-shift                       1.200000
        cn-exp                         4.000000
        max-rad                        5.000000


          ...................................................
          :                      SETUP                      :
          :.................................................:
          :  # basis functions                 246          :
          :  # atomic orbitals                 246          :
          :  # shells                          134          :
          :  # electrons                       250          :
          :  max. iterations                   250          :
          :  Hamiltonian                  GFN2-xTB          :
          :  restarted?                      false          :
          :  GBSA solvation                  false          :
          :  PC potential                    false          :
          :  electronic temp.          300.0000000     K    :
          :  accuracy                    1.0000000          :
          :  -> integral cutoff          0.2500000E+02      :
          :  -> integral neglect         0.1000000E-07      :
          :  -> SCF convergence          0.1000000E-05 Eh   :
          :  -> wf. convergence          0.1000000E-03 e    :
          :  Broyden damping             0.4000000          :
          ...................................................

 iter      E             dE          RMSdq      gap      omega  full diag
   1   -136.2376195 -0.136238E+03  0.692E+00    1.22       0.0  T
   2   -136.5100353 -0.272416E+00  0.363E+00    1.16       1.0  T
   3   -136.4425413  0.674940E-01  0.248E+00    1.28       1.0  T
   4   -136.7303970 -0.287856E+00  0.416E-01    1.20       1.0  T
   5   -136.7322822 -0.188523E-02  0.275E-01    1.23       1.0  T
   6   -136.7332950 -0.101281E-02  0.166E-01    1.22       1.0  T
   7   -136.7344271 -0.113206E-02  0.862E-02    1.21       1.0  T
   8   -136.7351839 -0.756838E-03  0.273E-02    1.22       1.0  T
   9   -136.7352246 -0.407083E-04  0.144E-02    1.22       1.0  T
  10   -136.7352348 -0.101385E-04  0.536E-03    1.22       2.1  T
  11   -136.7352356 -0.811954E-06  0.186E-03    1.22       6.1  T
  12   -136.7352356 -0.657024E-07  0.106E-03    1.22      10.7  T
  13   -136.7352356  0.675820E-08  0.699E-04    1.22      16.2  T
  14   -136.7352357 -0.457682E-07  0.283E-04    1.22      40.0  T

   *** convergence criteria satisfied after 14 iterations ***

         #    Occupation            Energy/Eh            Energy/eV
      -------------------------------------------------------------
         1        2.0000           -0.6666664             -18.1409
       ...           ...                  ...                  ...
       119        2.0000           -0.3860834             -10.5059
       120        2.0000           -0.3859975             -10.5035
       121        2.0000           -0.3789284             -10.3112
       122        2.0000           -0.3688855             -10.0379
       123        2.0000           -0.3688838             -10.0378
       124        2.0000           -0.3662968              -9.9674
       125        2.0000           -0.3534094              -9.6168 (HOMO)
       126                         -0.3086750              -8.3995 (LUMO)
       127                         -0.2981942              -8.1143
       128                         -0.2981929              -8.1142
       129                         -0.2963660              -8.0645
       130                         -0.2660597              -7.2399
       ...                                ...                  ...
       246                          1.7151347              46.6712
      -------------------------------------------------------------
                  HL-Gap            0.0447344 Eh            1.2173 eV
             Fermi-level           -0.3310422 Eh           -9.0081 eV

 SCC (total)                   0 d,  0 h,  0 min,  0.266 sec
 SCC setup                      ...        0 min,  0.001 sec (  0.402%)
 Dispersion                     ...        0 min,  0.002 sec (  0.849%)
 classical contributions        ...        0 min,  0.000 sec (  0.150%)
 integral evaluation            ...        0 min,  0.023 sec (  8.759%)
 iterations                     ...        0 min,  0.158 sec ( 59.427%)
 molecular gradient             ...        0 min,  0.080 sec ( 29.949%)
 printout                       ...        0 min,  0.001 sec (  0.457%)

         :::::::::::::::::::::::::::::::::::::::::::::::::::::
         ::                     SUMMARY                     ::
         :::::::::::::::::::::::::::::::::::::::::::::::::::::
         :: total energy            -134.232353048094 Eh    ::
         :: gradient norm              0.000662107769 Eh/a0 ::
         :: HOMO-LUMO gap              1.217283700743 eV    ::
         ::.................................................::
         :: SCC energy              -136.735235686887 Eh    ::
         :: -> isotropic ES            0.129940912024 Eh    ::
         :: -> anisotropic ES          0.019567994188 Eh    ::
         :: -> anisotropic XC          0.078334450738 Eh    ::
         :: -> dispersion             -0.118550319010 Eh    ::
         :: repulsion energy           2.504132447120 Eh    ::
         :: add. restraining           0.000000000000 Eh    ::
         :: total charge              -0.000000000000 e     ::
         :::::::::::::::::::::::::::::::::::::::::::::::::::::

           -------------------------------------------------
          |                Property Printout                |
           -------------------------------------------------

    * Orbital Energies and Occupations

         #    Occupation            Energy/Eh            Energy/eV
      -------------------------------------------------------------
         1        2.0000           -0.6666664             -18.1409
       ...           ...                  ...                  ...
       113        2.0000           -0.4014221             -10.9233
       114        2.0000           -0.4014114             -10.9230
       115        2.0000           -0.4008635             -10.9081
       116        2.0000           -0.4008564             -10.9079
       117        2.0000           -0.4007412             -10.9047
       118        2.0000           -0.3913485             -10.6491
       119        2.0000           -0.3860834             -10.5059
       120        2.0000           -0.3859975             -10.5035
       121        2.0000           -0.3789284             -10.3112
       122        2.0000           -0.3688855             -10.0379
       123        2.0000           -0.3688838             -10.0378
       124        2.0000           -0.3662968              -9.9674
       125        2.0000           -0.3534094              -9.6168 (HOMO)
       126                         -0.3086750              -8.3995 (LUMO)
       127                         -0.2981942              -8.1143
       128                         -0.2981929              -8.1142
       129                         -0.2963660              -8.0645
       130                         -0.2660597              -7.2399
       131                         -0.2573624              -7.0032
       132                         -0.2517354              -6.8501
       133                         -0.2259886              -6.1495
       134                         -0.1892248              -5.1491
       135                         -0.1892165              -5.1488
       136                         -0.1711725              -4.6578
       ...                                ...                  ...
       246                          1.7151347              46.6712
      -------------------------------------------------------------
                  HL-Gap            0.0447344 Eh            1.2173 eV
             Fermi-level           -0.3310422 Eh           -9.0081 eV

     #   Z          covCN         q      C6AA      α(0)
     1  30 Zn       3.042     0.245   122.298    21.603
     2   6 C        3.021    -0.052    29.267     8.874
     3   6 C        3.018    -0.050    29.229     8.868
     4   6 C        3.166     0.077    25.942     8.323
     5   6 C        2.953     0.017    27.639     8.623
     6   6 C        3.166     0.077    25.944     8.324
     7   6 C        3.018    -0.051    29.231     8.869
     8   6 C        3.020    -0.052    29.267     8.874
     9   6 C        3.149     0.076    26.051     8.349
    10   7 N        2.631    -0.177    24.842     7.402
    11   6 C        2.901    -0.050    29.236     8.866
    12   6 C        3.145     0.077    26.039     8.349
    13   6 C        3.017    -0.051    29.245     8.871
    14   6 C        3.018    -0.051    29.248     8.871
    15   6 C        3.145     0.077    26.029     8.347
    16   7 N        2.635    -0.175    24.793     7.395
    17   6 C        2.901    -0.052    29.281     8.872
    18   6 C        3.145     0.077    26.028     8.347
    19   6 C        3.018    -0.051    29.248     8.871
    20   6 C        3.017    -0.051    29.245     8.871
    21   6 C        3.145     0.077    26.038     8.349
    22   7 N        2.634    -0.175    24.795     7.395
    23   6 C        2.901    -0.050    29.236     8.866
    24   6 C        3.149     0.076    26.051     8.349
    25   7 N        2.632    -0.177    24.841     7.402
    26   1 H        0.926     0.034     2.536     2.490
    27   1 H        0.926     0.036     2.506     2.475
    28   1 H        0.926     0.036     2.506     2.475
    29   1 H        0.926     0.034     2.536     2.490
    30   1 H        0.926     0.049     2.331     2.387
    31   1 H        0.926     0.034     2.527     2.486
    32   1 H        0.926     0.034     2.529     2.487
    33   1 H        0.926     0.048     2.339     2.392
    34   1 H        0.926     0.034     2.529     2.487
    35   1 H        0.926     0.034     2.528     2.486
    36   1 H        0.926     0.049     2.331     2.388
    37   6 C        1.996    -0.020    31.563     9.073
    38   6 C        1.963    -0.011    31.355     9.043
    39   6 C        1.964    -0.003    31.139     9.012
    40   6 C        1.964    -0.003    31.139     9.012
    41   6 C        1.963    -0.011    31.355     9.043
    42   6 C        1.996    -0.020    31.563     9.073
    43  30 Zn       3.042     0.245   122.298    21.603
    44   6 C        3.020    -0.052    29.267     8.874
    45   6 C        3.018    -0.050    29.230     8.869
    46   6 C        3.166     0.077    25.943     8.323
    47   6 C        2.953     0.017    27.639     8.623
    48   6 C        3.166     0.077    25.943     8.323
    49   6 C        3.018    -0.050    29.230     8.868
    50   6 C        3.020    -0.052    29.267     8.874
    51   6 C        3.149     0.076    26.051     8.349
    52   7 N        2.632    -0.177    24.842     7.402
    53   6 C        2.901    -0.050    29.236     8.866
    54   6 C        3.145     0.077    26.038     8.348
    55   6 C        3.017    -0.051    29.245     8.871
    56   6 C        3.018    -0.051    29.248     8.871
    57   6 C        3.145     0.077    26.029     8.347
    58   7 N        2.634    -0.175    24.795     7.395
    59   6 C        2.901    -0.052    29.281     8.872
    60   6 C        3.145     0.077    26.029     8.347
    61   6 C        3.018    -0.051    29.248     8.871
    62   6 C        3.017    -0.051    29.245     8.871
    63   6 C        3.145     0.077    26.039     8.349
    64   7 N        2.635    -0.175    24.795     7.395
    65   6 C        2.901    -0.050    29.236     8.866
    66   6 C        3.149     0.076    26.052     8.349
    67   7 N        2.632    -0.177    24.840     7.402
    68   1 H        0.926     0.034     2.535     2.490
    69   1 H        0.926     0.036     2.506     2.476
    70   1 H        0.926     0.036     2.506     2.475
    71   1 H        0.926     0.034     2.536     2.490
    72   1 H        0.926     0.049     2.331     2.387
    73   1 H        0.926     0.034     2.528     2.486
    74   1 H        0.926     0.034     2.529     2.487
    75   1 H        0.926     0.048     2.339     2.392
    76   1 H        0.926     0.034     2.529     2.487
    77   1 H        0.926     0.034     2.528     2.486
    78   1 H        0.926     0.049     2.331     2.388

 Mol. C6AA /au·bohr⁶  :     116049.284039
 Mol. C8AA /au·bohr⁸  :    3292448.259818
 Mol. α(0) /au        :        556.600335


Wiberg/Mayer (AO) data.
largest (>0.10) Wiberg bond orders for each atom

 ---------------------------------------------------------------------------
     #   Z sym  total        # sym  WBO       # sym  WBO       # sym  WBO
 ---------------------------------------------------------------------------
     1  30 Zn   2.081 --    16 N    0.492    22 N    0.491    25 N    0.489
                            10 N    0.489
     2   6 C    3.953 --     3 C    1.650    24 C    1.171    26 H    0.972
     3   6 C    3.957 --     2 C    1.650     4 C    1.180    27 H    0.971
     4   6 C    3.911 --    25 N    1.286     5 C    1.251     3 C    1.180
     5   6 C    3.942 --     4 C    1.251     6 C    1.251    37 C    1.187
     6   6 C    3.910 --    10 N    1.286     5 C    1.251     7 C    1.180
     7   6 C    3.957 --     8 C    1.650     6 C    1.180    28 H    0.971
     8   6 C    3.953 --     7 C    1.650     9 C    1.171    29 H    0.972
     9   6 C    3.924 --    11 C    1.357    10 N    1.247     8 C    1.171
    10   7 N    3.467 --     6 C    1.286     9 C    1.247     1 Zn   0.489
    11   6 C    3.931 --     9 C    1.357    12 C    1.354    30 H    0.964
    12   6 C    3.929 --    11 C    1.354    16 N    1.261    13 C    1.163
    13   6 C    3.957 --    14 C    1.666    12 C    1.163    31 H    0.972
    14   6 C    3.955 --    13 C    1.666    15 C    1.162    32 H    0.972
    15   6 C    3.932 --    17 C    1.354    16 N    1.263    14 C    1.162
    16   7 N    3.464 --    15 C    1.263    12 C    1.261     1 Zn   0.492
    17   6 C    3.926 --    18 C    1.354    15 C    1.354    33 H    0.964
    18   6 C    3.932 --    17 C    1.354    22 N    1.263    19 C    1.162
    19   6 C    3.955 --    20 C    1.666    18 C    1.162    34 H    0.972
    20   6 C    3.957 --    19 C    1.666    21 C    1.163    35 H    0.972
    21   6 C    3.929 --    23 C    1.354    22 N    1.261    20 C    1.163
    22   7 N    3.464 --    18 C    1.263    21 C    1.261     1 Zn   0.491
    23   6 C    3.931 --    24 C    1.357    21 C    1.354    36 H    0.964
    24   6 C    3.924 --    23 C    1.357    25 N    1.247     2 C    1.171
    25   7 N    3.467 --     4 C    1.286    24 C    1.247     1 Zn   0.489
    26   1 H    0.998 --     2 C    0.972
    27   1 H    0.998 --     3 C    0.971
    28   1 H    0.998 --     7 C    0.971
    29   1 H    0.998 --     8 C    0.972
    30   1 H    0.996 --    11 C    0.964
    31   1 H    0.998 --    13 C    0.972
    32   1 H    0.998 --    14 C    0.972
    33   1 H    0.996 --    17 C    0.964
    34   1 H    0.998 --    19 C    0.972
    35   1 H    0.998 --    20 C    0.972
    36   1 H    0.996 --    23 C    0.964
    37   6 C    3.884 --    38 C    2.444     5 C    1.187    40 C    0.193
    38   6 C    3.928 --    37 C    2.444    39 C    1.331
    39   6 C    3.920 --    40 C    2.359    38 C    1.331    42 C    0.193
    40   6 C    3.920 --    39 C    2.359    41 C    1.331    37 C    0.193
    41   6 C    3.928 --    42 C    2.444    40 C    1.331
    42   6 C    3.884 --    41 C    2.444    47 C    1.187    39 C    0.193
    43  30 Zn   2.081 --    64 N    0.491    58 N    0.491    67 N    0.489
                            52 N    0.489
    44   6 C    3.953 --    45 C    1.650    66 C    1.171    68 H    0.972
    45   6 C    3.957 --    44 C    1.650    46 C    1.180    69 H    0.971
    46   6 C    3.911 --    67 N    1.286    47 C    1.251    45 C    1.180
    47   6 C    3.942 --    48 C    1.251    46 C    1.251    42 C    1.187
    48   6 C    3.911 --    52 N    1.286    47 C    1.251    49 C    1.180
    49   6 C    3.957 --    50 C    1.650    48 C    1.180    70 H    0.971
    50   6 C    3.953 --    49 C    1.650    51 C    1.171    71 H    0.972
    51   6 C    3.924 --    53 C    1.357    52 N    1.247    50 C    1.171
    52   7 N    3.467 --    48 C    1.286    51 C    1.247    43 Zn   0.489
    53   6 C    3.931 --    51 C    1.357    54 C    1.354    72 H    0.964
    54   6 C    3.929 --    53 C    1.354    58 N    1.261    55 C    1.163
    55   6 C    3.957 --    56 C    1.666    54 C    1.163    73 H    0.972
    56   6 C    3.955 --    55 C    1.666    57 C    1.162    74 H    0.972
    57   6 C    3.932 --    59 C    1.354    58 N    1.263    56 C    1.162
    58   7 N    3.464 --    57 C    1.263    54 C    1.261    43 Zn   0.491
    59   6 C    3.926 --    57 C    1.354    60 C    1.354    75 H    0.964
    60   6 C    3.932 --    59 C    1.354    64 N    1.263    61 C    1.162
    61   6 C    3.955 --    62 C    1.666    60 C    1.162    76 H    0.972
    62   6 C    3.957 --    61 C    1.666    63 C    1.163    77 H    0.972
    63   6 C    3.929 --    65 C    1.354    64 N    1.261    62 C    1.163
    64   7 N    3.464 --    60 C    1.263    63 C    1.261    43 Zn   0.491
    65   6 C    3.931 --    66 C    1.357    63 C    1.354    78 H    0.964
    66   6 C    3.924 --    65 C    1.357    67 N    1.247    44 C    1.171
    67   7 N    3.467 --    46 C    1.286    66 C    1.247    43 Zn   0.489
    68   1 H    0.998 --    44 C    0.972
    69   1 H    0.998 --    45 C    0.971
    70   1 H    0.998 --    49 C    0.971
    71   1 H    0.998 --    50 C    0.972
    72   1 H    0.996 --    53 C    0.964
    73   1 H    0.998 --    55 C    0.972
    74   1 H    0.998 --    56 C    0.972
    75   1 H    0.996 --    59 C    0.964
    76   1 H    0.998 --    61 C    0.972
    77   1 H    0.998 --    62 C    0.972
    78   1 H    0.996 --    65 C    0.964
 ---------------------------------------------------------------------------

Topologies differ in total number of bonds
Writing topology from bond orders to xtbtopo.mol

molecular dipole:
                 x           y           z       tot (Debye)
 q only:       -0.001       0.005      -0.026
   full:       -0.001       0.007      -0.041       0.106
molecular quadrupole (traceless):
                xx          xy          yy          xz          yz          zz
 q only:       18.167       0.310       2.697      -1.715       0.086     -20.864
  q+dip:       42.609       0.532       9.417      -3.184       0.220     -52.026
   full:       26.788       0.449       3.072      -2.610       0.120     -29.859


           -------------------------------------------------
          | TOTAL ENERGY             -134.232353048094 Eh   |
          | GRADIENT NORM               0.000662107769 Eh/α |
          | HOMO-LUMO GAP               1.217283700743 eV   |
           -------------------------------------------------

------------------------------------------------------------------------
 * finished run on 2021/11/20 at 15:54:32.833     
------------------------------------------------------------------------
 total:
 * wall-time:     0 d,  0 h,  0 min,  0.300 sec
 *  cpu-time:     0 d,  0 h,  0 min,  0.300 sec
 * ratio c/w:     1.000 speedup
 SCF:
 * wall-time:     0 d,  0 h,  0 min,  0.267 sec
 *  cpu-time:     0 d,  0 h,  0 min,  0.267 sec
 * ratio c/w:     1.000 speedup

