222
 energy: -409.396883253521 gnorm: 0.000399727970 xtb: 6.4.1 (bd6e46d)
Ni       42.62654593386021    0.02334495822582    0.00674626859089
C        45.13734428227830   -2.63656833666639    2.12423278534473
C        46.08436284670994   -1.85136282294477    1.56339952304063
C        45.39215094430806   -0.88762226878406    0.76148101207167
C        46.05218613611697    0.08810777226214    0.00993332012353
C        45.35677709430730    1.06078993745039   -0.71239912021845
C        46.01298230848413    2.08505627051205   -1.46812003073635
C        45.03875675001819    2.87616621856589   -1.97102791882738
C        43.79356873768438    2.31968955400390   -1.53347468263718
N        44.00307946328081    1.20163211819887   -0.77152409545379
C        42.56911897422120    2.86587404108744   -1.85913610214929
C        41.36621565605810    2.29694857794812   -1.49533936539376
C        40.09370953748781    2.84170260207651   -1.87292843716800
C        39.15553897520650    1.99319001296399   -1.39981057091859
C        39.85848600911203    0.93874459847386   -0.72652404666573
N        41.20774349748063    1.14019686320124   -0.78626914961101
C        39.22254298391482   -0.12287463346257   -0.11575191291307
C        39.90006444464190   -1.11105543459802    0.56901515170432
C        39.24053885169067   -2.19642171275098    1.23711346878081
C        40.20674174299912   -2.92304988071140    1.83917021692202
C        41.45305494871821   -2.28331175208674    1.52968276271276
N        41.25214583706472   -1.18215836006292    0.74684511693722
C        42.67132717538568   -2.73985948806624    1.98843368952718
C        43.87347834513107   -2.14799717729437    1.66004187382523
N        44.04401576622373   -1.06634513630538    0.83790384685059
H        45.26014086418954   -3.47037465185321    2.78774165854361
H        47.14973756579240   -1.89125537667556    1.67868813646184
H        47.07565541573219    2.16273946405758   -1.58867839278926
H        45.13114998297537    3.75039804279340   -2.58565525550764
H        42.55259225188747    3.77274452105614   -2.44406925696938
H        39.96415527881034    3.74888249298284   -2.43085088898437
H        38.08755403547480    2.05292031078460   -1.48247033769743
H        38.14567764315700   -0.17453871478078   -0.16288882756047
H        38.17937922765146   -2.35425868019198    1.23461861702448
H        40.11215045269419   -3.80865805637934    2.43730161287679
H        42.68693446270461   -3.60979754031179    2.62700962091808
Ni       96.99342645951292    0.04014738991036   -0.00719842765418
C        94.50466665256560    2.89449946918133    1.87117605243274
C        93.55148316701258    2.06358401224425    1.39270837278953
C        94.23511102421084    1.02856723367649    0.67680785968290
C        93.56619786412445   -0.00220403747022    0.01186789716346
C        94.25270862675191   -1.02392853269137   -0.64860055858837
C        93.58690949612425   -2.08685702401533   -1.33991636570037
C        94.55471140733793   -2.90534602173063   -1.81031973359038
C        95.80513441329335   -2.33152405357982   -1.41170298628858
N        95.60545305411509   -1.17275529329961   -0.71031396477559
C        97.02439064267409   -2.90738481693874   -1.70376959013526
C        98.23241093120113   -2.34176522282724   -1.35211154935304
C        99.49949288540287   -2.93605502995223   -1.66822136059853
C       100.44710435473418   -2.08797376475977   -1.21358386604023
C        99.75489315545332   -0.98047642373103   -0.61891211668322
N        98.40274958653784   -1.15217539086764   -0.70265387445166
C       100.40264437788827    0.10432215825925   -0.06394378196589
C        99.73364154934077    1.16043536090757    0.52034402359592
C       100.40342998435520    2.28738855307921    1.10402396434433
C        99.44095309586724    3.08982774613658    1.60767005159256
C        98.18725189943352    2.45051350298340    1.32835239859020
N        98.37981534885465    1.27750350383658    0.65543136169547
C        96.97112069985990    2.96698491591154    1.72482876310014
C        95.76396613495672    2.35900316990067    1.44811459915618
N        95.58452978458969    1.20762167321763    0.72911143053993
H        94.38908387765770    3.78632353040206    2.45586575399000
H        92.48695399036400    2.11806419588010    1.51021365666410
H        92.52285514744430   -2.16830215296174   -1.44536566845713
H        94.45469192834889   -3.81081062496103   -2.37663275024718
H        97.03247104423885   -3.84312038709607   -2.24153311875977
H        99.61949608464798   -3.87472660734647   -2.17370684009689
H       101.51493239579123   -2.17878099012145   -1.26355641557793
H       101.48137968430073    0.12578628950438   -0.08418809901065
H       101.46795179853640    2.42027941060898    1.11558488501587
H        99.54277742945190    4.02557625856346    2.12247742546747
H        96.96229561062012    3.89336964579988    2.27852343311692
C        47.45426000795882    0.09759432413142   -0.00572363069562
C        48.66650707544638    0.08994711616150   -0.01572333303700
C        58.32731608164159    0.03658869180255   -0.02743096883977
C        59.54002976472970    0.03018623051204   -0.01817872885492
C        69.20009894753467    0.03775353378644   -0.01465590265380
C        70.41318709483420    0.04047274826560   -0.01614783177126
C        80.07401365748434    0.05108229655354   -0.03727974811366
C        81.28680970799692    0.04535694454019   -0.03917619669785
C        90.95148464273974   -0.01178051798041    0.00398312536246
C        92.16374606765405   -0.01097874448450    0.00948896459637
Ni       53.49673026255689    0.05778967300213   -0.04447605027788
C        51.01845505642878   -3.29583238512237    0.62043400178252
C        50.06271215370958   -2.37293843334373    0.36801157842862
C        50.74061510028984   -1.12586864565234    0.17850258936001
C        50.06811435578879    0.08184540550549   -0.02753387138112
C        50.75514281917214    1.27886871501519   -0.24610991327149
C        50.09293877446927    2.53386170850297   -0.43773352637643
C        51.05822149737391    3.44038304311088   -0.71208594169829
C        52.30341805869477    2.73419547788738   -0.67689620922337
N        52.10466153298955    1.41573514041053   -0.36564945650328
C        53.51481677345752    3.32145796899064   -0.97804242993024
C        54.71939200072216    2.65251971227195   -0.91417168229443
C        55.97270742242727    3.25956215436302   -1.24735436874352
C        56.92838823094853    2.33904374623555   -0.98634712058374
C        56.25225911535558    1.17890394183509   -0.48923093042125
N        54.90405303522545    1.36833814741919   -0.47563905337870
C        56.92622393551449    0.04153029112926   -0.03475705892913
C        56.23888737084637   -1.09198207417165    0.40895206565759
C        56.90145554437626   -2.26310275254824    0.89842877075678
C        55.93635675555510   -3.17894244611943    1.14034819116320
C        54.69053311490596   -2.55678589902711    0.80703520094690
N        54.88922145463761   -1.26965706873067    0.38371504454587
C        53.47860517335798   -3.21294804788978    0.86402067037689
C        52.27302879074578   -2.60691444643849    0.57724864102519
N        52.08933343517896   -1.28290584698933    0.28035009248433
H        50.90684815091468   -4.34385650307359    0.81982495965744
H        49.00009603632417   -2.50130141103461    0.30220606521346
H        49.03324702204549    2.67778543246099   -0.35924107162778
H        50.95895305043720    4.48799003469593   -0.91996136846003
H        53.52049781142652    4.35853058519884   -1.27702607008791
H        56.08360391528342    4.25656595705183   -1.62715091719443
H        57.98989184633444    2.41145829096541   -1.11900580066721
H        57.96127409936729   -2.34582485908727    1.03799786207945
H        56.03616195698221   -4.18140407028277    1.50866243176086
H        53.47288051327705   -4.25342532446308    1.15089974009420
Ni       64.36954021138654    0.03324226012963   -0.00905974828423
C        61.91919230646156   -3.40208337705291    0.00214730230802
C        60.95772957575486   -2.45612401376603   -0.09738352377870
C        61.62347437925402   -1.18995196374014   -0.03752942997157
C        60.94103549033447    0.02996776103221   -0.01275906924376
C        61.62118828388139    1.25117839392879    0.01693440261713
C        60.95286098259805    2.51587270759300    0.07966125900942
C        61.91280106426248    3.46394157094545   -0.01432830948755
C        63.16100721269230    2.77132569713319   -0.12599737209195
N        62.96941978535472    1.41633805786943   -0.07558287857279
C        64.36660577262772    3.40996478328858   -0.33031597854606
C        65.57252663083761    2.74524357500467   -0.41452481681062
C        66.81819447400592    3.40525986918168   -0.66474766652426
C        67.77927250875031    2.45695736505828   -0.58654699199507
C        67.11505781410918    1.22672754936762   -0.27840729429653
N        65.76695105832943    1.40524542281248   -0.20944996064024
C        67.79900057162790    0.03610239715373   -0.01307506680587
C        67.11788910727388   -1.15554030781485    0.25489472161747
C        67.78483428688210   -2.38419942630416    0.56336935444525
C        66.82539023155036   -3.33376526515732    0.64633059443513
C        65.57794925076222   -2.67604861235227    0.39872508903074
N        65.76983597742391   -1.33619942166335    0.19033445322462
C        64.37284113907168   -3.34277649944141    0.31861998830422
C        63.16596564000052   -2.70676526083316    0.11333084988086
N        62.97189070275135   -1.35232689089053    0.05849736510914
H        61.81592899397967   -4.46974633521316    0.00315887976952
H        59.89850764224641   -2.57909164555238   -0.20949294545430
H        59.89323892050823    2.63641701304581    0.19058873297777
H        61.80754586438547    4.53139804312885   -0.01166021590255
H        64.36609947584152    4.48451769767378   -0.43162908439410
H        66.92088706765560    4.45302749671812   -0.87011828593917
H        68.83722764850513    2.55480871814817   -0.72932965300857
H        68.84339148319803   -2.48030533703986    0.70294682303861
H        66.93032779748738   -4.38100642681198    0.85329081483981
H        64.37424702730148   -4.41709792300251    0.42249580488911
Ni       75.24384599887149    0.04667584093382   -0.02609807737095
C        72.79601084326769   -3.37590879894084   -0.31762791968004
C        71.83442918416159   -2.42507683184910   -0.33776917789339
C        72.49823748214916   -1.16903379916086   -0.16076900511580
C        71.81426035346560    0.04253528624315   -0.01895966780528
C        72.49577708756632    1.25579949880406    0.12021671348306
C        71.82981080019299    2.51017522605084    0.30080337367397
C        72.78901054736801    3.46333237569253    0.27641064282469
C        74.03542153994310    2.78324921122568    0.09190177057988
N        73.84330831482745    1.42879524399098    0.02922613768682
C        75.23941365373192    3.43727834674802   -0.06936014275747
C        76.44553915490694    2.78273773453628   -0.21174192589859
C        77.69117418387015    3.46168844364572   -0.40608633771390
C        78.65330919171149    2.51113230972716   -0.40184212997381
C        77.98913607569395    1.25937936754316   -0.19686595939220
N        76.64079301544960    1.43078448871205   -0.11533659228940
C        78.67276619549592    0.05064360405361   -0.03423945568563
C        77.99269726148948   -1.15968766506298    0.13227940077091
C        78.66055789864694   -2.40965415638622    0.33622781894355
C        77.70067609556831   -3.36243473575083    0.34514088120308
C        76.45278883235757   -2.68660974221335    0.15470239554030
N        76.64448720827727   -1.33429102267599    0.05639904342383
C        75.24768930923986   -3.34402398514591    0.01735718329166
C        74.04159240428235   -2.69276575363569   -0.13904589466827
N        73.84656480502039   -1.33874701691368   -0.07578067520891
H        72.69354537700939   -4.43944662439073   -0.41218223221246
H        70.77631282142021   -2.53790273818674   -0.46788496874625
H        70.77206726731998    2.62044660723823    0.43615609054071
H        72.68437647564733    4.52658720711943    0.37181733829855
H        75.23781854124162    4.51651708750657   -0.08351524007830
H        77.79323162933595    4.52270119594366   -0.52612984531170
H        79.71206777657213    2.62120542179229   -0.53096583166024
H        79.71990319612109   -2.51717023305140    0.46225003486978
H        77.80569894056789   -4.42303029118001    0.46620920218613
H        75.24864331410230   -4.42325012685592    0.03186142169605
Ni       86.11923796863985    0.01713898259975   -0.02255605376987
C        83.64413282741728   -3.29356641058528   -0.88386879959101
C        82.68852999342135   -2.34878350600185   -0.73242431134250
C        83.36355456384135   -1.14168022505286   -0.36170446962952
C        82.68818104459545    0.03873645249721   -0.03758957693364
C        83.37497402976970    1.21156152532170    0.28955468763561
C        82.71175654910593    2.42809440750592    0.65054086092871
C        83.67776161273540    3.36118700515521    0.80835591430103
C        84.92456414741579    2.70550508846607    0.55158039617350
N        84.72550936070364    1.38266802860510    0.25873553902053
C        86.13767740557277    3.36198486928977    0.55304565436594
C        87.34420024942861    2.72963416644837    0.33547694897455
C        88.59922405551083    3.41892205176352    0.31697222647381
C        89.55508277301213    2.47563928854176    0.15790923978792
C        88.87685806118509    1.21640272713892    0.08689558049124
N        87.52790099513878    1.38296674075583    0.16954404340895
C        89.54956351390801   -0.00523147266373   -0.00355964318563
C        88.86261619732517   -1.21802435502418   -0.10240792891312
C        89.52521725921841   -2.48573922911416   -0.16849752496404
C        88.55905349849270   -3.41631839753619   -0.33994118949212
C        87.31330807148744   -2.71075136680675   -0.37090455229920
N        87.51256053663413   -1.36695903101240   -0.20024375168074
C        86.10102372073996   -3.32678993904365   -0.60307176402282
C        84.89660299414048   -2.65452973888405   -0.61308346260443
N        84.71149869419092   -1.32985542231517   -0.31908121850213
H        83.53383391629005   -4.32624859265212   -1.15211034843029
H        81.62774443283924   -2.43405712582945   -0.86327140942436
H        81.65084882411412    2.52738479218248    0.76996087978827
H        83.57813765977288    4.39600269723145    1.07253336466535
H        86.14336657411877    4.42578090973825    0.73540706282795
H        88.71108111643478    4.48124853792632    0.41439858013513
H        90.61807823197559    2.59643969282760    0.08429849246882
H        90.58581535558207   -2.62007960169080   -0.08398294245875
H        88.65809400286719   -4.47983091279143   -0.43848768266530
H        86.09469159197248   -4.39022505913965   -0.78754179882671
