222
 energy: -407.805867285359 gnorm: 0.884025201670 xtb: 6.4.1 (bd6e46d)
Ni       41.49456700000001    0.04686100000000   -0.01515800000000
C        43.82355800000001   -3.09993300000000    1.30753100000000
C        44.73966600000000   -2.15572500000000    1.25724900000000
C        44.32848600000000   -1.10182100000000    0.33595700000000
C        44.94735700000000    0.02252500000000   -0.01045300000000
C        44.24331400000000    1.24247300000000   -0.37455800000000
C        44.57142500000000    2.20252800000000   -1.22203200000000
C        43.53664500000001    3.21881400000000   -1.23893000000000
C        42.60037700000000    2.84235100000000   -0.39203800000000
N        43.00236800000000    1.60934000000000    0.17177900000000
C        41.33930300000001    3.48735100000000   -0.01288600000000
C        40.24408600000000    2.85256800000000    0.33787400000000
C        39.17046000000000    3.17052400000000    1.30690200000000
C        38.33289700000000    2.17377000000000    1.22973600000000
C        38.77119500000000    1.17008700000000    0.24928400000000
N        39.87613300000000    1.60894000000000   -0.23500800000000
C        38.16036000000000   -0.08318400000000   -0.16426400000000
C        38.82452000000000   -1.18769000000000   -0.41868900000000
C        38.45067200000000   -2.25063200000000   -1.37621600000000
C        39.39941900000000   -3.14438800000000   -1.28719700000000
C        40.38514300000000   -2.70693800000000   -0.30431900000000
N        40.03209700000000   -1.56113300000000    0.19247800000000
C        41.61603100000000   -3.36300800000000    0.14140200000000
C        42.73907200000000   -2.71714700000000    0.40852300000000
N        43.06767200000000   -1.46970600000000   -0.18988100000000
H        43.88382000000000   -4.00971300000000    1.92507700000000
H        45.65599300000000   -2.19567400000000    1.83529700000000
H        45.49879000000000    2.21932400000000   -1.82317500000000
H        43.55354400000001    4.12350200000000   -1.85155100000000
H        41.29158000000000    4.58215400000000   -0.01666400000000
H        39.11763900000000    4.04924900000000    1.93189400000000
H        37.42126700000000    2.13810100000000    1.84706000000000
H        37.06210900000000   -0.08027300000000   -0.26353500000000
H        37.58181600000000   -2.30309700000000   -2.02516600000000
H        39.39657300000000   -4.06069600000000   -1.88595600000000
H        41.58054900000000   -4.45881000000000    0.25332700000000
Ni       98.09973500000000   -0.00051600000000   -0.01959100000000
C        95.77074399999999    2.84627600000000    1.86391400000000
C        94.85463700000000    1.92778700000000    1.63934000000000
C        95.26581600000002    1.06309000000000    0.53852600000000
C        94.64694600000000    0.02252500000000   -0.01045300000000
C        95.35098800000000   -1.10870000000000   -0.59455600000000
C        95.02287699999999   -1.89487100000000   -1.60542300000000
C        96.05765700000001   -2.89038100000000   -1.81056300000000
C        96.99392500000000   -2.67756400000000   -0.90853300000000
N        96.59193500000001   -1.57055300000000   -0.12576100000000
C        98.25500000000000   -3.38170600000000   -0.65561900000000
C        99.35021700000001   -2.82301300000000   -0.19318600000000
C       100.42384199999999   -3.31521800000000    0.70003600000000
C       101.26140500000001   -2.32145100000000    0.80912100000000
C       100.82310800000002   -1.15330200000000    0.03188600000000
N        99.71817000000000   -1.49469400000000   -0.52541300000000
C       101.43394300000000    0.15493300000000   -0.14198400000000
C       100.76978200000002    1.28746600000000   -0.18709000000000
C       101.14363100000000    2.50959200000000   -0.93080500000000
C       100.19488400000000    3.37131900000000   -0.67752700000000
C        99.20916000000000    2.75912500000000    0.20713700000000
N        99.56220500000001    1.54104600000000    0.48274700000000
C        97.97827200000000    3.32111900000000    0.76683100000000
C        96.85523000000001    2.63691400000000    0.90949900000000
N        96.52663000000000    1.52213900000000    0.09006400000000
H        95.71048200000000    3.62570100000000    2.63951800000000
H        93.93830900000000    1.85980600000000    2.21476600000000
H        94.09551200000000   -1.79985500000000   -2.19924700000000
H        96.04075800000000   -3.66571500000000   -2.58038300000000
H        98.30272200000000   -4.45680400000000   -0.86243300000000
H       100.47666400000000   -4.29463500000000    1.15116300000000
H       102.17303600000001   -2.40092300000000    1.42234600000000
H       102.53219300000001    0.17048900000000   -0.24007100000000
H       102.01248600000000    2.68153600000000   -1.55875800000000
H       100.19773000000002    4.38280000000000   -1.09590400000000
H        98.01375400000001    4.37713500000000    1.08010000000000
C        47.56180500000000    0.02252500000000   -0.01045300000000
C        48.77801000000000    0.02252500000000   -0.01045300000000
C        58.37542700000000    0.02252500000000   -0.01045300000000
C        59.59163200000000    0.02252500000000   -0.01045300000000
C        69.18904900000000    0.02252500000000   -0.01045300000000
C        70.40525400000000    0.02252500000000   -0.01045300000000
C        80.00266999999999    0.02252500000000   -0.01045300000000
C        81.21887599999999    0.02252500000000   -0.01045300000000
C        90.81629200000000    0.02252500000000   -0.01045300000000
C        92.03249800000002    0.02252500000000   -0.01045300000000
Ni       53.60821400000000    0.03532600000000    0.00303200000000
C        51.32840400000000   -3.22612100000000   -0.90663300000000
C        50.37219400000001   -2.32677100000000   -1.00866000000000
C        50.76456900000000   -1.16446600000000   -0.20614400000000
C        50.12945200000001   -0.01319300000000    0.00612200000000
C        50.81490900000001    1.26140600000000    0.23235200000000
C        50.47961900000001    2.34000600000000    0.93659200000000
C        51.50416000000000    3.35932300000000    0.84601000000000
C        52.45475700000000    2.86239800000000    0.07264600000000
N        52.07776300000000    1.54579300000000   -0.34349700000000
C        53.70189700000000    3.47410000000000   -0.34422000000000
C        54.80344900000000    2.80684300000000   -0.67599100000000
C        55.79699500000000    3.05882700000000   -1.71016100000000
C        56.69087800000000    2.09796800000000   -1.60867700000000
C        56.31118000000000    1.18608400000000   -0.50470000000000
N        55.21626500000000    1.63540300000000    0.00266700000000
C        56.96838700000000   -0.01319300000000    0.00612200000000
C        56.34497600000000   -1.08237500000000    0.46763900000000
C        56.72368800000000   -2.01449100000000    1.54311500000000
C        55.78302000000001   -2.92863700000000    1.62898100000000
C        54.77471800000000   -2.63285800000000    0.63155400000000
N        55.11249300000000   -1.57948000000000   -0.01774100000000
C        53.52232500000000   -3.33986500000000    0.30036000000000
C        52.40844800000000   -2.74316800000000   -0.04698100000000
N        52.02633600000000   -1.46041100000000    0.37070200000000
H        51.32874800000000   -4.21719500000000   -1.39786800000000
H        49.46366000000000   -2.44846500000000   -1.58980800000000
H        49.55476700000000    2.45835800000000    1.51351800000000
H        51.53145500000000    4.34848700000000    1.30266100000000
H        53.78783700000000    4.57147800000000   -0.40624300000000
H        55.82966700000000    3.86504300000000   -2.43698500000000
H        57.58394000000000    1.98500000000000   -2.24245100000000
H        57.63843900000001   -1.94008400000000    2.15328500000000
H        55.80206600000001   -3.74224500000000    2.33724800000000
H        53.56081000000000   -4.43982400000000    0.35939700000000
Ni       64.42183600000000    0.03532600000000    0.00303200000000
C        62.14202600000001   -3.22612100000000   -0.90663300000000
C        61.18581600000000   -2.32677100000000   -1.00866000000000
C        61.57819000000000   -1.16446600000000   -0.20614400000000
C        60.94307400000001   -0.01319300000000    0.00612200000000
C        61.62853100000000    1.26140600000000    0.23235200000000
C        61.29324100000001    2.34000600000000    0.93659200000000
C        62.31778200000000    3.35932300000000    0.84601000000000
C        63.26837900000000    2.86239800000000    0.07264600000000
N        62.89138500000000    1.54579300000000   -0.34349700000000
C        64.51551900000000    3.47410000000000   -0.34422000000000
C        65.61707100000000    2.80684300000000   -0.67599100000000
C        66.61061700000000    3.05882700000000   -1.71016100000000
C        67.50449999999999    2.09796800000000   -1.60867700000000
C        67.12480200000000    1.18608400000000   -0.50470000000000
N        66.02988700000000    1.63540300000000    0.00266700000000
C        67.78200900000000   -0.01319300000000    0.00612200000000
C        67.15859800000000   -1.08237500000000    0.46763900000000
C        67.53731000000001   -2.01449100000000    1.54311500000000
C        66.59664200000000   -2.92863700000000    1.62898100000000
C        65.58834000000000   -2.63285800000000    0.63155400000000
N        65.92611500000000   -1.57948000000000   -0.01774100000000
C        64.33594700000000   -3.33986500000000    0.30036000000000
C        63.22207000000000   -2.74316800000000   -0.04698100000000
N        62.83995800000001   -1.46041100000000    0.37070200000000
H        62.14237000000000   -4.21719500000000   -1.39786800000000
H        60.27728200000000   -2.44846500000000   -1.58980800000000
H        60.36838900000001    2.45835800000000    1.51351800000000
H        62.34507700000000    4.34848700000000    1.30266100000000
H        64.60145900000001    4.57147800000000   -0.40624300000000
H        66.64328900000000    3.86504300000000   -2.43698500000000
H        68.39756199999999    1.98500000000000   -2.24245100000000
H        68.45206000000000   -1.94008400000000    2.15328500000000
H        66.61568800000001   -3.74224500000000    2.33724800000000
H        64.37443100000000   -4.43982400000000    0.35939700000000
Ni       75.23545800000001    0.03532600000000    0.00303200000000
C        72.95564700000000   -3.22612100000000   -0.90663300000000
C        71.99943800000001   -2.32677100000000   -1.00866000000000
C        72.39181200000000   -1.16446600000000   -0.20614400000000
C        71.75669600000001   -0.01319300000000    0.00612200000000
C        72.44215300000000    1.26140600000000    0.23235200000000
C        72.10686300000000    2.34000600000000    0.93659200000000
C        73.13140400000002    3.35932300000000    0.84601000000000
C        74.08200100000001    2.86239800000000    0.07264600000000
N        73.70500699999999    1.54579300000000   -0.34349700000000
C        75.32914100000001    3.47410000000000   -0.34422000000000
C        76.43069199999999    2.80684300000000   -0.67599100000000
C        77.42423900000000    3.05882700000000   -1.71016100000000
C        78.31812200000000    2.09796800000000   -1.60867700000000
C        77.93842400000000    1.18608400000000   -0.50470000000000
N        76.84350900000000    1.63540300000000    0.00266700000000
C        78.59563100000000   -0.01319300000000    0.00612200000000
C        77.97221900000001   -1.08237500000000    0.46763900000000
C        78.35093200000000   -2.01449100000000    1.54311500000000
C        77.41026300000000   -2.92863700000000    1.62898100000000
C        76.40196200000000   -2.63285800000000    0.63155400000000
N        76.73973700000001   -1.57948000000000   -0.01774100000000
C        75.14956900000000   -3.33986500000000    0.30036000000000
C        74.03569200000000   -2.74316800000000   -0.04698100000000
N        73.65358000000001   -1.46041100000000    0.37070200000000
H        72.95599199999999   -4.21719500000000   -1.39786800000000
H        71.09090399999999   -2.44846500000000   -1.58980800000000
H        71.18201100000000    2.45835800000000    1.51351800000000
H        73.15869900000000    4.34848700000000    1.30266100000000
H        75.41508100000000    4.57147800000000   -0.40624300000000
H        77.45691100000001    3.86504300000000   -2.43698500000000
H        79.21118400000000    1.98500000000000   -2.24245100000000
H        79.26568200000000   -1.94008400000000    2.15328500000000
H        77.42931000000000   -3.74224500000000    2.33724800000000
H        75.18805300000000   -4.43982400000000    0.35939700000000
Ni       86.04908000000002    0.03532600000000    0.00303200000000
C        83.76926899999999   -3.22612100000000   -0.90663300000000
C        82.81306000000001   -2.32677100000000   -1.00866000000000
C        83.20543400000001   -1.16446600000000   -0.20614400000000
C        82.57031800000001   -0.01319300000000    0.00612200000000
C        83.25577500000000    1.26140600000000    0.23235200000000
C        82.92048400000000    2.34000600000000    0.93659200000000
C        83.94502600000000    3.35932300000000    0.84601000000000
C        84.89562300000000    2.86239800000000    0.07264600000000
N        84.51862900000000    1.54579300000000   -0.34349700000000
C        86.14276300000000    3.47410000000000   -0.34422000000000
C        87.24431400000000    2.80684300000000   -0.67599100000000
C        88.23786100000000    3.05882700000000   -1.71016100000000
C        89.13174400000001    2.09796800000000   -1.60867700000000
C        88.75204600000001    1.18608400000000   -0.50470000000000
N        87.65713100000001    1.63540300000000    0.00266700000000
C        89.40925300000001   -0.01319300000000    0.00612200000000
C        88.78584100000000   -1.08237500000000    0.46763900000000
C        89.16455400000001   -2.01449100000000    1.54311500000000
C        88.22388500000000   -2.92863700000000    1.62898100000000
C        87.21558400000001   -2.63285800000000    0.63155400000000
N        87.55335900000000   -1.57948000000000   -0.01774100000000
C        85.96319100000001   -3.33986500000000    0.30036000000000
C        84.84931400000001   -2.74316800000000   -0.04698100000000
N        84.46720200000001   -1.46041100000000    0.37070200000000
H        83.76961400000000   -4.21719500000000   -1.39786800000000
H        81.90452600000000   -2.44846500000000   -1.58980800000000
H        81.99563200000000    2.45835800000000    1.51351800000000
H        83.97232099999999    4.34848700000000    1.30266100000000
H        86.22870300000001    4.57147800000000   -0.40624300000000
H        88.27053300000000    3.86504300000000   -2.43698500000000
H        90.02480500000001    1.98500000000000   -2.24245100000000
H        90.07930399999999   -1.94008400000000    2.15328500000000
H        88.24293200000000   -3.74224500000000    2.33724800000000
H        86.00167500000001   -4.43982400000000    0.35939700000000
222
 energy: -408.156190177239 gnorm: 0.513145268029 xtb: 6.4.1 (bd6e46d)
Ni       41.50280866602299    0.04519756084392   -0.01396060360000
C        43.82393418005918   -3.10887959562968    1.29967415678364
C        44.75397408720478   -2.15552168781940    1.25414433964242
C        44.32735113610191   -1.10513937504709    0.34029128153183
C        44.94163682370237    0.04343699195211   -0.01010981061555
C        44.23375070507360    1.23632299245983   -0.36701831735834
C        44.58367728538838    2.23011942109606   -1.23903932794738
C        43.56617439612398    3.22070303699203   -1.25210402109707
C        42.59304360471636    2.81834329771286   -0.38509190363725
N        42.97555283821327    1.58384369950199    0.16964101107019
C        41.35774885922564    3.48708608757029   -0.01319526051647
C        40.23435238538020    2.83724444974737    0.33873695656297
C        39.17154054561071    3.17844510589081    1.29092362899774
C        38.30823618338941    2.16672688859522    1.23277598298724
C        38.76683623649150    1.16991058863964    0.26474491991826
N        39.91373888043964    1.58466536744501   -0.21517480328492
C        38.14807238792517   -0.06247610661653   -0.15804092868184
C        38.82853828498694   -1.19111360682588   -0.42334175147909
C        38.44213512177127   -2.25047449058045   -1.36328734796795
C        39.40626000488997   -3.16471126713661   -1.28495321063078
C        40.39499045322743   -2.71484033898949   -0.31176110418707
N        40.04813978054483   -1.53414171864328    0.16638569246945
C        41.59891943141134   -3.36999699478675    0.13433608559265
C        42.74474430816587   -2.70107772676506    0.41156681955705
N        43.05795409654429   -1.45729768033903   -0.16022588864022
H        43.87600323745090   -4.00454843820664    1.91763944235962
H        45.66029165450374   -2.18722913846606    1.83296541272405
H        45.49650267053494    2.22744052504229   -1.82482834824288
H        43.55992246930494    4.12024301244730   -1.85242492086956
H        41.30608670237984    4.57854777291930   -0.01055012797018
H        39.12400548411133    4.04775244306897    1.92626872365574
H        37.41730486968390    2.12967761855117    1.84596689944882
H        37.06306409282239   -0.07279839823163   -0.26878351578170
H        37.58363119901254   -2.29458691648699   -2.01832237700492
H        39.40650446652501   -4.06425398355178   -1.88279399064630
H        41.57642696831570   -4.45529991411016    0.25355811969556
Ni       98.09153618655705    0.00088328354459   -0.01814209557538
C        95.77038933981085    2.85654511924409    1.85785093700908
C        94.84039273366585    1.92815727606682    1.63624950133270
C        95.26713474629754    1.06552218078083    0.54351042056358
C        94.65305773714086    0.00169708014215   -0.01350959989693
C        95.36075090785063   -1.10404944360440   -0.58596689386707
C        95.01068528353133   -1.91882376751424   -1.62719978710959
C        96.02811769552902   -2.88978315521130   -1.82385940799041
C        97.00127657595182   -2.65526992814334   -0.89725459717296
N        96.61877687559415   -1.54524619067372   -0.12307783695759
C        98.23656379492726   -3.38140719866248   -0.65587919908712
C        99.35994675284648   -2.80810998713686   -0.18949193665015
C       100.42276370698978   -3.32003988480082    0.68285311719470
C       101.28605344844202   -2.31508532972482    0.81342013043674
C       100.82747350801314   -1.15599923210122    0.04708818967317
N        99.68059710048298   -1.47453591677728   -0.50148459148469
C       101.44622606288829    0.13342769842878   -0.13971876181477
C       100.76576404943607    1.29169659973569   -0.19104095548522
C       101.15217470409496    2.50703364120549   -0.91813021042242
C       100.18802903635050    3.39086331490526   -0.67157827453931
C        99.19931731054257    2.76826358077562    0.20127132699322
N        99.54617914785179    1.51939905494993    0.45212973858459
C        97.99536494848608    3.32933096653569    0.76118751615862
C        96.84953366401000    2.62064251592450    0.90947052630933
N        96.53640954057752    1.50444450131576    0.11695952296673
H        95.71829235847584    3.62201293504501    2.63125043306155
H        93.93403633895714    1.85197182440187    2.21088820098672
H        94.09783552724595   -1.80750282664484   -2.20242218901240
H        96.03438364824663   -3.66234921414527   -2.58067199294950
H        98.28822866224489   -4.45441169326814   -0.85577945376587
H       100.47030137932292   -4.29212765320783    1.14590703433064
H       102.17700006931202   -2.39244528242136    1.42282901371774
H       102.53123689729834    0.16411799514452   -0.24662197207808
H       102.01067415291094    2.67190273092571   -1.55361782215632
H       100.18779571597088    4.38571061867485   -1.09214304093176
H        98.01788147323273    4.37365358451391    1.07970400169058
C        47.53014057504196    0.02149237363381   -0.01044969656364
C        48.74997698816637    0.03032627298453   -0.01294938492408
C        58.37259396375396    0.02878822570746   -0.00828997186154
C        59.58439097137034    0.02982783686745   -0.01153883634081
C        69.18618095629873    0.02881531248925   -0.00815071534774
C        70.39799271404834    0.02983830566244   -0.01153231270981
C        79.99976101510747    0.02881933762559   -0.00810719512521
C        81.21163975257807    0.02983995512703   -0.01154977739316
C        90.83896741012255    0.02883459686951   -0.00672331759160
C        92.05732698505381    0.02224742055453   -0.01083588401587
Ni       53.60108288675809    0.03660181446970    0.00208453994047
C        51.32903468826499   -3.24343452112275   -0.90000237987503
C        50.36588860378286   -2.32610624370508   -1.00076747627028
C        50.78627622633659   -1.17631974844531   -0.20892780670927
C        50.13594533338231    0.00640943590020    0.00490779645355
C        50.84044057379087    1.26208937587386    0.22900904281122
C        50.47012366824243    2.36646165532064    0.94731112793680
C        51.47939692471719    3.36029469990364    0.85349958972511
C        52.46621875057749    2.84058325872916    0.06805605456336
N        52.10528382808064    1.52760801444429   -0.32888493976822
C        53.68775944941119    3.47421376100652   -0.34563691269680
C        54.81150517226741    2.79435579311359   -0.67659772430805
C        55.80343291836831    3.06635424503832   -1.69814239442373
C        56.71105960452312    2.08704886177673   -1.60727931278475
C        56.31273362549155    1.18483042831107   -0.51948668892275
N        55.17909606880168    1.61240141531948   -0.01588352164284
C        56.97764766278833    0.00394966186321   -0.00225055975598
C        56.33176258047028   -1.09425191351403    0.47406860427512
C        56.73627214192761   -2.01386169783100    1.53349637541723
C        55.77979556874575   -2.94413555115733    1.62840171347226
C        54.76357039504612   -2.63859238767736    0.63959542858506
N        55.09353112993105   -1.54142345669465   -0.00505352610709
C        53.54227612231017   -3.34725092372196    0.30960279390584
C        52.39703328809006   -2.72923564840985   -0.05436870074638
N        52.04255429739180   -1.44227387960575    0.33824444935401
H        51.33346167176879   -4.21372656414711   -1.39431807331433
H        49.46445102732632   -2.43927954098786   -1.58560867419839
H        49.55429064462367    2.46249622486280    1.51468580082281
H        51.52130115149671    4.34278717740831    1.30468773324904
H        53.77199221777253    4.56598294562516   -0.41152753350789
H        55.82301394491807    3.86340987888257   -2.42952740351612
H        57.58441948741591    1.97895258631623   -2.23939280321207
H        57.63333400139447   -1.93537860741557    2.14574483481037
H        55.79523762718834   -3.74778091379225    2.33798530362835
H        53.56612532193188   -4.43757708694968    0.35738620706214
Ni       64.41430400542443    0.03671609074803    0.00199448317462
C        62.14244831697034   -3.24374345411421   -0.90014598644644
C        61.17959537547271   -2.32658700027232   -1.00031306465715
C        61.60243068013800   -1.17787583983117   -0.20742405621763
C        60.95466951518115    0.00599257904398    0.00511553370552
C        61.65615053355658    1.26356596854903    0.22862314758521
C        61.28403452987708    2.36627220424690    0.94702877226316
C        62.29330728326759    3.36058921551559    0.85337437238330
C        63.28030443858891    2.84101261460111    0.06809772552122
N        62.92012049874741    1.52780802190481   -0.32822010273000
C        64.50136030889551    3.47435369757668   -0.34551970150982
C        65.62520771824660    2.79425852579303   -0.67663650710088
C        66.61700406756054    3.06635243719227   -1.69814265097826
C        67.52470012578185    2.08700440972348   -1.60729134043732
C        67.12617434458267    1.18486614640809   -0.51966660220085
N        65.99260074820953    1.61232041331549   -0.01618089129342
C        67.79124338562200    0.00382411163773   -0.00220287909975
C        67.14548325662720   -1.09427125715147    0.47396625261505
C        67.54998013773567   -2.01388237978277    1.53354767818720
C        66.59350904088296   -2.94410469262625    1.62844416261578
C        65.57732617549630   -2.63811928749517    0.63984534169869
N        65.90702119106587   -1.54138066502501   -0.00476513526627
C        64.35559887982200   -3.34735397488498    0.30933534863632
C        63.21131187573857   -2.72959818838553   -0.05430079807234
N        62.85744589364823   -1.44243841909169    0.33775365445472
H        62.14693779737698   -4.21386477269043   -1.39433659390561
H        60.27818967728237   -2.43927650421200   -1.58558931691270
H        60.36804693285210    2.46233821510538    1.51463224946657
H        62.33486618875340    4.34294775899877    1.30455973226523
H        64.58568906063029    4.56605271249790   -0.41144984728914
H        66.63663850515826    3.86341573390591   -2.42950001059129
H        68.39805517964912    1.97895558357653   -2.23935605969965
H        68.44699612266007   -1.93540476837242    2.14573478348600
H        66.60884380096803   -3.74775383891453    2.33797805432962
H        64.37982061853796   -4.43760965530033    0.35704465048360
Ni       75.22784804490331    0.03669474288682    0.00197324803044
C        72.95603253908645   -3.24373379894996   -0.90017055741602
C        71.99320088542432   -2.32664555073757   -1.00029170447947
C        72.41604549339041   -1.17782347782288   -0.20740576408121
C        71.76829949469790    0.00596549736799    0.00507076091802
C        72.46971528762143    1.26361145306266    0.22866035936032
C        72.09763852087825    2.36624090087728    0.94702978942600
C        73.10695085785552    3.36056602892953    0.85338535040554
C        74.09393765292025    2.84099332391500    0.06810077641693
N        73.73380199911936    1.52780762854339   -0.32818587123237
C        75.31498811195415    3.47435038797162   -0.34552865278513
C        76.43883467270160    2.79428751485699   -0.67663806999965
C        77.43062869347079    3.06637973499791   -1.69812842134278
C        78.33830048733401    2.08699125084053   -1.60730752246991
C        77.93973685797182    1.18487350416413   -0.51970398679069
N        76.80627084388124    1.61231451780780   -0.01620002153308
C        78.60493417536129    0.00378640260072   -0.00218485962009
C        77.95914738898595   -1.09428786322481    0.47395573587827
C        78.36359667718858   -2.01384691439394    1.53354295834611
C        77.40712338275713   -2.94411486331494    1.62842108663587
C        76.39099962529819   -2.63806826137901    0.63990230653741
N        76.72066820482962   -1.54139436268233   -0.00472332116559
C        75.16913576427075   -3.34736006638229    0.30930832525250
C        74.02498250254264   -2.72961242592987   -0.05424700760694
N        73.67114297725321   -1.44237494735552    0.33774524673574
H        72.96054429592677   -4.21386410861262   -1.39433587050586
H        71.09181478794292   -2.43928856030847   -1.58560969315789
H        71.18166460869878    2.46234304143657    1.51464304671167
H        73.14848149930469    4.34294948582837    1.30453754048162
H        75.39930347946093    4.56605130931817   -0.41147475979416
H        77.45026113709469    3.86342356924848   -2.42950110923848
H        79.21167187314072    1.97895183929199   -2.23934155865792
H        79.26061839366311   -1.93540399938152    2.14571737554302
H        77.42245091297463   -3.74774740648901    2.33797338586621
H        75.19344253391812   -4.43760873542664    0.35697651163490
Ni       86.04151481360272    0.03662494268991    0.00192067869958
C        83.76954025381056   -3.24378513394214   -0.90014213983460
C        82.80687389837267   -2.32673820555690   -1.00028209060553
C        83.22974873081914   -1.17772966760482   -0.20737261144670
C        82.58191675956405    0.00596141461416    0.00502214597085
C        83.28332655372920    1.26369763321738    0.22857662987398
C        82.91132185224396    2.36632268527262    0.94702731742461
C        83.92049252778472    3.36057583126513    0.85342461403292
C        84.90756000310625    2.84109029576522    0.06790910331694
N        84.54733637403653    1.52787011667922   -0.32832135673259
C        86.12851082392008    3.47405113271320   -0.34542136884127
C        87.25283364176011    2.79370603704860   -0.67643871913256
C        88.24430035662581    3.06607784849479   -1.69814263335245
C        89.15216333812928    2.08689271295899   -1.60764134031167
C        88.75530859717554    1.18301322915986   -0.52068109735658
N        87.62145454359148    1.61207474832659   -0.01552305731692
C        89.42351534912217    0.00348795466592   -0.00214588351098
C        88.77566358949952   -1.09208413557585    0.47424471895271
C        89.17744988651833   -2.01363617886227    1.53377761910466
C        88.22084810627078   -2.94361524214009    1.62835223909235
C        87.20533802349790   -2.63725655732776    0.63981621587242
N        87.53519961991685   -1.54123627937166   -0.00498915895600
C        85.98246667903371   -3.34724399901289    0.30908731201767
C        84.83869862189340   -2.72982693164353   -0.05398170048149
N        84.48474044593233   -1.44225359381543    0.33795615197287
H        83.77414494468465   -4.21388119929275   -1.39436470459700
H        81.90546287080244   -2.43928666920612   -1.58564355320394
H        81.99532242868109    2.46234387408440    1.51469086199987
H        83.96207608645976    4.34297937106717    1.30456914263877
H        86.21301884673635    4.56590769891725   -0.41133324416040
H        88.26381404301912    3.86335823181982   -2.42947445914442
H        90.02542556332347    1.97900218576760   -2.23946537969365
H        90.07438045329869   -1.93554807823000    2.14574342691376
H        88.23599681879010   -3.74755799935880    2.33789731171008
H        86.00718916419736   -4.43754307430838    0.35660478103842
222
 energy: -408.384721816855 gnorm: 0.240323555942 xtb: 6.4.1 (bd6e46d)