242
 energy: -442.207975483920 gnorm: 2.016335098367 xtb: 6.4.1 (bd6e46d)
Co       28.97656200000000    0.03786500000000   -0.01212500000000
C        31.30555300000000   -3.10892900000000    1.31056400000000
C        32.22166000000000   -2.16472100000000    1.26028200000000
C        31.81048100000000   -1.11081700000000    0.33899000000000
C        32.42935200000000    0.01352900000000   -0.00742000000000
C        31.72530900000000    1.23347700000000   -0.37152500000000
C        32.05342000000000    2.19353200000000   -1.21899900000000
C        31.01864000000000    3.20981800000000   -1.23589600000000
C        30.08237200000000    2.83335600000000   -0.38900500000000
N        30.48436200000000    1.60034500000000    0.17481200000000
C        28.82129800000000    3.47835500000000   -0.00985300000000
C        27.72608000000000    2.84357200000000    0.34090700000000
C        26.65245500000000    3.16152800000000    1.30993500000000
C        25.81489200000000    2.16477500000000    1.23276900000000
C        26.25319000000000    1.16109100000000    0.25231700000000
N        27.35812800000000    1.59994400000000   -0.23197500000000
C        25.64235500000000   -0.09218000000000   -0.16123100000000
C        26.30651500000000   -1.19668600000000   -0.41565600000000
C        25.93266700000000   -2.25962800000000   -1.37318300000000
C        26.88141400000000   -3.15338300000000   -1.28416400000000
C        27.86713800000000   -2.71593300000000   -0.30128600000000
N        27.51409200000000   -1.57012800000000    0.19551100000000
C        29.09802600000000   -3.37200400000000    0.14443500000000
C        30.22106700000001   -2.72614300000000    0.41155600000000
N        30.54966700000000   -1.47870100000000   -0.18684700000000
H        31.36581500000000   -4.01870900000000    1.92811100000000
H        33.13798800000000   -2.20467000000000    1.83833000000000
H        32.98078500000000    2.21032800000000   -1.82014200000000
H        31.03553900000000    4.11450600000000   -1.84851800000000
H        28.77357500000000    4.57315800000000   -0.01363000000000
H        26.59963300000000    4.04025300000000    1.93492800000000
H        24.90326200000001    2.12910500000000    1.85009300000000
H        24.54410400000000   -0.08926900000000   -0.26050200000000
H        25.06381100000000   -2.31209300000000   -2.02213300000000
H        26.87856800000000   -4.06969200000000   -1.88292300000000
H        29.06254300000000   -4.46780500000000    0.25636000000000
Co      110.60605400000000   -0.00951100000000   -0.01655800000000
C       108.27706300000000    2.83728100000000    1.86694700000000
C       107.36095600000000    1.91879100000000    1.64237300000000
C       107.77213500000001    1.05409400000000    0.54155900000000
C       107.15326500000002    0.01352900000000   -0.00742000000000
C       107.85730700000002   -1.11769600000000   -0.59152300000000
C       107.52919600000000   -1.90386700000000   -1.60238900000000
C       108.56397600000000   -2.89937700000000   -1.80753000000000
C       109.50024400000000   -2.68656000000000   -0.90549900000000
N       109.09825400000000   -1.57954900000000   -0.12272800000000
C       110.76131800000000   -3.39070100000000   -0.65258600000000
C       111.85653600000001   -2.83200900000000   -0.19015300000000
C       112.93016100000000   -3.32421400000000    0.70306900000000
C       113.76772400000002   -2.33044700000000    0.81215400000000
C       113.32942700000001   -1.16229800000000    0.03491900000000
N       112.22448900000001   -1.50369000000000   -0.52238000000000
C       113.94026100000001    0.14593700000000   -0.13895100000000
C       113.27610100000001    1.27847000000000   -0.18405700000000
C       113.64995000000000    2.50059600000000   -0.92777200000000
C       112.70120199999999    3.36232300000000   -0.67449300000000
C       111.71547800000000    2.75012900000000    0.21017000000000
N       112.06852400000000    1.53205000000000    0.48578000000000
C       110.48459099999999    3.31212300000000    0.76986500000000
C       109.36154900000000    2.62791800000000    0.91253200000000
N       109.03294900000000    1.51314300000000    0.09309800000000
H       108.21680100000000    3.61670500000000    2.64255100000000
H       106.44462799999999    1.85081100000000    2.21779900000000
H       106.60183100000000   -1.80885100000000   -2.19621400000000
H       108.54707700000000   -3.67471100000000   -2.57735000000000
H       110.80904099999999   -4.46579900000000   -0.85940000000000
H       112.98298300000000   -4.30363100000000    1.15419600000000
H       114.67935400000002   -2.40991900000000    1.42538000000000
H       115.03851200000000    0.16149300000000   -0.23703800000000
H       114.51880500000000    2.67254000000000   -1.55572400000000
H       112.70404800000000    4.37380400000000   -1.09287100000000
H       110.52007300000000    4.36813900000000    1.08313400000000
C        35.40136300000000    0.02466000000000   -0.00337800000000
C        36.61689600000000   -0.00068300000000   -0.01385800000000
C        38.03841300000000   -0.02210700000000   -0.01803400000000
C        39.24697500000001   -0.02431800000000   -0.01792900000000
C        40.66805000000000   -0.00535800000000   -0.01855600000000
C        41.87919200000000    0.02466000000000   -0.00337800000000
C        50.97653900000000    0.02466000000000   -0.00337800000000
C        52.19207200000000   -0.00068300000000   -0.01385800000000
C        53.61358900000000   -0.02210700000000   -0.01803400000000
C        54.82215000000000   -0.02431800000000   -0.01792900000000
C        56.24322500000001   -0.00535800000000   -0.01855600000000
C        57.45436800000000    0.02466000000000   -0.00337800000000
C        66.55171400000000    0.02466000000000   -0.00337800000000
C        67.76724700000000   -0.00068300000000   -0.01385800000000
C        69.18876400000001   -0.02210700000000   -0.01803400000000
C        70.39732600000001   -0.02431800000000   -0.01792900000000
C        71.81840099999999   -0.00535800000000   -0.01855600000000
C        73.02954300000000    0.02466000000000   -0.00337800000000
C        82.12689000000000    0.02466000000000   -0.00337800000000
C        83.34242300000000   -0.00068300000000   -0.01385800000000
C        84.76394000000001   -0.02210700000000   -0.01803400000000
C        85.97250099999999   -0.02431800000000   -0.01792900000000
C        87.39357699999999   -0.00535800000000   -0.01855600000000
C        88.60471900000000    0.02466000000000   -0.00337800000000
C        97.70206500000000    0.02466000000000   -0.00337800000000
C        98.91759800000000   -0.00068300000000   -0.01385800000000
C       100.33911500000001   -0.02210700000000   -0.01803400000000
C       101.54767699999999   -0.02431800000000   -0.01792900000000
C       102.96875200000001   -0.00535800000000   -0.01855600000000
C       104.17989400000000    0.02466000000000   -0.00337800000000
Co       46.46778200000001    0.03627700000000    0.00145000000000
C        44.18797200000000   -3.22517000000000   -0.90821600000000
C        43.23176200000001   -2.32582000000000   -1.01024200000000
C        43.62413600000001   -1.16351500000000   -0.20772600000000
C        42.98902000000000   -0.01224200000000    0.00454000000000
C        43.67447700000001    1.26235700000000    0.23076900000000
C        43.33918700000000    2.34095700000000    0.93500900000000
C        44.36372800000000    3.36027400000000    0.84442800000000
C        45.31432500000000    2.86334900000000    0.07106300000000
N        44.93733100000000    1.54674400000000   -0.34508000000000
C        46.56146500000000    3.47505100000000   -0.34580200000000
C        47.66301700000000    2.80779400000000   -0.67757400000000
C        48.65656300000000    3.05977800000000   -1.71174400000000
C        49.55044600000001    2.09891900000000   -1.61026000000000
C        49.17074800000000    1.18703500000000   -0.50628300000000
N        48.07583300000000    1.63635400000000    0.00108400000000
C        49.82795500000000   -0.01224200000000    0.00454000000000
C        49.20454400000000   -1.08142400000000    0.46605700000000
C        49.58325600000000   -2.01354000000000    1.54153200000000
C        48.64258700000000   -2.92768600000000    1.62739800000000
C        47.63428600000000   -2.63190700000000    0.62997100000000
N        47.97206100000000   -1.57852900000000   -0.01932400000000
C        46.38189300000000   -3.33891400000000    0.29877800000000
C        45.26801600000000   -2.74221700000000   -0.04856400000000
N        44.88590400000000   -1.45946000000000    0.36911900000000
H        44.18831600000000   -4.21624400000000   -1.39945000000000
H        42.32322800000000   -2.44751400000000   -1.59139000000000
H        42.41433500000000    2.45930900000000    1.51193500000000
H        44.39102300000000    4.34943800000000    1.30107800000000
H        46.64740500000000    4.57242900000000   -0.40782500000000
H        48.68923500000000    3.86599400000000   -2.43856800000000
H        50.44350800000000    1.98595100000000   -2.24403400000000
H        50.49800600000000   -1.93913300000000    2.15170200000000
H        48.66163400000001   -3.74129400000000    2.33566600000000
H        46.42037700000000   -4.43887300000000    0.35781400000000
Co       62.04295800000001    0.03627700000000    0.00145000000000
C        59.76314700000000   -3.22517000000000   -0.90821600000000
C        58.80693800000001   -2.32582000000000   -1.01024200000000
C        59.19931200000001   -1.16351500000000   -0.20772600000000
C        58.56419500000000   -0.01224200000000    0.00454000000000
C        59.24965200000000    1.26235700000000    0.23076900000000
C        58.91436200000000    2.34095700000000    0.93500900000000
C        59.93890300000000    3.36027400000000    0.84442800000000
C        60.88950100000000    2.86334900000000    0.07106300000000
N        60.51250700000000    1.54674400000000   -0.34508000000000
C        62.13664000000000    3.47505100000000   -0.34580200000000
C        63.23819200000000    2.80779400000000   -0.67757400000000
C        64.23173900000000    3.05977800000000   -1.71174400000000
C        65.12562200000001    2.09891900000000   -1.61026000000000
C        64.74592400000000    1.18703500000000   -0.50628300000000
N        63.65100800000000    1.63635400000000    0.00108400000000
C        65.40313100000000   -0.01224200000000    0.00454000000000
C        64.77971900000000   -1.08142400000000    0.46605700000000
C        65.15843200000000   -2.01354000000000    1.54153200000000
C        64.21776300000001   -2.92768600000000    1.62739800000000
C        63.20946200000000   -2.63190700000000    0.62997100000000
N        63.54723700000001   -1.57852900000000   -0.01932400000000
C        61.95706800000000   -3.33891400000000    0.29877800000000
C        60.84319200000000   -2.74221700000000   -0.04856400000000
N        60.46108000000000   -1.45946000000000    0.36911900000000
H        59.76349200000000   -4.21624400000000   -1.39945000000000
H        57.89840300000000   -2.44751400000000   -1.59139000000000
H        57.98951000000000    2.45930900000000    1.51193500000000
H        59.96619800000000    4.34943800000000    1.30107800000000
H        62.22258000000000    4.57242900000000   -0.40782500000000
H        64.26441100000000    3.86599400000000   -2.43856800000000
H        66.01868300000000    1.98595100000000   -2.24403400000000
H        66.07318200000000   -1.93913300000000    2.15170200000000
H        64.23681000000001   -3.74129400000000    2.33566600000000
H        61.99555300000000   -4.43887300000000    0.35781400000000
Co       77.61813300000001    0.03627700000000    0.00145000000000
C        75.33832300000000   -3.22517000000000   -0.90821600000000
C        74.38211300000002   -2.32582000000000   -1.01024200000000
C        74.77448700000001   -1.16351500000000   -0.20772600000000
C        74.13937100000000   -0.01224200000000    0.00454000000000
C        74.82482800000000    1.26235700000000    0.23076900000000
C        74.48953800000000    2.34095700000000    0.93500900000000
C        75.51407900000001    3.36027400000000    0.84442800000000
C        76.46467600000000    2.86334900000000    0.07106300000000
N        76.08768200000000    1.54674400000000   -0.34508000000000
C        77.71181600000000    3.47505100000000   -0.34580200000000
C        78.81336800000000    2.80779400000000   -0.67757400000000
C        79.80691400000001    3.05977800000000   -1.71174400000000
C        80.70079700000001    2.09891900000000   -1.61026000000000
C        80.32109900000000    1.18703500000000   -0.50628300000000
N        79.22618400000000    1.63635400000000    0.00108400000000
C        80.97830600000000   -0.01224200000000    0.00454000000000
C        80.35489500000000   -1.08142400000000    0.46605700000000
C        80.73360700000001   -2.01354000000000    1.54153200000000
C        79.79293900000000   -2.92768600000000    1.62739800000000
C        78.78463700000000   -2.63190700000000    0.62997100000000
N        79.12241200000000   -1.57852900000000   -0.01932400000000
C        77.53224400000001   -3.33891400000000    0.29877800000000
C        76.41836700000000   -2.74221700000000   -0.04856400000000
N        76.03625500000000   -1.45946000000000    0.36911900000000
H        75.33866700000000   -4.21624400000000   -1.39945000000000
H        73.47357900000000   -2.44751400000000   -1.59139000000000
H        73.56468599999999    2.45930900000000    1.51193500000000
H        75.54137400000000    4.34943800000000    1.30107800000000
H        77.79775600000001    4.57242900000000   -0.40782500000000
H        79.83958600000000    3.86599400000000   -2.43856800000000
H        81.59385899999999    1.98595100000000   -2.24403400000000
H        81.64835700000000   -1.93913300000000    2.15170200000000
H        79.81198500000001   -3.74129400000000    2.33566600000000
H        77.57072800000000   -4.43887300000000    0.35781400000000
Co       93.19330900000000    0.03627700000000    0.00145000000000
C        90.91349800000002   -3.22517000000000   -0.90821600000000
C        89.95728900000000   -2.32582000000000   -1.01024200000000
C        90.34966300000001   -1.16351500000000   -0.20772600000000
C        89.71454600000000   -0.01224200000000    0.00454000000000
C        90.40000400000001    1.26235700000000    0.23076900000000
C        90.06471300000000    2.34095700000000    0.93500900000000
C        91.08925499999999    3.36027400000000    0.84442800000000
C        92.03985200000000    2.86334900000000    0.07106300000000
N        91.66285800000000    1.54674400000000   -0.34508000000000
C        93.28699100000000    3.47505100000000   -0.34580200000000
C        94.38854300000000    2.80779400000000   -0.67757400000000
C        95.38209000000001    3.05977800000000   -1.71174400000000
C        96.27597299999999    2.09891900000000   -1.61026000000000
C        95.89627500000000    1.18703500000000   -0.50628300000000
N        94.80135900000001    1.63635400000000    0.00108400000000
C        96.55348200000002   -0.01224200000000    0.00454000000000
C        95.93007000000000   -1.08142400000000    0.46605700000000
C        96.30878300000001   -2.01354000000000    1.54153200000000
C        95.36811400000001   -2.92768600000000    1.62739800000000
C        94.35981300000002   -2.63190700000000    0.62997100000000
N        94.69758800000001   -1.57852900000000   -0.01932400000000
C        93.10742000000000   -3.33891400000000    0.29877800000000
C        91.99354300000000   -2.74221700000000   -0.04856400000000
N        91.61143100000000   -1.45946000000000    0.36911900000000
H        90.91384300000001   -4.21624400000000   -1.39945000000000
H        89.04875400000000   -2.44751400000000   -1.59139000000000
H        89.13986100000000    2.45930900000000    1.51193500000000
H        91.11654900000001    4.34943800000000    1.30107800000000
H        93.37293099999999    4.57242900000000   -0.40782500000000
H        95.41476200000000    3.86599400000000   -2.43856800000000
H        97.16903400000000    1.98595100000000   -2.24403400000000
H        97.22353300000000   -1.93913300000000    2.15170200000000
H        95.38716100000002   -3.74129400000000    2.33566600000000
H        93.14590400000000   -4.43887300000000    0.35781400000000
242
 energy: -443.045072323641 gnorm: 0.859566169789 xtb: 6.4.1 (bd6e46d)
Co       28.98112383311934    0.03720978061010   -0.01182098099786
C        31.30392209722216   -3.11482199236092    1.30775644975651
C        32.22941726106992   -2.16324253773598    1.25978743325890
C        31.80749152108077   -1.11415074809850    0.34140499299833
C        32.41867488724935    0.02527208902022   -0.00943043077442
C        31.71954211803396    1.22608791752834   -0.36402262034636
C        32.05985746822062    2.21141094365927   -1.23171790022888
C        31.03773016908787    3.21131981148812   -1.24587190461113
C        30.07541702106097    2.82024227515885   -0.38141339734093
N        30.46932935828225    1.58817737394439    0.17598332402256
C        28.83280737847889    3.48054484666680   -0.01153030628287
C        27.71700041303560    2.83418106745667    0.34220554521599
C        26.65666186135278    3.16699551783425    1.30253945877137
C        25.80002062911876    2.15879324659844    1.23535189858510
C        26.24810121297870    1.16113919321888    0.26047389646240
N        27.37915019296084    1.59031631651473   -0.22672487136110
C        25.63472091157317   -0.07860858319718   -0.15733467783892
C        26.31031469405489   -1.20204158017752   -0.41863483335374
C        25.92721452350373   -2.25654159786643   -1.36754676640015
C        26.88678864153017   -3.16553379623466   -1.28385577075431
C        27.87371261206174   -2.72294786236211   -0.30436917939462
N        27.52011580015066   -1.55462183716217    0.18607470663747
C        29.08525615995913   -3.37704604001846    0.13996574007418
C        30.22715778149242   -2.71513058408407    0.41227439750919
N        30.54374359703446   -1.47485635070629   -0.17456668148501
H        31.36274013239258   -4.01568657748430    1.92470911965136
H        33.13897669707269   -2.20114435272320    1.83702547948671
H        32.97827149353579    2.21308761599517   -1.81972574282801
H        31.03750958948973    4.11254555131595   -1.84839777468832
H        28.77880895425907    4.57181966935612   -0.01132091508069
H        26.60195912068012    4.03947961338822    1.93311196379411
H        24.90316172949676    2.12570741419969    1.84874977489855
H        24.54571959385095   -0.08695140315605   -0.26236575625742
H        25.06493820793897   -2.30858786174334   -2.01944298806056
H        26.88251668720530   -4.06994292365065   -1.88105443813539
H        29.06122941820643   -4.46546088484042    0.25637631280822
Co      110.60150655418896   -0.00892931646751   -0.01613835217600
C       108.27870793793102    2.84359250925352    1.86528119452553
C       107.35320201623563    1.91743011716791    1.64158983777887
C       107.77515996447178    1.05696138361221    0.54454411051098
C       107.16373150740030    0.00242764907798   -0.01155369887959
C       107.86308710232740   -1.11183254522948   -0.58280465459369
C       107.52276097316519   -1.91906701168368   -1.61817450620260
C       108.54490900710445   -2.89901007958769   -1.81760031876709
C       109.50720032265080   -2.67511073886182   -0.89561479282328
N       109.11325743361027   -1.56780182423327   -0.11934375891692
C       110.74979990431076   -3.39255146677652   -0.65464151719330
C       111.86561771743172   -2.82302023074853   -0.18712619517045
C       112.92594692975662   -3.32821267410409    0.69478044185639
C       113.78259491217560   -2.32503768470690    0.81579862357190
C       113.33453114652511   -1.16385871080211    0.04292712632738
N       112.20346367562598   -1.49521017424504   -0.51543847038056
C       113.94789937950415    0.13187199846690   -0.13763840587685
C       113.27230366754141    1.28428860509289   -0.18599663501825
C       113.65540030183878    2.49650937063664   -0.92280385968794
C       112.69582076149645    3.37420553521956   -0.67192999485591
C       111.70890413067080    2.75760520260773    0.20844175275128
N       112.06249815468635    1.51855864418543    0.47362784932172
C       110.49736136393929    3.31791863885809    0.76640695642509
C       109.35545686276726    2.61697829620971    0.91120259811347
N       109.03887143972084    1.50708766549458    0.10448726751810
H       108.21987734895502    3.61436555965125    2.63864867426768
H       106.44363900098772    1.84759148723882    2.21586288975001
H       106.60434688568816   -1.81163415845132   -2.19632713181132
H       108.54510911102695   -3.67280857263301   -2.57687079911248
H       110.80381094307366   -4.46491638207620   -0.85689059020233
H       112.98065573138058   -4.30253422658987    1.15255491808416
H       114.67945529750635   -2.40633075814065    1.42468986399144
H       115.03689844626118    0.15956184669562   -0.23929576201509
H       114.51767730459065    2.66859566947160   -1.55373033851103
H       112.70009811803169    4.37370400010587   -1.09098746772790
H       110.52138760475380    4.36583796036326    1.08271522005396
C        35.40040848356027    0.02448015794009   -0.00324231787973
C        36.62473873231230   -0.00093600734082   -0.01377606614881
C        38.02661376992327   -0.02168880354404   -0.01803727970496
C        39.25146050280099   -0.02383789148294   -0.01793942378632
C        40.62082232232304   -0.00570484608938   -0.01842386438963
C        41.80997898764489    0.03205484451352   -0.00468987576249
C        51.03671167995751    0.03033868338976   -0.00300678169974
C        52.23202947667210   -0.00111654905752   -0.01347865430681
C        53.60513776471659   -0.02157935480491   -0.01853616970682
C        54.82862885131933   -0.02380219240861   -0.01794344166396
C        56.19638642309016   -0.00569029689291   -0.01840522886113
C        57.38507381173859    0.03202397809521   -0.00494606212965
C        66.61190351825022    0.03033950275078   -0.00292706258482
C        67.80714838359374   -0.00109942598037   -0.01346878226739
C        69.18036437766258   -0.02158528793547   -0.01855236457811
C        70.40375023490351   -0.02380248258080   -0.01793571339602
C        71.77163782143309   -0.00568422640801   -0.01840790874182
C        72.96019331280290    0.03201508436863   -0.00497920205762
C        82.18705493900072    0.03033631811135   -0.00292272116268
C        83.38238658426930   -0.00110121191989   -0.01346001738279
C        84.75549300254529   -0.02158779396242   -0.01855372292448
C        85.97896883622587   -0.02380051235560   -0.01793791368110
C        87.34678065315352   -0.00568274308540   -0.01840601325526
C        88.53533654109961    0.03200260855126   -0.00497919446972
C        97.76248254100693    0.03040743136758   -0.00282841459656
C        98.95764484023937   -0.00098951307434   -0.01333919604135
C       100.33362557042770   -0.02157644915877   -0.01854713898813
C       101.55805096687624   -0.02389541120173   -0.01810570207845
C       102.96041628950729   -0.00571624993018   -0.01835133814493
C       104.18195463647498    0.02435589918061   -0.00322830468719
Co       46.46384373604148    0.03688665705486    0.00115491163893
C        44.19082720368430   -3.23661044442090   -0.90613444209394
C        43.22824530391255   -2.32279187503268   -1.00703829102135
C        43.65612717108437   -1.18231490458963   -0.20987404272271
C        43.05281318376591   -0.00192501056821    0.00557065944452
C        43.70226471322371    1.26657576206856    0.22744971024686
C        43.33431718563401    2.35730101344312    0.94299586441209
C        44.34847545366526    3.36185521953106    0.85055454299709
C        45.32300407093677    2.85202381118174    0.06520592429367
N        44.95269232674365    1.54010563909715   -0.33972110112176
C        46.55248666897918    3.47769908914074   -0.34528943749682
C        47.66971617669189    2.80128487101436   -0.67832307552196
C        48.65675217086710    3.06527528488511   -1.70683676311972
C        49.56178235453586    2.09068951191490   -1.60978105383753
C        49.16320752892202    1.19126216418470   -0.51697644173531
N        48.05325177832365    1.63026722961308   -0.00374508101143
C        49.78353407778166   -0.00195674521244   -0.00101013426755
C        49.17991672729712   -1.09824540799223    0.47443216472208
C        49.59068111623994   -2.00895371929688    1.53720135611095
C        48.63850855887157   -2.93759843015962    1.62787992080812
C        47.62669582124727   -2.64072196128623    0.63544672921338
N        47.96256788591268   -1.55930163085582   -0.01748938092048
C        46.39647440836895   -3.34497937752299    0.30482194996448
C        45.25789164373759   -2.73421794868944   -0.05283198443383
N        44.89487185110553   -1.45377669207923    0.35568823595540
H        44.19004834090816   -4.21347862277737   -1.39747495067897
H        42.32399517633744   -2.44343876619378   -1.58954235196164
H        42.41523692565212    2.45998784327720    1.51171464225204
H        44.38737756642188    4.34663324336496    1.30163671091453
H        46.64148634090707    4.57008840419411   -0.40982106909082
H        48.68641211010144    3.86514699247591   -2.43568321079011
H        50.44210120804318    1.98370253203972   -2.24192884922066
H        50.49481303840719   -1.93704593420464    2.14811090779205
H        48.65890267314273   -3.74316500435555    2.33571253405340
H        46.42210178106477   -4.43724749184943    0.35672992723543
Co       62.03888616934741    0.03687277619120    0.00117885951788
C        59.76570322439753   -3.23655249506319   -0.90623074751711
C        58.80336604935253   -2.32311885396907   -1.00699849829672
C        59.23112072712999   -1.18195267132810   -0.20935362262113
C        58.62822914438119   -0.00221835095478    0.00548432976364
C        59.27740846993694    1.26665729419563    0.22729692228528
C        58.90952051205615    2.35736343367712    0.94302472442805
C        59.92351856678872    3.36183245275287    0.85057614786509
C        60.89830010661153    2.85194499492495    0.06508416172730
N        60.52790752684706    1.54006329683575   -0.33966312813534
C        62.12752145257545    3.47764132964041   -0.34519194114329
C        63.24497959975071    2.80117213324316   -0.67835329666807
C        64.23189104076999    3.06527419176038   -1.70684671903042
C        65.13698610433556    2.09067348483646   -1.60977629565756
C        64.73828777603379    1.19133390138372   -0.51705583254639
N        63.62847705720046    1.63029784257208   -0.00386576408685
C        65.35864437886219   -0.00205771437161   -0.00094103024683
C        64.75514943591138   -1.09818066737273    0.47439111620935
C        65.16591364321599   -2.00902519294013    1.53722905130426
C        64.21375450386718   -2.93755705622713    1.62793389591490
C        63.20199334134273   -2.64042426239634    0.63544649154049
N        63.53771665526515   -1.55948377850692   -0.01743969036105
C        61.97137230057433   -3.34495877598257    0.30465681074993
C        60.83338298679639   -2.73411860276594   -0.05272458848376
N        60.47027539986272   -1.45372412781289    0.35569444130082
H        59.76519869691906   -4.21347534942112   -1.39749753570337
H        57.89916767412585   -2.44346017465287   -1.58958546515336
H        57.99041135115471    2.45999812572252    1.51173802960007
H        59.96252514156774    4.34664704772751    1.30162062714063
H        62.21666053879835    4.57008031482114   -0.40976220616099
H        64.26158552663695    3.86514936550104   -2.43568273132099
H        66.01728236294457    1.98370531997459   -2.24192561288452
H        66.07000199911022   -1.93705641442870    2.14812024329087
H        64.23407470394564   -3.74315486309760    2.33572159423731
H        61.99727195385092   -4.43723442808703    0.35665605413087
Co       77.61403022612849    0.03687115536551    0.00118717653610
C        75.34083960398974   -3.23654325617358   -0.90623613284189
C        74.37853880402180   -2.32316234273977   -1.00699196414541
C        74.80625380897966   -1.18186887106356   -0.20934466433328
C        74.20344488535162   -0.00226014486441    0.00546841698314
C        74.85256543078616    1.26664742150373    0.22733612656689
C        74.48470508195440    2.35736090684687    0.94302792200499
C        75.49868606219349    3.36182524397930    0.85057240913019
C        76.47349674565153    2.85195307276401    0.06506749220381
N        76.10309524691330    1.54004696266104   -0.33965076731702
C        77.70267470816843    3.47763906335246   -0.34518532869126
C        78.82016201189205    2.80117429792678   -0.67836931861342
C        79.80705264807943    3.06528017911667   -1.70683962220117
C        80.71215729406546    2.09065660055476   -1.60977296206528
C        80.31344101984492    1.19135922850559   -0.51707167572926
N        79.20367940363498    1.63030770418886   -0.00386995043989
C        80.93385208450074   -0.00207054198416   -0.00093303108739
C        80.33034892679352   -1.09818756763572    0.47441144356197
C        80.74109377734105   -2.00899656613416    1.53720740311868
C        79.78890093175518   -2.93755351936320    1.62792387924940
C        78.77721357755767   -2.64039914834895    0.63547939036104
N        79.11289607492735   -1.55952101527527   -0.01744119252684
C        77.54647396944296   -3.34497462472546    0.30462513338245
C        76.40861344376390   -2.73414491271645   -0.05269252103527
N        76.04550446936447   -1.45367754607836    0.35569791574667
H        75.34037159105934   -4.21347373455519   -1.39750156167866
H        73.47434399023732   -2.44346311658879   -1.58959164811517
H        73.56558945916061    2.45999840567963    1.51174076798259
H        75.53769806237749    4.34664903284552    1.30161517720885
H        77.79183696551682    4.57008060025212   -0.40975438943781
H        79.83675925710145    3.86515020402408   -2.43568203352656