      -----------------------------------------------------------      
     |                   =====================                   |     
     |                           x T B                           |     
     |                   =====================                   |     
     |                         S. Grimme                         |     
     |          Mulliken Center for Theoretical Chemistry        |     
     |                    University of Bonn                     |     
      -----------------------------------------------------------      

   * xtb version 6.4.1 (bd6e46d) compiled by 'conda@4901f00b25ba' on 2021-06-10

   xtb is free software: you can redistribute it and/or modify it under
   the terms of the GNU Lesser General Public License as published by
   the Free Software Foundation, either version 3 of the License, or
   (at your option) any later version.
   
   xtb is distributed in the hope that it will be useful,
   but WITHOUT ANY WARRANTY; without even the implied warranty of
   MERCHANTABILITY or FITNESS FOR A PARTICULAR PURPOSE.  See the
   GNU Lesser General Public License for more details.
   
   Cite this work as:
   * C. Bannwarth, E. Caldeweyher, S. Ehlert, A. Hansen, P. Pracht,
     J. Seibert, S. Spicher, S. Grimme, WIREs Comput. Mol. Sci., 2020, 11,
     e01493. DOI: 10.1002/wcms.1493
   
   for GFN2-xTB:
   * C. Bannwarth, S. Ehlert and S. Grimme., J. Chem. Theory Comput., 2019,
     15, 1652-1671. DOI: 10.1021/acs.jctc.8b01176
   for GFN1-xTB:
   * S. Grimme, C. Bannwarth, P. Shushkov, J. Chem. Theory Comput., 2017,
     13, 1989-2009. DOI: 10.1021/acs.jctc.7b00118
   for GFN0-xTB:
   * P. Pracht, E. Caldeweyher, S. Ehlert, S. Grimme, ChemRxiv, 2019, preprint.
     DOI: 10.26434/chemrxiv.8326202.v1
   for GFN-FF:
   * S. Spicher and S. Grimme, Angew. Chem. Int. Ed., 2020, 59, 15665-15673.
     DOI: 10.1002/anie.202004239
   
   for DFT-D4:
   * E. Caldeweyher, C. Bannwarth and S. Grimme, J. Chem. Phys., 2017,
     147, 034112. DOI: 10.1063/1.4993215
   * E. Caldeweyher, S. Ehlert, A. Hansen, H. Neugebauer, S. Spicher,
     C. Bannwarth and S. Grimme, J. Chem. Phys., 2019, 150, 154122.
     DOI: 10.1063/1.5090222
   * E. Caldeweyher, J.-M. Mewes, S. Ehlert and S. Grimme, Phys. Chem. Chem. Phys.
     2020, 22, 8499-8512. DOI: 10.1039/D0CP00502A
   
   for sTDA-xTB:
   * S. Grimme and C. Bannwarth, J. Chem. Phys., 2016, 145, 054103.
     DOI: 10.1063/1.4959605
   
   in the mass-spec context:
   * V. Asgeirsson, C. Bauer and S. Grimme, Chem. Sci., 2017, 8, 4879.
     DOI: 10.1039/c7sc00601b
   * J. Koopman and S. Grimme, ACS Omega 2019, 4, 12, 15120-15133.
     DOI: 10.1021/acsomega.9b02011
   
   for metadynamics refer to:
   * S. Grimme, J. Chem. Theory Comput., 2019, 155, 2847-2862
     DOI: 10.1021/acs.jctc.9b00143
   
   for SPH calculations refer to:
   * S. Spicher and S. Grimme, J. Chem. Theory Comput., 2021, 17, 1701-1714
     DOI: 10.1021/acs.jctc.0c01306
   
   with help from (in alphabetical order)
   P. Atkinson, C. Bannwarth, F. Bohle, G. Brandenburg, E. Caldeweyher
   M. Checinski, S. Dohm, S. Ehlert, S. Ehrlich, I. Gerasimov, J. Koopman
   C. Lavigne, S. Lehtola, F. März, M. Müller, F. Musil, H. Neugebauer
   J. Pisarek, C. Plett, P. Pracht, J. Seibert, P. Shushkov, S. Spicher
   M. Stahn, M. Steiner, T. Strunk, J. Stückrath, T. Rose, and J. Unsleber
   
 * started run on 2021/11/21 at 21:22:05.757     

           -------------------------------------------------
          |                Calculation Setup                |
           -------------------------------------------------

          program call               : /home/jeff/miniconda3/bin/xtb /home/jeff/chem/final-year-proejct/Zn+2_6_7_outenergy/input_structure.xyz --gfn 2 --parallel 1 --etemp 300 --chrg 0 --uhf 0 -I det_control.in
          coordinate file            : /home/jeff/chem/final-year-proejct/Zn+2_6_7_outenergy/input_structure.xyz
          omp threads                :                     1
          number of atoms            :                   283
          number of electrons        :                   930
          charge                     :                     0
          spin                       :                   0.0
          first test random number   :      0.15845189014588

   ID    Z sym.   atoms
    1   30 Zn     1, 37, 109, 144, 179, 214, 249
    2    6 C      2-9, 11-15, 17-21, 23, 24, 38-45, 47-51, 53-57, 59, 60,
                  73-108, 110-117, 119-123, 125-129, 131, 132, 145-152,
                  154-158, 160-164, 166, 167, 180-187, 189-193, 195-199, 201,
                  202, 215-222, 224-228, 230-234, 236, 237, 250-257, 259-263,
                  265-269, 271, 272
    3    7 N      10, 16, 22, 25, 46, 52, 58, 61, 118, 124, 130, 133, 153,
                  159, 165, 168, 188, 194, 200, 203, 223, 229, 235, 238, 258,
                  264, 270, 273
    4    1 H      26-36, 62-72, 134-143, 169-178, 204-213, 239-248, 274-283

           -------------------------------------------------
          |                 G F N 2 - x T B                 |
           -------------------------------------------------

        Reference                      10.1021/acs.jctc.8b01176
      * Hamiltonian:
        H0-scaling (s, p, d)           1.850000    2.230000    2.230000
        zeta-weighting                 0.500000
      * Dispersion:
        s8                             2.700000
        a1                             0.520000
        a2                             5.000000
        s9                             5.000000
      * Repulsion:
        kExp                           1.500000    1.000000
        rExp                           1.000000
      * Coulomb:
        alpha                          2.000000
        third order                    shell-resolved
        anisotropic                    true
        a3                             3.000000
        a5                             4.000000
        cn-shift                       1.200000
        cn-exp                         4.000000
        max-rad                        5.000000


          ...................................................
          :                      SETUP                      :
          :.................................................:
          :  # basis functions                 916          :
          :  # atomic orbitals                 916          :
          :  # shells                          494          :
          :  # electrons                       930          :
          :  max. iterations                   250          :
          :  Hamiltonian                  GFN2-xTB          :
          :  restarted?                      false          :
          :  GBSA solvation                  false          :
          :  PC potential                    false          :
          :  electronic temp.          300.0000000     K    :
          :  accuracy                    1.0000000          :
          :  -> integral cutoff          0.2500000E+02      :
          :  -> integral neglect         0.1000000E-07      :
          :  -> SCF convergence          0.1000000E-05 Eh   :
          :  -> wf. convergence          0.1000000E-03 e    :
          :  Broyden damping             0.4000000          :
          ...................................................

 iter      E             dE          RMSdq      gap      omega  full diag
   1   -507.0827546 -0.507083E+03  0.742E+00    0.85       0.0  T
   2   -508.0387092 -0.955955E+00  0.397E+00    0.81       1.0  T
   3   -507.6145777  0.424131E+00  0.251E+00    0.93       1.0  T
   4   -508.8060713 -0.119149E+01  0.405E-01    0.84       1.0  T
   5   -508.8134499 -0.737855E-02  0.279E-01    0.87       1.0  T
   6   -508.8153481 -0.189818E-02  0.173E-01    0.87       1.0  T
   7   -508.8153053  0.427927E-04  0.113E-01    0.86       1.0  T
   8   -508.8197005 -0.439523E-02  0.376E-02    0.86       1.0  T
   9   -508.8200988 -0.398265E-03  0.147E-02    0.86       1.0  T
  10   -508.8201283 -0.295278E-04  0.747E-03    0.86       1.0  T
  11   -508.8201371 -0.878199E-05  0.285E-03    0.86       2.1  T
  12   -508.8201382 -0.109323E-05  0.114E-03    0.86       5.2  T
  13   -508.8201382 -0.390446E-07  0.779E-04    0.86       7.6  T
  14   -508.8201383 -0.122850E-06  0.347E-04    0.86      17.1  T

   *** convergence criteria satisfied after 14 iterations ***

         #    Occupation            Energy/Eh            Energy/eV
      -------------------------------------------------------------
         1        2.0000           -0.6694045             -18.2154
       ...           ...                  ...                  ...
       459        2.0000           -0.3694442             -10.0531
       460        2.0000           -0.3667192              -9.9789
       461        2.0000           -0.3630159              -9.8782
       462        2.0000           -0.3589256              -9.7669
       463        2.0000           -0.3549359              -9.6583
       464        2.0000           -0.3515200              -9.5653
       465        2.0000           -0.3493457              -9.5062 (HOMO)
       466        0.0000           -0.3176142              -8.6427 (LUMO)
       467                         -0.3147746              -8.5655
       468                         -0.3110270              -8.4635
       469                         -0.3068235              -8.3491
       470                         -0.3026061              -8.2343
       ...                                ...                  ...
       916                          1.7179846              46.7487
      -------------------------------------------------------------
                  HL-Gap            0.0317315 Eh            0.8635 eV
             Fermi-level           -0.3334566 Eh           -9.0738 eV

 SCC (total)                   0 d,  0 h,  0 min,  4.668 sec
 SCC setup                      ...        0 min,  0.014 sec (  0.308%)
 Dispersion                     ...        0 min,  0.029 sec (  0.631%)
 classical contributions        ...        0 min,  0.002 sec (  0.050%)
 integral evaluation            ...        0 min,  0.221 sec (  4.731%)
 iterations                     ...        0 min,  3.859 sec ( 82.674%)
 molecular gradient             ...        0 min,  0.506 sec ( 10.831%)
 printout                       ...        0 min,  0.036 sec (  0.775%)

         :::::::::::::::::::::::::::::::::::::::::::::::::::::
         ::                     SUMMARY                     ::
         :::::::::::::::::::::::::::::::::::::::::::::::::::::
         :: total energy            -499.041050008508 Eh    ::
         :: gradient norm              0.000701123139 Eh/a0 ::
         :: HOMO-LUMO gap              0.863458747335 eV    ::
         ::.................................................::
         :: SCC energy              -508.820138322385 Eh    ::
         :: -> isotropic ES            0.455465128434 Eh    ::
         :: -> anisotropic ES          0.060054404046 Eh    ::
         :: -> anisotropic XC          0.314566563238 Eh    ::
         :: -> dispersion             -0.450312159005 Eh    ::
         :: repulsion energy           9.786798937528 Eh    ::
         :: add. restraining           0.000000000000 Eh    ::
         :: total charge               0.000000000001 e     ::
         :::::::::::::::::::::::::::::::::::::::::::::::::::::

           -------------------------------------------------
          |                Property Printout                |
           -------------------------------------------------

    * Orbital Energies and Occupations

         #    Occupation            Energy/Eh            Energy/eV
      -------------------------------------------------------------
         1        2.0000           -0.6694045             -18.2154
       ...           ...                  ...                  ...
       453        2.0000           -0.3716376             -10.1128
       454        2.0000           -0.3716358             -10.1127
       455        2.0000           -0.3713186             -10.1041
       456        2.0000           -0.3713148             -10.1040
       457        2.0000           -0.3697591             -10.0617
       458        2.0000           -0.3697493             -10.0614
       459        2.0000           -0.3694442             -10.0531
       460        2.0000           -0.3667192              -9.9789
       461        2.0000           -0.3630159              -9.8782
       462        2.0000           -0.3589256              -9.7669
       463        2.0000           -0.3549359              -9.6583
       464        2.0000           -0.3515200              -9.5653
       465        2.0000           -0.3493457              -9.5062 (HOMO)
       466        0.0000           -0.3176142              -8.6427 (LUMO)
       467                         -0.3147746              -8.5655
       468                         -0.3110270              -8.4635
       469                         -0.3068235              -8.3491
       470                         -0.3026061              -8.2343
       471                         -0.3008893              -8.1876
       472                         -0.3008128              -8.1855
       473                         -0.3008119              -8.1855
       474                         -0.3004965              -8.1769
       475                         -0.3004961              -8.1769
       476                         -0.2990532              -8.1377
       ...                                ...                  ...
       916                          1.7179846              46.7487
      -------------------------------------------------------------
                  HL-Gap            0.0317315 Eh            0.8635 eV
             Fermi-level           -0.3334566 Eh           -9.0738 eV

     #   Z          covCN         q      C6AA      α(0)
     1  30 Zn       3.042     0.245   122.297    21.603
     2   6 C        3.021    -0.052    29.264     8.874
     3   6 C        3.018    -0.051    29.231     8.869
     4   6 C        3.167     0.077    25.934     8.321
     5   6 C        2.953     0.016    27.642     8.623
     6   6 C        3.167     0.077    25.935     8.322
     7   6 C        3.018    -0.050    29.230     8.868
     8   6 C        3.021    -0.052    29.264     8.874
     9   6 C        3.150     0.076    26.048     8.348
    10   7 N        2.632    -0.177    24.840     7.402
    11   6 C        2.901    -0.050    29.232     8.865
    12   6 C        3.145     0.077    26.036     8.348
    13   6 C        3.017    -0.051    29.243     8.870
    14   6 C        3.018    -0.051    29.246     8.871
    15   6 C        3.145     0.077    26.027     8.347
    16   7 N        2.635    -0.175    24.790     7.395
    17   6 C        2.901    -0.051    29.277     8.872
    18   6 C        3.145     0.077    26.027     8.347
    19   6 C        3.018    -0.051    29.246     8.871
    20   6 C        3.017    -0.051    29.243     8.870
    21   6 C        3.145     0.077    26.036     8.348
    22   7 N        2.635    -0.175    24.790     7.395
    23   6 C        2.901    -0.050    29.232     8.865
    24   6 C        3.150     0.076    26.048     8.348
    25   7 N        2.632    -0.177    24.839     7.402
    26   1 H        0.926     0.034     2.532     2.489
    27   1 H        0.926     0.036     2.505     2.475
    28   1 H        0.926     0.036     2.505     2.475
    29   1 H        0.926     0.034     2.533     2.489
    30   1 H        0.926     0.049     2.328     2.386
    31   1 H        0.926     0.034     2.524     2.485
    32   1 H        0.926     0.034     2.526     2.485
    33   1 H        0.926     0.049     2.336     2.390
    34   1 H        0.926     0.034     2.526     2.485
    35   1 H        0.926     0.034     2.524     2.485
    36   1 H        0.926     0.049     2.328     2.386
    37  30 Zn       3.042     0.245   122.297    21.603
    38   6 C        3.021    -0.052    29.264     8.874
    39   6 C        3.018    -0.051    29.231     8.869
    40   6 C        3.167     0.077    25.935     8.321
    41   6 C        2.953     0.016    27.642     8.623
    42   6 C        3.167     0.077    25.935     8.322
    43   6 C        3.018    -0.050    29.230     8.868
    44   6 C        3.021    -0.052    29.264     8.874
    45   6 C        3.149     0.076    26.048     8.348
    46   7 N        2.632    -0.177    24.840     7.402
    47   6 C        2.901    -0.050    29.233     8.865
    48   6 C        3.145     0.077    26.036     8.348
    49   6 C        3.017    -0.051    29.243     8.870
    50   6 C        3.018    -0.051    29.246     8.871
    51   6 C        3.145     0.077    26.027     8.347
    52   7 N        2.635    -0.175    24.790     7.395
    53   6 C        2.901    -0.051    29.277     8.872
    54   6 C        3.145     0.077    26.027     8.347
    55   6 C        3.018    -0.051    29.246     8.871
    56   6 C        3.017    -0.051    29.243     8.870
    57   6 C        3.145     0.077    26.036     8.348
    58   7 N        2.635    -0.175    24.791     7.395
    59   6 C        2.901    -0.050    29.233     8.865
    60   6 C        3.150     0.076    26.048     8.348
    61   7 N        2.632    -0.177    24.839     7.402
    62   1 H        0.926     0.034     2.532     2.489
    63   1 H        0.926     0.036     2.505     2.475
    64   1 H        0.926     0.036     2.505     2.475
    65   1 H        0.926     0.034     2.533     2.489
    66   1 H        0.926     0.049     2.328     2.386
    67   1 H        0.926     0.034     2.524     2.485
    68   1 H        0.926     0.034     2.526     2.485
    69   1 H        0.926     0.049     2.336     2.390
    70   1 H        0.926     0.034     2.526     2.485
    71   1 H        0.926     0.034     2.524     2.485
    72   1 H        0.926     0.049     2.328     2.386
    73   6 C        1.997    -0.019    31.544     9.070
    74   6 C        1.963    -0.011    31.356     9.043
    75   6 C        1.965    -0.002    31.120     9.009
    76   6 C        1.965    -0.003    31.140     9.012
    77   6 C        1.963    -0.010    31.337     9.040
    78   6 C        1.997    -0.020    31.566     9.073
    79   6 C        1.997    -0.019    31.548     9.071
    80   6 C        1.964    -0.010    31.345     9.041
    81   6 C        1.965    -0.002    31.122     9.009
    82   6 C        1.965    -0.002    31.128     9.010
    83   6 C        1.964    -0.010    31.339     9.040
    84   6 C        1.998    -0.019    31.554     9.072
    85   6 C        1.998    -0.019    31.549     9.071
    86   6 C        1.964    -0.010    31.341     9.041
    87   6 C        1.965    -0.002    31.123     9.009
    88   6 C        1.965    -0.002    31.125     9.009
    89   6 C        1.964    -0.010    31.340     9.041
    90   6 C        1.998    -0.019    31.551     9.071
    91   6 C        1.998    -0.019    31.551     9.071
    92   6 C        1.964    -0.010    31.340     9.041
    93   6 C        1.965    -0.002    31.125     9.009
    94   6 C        1.965    -0.002    31.123     9.009
    95   6 C        1.964    -0.010    31.341     9.041
    96   6 C        1.998    -0.019    31.549     9.071
    97   6 C        1.997    -0.019    31.554     9.072
    98   6 C        1.964    -0.010    31.339     9.040
    99   6 C        1.965    -0.002    31.129     9.010
   100   6 C        1.965    -0.002    31.123     9.009
   101   6 C        1.964    -0.010    31.345     9.041
   102   6 C        1.997    -0.019    31.548     9.071
   103   6 C        1.997    -0.020    31.565     9.073
   104   6 C        1.963    -0.010    31.336     9.040
   105   6 C        1.965    -0.003    31.140     9.012
   106   6 C        1.965    -0.002    31.119     9.009
   107   6 C        1.963    -0.011    31.356     9.043
   108   6 C        1.997    -0.019    31.542     9.070
   109  30 Zn       3.038     0.247   122.272    21.600
   110   6 C        3.021    -0.052    29.259     8.873
   111   6 C        3.019    -0.050    29.230     8.868
   112   6 C        3.168     0.078    25.924     8.319
   113   6 C        2.953     0.017    27.632     8.622
   114   6 C        3.168     0.078    25.924     8.319
   115   6 C        3.019    -0.050    29.229     8.868
   116   6 C        3.021    -0.052    29.259     8.873
   117   6 C        3.151     0.075    26.050     8.348
   118   7 N        2.632    -0.177    24.841     7.402
   119   6 C        2.901    -0.047    29.177     8.857
   120   6 C        3.151     0.075    26.050     8.348
   121   6 C        3.021    -0.052    29.258     8.873
   122   6 C        3.019    -0.051    29.232     8.869
   123   6 C        3.169     0.078    25.920     8.318
   124   7 N        2.632    -0.177    24.842     7.402
   125   6 C        2.953     0.017    27.641     8.623
   126   6 C        3.169     0.078    25.920     8.318
   127   6 C        3.019    -0.051    29.231     8.869
   128   6 C        3.021    -0.052    29.258     8.873
   129   6 C        3.152     0.075    26.050     8.348
   130   7 N        2.632    -0.177    24.842     7.402
   131   6 C        2.901    -0.047    29.177     8.857
   132   6 C        3.151     0.075    26.050     8.348
   133   7 N        2.632    -0.177    24.840     7.402
   134   1 H        0.926     0.034     2.530     2.487
   135   1 H        0.926     0.036     2.503     2.474
   136   1 H        0.926     0.036     2.503     2.474
   137   1 H        0.926     0.034     2.530     2.487
   138   1 H        0.925     0.050     2.319     2.381
   139   1 H        0.926     0.034     2.530     2.487
   140   1 H        0.926     0.036     2.504     2.475
   141   1 H        0.926     0.036     2.504     2.475
   142   1 H        0.926     0.034     2.530     2.487
   143   1 H        0.925     0.050     2.319     2.381
   144  30 Zn       3.038     0.247   122.271    21.600
   145   6 C        3.021    -0.052    29.257     8.873
   146   6 C        3.019    -0.050    29.230     8.868
   147   6 C        3.169     0.078    25.920     8.318
   148   6 C        2.953     0.017    27.635     8.622
   149   6 C        3.169     0.078    25.920     8.318
   150   6 C        3.019    -0.051    29.230     8.869
   151   6 C        3.021    -0.052    29.257     8.873
   152   6 C        3.152     0.075    26.049     8.347
   153   7 N        2.632    -0.177    24.840     7.402
   154   6 C        2.901    -0.047    29.175     8.856
   155   6 C        3.152     0.075    26.049     8.347
   156   6 C        3.021    -0.052    29.257     8.873
   157   6 C        3.019    -0.051    29.231     8.869
   158   6 C        3.169     0.078    25.919     8.318
   159   7 N        2.632    -0.177    24.840     7.402
   160   6 C        2.953     0.017    27.638     8.623
   161   6 C        3.169     0.078    25.919     8.318
   162   6 C        3.019    -0.051    29.231     8.869
   163   6 C        3.021    -0.052    29.257     8.873
   164   6 C        3.152     0.075    26.049     8.347
   165   7 N        2.632    -0.177    24.840     7.402
   166   6 C        2.901    -0.047    29.175     8.856
   167   6 C        3.152     0.075    26.049     8.347
   168   7 N        2.632    -0.177    24.840     7.402
   169   1 H        0.926     0.034     2.529     2.487
   170   1 H        0.926     0.036     2.503     2.474
   171   1 H        0.926     0.036     2.503     2.474
   172   1 H        0.926     0.034     2.528     2.487
   173   1 H        0.925     0.050     2.317     2.381
   174   1 H        0.926     0.034     2.529     2.487
   175   1 H        0.926     0.036     2.503     2.474
   176   1 H        0.926     0.036     2.503     2.474
   177   1 H        0.926     0.034     2.529     2.487
   178   1 H        0.926     0.050     2.317     2.381
   179  30 Zn       3.039     0.247   122.271    21.600
   180   6 C        3.021    -0.052    29.257     8.873
   181   6 C        3.019    -0.051    29.230     8.869
   182   6 C        3.169     0.078    25.919     8.318
   183   6 C        2.953     0.017    27.636     8.622
   184   6 C        3.169     0.078    25.919     8.318
   185   6 C        3.019    -0.051    29.230     8.869
   186   6 C        3.021    -0.052    29.257     8.873
   187   6 C        3.152     0.075    26.049     8.347
   188   7 N        2.632    -0.177    24.840     7.402
   189   6 C        2.901    -0.047    29.174     8.856
   190   6 C        3.152     0.075    26.049     8.347
   191   6 C        3.021    -0.052    29.257     8.873
   192   6 C        3.019    -0.051    29.230     8.869
   193   6 C        3.169     0.078    25.919     8.318
   194   7 N        2.632    -0.177    24.840     7.402
   195   6 C        2.953     0.017    27.636     8.622
   196   6 C        3.169     0.078    25.919     8.318
   197   6 C        3.019    -0.051    29.230     8.869
   198   6 C        3.021    -0.052    29.257     8.873
   199   6 C        3.152     0.075    26.048     8.347
   200   7 N        2.632    -0.177    24.840     7.402
   201   6 C        2.901    -0.047    29.175     8.856
   202   6 C        3.152     0.075    26.049     8.347
   203   7 N        2.632    -0.177    24.840     7.402
   204   1 H        0.926     0.034     2.528     2.486
   205   1 H        0.926     0.036     2.503     2.474
   206   1 H        0.926     0.036     2.503     2.474
   207   1 H        0.926     0.034     2.528     2.486
   208   1 H        0.926     0.050     2.317     2.380
   209   1 H        0.926     0.034     2.528     2.486
   210   1 H        0.926     0.036     2.503     2.474
   211   1 H        0.926     0.036     2.503     2.474
   212   1 H        0.926     0.034     2.528     2.486
   213   1 H        0.926     0.050     2.317     2.380
   214  30 Zn       3.038     0.247   122.271    21.600
   215   6 C        3.021    -0.052    29.257     8.873
   216   6 C        3.019    -0.051    29.231     8.869
   217   6 C        3.169     0.078    25.918     8.318
   218   6 C        2.953     0.017    27.638     8.623
   219   6 C        3.169     0.078    25.920     8.318
   220   6 C        3.019    -0.051    29.231     8.869
   221   6 C        3.021    -0.052    29.257     8.873
   222   6 C        3.152     0.075    26.049     8.348
   223   7 N        2.632    -0.177    24.840     7.402
   224   6 C        2.901    -0.047    29.175     8.856
   225   6 C        3.152     0.075    26.049     8.347
   226   6 C        3.021    -0.052    29.257     8.873
   227   6 C        3.019    -0.050    29.230     8.868
   228   6 C        3.169     0.078    25.920     8.318
   229   7 N        2.632    -0.177    24.840     7.402
   230   6 C        2.953     0.017    27.635     8.622
   231   6 C        3.169     0.078    25.920     8.318
   232   6 C        3.019    -0.051    29.230     8.869
   233   6 C        3.021    -0.052    29.257     8.873
   234   6 C        3.152     0.075    26.049     8.347
   235   7 N        2.632    -0.177    24.840     7.402
   236   6 C        2.901    -0.047    29.175     8.856
   237   6 C        3.152     0.075    26.049     8.347
   238   7 N        2.632    -0.177    24.840     7.402
   239   1 H        0.926     0.034     2.529     2.487
   240   1 H        0.926     0.036     2.503     2.474
   241   1 H        0.926     0.036     2.503     2.474
   242   1 H        0.926     0.034     2.529     2.487
   243   1 H        0.925     0.050     2.317     2.381
   244   1 H        0.926     0.034     2.529     2.487
   245   1 H        0.926     0.036     2.503     2.474
   246   1 H        0.926     0.036     2.503     2.474
   247   1 H        0.926     0.034     2.528     2.487
   248   1 H        0.925     0.050     2.317     2.381
   249  30 Zn       3.038     0.247   122.272    21.600
   250   6 C        3.021    -0.052    29.258     8.873
   251   6 C        3.019    -0.051    29.232     8.869
   252   6 C        3.169     0.078    25.920     8.318
   253   6 C        2.953     0.017    27.641     8.623
   254   6 C        3.169     0.078    25.920     8.318
   255   6 C        3.019    -0.051    29.231     8.869
   256   6 C        3.021    -0.052    29.258     8.873
   257   6 C        3.152     0.075    26.050     8.348
   258   7 N        2.632    -0.177    24.842     7.402
   259   6 C        2.901    -0.047    29.178     8.857
   260   6 C        3.151     0.075    26.050     8.348
   261   6 C        3.021    -0.052    29.259     8.873
   262   6 C        3.019    -0.050    29.229     8.868
   263   6 C        3.168     0.078    25.924     8.319
   264   7 N        2.632    -0.177    24.841     7.402
   265   6 C        2.953     0.017    27.632     8.622
   266   6 C        3.168     0.078    25.925     8.319
   267   6 C        3.019    -0.050    29.229     8.868
   268   6 C        3.021    -0.052    29.259     8.873
   269   6 C        3.151     0.075    26.050     8.348
   270   7 N        2.632    -0.177    24.841     7.402
   271   6 C        2.901    -0.047    29.178     8.857
   272   6 C        3.151     0.075    26.050     8.348
   273   7 N        2.632    -0.177    24.841     7.402
   274   1 H        0.926     0.034     2.530     2.487
   275   1 H        0.926     0.036     2.504     2.475
   276   1 H        0.926     0.036     2.504     2.475
   277   1 H        0.926     0.034     2.530     2.487
   278   1 H        0.925     0.050     2.319     2.381
   279   1 H        0.926     0.034     2.530     2.487
   280   1 H        0.926     0.036     2.503     2.474
   281   1 H        0.926     0.036     2.503     2.474
   282   1 H        0.926     0.034     2.530     2.487
   283   1 H        0.925     0.050     2.319     2.381

 Mol. C6AA /au·bohr⁶  :    1606590.198671
 Mol. C8AA /au·bohr⁸  :   45832753.134057
 Mol. α(0) /au        :       2069.758474


Wiberg/Mayer (AO) data.
largest (>0.10) Wiberg bond orders for each atom

 ---------------------------------------------------------------------------
     #   Z sym  total        # sym  WBO       # sym  WBO       # sym  WBO
 ---------------------------------------------------------------------------
     1  30 Zn   2.080 --    16 N    0.491    22 N    0.491    25 N    0.489
                            10 N    0.489
     2   6 C    3.953 --     3 C    1.650    24 C    1.171    26 H    0.972
     3   6 C    3.957 --     2 C    1.650     4 C    1.179    27 H    0.971
     4   6 C    3.910 --    25 N    1.286     5 C    1.250     3 C    1.179
     5   6 C    3.942 --     6 C    1.251     4 C    1.250    73 C    1.188
     6   6 C    3.910 --    10 N    1.286     5 C    1.251     7 C    1.179
     7   6 C    3.957 --     8 C    1.650     6 C    1.179    28 H    0.971
     8   6 C    3.953 --     7 C    1.650     9 C    1.171    29 H    0.972
     9   6 C    3.924 --    11 C    1.358    10 N    1.246     8 C    1.171
    10   7 N    3.467 --     6 C    1.286     9 C    1.246     1 Zn   0.489
    11   6 C    3.931 --     9 C    1.358    12 C    1.354    30 H    0.964
    12   6 C    3.929 --    11 C    1.354    16 N    1.261    13 C    1.163
    13   6 C    3.957 --    14 C    1.666    12 C    1.163    31 H    0.972
    14   6 C    3.955 --    13 C    1.666    15 C    1.162    32 H    0.972
    15   6 C    3.932 --    17 C    1.354    16 N    1.263    14 C    1.162
    16   7 N    3.464 --    15 C    1.263    12 C    1.261     1 Zn   0.491
    17   6 C    3.926 --    15 C    1.354    18 C    1.354    33 H    0.964
    18   6 C    3.932 --    17 C    1.354    22 N    1.263    19 C    1.162
    19   6 C    3.955 --    20 C    1.666    18 C    1.162    34 H    0.972
    20   6 C    3.957 --    19 C    1.666    21 C    1.163    35 H    0.972
    21   6 C    3.929 --    23 C    1.354    22 N    1.261    20 C    1.163
    22   7 N    3.464 --    18 C    1.263    21 C    1.261     1 Zn   0.491
    23   6 C    3.931 --    24 C    1.358    21 C    1.354    36 H    0.964
    24   6 C    3.924 --    23 C    1.358    25 N    1.246     2 C    1.171
    25   7 N    3.467 --     4 C    1.286    24 C    1.246     1 Zn   0.489
    26   1 H    0.998 --     2 C    0.972
    27   1 H    0.998 --     3 C    0.971
    28   1 H    0.998 --     7 C    0.971
    29   1 H    0.998 --     8 C    0.972
    30   1 H    0.996 --    11 C    0.964
    31   1 H    0.998 --    13 C    0.972
    32   1 H    0.998 --    14 C    0.972
    33   1 H    0.996 --    17 C    0.964
    34   1 H    0.998 --    19 C    0.972
    35   1 H    0.998 --    20 C    0.972
    36   1 H    0.996 --    23 C    0.964
    37  30 Zn   2.081 --    52 N    0.491    58 N    0.491    46 N    0.489
                            61 N    0.489
    38   6 C    3.953 --    39 C    1.650    60 C    1.171    62 H    0.972
    39   6 C    3.957 --    38 C    1.650    40 C    1.179    63 H    0.971
    40   6 C    3.910 --    61 N    1.286    41 C    1.251    39 C    1.179
    41   6 C    3.942 --    42 C    1.251    40 C    1.251   108 C    1.187
    42   6 C    3.911 --    46 N    1.286    41 C    1.251    43 C    1.179
    43   6 C    3.957 --    44 C    1.650    42 C    1.179    64 H    0.971
    44   6 C    3.953 --    43 C    1.650    45 C    1.171    65 H    0.972
    45   6 C    3.924 --    47 C    1.358    46 N    1.247    44 C    1.171
    46   7 N    3.467 --    42 C    1.286    45 C    1.247    37 Zn   0.489
    47   6 C    3.931 --    45 C    1.358    48 C    1.354    66 H    0.964
    48   6 C    3.929 --    47 C    1.354    52 N    1.261    49 C    1.163
    49   6 C    3.957 --    50 C    1.666    48 C    1.163    67 H    0.972
    50   6 C    3.955 --    49 C    1.666    51 C    1.162    68 H    0.972
    51   6 C    3.932 --    53 C    1.354    52 N    1.263    50 C    1.162
    52   7 N    3.464 --    51 C    1.263    48 C    1.261    37 Zn   0.491
    53   6 C    3.926 --    51 C    1.354    54 C    1.354    69 H    0.964
    54   6 C    3.932 --    53 C    1.354    58 N    1.263    55 C    1.162
    55   6 C    3.955 --    56 C    1.666    54 C    1.162    70 H    0.972
    56   6 C    3.957 --    55 C    1.666    57 C    1.163    71 H    0.972
    57   6 C    3.929 --    59 C    1.354    58 N    1.261    56 C    1.163
    58   7 N    3.464 --    54 C    1.263    57 C    1.261    37 Zn   0.491
    59   6 C    3.931 --    60 C    1.358    57 C    1.354    72 H    0.964
    60   6 C    3.924 --    59 C    1.358    61 N    1.247    38 C    1.171
    61   7 N    3.467 --    40 C    1.286    60 C    1.247    37 Zn   0.489
    62   1 H    0.998 --    38 C    0.972
    63   1 H    0.998 --    39 C    0.971
    64   1 H    0.998 --    43 C    0.971
    65   1 H    0.998 --    44 C    0.972
    66   1 H    0.996 --    47 C    0.964
    67   1 H    0.998 --    49 C    0.972
    68   1 H    0.998 --    50 C    0.972
    69   1 H    0.996 --    53 C    0.964
    70   1 H    0.998 --    55 C    0.972
    71   1 H    0.998 --    56 C    0.972
    72   1 H    0.996 --    59 C    0.964
    73   6 C    3.883 --    74 C    2.442     5 C    1.188    76 C    0.193
    74   6 C    3.927 --    73 C    2.442    75 C    1.333
    75   6 C    3.918 --    76 C    2.356    74 C    1.333    78 C    0.193
    76   6 C    3.920 --    75 C    2.356    77 C    1.334    73 C    0.193
    77   6 C    3.924 --    78 C    2.439    76 C    1.334
    78   6 C    3.884 --    77 C    2.439   113 C    1.191    75 C    0.193
    79   6 C    3.882 --    80 C    2.437   125 C    1.191    82 C    0.192
    80   6 C    3.924 --    79 C    2.437    81 C    1.336
    81   6 C    3.918 --    82 C    2.352    80 C    1.336    84 C    0.192
    82   6 C    3.918 --    81 C    2.352    83 C    1.336    79 C    0.192
    83   6 C    3.924 --    84 C    2.437    82 C    1.336
    84   6 C    3.882 --    83 C    2.437   148 C    1.192    81 C    0.192
    85   6 C    3.882 --    86 C    2.437   160 C    1.192    88 C    0.192
    86   6 C    3.924 --    85 C    2.437    87 C    1.336
    87   6 C    3.918 --    88 C    2.352    86 C    1.336    90 C    0.192
    88   6 C    3.918 --    87 C    2.352    89 C    1.336    85 C    0.192
    89   6 C    3.924 --    90 C    2.437    88 C    1.336
    90   6 C    3.882 --    89 C    2.437   183 C    1.192    87 C    0.192
    91   6 C    3.882 --    92 C    2.437   195 C    1.192    94 C    0.192
    92   6 C    3.924 --    91 C    2.437    93 C    1.336
    93   6 C    3.918 --    94 C    2.352    92 C    1.336    96 C    0.192
    94   6 C    3.918 --    93 C    2.352    95 C    1.336    91 C    0.192
    95   6 C    3.924 --    96 C    2.437    94 C    1.336
    96   6 C    3.882 --    95 C    2.437   218 C    1.192    93 C    0.192
    97   6 C    3.882 --    98 C    2.437   230 C    1.192   100 C    0.192
    98   6 C    3.924 --    97 C    2.437    99 C    1.336
    99   6 C    3.918 --   100 C    2.352    98 C    1.336   102 C    0.192
   100   6 C    3.918 --    99 C    2.352   101 C    1.336    97 C    0.192
   101   6 C    3.924 --   102 C    2.437   100 C    1.336
   102   6 C    3.882 --   101 C    2.437   253 C    1.191    99 C    0.192
   103   6 C    3.883 --   104 C    2.440   265 C    1.190   106 C    0.192
   104   6 C    3.924 --   103 C    2.440   105 C    1.333
   105   6 C    3.919 --   106 C    2.356   104 C    1.333   108 C    0.193
   106   6 C    3.918 --   105 C    2.356   107 C    1.332   103 C    0.192
   107   6 C    3.927 --   108 C    2.442   106 C    1.332
   108   6 C    3.883 --   107 C    2.442    41 C    1.187   105 C    0.193
   109  30 Zn   2.076 --   124 N    0.489   133 N    0.489   118 N    0.489
                           130 N    0.489
   110   6 C    3.954 --   111 C    1.648   132 C    1.173   134 H    0.972
   111   6 C    3.955 --   110 C    1.648   112 C    1.181   135 H    0.971
   112   6 C    3.911 --   133 N    1.288   113 C    1.248   111 C    1.181
   113   6 C    3.930 --   114 C    1.248   112 C    1.248    78 C    1.191
   114   6 C    3.911 --   118 N    1.288   113 C    1.248   115 C    1.181
   115   6 C    3.955 --   116 C    1.648   114 C    1.181   136 H    0.971
   116   6 C    3.954 --   115 C    1.648   117 C    1.173   137 H    0.972
   117   6 C    3.923 --   119 C    1.356   118 N    1.245   116 C    1.173
   118   7 N    3.460 --   114 C    1.288   117 C    1.245   109 Zn   0.489
   119   6 C    3.926 --   120 C    1.357   117 C    1.356   138 H    0.964
   120   6 C    3.923 --   119 C    1.357   124 N    1.244   121 C    1.173
   121   6 C    3.954 --   122 C    1.648   120 C    1.173   139 H    0.972
   122   6 C    3.955 --   121 C    1.648   123 C    1.181   140 H    0.971
   123   6 C    3.911 --   124 N    1.288   125 C    1.247   122 C    1.181
   124   7 N    3.460 --   123 C    1.288   120 C    1.244   109 Zn   0.489
   125   6 C    3.930 --   126 C    1.247   123 C    1.247    79 C    1.191
   126   6 C    3.911 --   130 N    1.288   125 C    1.247   127 C    1.181
   127   6 C    3.955 --   128 C    1.648   126 C    1.181   141 H    0.971
   128   6 C    3.954 --   127 C    1.648   129 C    1.173   142 H    0.972
   129   6 C    3.923 --   131 C    1.357   130 N    1.244   128 C    1.173
   130   7 N    3.460 --   126 C    1.288   129 C    1.244   109 Zn   0.489
   131   6 C    3.926 --   129 C    1.357   132 C    1.356   143 H    0.964
   132   6 C    3.923 --   131 C    1.356   133 N    1.245   110 C    1.173
   133   7 N    3.460 --   112 C    1.288   132 C    1.245   109 Zn   0.489
   134   1 H    0.998 --   110 C    0.972
   135   1 H    0.998 --   111 C    0.971
   136   1 H    0.998 --   115 C    0.971
   137   1 H    0.998 --   116 C    0.972
   138   1 H    0.996 --   119 C    0.964
   139   1 H    0.998 --   121 C    0.972
   140   1 H    0.998 --   122 C    0.971
   141   1 H    0.998 --   127 C    0.971
   142   1 H    0.998 --   128 C    0.972
   143   1 H    0.996 --   131 C    0.964
   144  30 Zn   2.076 --   159 N    0.489   165 N    0.489   153 N    0.489
                           168 N    0.489
   145   6 C    3.953 --   146 C    1.648   167 C    1.173   169 H    0.972
   146   6 C    3.955 --   145 C    1.648   147 C    1.181   170 H    0.971
   147   6 C    3.911 --   168 N    1.288   148 C    1.247   146 C    1.181
   148   6 C    3.930 --   147 C    1.247   149 C    1.247    84 C    1.192
   149   6 C    3.911 --   153 N    1.288   148 C    1.247   150 C    1.181
   150   6 C    3.955 --   151 C    1.648   149 C    1.181   171 H    0.971
   151   6 C    3.953 --   150 C    1.648   152 C    1.173   172 H    0.972
   152   6 C    3.922 --   154 C    1.356   153 N    1.244   151 C    1.173
   153   7 N    3.460 --   149 C    1.288   152 C    1.244   144 Zn   0.489
   154   6 C    3.925 --   155 C    1.357   152 C    1.356   173 H    0.964
   155   6 C    3.922 --   154 C    1.357   159 N    1.244   156 C    1.173
   156   6 C    3.953 --   157 C    1.648   155 C    1.173   174 H    0.972
   157   6 C    3.955 --   156 C    1.648   158 C    1.181   175 H    0.971
   158   6 C    3.911 --   159 N    1.288   160 C    1.247   157 C    1.181
   159   7 N    3.460 --   158 C    1.288   155 C    1.244   144 Zn   0.489
   160   6 C    3.930 --   161 C    1.247   158 C    1.247    85 C    1.192
   161   6 C    3.911 --   165 N    1.288   160 C    1.247   162 C    1.181
   162   6 C    3.955 --   163 C    1.648   161 C    1.181   176 H    0.971
   163   6 C    3.953 --   162 C    1.648   164 C    1.173   177 H    0.972
   164   6 C    3.922 --   166 C    1.357   165 N    1.244   163 C    1.173
   165   7 N    3.460 --   161 C    1.288   164 C    1.244   144 Zn   0.489
   166   6 C    3.925 --   164 C    1.357   167 C    1.356   178 H    0.964
   167   6 C    3.922 --   166 C    1.356   168 N    1.244   145 C    1.173
   168   7 N    3.460 --   147 C    1.288   167 C    1.244   144 Zn   0.489
   169   1 H    0.998 --   145 C    0.972
   170   1 H    0.998 --   146 C    0.971
   171   1 H    0.998 --   150 C    0.971
   172   1 H    0.998 --   151 C    0.972
   173   1 H    0.996 --   154 C    0.964
   174   1 H    0.998 --   156 C    0.972
   175   1 H    0.998 --   157 C    0.971
   176   1 H    0.998 --   162 C    0.971
   177   1 H    0.998 --   163 C    0.972
   178   1 H    0.996 --   166 C    0.964
   179  30 Zn   2.076 --   194 N    0.489   203 N    0.489   188 N    0.489
                           200 N    0.489
   180   6 C    3.953 --   181 C    1.648   202 C    1.173   204 H    0.972
   181   6 C    3.955 --   180 C    1.648   182 C    1.181   205 H    0.971
   182   6 C    3.911 --   203 N    1.288   183 C    1.247   181 C    1.181
   183   6 C    3.930 --   184 C    1.247   182 C    1.247    90 C    1.192
   184   6 C    3.911 --   188 N    1.288   183 C    1.247   185 C    1.181
   185   6 C    3.955 --   186 C    1.648   184 C    1.181   206 H    0.971
   186   6 C    3.953 --   185 C    1.648   187 C    1.173   207 H    0.972
   187   6 C    3.922 --   189 C    1.356   188 N    1.244   186 C    1.173
   188   7 N    3.460 --   184 C    1.288   187 C    1.244   179 Zn   0.489
   189   6 C    3.925 --   187 C    1.356   190 C    1.356   208 H    0.964
   190   6 C    3.922 --   189 C    1.356   194 N    1.244   191 C    1.173
   191   6 C    3.953 --   192 C    1.648   190 C    1.173   209 H    0.972
   192   6 C    3.955 --   191 C    1.648   193 C    1.181   210 H    0.971
   193   6 C    3.911 --   194 N    1.288   195 C    1.247   192 C    1.181
   194   7 N    3.460 --   193 C    1.288   190 C    1.244   179 Zn   0.489
   195   6 C    3.930 --   196 C    1.247   193 C    1.247    91 C    1.192
   196   6 C    3.911 --   200 N    1.288   195 C    1.247   197 C    1.181
   197   6 C    3.955 --   198 C    1.648   196 C    1.181   211 H    0.971
   198   6 C    3.953 --   197 C    1.648   199 C    1.173   212 H    0.972
   199   6 C    3.922 --   201 C    1.356   200 N    1.244   198 C    1.173
   200   7 N    3.460 --   196 C    1.288   199 C    1.244   179 Zn   0.489
   201   6 C    3.925 --   202 C    1.356   199 C    1.356   213 H    0.964
   202   6 C    3.922 --   201 C    1.356   203 N    1.244   180 C    1.173
   203   7 N    3.460 --   182 C    1.288   202 C    1.244   179 Zn   0.489
   204   1 H    0.998 --   180 C    0.972
   205   1 H    0.998 --   181 C    0.971
   206   1 H    0.998 --   185 C    0.971
   207   1 H    0.998 --   186 C    0.972
   208   1 H    0.996 --   189 C    0.964
   209   1 H    0.998 --   191 C    0.972
   210   1 H    0.998 --   192 C    0.971
   211   1 H    0.998 --   197 C    0.971
   212   1 H    0.998 --   198 C    0.972
   213   1 H    0.996 --   201 C    0.964
   214  30 Zn   2.076 --   229 N    0.489   223 N    0.489   238 N    0.489
                           235 N    0.489
   215   6 C    3.953 --   216 C    1.648   237 C    1.173   239 H    0.972
   216   6 C    3.955 --   215 C    1.648   217 C    1.181   240 H    0.971
   217   6 C    3.911 --   238 N    1.288   218 C    1.247   216 C    1.181
   218   6 C    3.930 --   217 C    1.247   219 C    1.247    96 C    1.192
   219   6 C    3.911 --   223 N    1.288   218 C    1.247   220 C    1.181
   220   6 C    3.955 --   221 C    1.648   219 C    1.181   241 H    0.971
   221   6 C    3.953 --   220 C    1.648   222 C    1.173   242 H    0.972
   222   6 C    3.922 --   224 C    1.357   223 N    1.244   221 C    1.173
   223   7 N    3.460 --   219 C    1.288   222 C    1.244   214 Zn   0.489
   224   6 C    3.925 --   222 C    1.357   225 C    1.356   243 H    0.964
   225   6 C    3.922 --   224 C    1.356   229 N    1.244   226 C    1.173
   226   6 C    3.953 --   227 C    1.648   225 C    1.173   244 H    0.972
   227   6 C    3.955 --   226 C    1.648   228 C    1.181   245 H    0.971
   228   6 C    3.911 --   229 N    1.288   230 C    1.247   227 C    1.181
   229   7 N    3.460 --   228 C    1.288   225 C    1.244   214 Zn   0.489
   230   6 C    3.930 --   228 C    1.247   231 C    1.247    97 C    1.192
   231   6 C    3.911 --   235 N    1.288   230 C    1.247   232 C    1.181
   232   6 C    3.955 --   233 C    1.648   231 C    1.181   246 H    0.971
   233   6 C    3.953 --   232 C    1.648   234 C    1.173   247 H    0.972
   234   6 C    3.922 --   236 C    1.356   235 N    1.244   233 C    1.173
   235   7 N    3.460 --   231 C    1.288   234 C    1.244   214 Zn   0.489
   236   6 C    3.925 --   237 C    1.357   234 C    1.356   248 H    0.964
   237   6 C    3.922 --   236 C    1.357   238 N    1.244   215 C    1.173
   238   7 N    3.460 --   217 C    1.288   237 C    1.244   214 Zn   0.489
   239   1 H    0.998 --   215 C    0.972
   240   1 H    0.998 --   216 C    0.971
   241   1 H    0.998 --   220 C    0.971
   242   1 H    0.998 --   221 C    0.972
   243   1 H    0.996 --   224 C    0.964
   244   1 H    0.998 --   226 C    0.972
   245   1 H    0.998 --   227 C    0.971
   246   1 H    0.998 --   232 C    0.971
   247   1 H    0.998 --   233 C    0.972
   248   1 H    0.996 --   236 C    0.964
   249  30 Zn   2.076 --   273 N    0.489   264 N    0.489   258 N    0.489
                           270 N    0.489
   250   6 C    3.954 --   251 C    1.648   272 C    1.173   274 H    0.972
   251   6 C    3.955 --   250 C    1.648   252 C    1.181   275 H    0.971
   252   6 C    3.911 --   273 N    1.288   253 C    1.247   251 C    1.181
   253   6 C    3.930 --   254 C    1.248   252 C    1.247   102 C    1.191
   254   6 C    3.911 --   258 N    1.288   253 C    1.248   255 C    1.181
   255   6 C    3.955 --   256 C    1.648   254 C    1.181   276 H    0.971
   256   6 C    3.954 --   255 C    1.648   257 C    1.173   277 H    0.972
   257   6 C    3.923 --   259 C    1.357   258 N    1.244   256 C    1.173
   258   7 N    3.460 --   254 C    1.288   257 C    1.244   249 Zn   0.489
   259   6 C    3.926 --   257 C    1.357   260 C    1.356   278 H    0.964
   260   6 C    3.923 --   259 C    1.356   264 N    1.245   261 C    1.173
   261   6 C    3.954 --   262 C    1.648   260 C    1.173   279 H    0.972
   262   6 C    3.955 --   261 C    1.648   263 C    1.181   280 H    0.971
   263   6 C    3.911 --   264 N    1.287   265 C    1.248   262 C    1.181
   264   7 N    3.460 --   263 C    1.287   260 C    1.245   249 Zn   0.489
   265   6 C    3.930 --   266 C    1.248   263 C    1.248   103 C    1.190
   266   6 C    3.911 --   270 N    1.287   265 C    1.248   267 C    1.181
   267   6 C    3.955 --   268 C    1.648   266 C    1.181   281 H    0.971
   268   6 C    3.954 --   267 C    1.648   269 C    1.173   282 H    0.972
   269   6 C    3.923 --   271 C    1.356   270 N    1.245   268 C    1.173
   270   7 N    3.460 --   266 C    1.287   269 C    1.245   249 Zn   0.489
   271   6 C    3.926 --   272 C    1.357   269 C    1.356   283 H    0.964
   272   6 C    3.923 --   271 C    1.357   273 N    1.244   250 C    1.173
   273   7 N    3.460 --   252 C    1.288   272 C    1.244   249 Zn   0.489
   274   1 H    0.998 --   250 C    0.972
   275   1 H    0.998 --   251 C    0.971
   276   1 H    0.998 --   255 C    0.971
   277   1 H    0.998 --   256 C    0.972
   278   1 H    0.996 --   259 C    0.964
   279   1 H    0.998 --   261 C    0.972
   280   1 H    0.998 --   262 C    0.971
   281   1 H    0.998 --   267 C    0.971
   282   1 H    0.998 --   268 C    0.972
   283   1 H    0.996 --   271 C    0.964
 ---------------------------------------------------------------------------

Topologies differ in total number of bonds
Writing topology from bond orders to xtbtopo.mol

molecular dipole:
                 x           y           z       tot (Debye)
 q only:       -0.001      -0.001      -0.002
   full:       -0.001      -0.001      -0.004       0.011
molecular quadrupole (traceless):
                xx          xy          yy          xz          yz          zz
 q only:      152.109       0.706     -34.175      -0.373      -5.025    -117.934
  q+dip:      267.498       1.041     -27.304      -0.718     -12.601    -240.194
   full:      196.178       1.016     -40.130      -0.705      -6.936    -156.048


           -------------------------------------------------
          | TOTAL ENERGY             -499.041050008508 Eh   |
          | GRADIENT NORM               0.000701123139 Eh/α |
          | HOMO-LUMO GAP               0.863458747335 eV   |
           -------------------------------------------------

------------------------------------------------------------------------
 * finished run on 2021/11/21 at 21:22:10.598     
------------------------------------------------------------------------
 total:
 * wall-time:     0 d,  0 h,  0 min,  4.840 sec
 *  cpu-time:     0 d,  0 h,  0 min,  4.840 sec
 * ratio c/w:     1.000 speedup
 SCF:
 * wall-time:     0 d,  0 h,  0 min,  4.672 sec
 *  cpu-time:     0 d,  0 h,  0 min,  4.672 sec
 * ratio c/w:     1.000 speedup

