      -----------------------------------------------------------      
     |                   =====================                   |     
     |                           x T B                           |     
     |                   =====================                   |     
     |                         S. Grimme                         |     
     |          Mulliken Center for Theoretical Chemistry        |     
     |                    University of Bonn                     |     
      -----------------------------------------------------------      

   * xtb version 6.4.1 (bd6e46d) compiled by 'conda@4901f00b25ba' on 2021-06-10

   xtb is free software: you can redistribute it and/or modify it under
   the terms of the GNU Lesser General Public License as published by
   the Free Software Foundation, either version 3 of the License, or
   (at your option) any later version.
   
   xtb is distributed in the hope that it will be useful,
   but WITHOUT ANY WARRANTY; without even the implied warranty of
   MERCHANTABILITY or FITNESS FOR A PARTICULAR PURPOSE.  See the
   GNU Lesser General Public License for more details.
   
   Cite this work as:
   * C. Bannwarth, E. Caldeweyher, S. Ehlert, A. Hansen, P. Pracht,
     J. Seibert, S. Spicher, S. Grimme, WIREs Comput. Mol. Sci., 2020, 11,
     e01493. DOI: 10.1002/wcms.1493
   
   for GFN2-xTB:
   * C. Bannwarth, S. Ehlert and S. Grimme., J. Chem. Theory Comput., 2019,
     15, 1652-1671. DOI: 10.1021/acs.jctc.8b01176
   for GFN1-xTB:
   * S. Grimme, C. Bannwarth, P. Shushkov, J. Chem. Theory Comput., 2017,
     13, 1989-2009. DOI: 10.1021/acs.jctc.7b00118
   for GFN0-xTB:
   * P. Pracht, E. Caldeweyher, S. Ehlert, S. Grimme, ChemRxiv, 2019, preprint.
     DOI: 10.26434/chemrxiv.8326202.v1
   for GFN-FF:
   * S. Spicher and S. Grimme, Angew. Chem. Int. Ed., 2020, 59, 15665-15673.
     DOI: 10.1002/anie.202004239
   
   for DFT-D4:
   * E. Caldeweyher, C. Bannwarth and S. Grimme, J. Chem. Phys., 2017,
     147, 034112. DOI: 10.1063/1.4993215
   * E. Caldeweyher, S. Ehlert, A. Hansen, H. Neugebauer, S. Spicher,
     C. Bannwarth and S. Grimme, J. Chem. Phys., 2019, 150, 154122.
     DOI: 10.1063/1.5090222
   * E. Caldeweyher, J.-M. Mewes, S. Ehlert and S. Grimme, Phys. Chem. Chem. Phys.
     2020, 22, 8499-8512. DOI: 10.1039/D0CP00502A
   
   for sTDA-xTB:
   * S. Grimme and C. Bannwarth, J. Chem. Phys., 2016, 145, 054103.
     DOI: 10.1063/1.4959605
   
   in the mass-spec context:
   * V. Asgeirsson, C. Bauer and S. Grimme, Chem. Sci., 2017, 8, 4879.
     DOI: 10.1039/c7sc00601b
   * J. Koopman and S. Grimme, ACS Omega 2019, 4, 12, 15120-15133.
     DOI: 10.1021/acsomega.9b02011
   
   for metadynamics refer to:
   * S. Grimme, J. Chem. Theory Comput., 2019, 155, 2847-2862
     DOI: 10.1021/acs.jctc.9b00143
   
   for SPH calculations refer to:
   * S. Spicher and S. Grimme, J. Chem. Theory Comput., 2021, 17, 1701-1714
     DOI: 10.1021/acs.jctc.0c01306
   
   with help from (in alphabetical order)
   P. Atkinson, C. Bannwarth, F. Bohle, G. Brandenburg, E. Caldeweyher
   M. Checinski, S. Dohm, S. Ehlert, S. Ehrlich, I. Gerasimov, J. Koopman
   C. Lavigne, S. Lehtola, F. März, M. Müller, F. Musil, H. Neugebauer
   J. Pisarek, C. Plett, P. Pracht, J. Seibert, P. Shushkov, S. Spicher
   M. Stahn, M. Steiner, T. Strunk, J. Stückrath, T. Rose, and J. Unsleber
   
 * started run on 2021/11/19 at 11:04:57.474     

           -------------------------------------------------
          |                Calculation Setup                |
           -------------------------------------------------

          program call               : /home/jeff/miniconda3/bin/xtb input_structure_1.xyz --gfn 2 --ohess normal --parallel 1 --etemp 300 --chrg 0 --uhf 0 -I det_control.in
          hostname                   : jelfscompute1
          coordinate file            : input_structure_1.xyz
          omp threads                :                     1
          number of atoms            :                   111
          number of electrons        :                   375
          charge                     :                     0
          spin                       :                   0.5
          first test random number   :      0.65844579263301

   ID    Z sym.   atoms
    1   27 Co     1, 37, 77
    2    6 C      2-9, 11-15, 17-21, 23, 24, 38-45, 47-51, 53-57, 59, 60,
                  73-76, 78-85, 87-91, 93-97, 99, 100
    3    7 N      10, 16, 22, 25, 46, 52, 58, 61, 86, 92, 98, 101
    4    1 H      26-36, 62-72, 102-111

molecular fragmentation (1/2 indicates fragments):
111111111111111111111111111111111111222222222222222222222222222222222222
222222222222222222222222222222222222222
# atoms in fragment 1/2:    36    75
 fragment masses (1/2) :      366.26      779.56
CMA distance (Bohr)    :  33.576
constraining FC (au)   :  0.0500

           -------------------------------------------------
          |                 G F N 2 - x T B                 |
           -------------------------------------------------

        Reference                      10.1021/acs.jctc.8b01176
      * Hamiltonian:
        H0-scaling (s, p, d)           1.850000    2.230000    2.230000
        zeta-weighting                 0.500000
      * Dispersion:
        s8                             2.700000
        a1                             0.520000
        a2                             5.000000
        s9                             5.000000
      * Repulsion:
        kExp                           1.500000    1.000000
        rExp                           1.000000
      * Coulomb:
        alpha                          2.000000
        third order                    shell-resolved
        anisotropic                    true
        a3                             3.000000
        a5                             4.000000
        cn-shift                       1.200000
        cn-exp                         4.000000
        max-rad                        5.000000


          ...................................................
          :                      SETUP                      :
          :.................................................:
          :  # basis functions                 366          :
          :  # atomic orbitals                 363          :
          :  # shells                          193          :
          :  # electrons                       375          :
          :  max. iterations                   250          :
          :  Hamiltonian                  GFN2-xTB          :
          :  restarted?                      false          :
          :  GBSA solvation                  false          :
          :  PC potential                    false          :
          :  electronic temp.          300.0000000     K    :
          :  accuracy                    1.0000000          :
          :  -> integral cutoff          0.2500000E+02      :
          :  -> integral neglect         0.1000000E-07      :
          :  -> SCF convergence          0.1000000E-05 Eh   :
          :  -> wf. convergence          0.1000000E-03 e    :
          :  Broyden damping             0.4000000          :
          ...................................................

 iter      E             dE          RMSdq      gap      omega  full diag
   1   -200.2702148 -0.200270E+03  0.856E+00    0.10       0.0  T
   2   -175.7857636  0.244845E+02  0.135E+01    1.34       1.0  T
   3   -192.5699904 -0.167842E+02  0.764E+00    0.05       1.0  T
   4   -188.7807746  0.378922E+01  0.753E+00    0.03       1.0  T
   5   -188.7711317  0.964298E-02  0.571E+00    0.08       1.0  T
   6   -175.1045138  0.136666E+02  0.793E+00    0.13       1.0  T
   7   -196.2107228 -0.211062E+02  0.556E+00    0.01       1.0  T
   8   -200.5849254 -0.437420E+01  0.394E+00    0.18       1.0  T
   9   -201.0558069 -0.470882E+00  0.338E+00    0.09       1.0  T
  10   -201.1581287 -0.102322E+00  0.320E+00    0.17       1.0  T
  11   -201.2368393 -0.787106E-01  0.315E+00    0.17       1.0  T
  12   -201.2775384 -0.406991E-01  0.308E+00    0.15       1.0  T
  13   -201.4964004 -0.218862E+00  0.254E+00    0.06       1.0  T
  14   -201.5758673 -0.794669E-01  0.220E+00    0.04       1.0  T
  15   -201.6240237 -0.481564E-01  0.200E+00    0.04       1.0  T
  16   -200.2458892  0.137813E+01  0.290E+00    0.04       1.0  T
  17   -199.3119159  0.933973E+00  0.316E+00    0.03       1.0  T
  18   -201.1896205 -0.187770E+01  0.204E+00    0.02       1.0  T
  19   -201.3259286 -0.136308E+00  0.195E+00    0.03       1.0  T
  20   -201.0158155  0.310113E+00  0.218E+00    0.02       1.0  T
  21   -201.7904348 -0.774619E+00  0.102E+00    0.03       1.0  T
  22   -201.9133093 -0.122874E+00  0.105E+00    0.03       1.0  T
  23   -201.8883893  0.249200E-01  0.103E+00    0.03       1.0  T
  24   -201.9160471 -0.276577E-01  0.111E+00    0.04       1.0  T
  25   -201.9460907 -0.300436E-01  0.938E-01    0.03       1.0  T
  26   -201.8746245  0.714661E-01  0.117E+00    0.03       1.0  T
  27   -201.9222762 -0.476517E-01  0.840E-01    0.04       1.0  T
  28   -201.9736568 -0.513805E-01  0.564E-01    0.02       1.0  T
  29   -201.9478617  0.257951E-01  0.730E-01    0.04       1.0  T
  30   -201.9169145  0.309472E-01  0.689E-01    0.02       1.0  T
  31   -201.7198227  0.197092E+00  0.124E+00    0.02       1.0  T
  32   -201.7128700  0.695273E-02  0.126E+00    0.02       1.0  T
  33   -201.7406567 -0.277867E-01  0.120E+00    0.02       1.0  T
  34   -201.9942335 -0.253577E+00  0.318E-01    0.01       1.0  T
  35   -202.0051229 -0.108893E-01  0.233E-01    0.01       1.0  T
  36   -202.0088348 -0.371196E-02  0.209E-01    0.02       1.0  T
  37   -201.9905571  0.182777E-01  0.372E-01    0.01       1.0  T
  38   -201.9219775  0.685795E-01  0.720E-01    0.01       1.0  T
  39   -201.9908429 -0.688654E-01  0.371E-01    0.01       1.0  T
  40   -202.0068150 -0.159721E-01  0.220E-01    0.01       1.0  T
  41   -202.0061473  0.667773E-03  0.229E-01    0.01       1.0  T
  42   -202.0003119  0.583533E-02  0.296E-01    0.01       1.0  T
  43   -202.0122324 -0.119205E-01  0.139E-01    0.02       1.0  T
  44   -202.0135703 -0.133784E-02  0.108E-01    0.02       1.0  T
  45   -202.0147830 -0.121275E-02  0.650E-02    0.02       1.0  T
  46   -202.0147079  0.751617E-04  0.685E-02    0.02       1.0  T
  47   -202.0153972 -0.689293E-03  0.275E-02    0.02       1.0  T
  48   -202.0154064 -0.924006E-05  0.283E-02    0.02       1.0  T
  49   -202.0153837  0.227265E-04  0.297E-02    0.02       1.0  T
  50   -202.0152071  0.176587E-03  0.434E-02    0.02       1.0  T
  51   -202.0154476 -0.240531E-03  0.228E-02    0.02       1.0  T
  52   -202.0155211 -0.734859E-04  0.101E-02    0.02       1.0  T
  53   -202.0155287 -0.756105E-05  0.762E-03    0.02       1.2  T
  54   -202.0155364 -0.775838E-05  0.366E-03    0.02       2.6  T
  55   -202.0155379 -0.145696E-05  0.216E-03    0.02       4.4  T
  56   -202.0155382 -0.309102E-06  0.159E-03    0.02       6.0  T
  57   -202.0155380  0.139560E-06  0.181E-03    0.02       5.3  T
  58   -202.0155382 -0.158090E-06  0.150E-03    0.02       6.3  T
  59   -202.0155383 -0.140754E-06  0.116E-03    0.02       8.2  T
  60   -202.0155385 -0.162103E-06  0.628E-04    0.02      15.1  T
  61   -202.0155385 -0.360550E-07  0.405E-04    0.02      23.4  T

   *** convergence criteria satisfied after 61 iterations ***

         #    Occupation            Energy/Eh            Energy/eV
      -------------------------------------------------------------
         1        2.0000           -0.6803281             -18.5127
       ...           ...                  ...                  ...
       182        1.8926           -0.3444468              -9.3729
       183        1.8682           -0.3442378              -9.3672
       184        1.7520           -0.3435661              -9.3489
       185        1.7477           -0.3435468              -9.3484
       186        1.6629           -0.3432169              -9.3394
       187        1.5627           -0.3429013              -9.3308
       188        1.5301           -0.3428098              -9.3283 (HOMO)
       189        1.1628           -0.3419652              -9.3053 (LUMO)
       190        0.0000           -0.3270700              -8.9000
       191        0.0000           -0.3262840              -8.8786
       192                         -0.3147214              -8.5640
       193                         -0.3144417              -8.5564
       ...                                ...                  ...
       363                          1.2713388              34.5949
      -------------------------------------------------------------
                  HL-Gap            0.0008446 Eh            0.0230 eV
             Fermi-level           -0.3416371 Eh           -9.2964 eV

 SCC (total)                   0 d,  0 h,  0 min,  1.811 sec
 SCC setup                      ...        0 min,  0.002 sec (  0.125%)
 Dispersion                     ...        0 min,  0.005 sec (  0.258%)
 classical contributions        ...        0 min,  0.001 sec (  0.041%)
 integral evaluation            ...        0 min,  0.044 sec (  2.453%)
 iterations                     ...        0 min,  1.614 sec ( 89.122%)
 molecular gradient             ...        0 min,  0.142 sec (  7.842%)
 printout                       ...        0 min,  0.003 sec (  0.159%)

         :::::::::::::::::::::::::::::::::::::::::::::::::::::
         ::                     SUMMARY                     ::
         :::::::::::::::::::::::::::::::::::::::::::::::::::::
         :: total energy            -198.598932912408 Eh    ::
         :: gradient norm              0.619694956087 Eh/a0 ::
         :: HOMO-LUMO gap              0.022983943682 eV    ::
         ::.................................................::
         :: SCC energy              -202.015538544750 Eh    ::
         :: -> isotropic ES            0.076560132600 Eh    ::
         :: -> anisotropic ES          0.023974050209 Eh    ::
         :: -> anisotropic XC          0.125916845344 Eh    ::
         :: -> dispersion             -0.169227197973 Eh    ::
         :: repulsion energy           3.415830166332 Eh    ::
         :: add. restraining           0.000000000000 Eh    ::
         :: total charge               0.000000000001 e     ::
         :::::::::::::::::::::::::::::::::::::::::::::::::::::

      ----------------------------------------------------------- 
     |                   =====================                   |
     |                        A N C O P T                        |
     |                   =====================                   |
     |               Approximate Normal Coordinate               |
     |                Rational Function Optimizer                |
      ----------------------------------------------------------- 

          ...................................................
          :                      SETUP                      :
          :.................................................:
          :   optimization level            normal          :
          :   max. optcycles                   333          :
          :   ANC micro-cycles                  20          :
          :   degrees of freedom               327          :
          :.................................................:
          :   RF solver                   davidson          :
          :   write xtbopt.log                true          :
          :   linear?                        false          :
          :   energy convergence         0.5000000E-05 Eh   :
          :   grad. convergence          0.1000000E-02 Eh/α :
          :   maximium RF displ.         1.0000000          :
          :   Hlow (freq-cutoff)         0.1000000E-01      :
          :   Hmax (freq-cutoff)         5.0000000          :
          :   S6 in model hess.         20.0000000          :
          ...................................................

generating ANC from model Hessian ...
Using Lindh-Hessian (1995)
 Shifting diagonal of input Hessian by    1.0027402895831258E-002
 Lowest  eigenvalues of input Hessian
    0.010000    0.010007    0.010008    0.010014    0.010018    0.010021
    0.000000    0.000000    0.000000    0.000000    0.000000    0.000000
    0.010035    0.010041    0.010088    0.010103    0.010163    0.010248
 Highest eigenvalues
    2.188935    2.188935    2.203902    2.203904    2.393223    2.512586


........................................................................
.............................. CYCLE    1 ..............................
........................................................................
   1   -202.0155386 -0.202016E+03  0.273E-04    0.02       0.0  T
   2   -202.0154598  0.788011E-04  0.216E-02    0.02       1.0  T
   3   -202.0155377 -0.779512E-04  0.225E-03    0.02       4.2  T
   4   -202.0155216  0.161415E-04  0.983E-03    0.02       1.0  T
   5   -202.0155385 -0.169504E-04  0.541E-04    0.02      17.5  T
   6   -202.0155385  0.432726E-07  0.743E-04    0.02      12.8  T
   7   -202.0155385  0.133201E-07  0.761E-04    0.02      12.5  T
     SCC iter.                  ...        0 min,  0.184 sec
     gradient                   ...        0 min,  0.141 sec
 * total energy  :  -198.5989328 Eh     change        0.8595973E-07 Eh
   gradient norm :     0.6196953 Eh/α   predicted     0.0000000E+00 (-100.00%)
   displ. norm   :     0.5795326 α      lambda       -0.2614524E+00
   maximum displ.:     0.2159741 α      in ANC's #111, #130, #112, ...

........................................................................
.............................. CYCLE    2 ..............................
........................................................................
   1   -202.0089574 -0.202009E+03  0.432E-01    0.02       0.0  T
   2   -201.1644812  0.844476E+00  0.225E+00    0.02       1.0  T
   3   -201.2554597 -0.909785E-01  0.211E+00    0.02       1.0  T
   4   -201.1863183  0.691413E-01  0.223E+00    0.02       1.0  T
   5   -201.9206963 -0.734378E+00  0.755E-01    0.01       1.0  T
   6   -201.6861050  0.234591E+00  0.137E+00    0.02       1.0  T
   7   -201.5502300  0.135875E+00  0.164E+00    0.02       1.0  T
   8   -201.9630902 -0.412860E+00  0.588E-01    0.01       1.0  T
   9   -201.7902767  0.172814E+00  0.118E+00    0.03       1.0  T
  10   -201.9491903 -0.158914E+00  0.661E-01    0.03       1.0  T
  11   -201.9525095 -0.331925E-02  0.644E-01    0.03       1.0  T
  12   -201.9537620 -0.125245E-02  0.638E-01    0.03       1.0  T
  13   -202.0058662 -0.521042E-01  0.310E-01    0.01       1.0  T
  14   -202.0171579 -0.112917E-01  0.174E-01    0.02       1.0  T
  15   -202.0166911  0.466777E-03  0.182E-01    0.02       1.0  T
  16   -202.0038061  0.128850E-01  0.329E-01    0.01       1.0  T
  17   -202.0174084 -0.136023E-01  0.160E-01    0.02       1.0  T
  18   -202.0172158  0.192629E-03  0.161E-01    0.02       1.0  T
  19   -202.0185825 -0.136674E-02  0.135E-01    0.02       1.0  T
  20   -202.0209810 -0.239845E-02  0.711E-02    0.02       1.0  T
  21   -202.0214949 -0.513904E-03  0.469E-02    0.02       1.0  T
  22   -202.0218527 -0.357825E-03  0.135E-02    0.02       1.0  T
  23   -202.0218832 -0.304846E-04  0.138E-03    0.02       6.9  T
  24   -202.0218816  0.156665E-05  0.320E-03    0.02       3.0  T
  25   -202.0218817 -0.226333E-07  0.306E-03    0.02       3.1  T
  26   -202.0218831 -0.148101E-05  0.104E-03    0.02       9.1  T
  27   -202.0218833 -0.154533E-06  0.410E-04    0.02      23.2  T
  28   -202.0218833 -0.270911E-07  0.112E-04    0.02      85.0  T
     SCC iter.                  ...        0 min,  0.729 sec
     gradient                   ...        0 min,  0.141 sec
 * total energy  :  -198.8066500 Eh     change       -0.2077172E+00 Eh
   gradient norm :     0.3343468 Eh/α   predicted    -0.1747320E+00 ( -15.88%)
   displ. norm   :     0.6870216 α      lambda       -0.1706458E+00
   maximum displ.:     0.2801427 α      in ANC's #111, #130, #112, ...

........................................................................
.............................. CYCLE    3 ..............................
........................................................................
   1   -202.0607619 -0.202061E+03  0.469E-01    0.01       0.0  T
   2   -201.2692652  0.791497E+00  0.219E+00    0.02       1.0  T
   3   -200.9287439  0.340521E+00  0.256E+00    0.02       1.0  T
   4   -201.2829999 -0.354256E+00  0.215E+00    0.02       1.0  T
   5   -201.3953640 -0.112364E+00  0.194E+00    0.02       1.0  T
   6   -201.4305392 -0.351752E-01  0.190E+00    0.01       1.0  T
   7   -201.3630128  0.675264E-01  0.203E+00    0.02       1.0  T
   8   -201.6601651 -0.297152E+00  0.156E+00    0.02       1.0  T
   9   -202.0234692 -0.363304E+00  0.573E-01    0.01       1.0  T
  10   -202.0703980 -0.469288E-01  0.223E-01    0.01       1.0  T
  11   -202.0712847 -0.886736E-03  0.211E-01    0.01       1.0  T
  12   -202.0730295 -0.174477E-02  0.193E-01    0.02       1.0  T
  13   -202.0678850  0.514447E-02  0.211E-01    0.01       1.0  T
  14   -202.0752291 -0.734405E-02  0.398E-02    0.02       1.0  T
  15   -202.0746215  0.607579E-03  0.706E-02    0.02       1.0  T
  16   -202.0735886  0.103293E-02  0.104E-01    0.01       1.0  T
  17   -202.0724544  0.113419E-02  0.129E-01    0.01       1.0  T
  18   -202.0747961 -0.234171E-02  0.612E-02    0.02       1.0  T
  19   -202.0749563 -0.160165E-03  0.545E-02    0.02       1.0  T
  20   -202.0752438 -0.287579E-03  0.364E-02    0.02       1.0  T
  21   -202.0754693 -0.225421E-03  0.976E-03    0.02       1.0  T
  22   -202.0754803 -0.109990E-04  0.603E-03    0.02       1.6  T
  23   -202.0754832 -0.294464E-05  0.426E-03    0.02       2.2  T
  24   -202.0754864 -0.315421E-05  0.901E-04    0.02      10.5  T
  25   -202.0754859  0.440058E-06  0.187E-03    0.02       5.1  T
  26   -202.0754864 -0.443572E-06  0.935E-04    0.02      10.2  T
  27   -202.0754865 -0.125330E-06  0.343E-04    0.02      27.6  T
     SCC iter.                  ...        0 min,  0.704 sec
     gradient                   ...        0 min,  0.141 sec
 * total energy  :  -198.9369340 Eh     change       -0.1302840E+00 Eh
   gradient norm :     0.1416627 Eh/α   predicted    -0.1255952E+00 (  -3.60%)
   displ. norm   :     0.7604491 α      lambda       -0.9292302E-01
   maximum displ.:     0.2938094 α      in ANC's #111, #57, #83, ...

........................................................................
.............................. CYCLE    4 ..............................
........................................................................
   1   -202.1406947 -0.202141E+03  0.410E-01    0.01       0.0  T
   2   -201.7677521  0.372943E+00  0.154E+00    0.01       1.0  T
   3   -201.4488033  0.318949E+00  0.200E+00    0.01       1.0  T
   4   -200.7679744  0.680829E+00  0.280E+00    0.02       1.0  T
   5   -201.6990281 -0.931054E+00  0.160E+00    0.02       1.0  T
   6   -201.2063914  0.492637E+00  0.226E+00    0.02       1.0  T
   7   -201.6186185 -0.412227E+00  0.173E+00    0.01       1.0  T
   8   -201.6845873 -0.659688E-01  0.157E+00    0.01       1.0  T
   9   -201.8492419 -0.164655E+00  0.126E+00    0.01       1.0  T
  10   -201.9696126 -0.120371E+00  0.974E-01    0.01       1.0  T
  11   -202.1090477 -0.139435E+00  0.456E-01    0.01       1.0  T
  12   -202.1378382 -0.287905E-01  0.230E-01    0.01       1.0  T
  13   -202.1169256  0.209126E-01  0.405E-01    0.01       1.0  T
  14   -202.1387405 -0.218149E-01  0.220E-01    0.01       1.0  T
  15   -202.1441970 -0.545655E-02  0.136E-01    0.01       1.0  T
  16   -202.1463004 -0.210338E-02  0.793E-02    0.01       1.0  T
  17   -202.1423572  0.394317E-02  0.169E-01    0.01       1.0  T
  18   -202.1419212  0.436046E-03  0.171E-01    0.01       1.0  T
  19   -202.1443106 -0.238942E-02  0.131E-01    0.01       1.0  T
  20   -202.1397759  0.453466E-02  0.206E-01    0.01       1.0  T
  21   -202.1451889 -0.541297E-02  0.107E-01    0.01       1.0  T
  22   -202.1466327 -0.144374E-02  0.562E-02    0.01       1.0  T
  23   -202.1469169 -0.284289E-03  0.386E-02    0.01       1.0  T
  24   -202.1470382 -0.121278E-03  0.285E-02    0.01       1.0  T
  25   -202.1471479 -0.109666E-03  0.131E-02    0.01       1.0  T
  26   -202.1471612 -0.132874E-04  0.959E-03    0.01       1.0  T
  27   -202.1471692 -0.799396E-05  0.671E-03    0.01       1.4  T
  28   -202.1471755 -0.635880E-05  0.284E-03    0.01       3.3  T
  29   -202.1471766 -0.110919E-05  0.135E-03    0.01       7.0  T
  30   -202.1471769 -0.291472E-06  0.431E-04    0.01      22.0  T
  31   -202.1471770 -0.277833E-07  0.177E-04    0.01      53.7  T
     SCC iter.                  ...        0 min,  0.809 sec
     gradient                   ...        0 min,  0.141 sec
 * total energy  :  -199.0138942 Eh     change       -0.7696018E-01 Eh
   gradient norm :     0.0928206 Eh/α   predicted    -0.7332956E-01 (  -4.72%)
   displ. norm   :     0.8179965 α      lambda       -0.6722837E-01
   maximum displ.:     0.3054587 α      in ANC's #57, #111, #35, ...

........................................................................
.............................. CYCLE    5 ..............................
........................................................................
   1   -202.2064512 -0.202206E+03  0.417E-01    0.01       0.0  T
   2   -202.0353892  0.171062E+00  0.999E-01    0.00       1.0  T
   3   -201.0371923  0.998197E+00  0.261E+00    0.02       1.0  T
   4   -201.2573437 -0.220151E+00  0.230E+00    0.02       1.0  T
   5   -201.2578619 -0.518203E-03  0.226E+00    0.02       1.0  T
   6   -201.9154702 -0.657608E+00  0.125E+00    0.02       1.0  T
   7   -201.5896837  0.325786E+00  0.188E+00    0.01       1.0  T
   8   -201.9900730 -0.400389E+00  0.111E+00    0.00       1.0  T
   9   -202.1253905 -0.135317E+00  0.687E-01    0.01       1.0  T
  10   -202.1991351 -0.737446E-01  0.254E-01    0.01       1.0  T
  11   -202.1927622  0.637284E-02  0.311E-01    0.01       1.0  T
  12   -202.1883973  0.436498E-02  0.350E-01    0.01       1.0  T
  13   -202.2060795 -0.176822E-01  0.140E-01    0.01       1.0  T
  14   -202.1832668  0.228127E-01  0.369E-01    0.01       1.0  T
  15   -202.2083234 -0.250567E-01  0.665E-02    0.01       1.0  T
  16   -202.1949386  0.133849E-01  0.286E-01    0.01       1.0  T
  17   -202.1969140 -0.197540E-02  0.266E-01    0.00       1.0  T
  18   -202.2055047 -0.859072E-02  0.139E-01    0.01       1.0  T
  19   -202.2090272 -0.352250E-02  0.216E-02    0.01       1.0  T
  20   -202.2087803  0.246882E-03  0.420E-02    0.01       1.0  T
  21   -202.2088096 -0.293414E-04  0.401E-02    0.01       1.0  T
  22   -202.2090965 -0.286846E-03  0.770E-03    0.01       1.2  T
  23   -202.2091043 -0.783084E-05  0.402E-03    0.01       2.4  T
  24   -202.2091064 -0.211076E-05  0.199E-03    0.01       4.8  T
  25   -202.2091059  0.549383E-06  0.258E-03    0.01       3.7  T
  26   -202.2091059  0.585058E-08  0.256E-03    0.01       3.7  T
  27   -202.2091063 -0.379342E-06  0.207E-03    0.01       4.6  T
  28   -202.2091070 -0.718957E-06  0.599E-04    0.01      15.8  T
  29   -202.2091070 -0.661052E-07  0.517E-05    0.01     183.4  T
     SCC iter.                  ...        0 min,  0.756 sec
     gradient                   ...        0 min,  0.142 sec
 * total energy  :  -199.0724803 Eh     change       -0.5858607E-01 Eh
   gradient norm :     0.0835359 Eh/α   predicted    -0.5610687E-01 (  -4.23%)
   displ. norm   :     0.8563271 α      lambda       -0.5483268E-01
   maximum displ.:     0.3310763 α      in ANC's #57, #35, #33, ...

........................................................................
.............................. CYCLE    6 ..............................
........................................................................
   1   -202.2497884 -0.202250E+03  0.477E-01    0.01       0.0  T
   2   -201.2975578  0.952231E+00  0.239E+00    0.03       1.0  T
   3   -201.2854446  0.121132E-01  0.234E+00    0.02       1.0  T
   4   -201.1943015  0.911431E-01  0.248E+00    0.02       1.0  T
   5   -202.1322202 -0.937919E+00  0.864E-01    0.00       1.0  T
   6   -201.9989033  0.133317E+00  0.125E+00    0.00       1.0  T
   7   -202.1406233 -0.141720E+00  0.795E-01    0.01       1.0  T
   8   -202.1981423 -0.575190E-01  0.587E-01    0.01       1.0  T
   9   -202.2408537 -0.427114E-01  0.341E-01    0.01       1.0  T
  10   -202.2405254  0.328289E-03  0.338E-01    0.01       1.0  T
  11   -202.2337164  0.680898E-02  0.392E-01    0.01       1.0  T
  12   -202.2565753 -0.228588E-01  0.143E-01    0.01       1.0  T
  13   -202.2593471 -0.277184E-02  0.608E-02    0.01       1.0  T
  14   -202.2599735 -0.626418E-03  0.157E-02    0.01       1.0  T
  15   -202.2590058  0.967767E-03  0.755E-02    0.01       1.0  T
  16   -202.2596262 -0.620395E-03  0.458E-02    0.01       1.0  T
  17   -202.2599118 -0.285665E-03  0.227E-02    0.01       1.0  T
  18   -202.2599732 -0.614073E-04  0.130E-02    0.01       1.0  T
  19   -202.2599795 -0.630485E-05  0.117E-02    0.01       1.0  T
  20   -202.2599904 -0.109043E-04  0.881E-03    0.01       1.1  T
  21   -202.2600038 -0.133562E-04  0.229E-03    0.01       4.1  T
  22   -202.2600043 -0.537963E-06  0.153E-03    0.01       6.2  T
  23   -202.2600045 -0.198597E-06  0.115E-03    0.01       8.2  T
  24   -202.2600047 -0.176184E-06  0.634E-04    0.01      15.0  T
  25   -202.2600048 -0.664835E-07  0.229E-04    0.01      41.4  T
     SCC iter.                  ...        0 min,  0.652 sec
     gradient                   ...        0 min,  0.142 sec
 * total energy  :  -199.1219687 Eh     change       -0.4948842E-01 Eh
   gradient norm :     0.0713553 Eh/α   predicted    -0.4752063E-01 (  -3.98%)
   displ. norm   :     0.9023685 α      lambda       -0.4890314E-01
   maximum displ.:     0.3452563 α      in ANC's #35, #10, #33, ...

........................................................................
.............................. CYCLE    7 ..............................
........................................................................
   1   -202.2711012 -0.202271E+03  0.578E-01    0.00       0.0  T
   2   -198.3814141  0.388969E+01  0.478E+00    0.01       1.0  T
   3   -202.0349612 -0.365355E+01  0.126E+00    0.01       1.0  T
   4   -201.2421205  0.792841E+00  0.250E+00    0.04       1.0  T
   5   -201.6459429 -0.403822E+00  0.196E+00    0.03       1.0  T
   6   -201.4539787  0.191964E+00  0.215E+00    0.03       1.0  T
   7   -201.4127721  0.412066E-01  0.221E+00    0.03       1.0  T
   8   -202.0243918 -0.611620E+00  0.131E+00    0.03       1.0  T
   9   -202.0508528 -0.264610E-01  0.123E+00    0.03       1.0  T
  10   -201.9372124  0.113640E+00  0.148E+00    0.03       1.0  T
  11   -202.0061696 -0.689572E-01  0.133E+00    0.03       1.0  T
  12   -202.1019500 -0.957803E-01  0.110E+00    0.02       1.0  T
  13   -202.0453900  0.565599E-01  0.124E+00    0.02       1.0  T
  14   -202.0811750 -0.357850E-01  0.115E+00    0.02       1.0  T
  15   -202.1651438 -0.839688E-01  0.897E-01    0.02       1.0  T
  16   -202.1244246  0.407192E-01  0.972E-01    0.01       1.0  T
  17   -202.2025255 -0.781008E-01  0.725E-01    0.01       1.0  T
  18   -202.2423106 -0.397851E-01  0.557E-01    0.01       1.0  T
  19   -202.2377171  0.459348E-02  0.578E-01    0.01       1.0  T
  20   -201.8524634  0.385254E+00  0.157E+00    0.02       1.0  T
  21   -202.2784487 -0.425985E+00  0.354E-01    0.01       1.0  T
  22   -202.2338520  0.445967E-01  0.596E-01    0.02       1.0  T
  23   -202.1050278  0.128824E+00  0.103E+00    0.02       1.0  T
  24   -202.2555039 -0.150476E+00  0.492E-01    0.01       1.0  T
  25   -202.2954485 -0.399446E-01  0.130E-01    0.01       1.0  T
  26   -202.2895434  0.590516E-02  0.228E-01    0.02       1.0  T
  27   -202.2897930 -0.249631E-03  0.232E-01    0.02       1.0  T
  28   -202.2920836 -0.229055E-02  0.188E-01    0.01       1.0  T
  29   -202.2908302  0.125341E-02  0.201E-01    0.01       1.0  T
  30   -202.2957997 -0.496956E-02  0.117E-01    0.01       1.0  T
  31   -202.2974834 -0.168366E-02  0.718E-02    0.01       1.0  T
  32   -202.2971953  0.288048E-03  0.776E-02    0.01       1.0  T
  33   -202.2970537  0.141655E-03  0.803E-02    0.01       1.0  T
  34   -202.2977666 -0.712949E-03  0.508E-02    0.01       1.0  T
  35   -202.2981683 -0.401658E-03  0.204E-02    0.01       1.0  T
  36   -202.2981979 -0.295798E-04  0.159E-02    0.01       1.0  T
  37   -202.2982097 -0.118124E-04  0.138E-02    0.01       1.0  T
  38   -202.2982392 -0.295142E-04  0.570E-03    0.01       1.7  T
  39   -202.2982446 -0.543104E-05  0.113E-03    0.01       8.4  T
  40   -202.2982447 -0.123021E-06  0.696E-04    0.01      13.6  T
  41   -202.2982448 -0.685293E-07  0.227E-04    0.01      41.8  T
     SCC iter.                  ...        0 min,  1.070 sec
     gradient                   ...        0 min,  0.142 sec
 * total energy  :  -199.1685031 Eh     change       -0.4653440E-01 Eh
   gradient norm :     0.0640653 Eh/α   predicted    -0.4436173E-01 (  -4.67%)
   displ. norm   :     0.9534752 α      lambda       -0.4959140E-01
   maximum displ.:     0.3993353 α      in ANC's #10, #35, #33, ...

........................................................................
.............................. CYCLE    8 ..............................
........................................................................
   1   -202.2918900 -0.202292E+03  0.627E-01    0.00       0.0  T
   2   -197.4936018  0.479829E+01  0.526E+00    0.03       1.0  T
   3   -201.4689979 -0.397540E+01  0.230E+00    0.04       1.0  T
   4   -201.3820658  0.869322E-01  0.235E+00    0.05       1.0  T
   5   -201.3826534 -0.587613E-03  0.236E+00    0.06       1.0  T
   6   -201.9192613 -0.536608E+00  0.154E+00    0.05       1.0  T
   7   -202.1384909 -0.219230E+00  0.106E+00    0.03       1.0  T
   8   -202.2407898 -0.102299E+00  0.694E-01    0.01       1.0  T
   9   -202.3003401 -0.595503E-01  0.403E-01    0.02       1.0  T
  10   -202.3126633 -0.123232E-01  0.280E-01    0.00       1.0  T
  11   -202.3001155  0.125479E-01  0.394E-01    0.02       1.0  T
  12   -202.3111362 -0.110207E-01  0.309E-01    0.02       1.0  T
  13   -202.3144425 -0.330630E-02  0.270E-01    0.02       1.0  T
  14   -202.3190088 -0.456634E-02  0.203E-01    0.02       1.0  T
  15   -202.3220885 -0.307964E-02  0.140E-01    0.01       1.0  T
  16   -202.3233311 -0.124263E-02  0.108E-01    0.01       1.0  T
  17   -202.3234188 -0.877363E-04  0.104E-01    0.01       1.0  T
  18   -202.3244095 -0.990616E-03  0.641E-02    0.01       1.0  T
  19   -202.3250581 -0.648664E-03  0.638E-03    0.01       1.5  T
  20   -202.3250615 -0.333681E-05  0.362E-03    0.01       2.6  T
  21   -202.3250378  0.236529E-04  0.129E-02    0.01       1.0  T
  22   -202.3250577 -0.198709E-04  0.585E-03    0.01       1.6  T
  23   -202.3250619 -0.420163E-05  0.261E-03    0.01       3.6  T
  24   -202.3250629 -0.101775E-05  0.244E-04    0.01      38.9  T
  25   -202.3250628  0.961384E-07  0.824E-04    0.01      11.5  T
  26   -202.3250629 -0.755159E-07  0.426E-04    0.01      22.3  T
     SCC iter.                  ...        0 min,  0.678 sec
     gradient                   ...        0 min,  0.143 sec
 * total energy  :  -199.2169121 Eh     change       -0.4840905E-01 Eh
   gradient norm :     0.0649592 Eh/α   predicted    -0.4733785E-01 (  -2.21%)
   displ. norm   :     0.9586159 α      lambda       -0.5071182E-01
   maximum displ.:     0.4325866 α      in ANC's #10, #35, #33, ...

........................................................................
.............................. CYCLE    9 ..............................
........................................................................
   1   -202.3219612 -0.202322E+03  0.580E-01    0.00       0.0  T
   2   -200.6585075  0.166345E+01  0.330E+00    0.09       1.0  T
   3   -201.7613075 -0.110280E+01  0.193E+00    0.06       1.0  T
   4   -201.5576321  0.203675E+00  0.218E+00    0.07       1.0  T
   5   -201.4111523  0.146480E+00  0.237E+00    0.07       1.0  T
   6   -202.1084819 -0.697330E+00  0.127E+00    0.01       1.0  T
   7   -202.1339565 -0.254746E-01  0.119E+00    0.00       1.0  T
   8   -202.2600834 -0.126127E+00  0.762E-01    0.00       1.0  T
   9   -202.3453378 -0.852543E-01  0.179E-01    0.00       1.0  T
  10   -202.3482972 -0.295948E-02  0.114E-01    0.01       1.0  T
  11   -202.2876474  0.606499E-01  0.629E-01    0.04       1.0  T
  12   -202.1674917  0.120156E+00  0.108E+00    0.07       1.0  T
  13   -202.2805311 -0.113039E+00  0.661E-01    0.04       1.0  T
  14   -202.3450127 -0.644815E-01  0.158E-01    0.02       1.0  T
  15   -202.3435244  0.148828E-02  0.185E-01    0.02       1.0  T
  16   -202.3458602 -0.233586E-02  0.139E-01    0.02       1.0  T
  17   -202.3467795 -0.919277E-03  0.116E-01    0.01       1.0  T
  18   -202.3485157 -0.173620E-02  0.489E-02    0.01       1.0  T
  19   -202.3488705 -0.354800E-03  0.115E-02    0.01       1.0  T
  20   -202.3488802 -0.968437E-05  0.856E-03    0.01       1.1  T
  21   -202.3488781  0.212198E-05  0.937E-03    0.01       1.0  T
  22   -202.3488898 -0.116776E-04  0.359E-03    0.01       2.6  T
  23   -202.3488884  0.136031E-05  0.465E-03    0.01       2.0  T
  24   -202.3488873  0.109331E-05  0.534E-03    0.01       1.8  T
  25   -202.3488909 -0.363518E-05  0.221E-03    0.01       4.3  T
  26   -202.3488917 -0.732727E-06  0.267E-04    0.01      35.5  T
  27   -202.3488917 -0.104522E-07  0.387E-05    0.01     245.3  T
     SCC iter.                  ...        0 min,  0.703 sec
     gradient                   ...        0 min,  0.143 sec
 * total energy  :  -199.2644348 Eh     change       -0.4752266E-01 Eh
   gradient norm :     0.0670511 Eh/α   predicted    -0.4865660E-01 (   2.39%)
   displ. norm   :     0.9068668 α      lambda       -0.4302362E-01
   maximum displ.:     0.4878239 α      in ANC's #10, #35, #33, ...

........................................................................
.............................. CYCLE   10 ..............................
........................................................................
   1   -202.3533920 -0.202353E+03  0.433E-01    0.00       0.0  T
   2   -201.2405418  0.111285E+01  0.269E+00    0.16       1.0  T
   3   -201.4426857 -0.202144E+00  0.234E+00    0.07       1.0  T
   4   -202.3654803 -0.922795E+00  0.180E-01    0.01       1.0  T
   5   -202.1493948  0.216085E+00  0.114E+00    0.05       1.0  T
   6   -202.2343984 -0.850037E-01  0.898E-01    0.03       1.0  T
   7   -202.1318825  0.102516E+00  0.123E+00    0.08       1.0  T
   8   -202.2648703 -0.132988E+00  0.802E-01    0.05       1.0  T
   9   -202.3487128 -0.838425E-01  0.337E-01    0.03       1.0  T
  10   -202.3516094 -0.289660E-02  0.309E-01    0.03       1.0  T
  11   -202.3590383 -0.742886E-02  0.220E-01    0.02       1.0  T
  12   -202.3653172 -0.627889E-02  0.922E-02    0.01       1.0  T
  13   -202.3660396 -0.722404E-03  0.622E-02    0.01       1.0  T
  14   -202.3666124 -0.572776E-03  0.121E-02    0.01       1.0  T
  15   -202.3665602  0.521525E-04  0.213E-02    0.01       1.0  T
  16   -202.3665053  0.549111E-04  0.285E-02    0.01       1.0  T
  17   -202.3666043 -0.990480E-04  0.138E-02    0.01       1.0  T
  18   -202.3666309 -0.265287E-04  0.399E-03    0.01       2.4  T
  19   -202.3666288  0.208493E-05  0.534E-03    0.01       1.8  T
  20   -202.3666323 -0.348304E-05  0.211E-03    0.01       4.5  T
  21   -202.3666326 -0.353081E-06  0.118E-03    0.01       8.0  T
  22   -202.3666328 -0.164844E-06  0.645E-04    0.01      14.7  T
  23   -202.3666328 -0.618221E-07  0.224E-04    0.01      42.4  T
     SCC iter.                  ...        0 min,  0.597 sec
     gradient                   ...        0 min,  0.143 sec
 * total energy  :  -199.2989421 Eh     change       -0.3450727E-01 Eh
   gradient norm :     0.0683869 Eh/α   predicted    -0.3920328E-01 (  13.61%)
   displ. norm   :     0.7718043 α      lambda       -0.3027371E-01
   maximum displ.:     0.5215299 α      in ANC's #10, #16, #33, ...

........................................................................
.............................. CYCLE   11 ..............................
........................................................................
   1   -202.3940704 -0.202394E+03  0.263E-01    0.00       0.0  T
   2   -201.5132574  0.880813E+00  0.237E+00    0.12       1.0  T
   3   -201.4828661  0.303913E-01  0.232E+00    0.07       1.0  T
   4   -202.0718805 -0.589014E+00  0.141E+00    0.05       1.0  T
   5   -202.2251764 -0.153296E+00  0.101E+00    0.01       1.0  T
   6   -202.2448260 -0.196496E-01  0.945E-01    0.02       1.0  T
   7   -202.3349014 -0.900754E-01  0.599E-01    0.01       1.0  T
   8   -202.3786394 -0.437381E-01  0.319E-01    0.02       1.0  T
   9   -202.3903457 -0.117063E-01  0.179E-01    0.01       1.0  T
  10   -202.3857503  0.459537E-02  0.243E-01    0.01       1.0  T
  11   -202.3920644 -0.631405E-02  0.149E-01    0.01       1.0  T
  12   -202.3954553 -0.339086E-02  0.408E-02    0.01       1.0  T
  13   -202.3956395 -0.184196E-03  0.214E-02    0.01       1.0  T
  14   -202.3956365  0.291988E-05  0.214E-02    0.01       1.0  T
  15   -202.3956198  0.167030E-04  0.236E-02    0.01       1.0  T
  16   -202.3956857 -0.658974E-04  0.127E-02    0.01       1.0  T
  17   -202.3957088 -0.231169E-04  0.469E-03    0.01       2.0  T
  18   -202.3957123 -0.345148E-05  0.104E-03    0.01       9.1  T
  19   -202.3957122  0.526832E-07  0.114E-03    0.01       8.3  T
  20   -202.3957124 -0.127942E-06  0.730E-04    0.01      13.0  T
  21   -202.3957124 -0.418988E-07  0.539E-04    0.01      17.6  T
     SCC iter.                  ...        0 min,  0.544 sec
     gradient                   ...        0 min,  0.143 sec
 * total energy  :  -199.3242076 Eh     change       -0.2526558E-01 Eh
   gradient norm :     0.0504805 Eh/α   predicted    -0.2415360E-01 (  -4.40%)
   displ. norm   :     0.8137336 α      lambda       -0.2793925E-01
   maximum displ.:     0.6264750 α      in ANC's #10, #16, #15, ...

........................................................................
.............................. CYCLE   12 ..............................
........................................................................
   1   -202.4590220 -0.202459E+03  0.314E-01    0.01       0.0  T
   2   -201.4782724  0.980750E+00  0.251E+00    0.15       1.0  T
   3   -201.4468457  0.314267E-01  0.245E+00    0.10       1.0  T
   4   -202.3053189 -0.858473E+00  0.987E-01    0.03       1.0  T
   5   -201.9705888  0.334730E+00  0.171E+00    0.07       1.0  T
   6   -202.2410699 -0.270481E+00  0.117E+00    0.06       1.0  T
   7   -202.4280441 -0.186974E+00  0.491E-01    0.02       1.0  T
   8   -202.4607720 -0.327279E-01  0.198E-01    0.02       1.0  T
   9   -202.4409648  0.198071E-01  0.393E-01    0.01       1.0  T
  10   -202.4537133 -0.127485E-01  0.283E-01    0.01       1.0  T
  11   -202.4592996 -0.558630E-02  0.218E-01    0.01       1.0  T
  12   -202.4644597 -0.516007E-02  0.129E-01    0.01       1.0  T
  13   -202.4658835 -0.142381E-02  0.913E-02    0.01       1.0  T
  14   -202.4670874 -0.120391E-02  0.322E-02    0.01       1.0  T
  15   -202.4672368 -0.149393E-03  0.108E-02    0.01       1.0  T
  16   -202.4672197  0.171003E-04  0.149E-02    0.01       1.0  T
  17   -202.4672293 -0.958642E-05  0.127E-02    0.01       1.0  T
  18   -202.4672349 -0.565359E-05  0.111E-02    0.01       1.0  T
  19   -202.4672523 -0.174055E-04  0.453E-03    0.01       2.1  T
  20   -202.4672543 -0.198392E-05  0.292E-03    0.01       3.3  T
  21   -202.4672553 -0.979684E-06  0.149E-03    0.01       6.4  T
  22   -202.4672556 -0.308783E-06  0.549E-04    0.01      17.3  T
  23   -202.4672556  0.136161E-07  0.613E-04    0.01      15.5  T
     SCC iter.                  ...        0 min,  0.600 sec
     gradient                   ...        0 min,  0.144 sec
 * total energy  :  -199.3476123 Eh     change       -0.2340463E-01 Eh
   gradient norm :     0.0437028 Eh/α   predicted    -0.2321980E-01 (  -0.79%)
   displ. norm   :     0.8954676 α      lambda       -0.2430514E-01
   maximum displ.:     0.7113548 α      in ANC's #10, #16, #15, ...

........................................................................
.............................. CYCLE   13 ..............................
........................................................................
   1   -202.5083643 -0.202508E+03  0.280E-01    0.00       0.0  T
   2   -201.5056919  0.100267E+01  0.253E+00    0.15       1.0  T
   3   -201.6502373 -0.144545E+00  0.225E+00    0.08       1.0  T
   4   -202.4910197 -0.840782E+00  0.390E-01    0.01       1.0  T
   5   -202.0363955  0.454624E+00  0.169E+00    0.07       1.0  T
   6   -202.5022913 -0.465896E+00  0.280E-01    0.01       1.0  T
   7   -202.4959809  0.631034E-02  0.341E-01    0.03       1.0  T
   8   -202.5117597 -0.157788E-01  0.142E-01    0.01       1.0  T
   9   -202.5058442  0.591557E-02  0.235E-01    0.02       1.0  T
  10   -202.5141620 -0.831784E-02  0.713E-02    0.01       1.0  T
  11   -202.5142239 -0.618517E-04  0.685E-02    0.01       1.0  T
  12   -202.5147782 -0.554315E-03  0.376E-02    0.01       1.0  T
  13   -202.5148048 -0.266206E-04  0.356E-02    0.01       1.0  T
  14   -202.5148816 -0.767863E-04  0.280E-02    0.01       1.0  T
  15   -202.5149690 -0.874453E-04  0.153E-02    0.01       1.0  T
  16   -202.5150008 -0.317608E-04  0.598E-03    0.01       1.6  T
  17   -202.5150045 -0.374986E-05  0.347E-03    0.01       2.7  T
  18   -202.5150061 -0.155448E-05  0.168E-03    0.01       5.7  T
  19   -202.5150064 -0.263736E-06  0.110E-03    0.01       8.6  T
  20   -202.5150065 -0.154528E-06  0.515E-04    0.01      18.4  T
  21   -202.5150065 -0.243939E-07  0.329E-04    0.01      28.8  T
     SCC iter.                  ...        0 min,  0.548 sec
     gradient                   ...        0 min,  0.144 sec
 * total energy  :  -199.3684410 Eh     change       -0.2082874E-01 Eh
   gradient norm :     0.0461810 Eh/α   predicted    -0.2189727E-01 (   5.13%)
   displ. norm   :     0.9022059 α      lambda       -0.2407994E-01
   maximum displ.:     0.7023188 α      in ANC's #10, #16, #15, ...

........................................................................
.............................. CYCLE   14 ..............................
........................................................................
   1   -202.5397165 -0.202540E+03  0.224E-01    0.00       0.0  T
   2   -202.0565632  0.483153E+00  0.176E+00    0.12       1.0  T
   3   -201.5771161  0.479447E+00  0.237E+00    0.08       1.0  T
   4   -202.4761756 -0.899059E+00  0.649E-01    0.01       1.0  T
   5   -202.2906990  0.185477E+00  0.123E+00    0.06       1.0  T
   6   -202.4968047 -0.206106E+00  0.524E-01    0.01       1.0  T
   7   -202.5237730 -0.269683E-01  0.331E-01    0.02       1.0  T
   8   -202.5263669 -0.259390E-02  0.305E-01    0.01       1.0  T
   9   -202.5212604  0.510655E-02  0.351E-01    0.01       1.0  T
  10   -202.5399014 -0.186411E-01  0.117E-01    0.01       1.0  T
  11   -202.5417230 -0.182158E-02  0.575E-02    0.01       1.0  T
  12   -202.5412807  0.442328E-03  0.760E-02    0.01       1.0  T
  13   -202.5415067 -0.226004E-03  0.654E-02    0.01       1.0  T
  14   -202.5421129 -0.606172E-03  0.249E-02    0.01       1.0  T
  15   -202.5422051 -0.922357E-04  0.824E-03    0.01       1.2  T
  16   -202.5422160 -0.108708E-04  0.235E-03    0.01       4.0  T
  17   -202.5422164 -0.407608E-06  0.160E-03    0.01       5.9  T
  18   -202.5422164 -0.518205E-08  0.153E-03    0.01       6.2  T
  19   -202.5422167 -0.299076E-06  0.732E-04    0.01      13.0  T
  20   -202.5422168 -0.875093E-07  0.106E-04    0.01      89.3  T
     SCC iter.                  ...        0 min,  0.521 sec
     gradient                   ...        0 min,  0.145 sec
 * total energy  :  -199.3887191 Eh     change       -0.2027803E-01 Eh
   gradient norm :     0.0446462 Eh/α   predicted    -0.2184024E-01 (   7.70%)
   displ. norm   :     0.8895761 α      lambda       -0.2195250E-01
   maximum displ.:     0.7027096 α      in ANC's #10, #16, #15, ...

........................................................................
.............................. CYCLE   15 ..............................
........................................................................
   1   -202.5655880 -0.202566E+03  0.174E-01    0.01       0.0  T
   2   -201.5332829  0.103231E+01  0.246E+00    0.10       1.0  T
   3   -202.4314341 -0.898151E+00  0.909E-01    0.02       1.0  T
   4   -202.5044656 -0.730315E-01  0.624E-01    0.02       1.0  T
   5   -202.5250473 -0.205817E-01  0.511E-01    0.03       1.0  T
   6   -202.5548462 -0.297989E-01  0.281E-01    0.00       1.0  T
   7   -202.5676877 -0.128414E-01  0.597E-02    0.01       1.0  T
   8   -202.5678884 -0.200751E-03  0.491E-02    0.01       1.0  T
   9   -202.5679335 -0.451169E-04  0.453E-02    0.01       1.0  T
  10   -202.5680792 -0.145617E-03  0.333E-02    0.01       1.0  T
  11   -202.5682487 -0.169596E-03  0.924E-03    0.01       1.0  T
  12   -202.5682536 -0.488286E-05  0.731E-03    0.01       1.3  T
  13   -202.5682586 -0.499014E-05  0.469E-03    0.01       2.0  T
  14   -202.5682622 -0.353459E-05  0.421E-04    0.01      22.5  T
  15   -202.5682619  0.239779E-06  0.129E-03    0.01       7.4  T
  16   -202.5682621 -0.204022E-06  0.630E-04    0.01      15.1  T
  17   -202.5682621 -0.295740E-07  0.449E-04    0.01      21.1  T
     SCC iter.                  ...        0 min,  0.442 sec
     gradient                   ...        0 min,  0.145 sec
 * total energy  :  -199.4083496 Eh     change       -0.1963053E-01 Eh
   gradient norm :     0.0377199 Eh/α   predicted    -0.1966227E-01 (   0.16%)
   displ. norm   :     0.9183233 α      lambda       -0.2159660E-01
   maximum displ.:     0.7361098 α      in ANC's #10, #16, #15, ...

........................................................................
.............................. CYCLE   16 ..............................
........................................................................
   1   -202.6112186 -0.202611E+03  0.157E-01    0.01       0.0  T
   2   -201.8677593  0.743459E+00  0.207E+00    0.08       1.0  T
   3   -202.1000275 -0.232268E+00  0.172E+00    0.07       1.0  T
   4   -202.4379700 -0.337942E+00  0.105E+00    0.08       1.0  T
   5   -202.5848664 -0.146896E+00  0.409E-01    0.03       1.0  T
   6   -202.5973665 -0.125001E-01  0.304E-01    0.01       1.0  T
   7   -202.6115334 -0.141669E-01  0.584E-02    0.01       1.0  T
   8   -202.6115947 -0.612217E-04  0.438E-02    0.01       1.0  T
   9   -202.6113785  0.216179E-03  0.543E-02    0.01       1.0  T
  10   -202.6113455  0.329735E-04  0.469E-02    0.01       1.0  T
  11   -202.6116354 -0.289935E-03  0.171E-02    0.01       1.0  T
  12   -202.6116358 -0.395705E-06  0.162E-02    0.01       1.0  T
  13   -202.6116426 -0.679932E-05  0.130E-02    0.01       1.0  T
  14   -202.6116504 -0.773374E-05  0.931E-03    0.01       1.0  T
  15   -202.6116526 -0.218793E-05  0.798E-03    0.01       1.2  T
  16   -202.6116609 -0.834156E-05  0.343E-03    0.01       2.8  T
  17   -202.6116622 -0.133170E-05  0.181E-03    0.01       5.2  T
  18   -202.6116625 -0.228382E-06  0.940E-04    0.01      10.1  T
  19   -202.6116624  0.275632E-07  0.770E-04    0.01      12.3  T
     SCC iter.                  ...        0 min,  0.495 sec
     gradient                   ...        0 min,  0.145 sec
 * total energy  :  -199.4266210 Eh     change       -0.1827137E-01 Eh
   gradient norm :     0.0364479 Eh/α   predicted    -0.1990470E-01 (   8.94%)
   displ. norm   :     0.9096613 α      lambda       -0.1984762E-01
   maximum displ.:     0.7313771 α      in ANC's #10, #16, #15, ...

........................................................................
.............................. CYCLE   17 ..............................
........................................................................
   1   -202.6337395 -0.202634E+03  0.161E-01    0.01       0.0  T
   2   -201.6545611  0.979178E+00  0.238E+00    0.07       1.0  T
   3   -202.3645315 -0.709970E+00  0.125E+00    0.05       1.0  T
   4   -202.3248202  0.397114E-01  0.141E+00    0.10       1.0  T
   5   -202.5611497 -0.236330E+00  0.674E-01    0.04       1.0  T
   6   -202.6116377 -0.504880E-01  0.380E-01    0.01       1.0  T
   7   -202.6285125 -0.168748E-01  0.195E-01    0.01       1.0  T
   8   -202.6310272 -0.251477E-02  0.153E-01    0.00       1.0  T
   9   -202.6315807 -0.553478E-03  0.139E-01    0.00       1.0  T
  10   -202.6342762 -0.269550E-02  0.501E-02    0.01       1.0  T
  11   -202.6346161 -0.339903E-03  0.116E-02    0.01       1.0  T
  12   -202.6345764  0.396816E-04  0.179E-02    0.01       1.0  T
  13   -202.6346090 -0.325728E-04  0.956E-03    0.01       1.0  T
  14   -202.6346192 -0.102100E-04  0.396E-03    0.01       2.4  T
  15   -202.6346185  0.676592E-06  0.412E-03    0.01       2.3  T
  16   -202.6346182  0.339081E-06  0.335E-03    0.01       2.8  T
  17   -202.6346183 -0.130391E-06  0.259E-03    0.01       3.7  T
  18   -202.6346189 -0.541396E-06  0.178E-03    0.01       5.3  T
  19   -202.6346192 -0.297976E-06  0.110E-03    0.01       8.6  T
  20   -202.6346193 -0.120962E-06  0.680E-04    0.01      13.9  T
  21   -202.6346194 -0.558602E-07  0.340E-04    0.01      27.9  T
     SCC iter.                  ...        0 min,  0.547 sec
     gradient                   ...        0 min,  0.146 sec
 * total energy  :  -199.4445161 Eh     change       -0.1789512E-01 Eh
   gradient norm :     0.0325183 Eh/α   predicted    -0.1813563E-01 (   1.34%)
   displ. norm   :     0.9293632 α      lambda       -0.1853477E-01
   maximum displ.:     0.7443814 α      in ANC's #10, #16, #15, ...

........................................................................
.............................. CYCLE   18 ..............................
........................................................................
   1   -202.6492561 -0.202649E+03  0.205E-01    0.02       0.0  T
   2   -201.6355259  0.101373E+01  0.243E+00    0.08       1.0  T
   3   -201.6647567 -0.292309E-01  0.238E+00    0.07       1.0  T
   4   -202.5034545 -0.838698E+00  0.971E-01    0.06       1.0  T
   5   -202.6355587 -0.132104E+00  0.331E-01    0.01       1.0  T
   6   -202.6351951  0.363617E-03  0.329E-01    0.01       1.0  T
   7   -202.6389327 -0.373762E-02  0.297E-01    0.00       1.0  T
   8   -202.6342876  0.464508E-02  0.341E-01    0.00       1.0  T
   9   -202.6414508 -0.716317E-02  0.264E-01    0.00       1.0  T
  10   -202.6496049 -0.815410E-02  0.130E-01    0.00       1.0  T
  11   -202.6491637  0.441253E-03  0.140E-01    0.00       1.0  T
  12   -202.6507648 -0.160113E-02  0.957E-02    0.01       1.0  T
  13   -202.6520978 -0.133297E-02  0.240E-02    0.01       1.0  T
  14   -202.6521569 -0.591138E-04  0.142E-02    0.01       1.0  T
  15   -202.6521685 -0.115952E-04  0.114E-02    0.01       1.0  T
  16   -202.6521787 -0.102174E-04  0.840E-03    0.01       1.1  T
  17   -202.6521886 -0.990299E-05  0.279E-03    0.01       3.4  T
  18   -202.6521889 -0.315745E-06  0.238E-03    0.01       4.0  T
  19   -202.6521897 -0.791815E-06  0.798E-04    0.01      11.9  T
  20   -202.6521898 -0.773351E-07  0.383E-04    0.01      24.8  T
     SCC iter.                  ...        0 min,  0.521 sec
     gradient                   ...        0 min,  0.146 sec
 * total energy  :  -199.4611523 Eh     change       -0.1663618E-01 Eh
   gradient norm :     0.0366834 Eh/α   predicted    -0.1727178E-01 (   3.82%)
   displ. norm   :     0.9191020 α      lambda       -0.1836080E-01
   maximum displ.:     0.7427971 α      in ANC's #10, #16, #15, ...

........................................................................
.............................. CYCLE   19 ..............................
........................................................................
   1   -202.6877481 -0.202688E+03  0.200E-01    0.02       0.0  T
   2   -201.7019280  0.985820E+00  0.239E+00    0.08       1.0  T
   3   -201.7002811  0.164692E-02  0.238E+00    0.07       1.0  T
   4   -202.4259876 -0.725707E+00  0.130E+00    0.09       1.0  T
   5   -202.6550752 -0.229088E+00  0.474E-01    0.03       1.0  T
   6   -202.5720850  0.829902E-01  0.860E-01    0.00       1.0  T
   7   -202.6620960 -0.900110E-01  0.426E-01    0.00       1.0  T
   8   -202.6743629 -0.122670E-01  0.323E-01    0.01       1.0  T
   9   -202.6745264 -0.163441E-03  0.321E-01    0.00       1.0  T
  10   -202.6860939 -0.115675E-01  0.168E-01    0.00       1.0  T
  11   -202.6879981 -0.190420E-02  0.125E-01    0.00       1.0  T
  12   -202.6893095 -0.131139E-02  0.792E-02    0.01       1.0  T
  13   -202.6900607 -0.751201E-03  0.196E-02    0.01       1.0  T
  14   -202.6900543  0.635925E-05  0.151E-02    0.01       1.0  T
  15   -202.6900609 -0.659665E-05  0.962E-03    0.01       1.0  T
  16   -202.6900717 -0.107494E-04  0.504E-03    0.01       1.9  T
  17   -202.6900754 -0.373404E-05  0.163E-03    0.01       5.8  T
  18   -202.6900754  0.482840E-07  0.182E-03    0.01       5.2  T
  19   -202.6900754 -0.491815E-07  0.159E-03    0.01       6.0  T
  20   -202.6900758 -0.359374E-06  0.563E-04    0.01      16.9  T
  21   -202.6900758 -0.482575E-07  0.157E-04    0.01      60.4  T
     SCC iter.                  ...        0 min,  0.548 sec
     gradient                   ...        0 min,  0.146 sec
 * total energy  :  -199.4773900 Eh     change       -0.1623770E-01 Eh
   gradient norm :     0.0303757 Eh/α   predicted    -0.1693554E-01 (   4.30%)
   displ. norm   :     0.9295439 α      lambda       -0.1706661E-01
   maximum displ.:     0.7388718 α      in ANC's #10, #16, #15, ...

........................................................................
.............................. CYCLE   20 ..............................
........................................................................
   1   -202.7165624 -0.202717E+03  0.229E-01    0.01       0.0  T
   2   -201.6574739  0.105909E+01  0.249E+00    0.09       1.0  T
   3   -201.7667386 -0.109265E+00  0.233E+00    0.06       1.0  T
   4   -202.3381863 -0.571448E+00  0.157E+00    0.09       1.0  T
   5   -202.6259988 -0.287813E+00  0.761E-01    0.03       1.0  T
   6   -202.7122027 -0.862038E-01  0.243E-01    0.02       1.0  T
   7   -202.6640483  0.481544E-01  0.588E-01    0.02       1.0  T
   8   -202.6970821 -0.330338E-01  0.384E-01    0.01       1.0  T
   9   -202.6868953  0.101868E-01  0.458E-01    0.01       1.0  T
  10   -202.7034836 -0.165883E-01  0.330E-01    0.01       1.0  T
  11   -202.7183932 -0.149095E-01  0.126E-01    0.00       1.0  T
  12   -202.7200084 -0.161530E-02  0.721E-02    0.01       1.0  T
  13   -202.7202602 -0.251770E-03  0.562E-02    0.01       1.0  T
  14   -202.7203840 -0.123804E-03  0.400E-02    0.01       1.0  T
  15   -202.7203550  0.290345E-04  0.403E-02    0.01       1.0  T
  16   -202.7203167  0.382838E-04  0.414E-02    0.01       1.0  T
  17   -202.7204703 -0.153624E-03  0.241E-02    0.01       1.0  T
  18   -202.7205608 -0.904502E-04  0.472E-03    0.01       2.0  T
  19   -202.7205641 -0.333946E-05  0.115E-03    0.01       8.3  T
  20   -202.7205631  0.979088E-06  0.261E-03    0.01       3.6  T
  21   -202.7205639 -0.754868E-06  0.155E-03    0.01       6.1  T
  22   -202.7205643 -0.407895E-06  0.238E-04    0.01      40.0  T
  23   -202.7205643 -0.818909E-08  0.572E-05    0.01     165.9  T
     SCC iter.                  ...        0 min,  0.600 sec
     gradient                   ...        0 min,  0.147 sec
 * total energy  :  -199.4928663 Eh     change       -0.1547635E-01 Eh
   gradient norm :     0.0254656 Eh/α   predicted    -0.1590653E-01 (   2.78%)
   displ. norm   :     0.9470100 α      lambda       -0.1570860E-01
   maximum displ.:     0.7687427 α      in ANC's #10, #15, #16, ...
 * RMSD in coord.:     1.2712901 α      energy gain  -0.8939334E+00 Eh

generating ANC from model Hessian ...
Using Lindh-Hessian (1995)
 Shifting diagonal of input Hessian by    1.0007409115543878E-002
 Lowest  eigenvalues of input Hessian
    0.010000    0.010004    0.000000    0.000000    0.000000    0.000000
    0.000000    0.000000    0.010015    0.010015    0.010022    0.010036
    0.010221    0.010641    0.010938    0.011281    0.011387    0.011727
 Highest eigenvalues
    2.121791    2.122284    2.125726    2.126106    2.432076    2.447308


........................................................................
.............................. CYCLE   21 ..............................
........................................................................
   1   -202.7489455 -0.202749E+03  0.140E-01    0.01       0.0  T
   2   -202.4550004  0.293945E+00  0.133E+00    0.03       1.0  T
   3   -202.5442582 -0.892578E-01  0.111E+00    0.02       1.0  T
   4   -202.2576621  0.286596E+00  0.177E+00    0.09       1.0  T
   5   -202.5967887 -0.339127E+00  0.982E-01    0.06       1.0  T
   6   -202.5939845  0.280419E-02  0.939E-01    0.03       1.0  T
   7   -202.7396200 -0.145636E+00  0.252E-01    0.00       1.0  T
   8   -202.7411091 -0.148913E-02  0.228E-01    0.00       1.0  T
   9   -202.7478853 -0.677616E-02  0.951E-02    0.01       1.0  T
  10   -202.7485103 -0.624996E-03  0.627E-02    0.01       1.0  T
  11   -202.7485967 -0.863632E-04  0.568E-02    0.01       1.0  T
  12   -202.7486390 -0.422941E-04  0.543E-02    0.01       1.0  T
  13   -202.7488857 -0.246783E-03  0.365E-02    0.01       1.0  T
  14   -202.7489205 -0.347842E-04  0.328E-02    0.01       1.0  T
  15   -202.7490359 -0.115402E-03  0.204E-02    0.01       1.0  T
  16   -202.7490825 -0.465377E-04  0.123E-02    0.01       1.0  T
  17   -202.7491059 -0.234177E-04  0.245E-03    0.01       3.9  T
  18   -202.7491061 -0.192398E-06  0.209E-03    0.01       4.5  T
  19   -202.7491067 -0.645362E-06  0.599E-04    0.01      15.9  T
  20   -202.7491067 -0.191746E-07  0.488E-04    0.01      19.4  T
     SCC iter.                  ...        0 min,  0.521 sec
     gradient                   ...        0 min,  0.147 sec
 * total energy  :  -199.5074193 Eh     change       -0.1455294E-01 Eh
   gradient norm :     0.0228663 Eh/α   predicted     0.0000000E+00 (-100.00%)
   displ. norm   :     0.6701426 α      lambda       -0.1047653E-01
   maximum displ.:     0.3994921 α      in ANC's #14, #11, #12, ...

........................................................................
.............................. CYCLE   22 ..............................
........................................................................
   1   -202.7719807 -0.202772E+03  0.966E-02    0.01       0.0  T
   2   -202.6065173  0.165463E+00  0.966E-01    0.03       1.0  T
   3   -202.6741008 -0.675835E-01  0.750E-01    0.00       1.0  T
   4   -202.3787677  0.295333E+00  0.158E+00    0.08       1.0  T
   5   -202.7347674 -0.356000E+00  0.484E-01    0.03       1.0  T
   6   -202.7658300 -0.310626E-01  0.191E-01    0.00       1.0  T
   7   -202.7718123 -0.598223E-02  0.419E-02    0.01       1.0  T
   8   -202.7719153 -0.103025E-03  0.299E-02    0.01       1.0  T
   9   -202.7718870  0.282684E-04  0.295E-02    0.01       1.0  T
  10   -202.7720117 -0.124685E-03  0.483E-03    0.01       2.0  T
  11   -202.7720115  0.192391E-06  0.453E-03    0.01       2.1  T
  12   -202.7720143 -0.277683E-05  0.169E-03    0.01       5.6  T
  13   -202.7720136  0.664080E-06  0.252E-03    0.01       3.8  T
  14   -202.7720136  0.478428E-07  0.242E-03    0.01       3.9  T
  15   -202.7720142 -0.659592E-06  0.106E-03    0.01       9.0  T
  16   -202.7720141  0.138419E-06  0.134E-03    0.01       7.1  T
  17   -202.7720144 -0.283926E-06  0.396E-04    0.01      24.0  T
  18   -202.7720144 -0.210668E-07  0.166E-04    0.01      57.1  T
     SCC iter.                  ...        0 min,  0.470 sec
     gradient                   ...        0 min,  0.147 sec
 * total energy  :  -199.5173829 Eh     change       -0.9963650E-02 Eh
   gradient norm :     0.0161798 Eh/α   predicted    -0.7590741E-02 ( -23.82%)
   displ. norm   :     0.9007180 α      lambda       -0.1283698E-01
   maximum displ.:     0.5364861 α      in ANC's #14, #11, #12, ...

........................................................................
.............................. CYCLE   23 ..............................
........................................................................
   1   -202.7980333 -0.202798E+03  0.132E-01    0.01       0.0  T
   2   -202.0519532  0.746080E+00  0.207E+00    0.06       1.0  T
   3   -202.2608635 -0.208910E+00  0.174E+00    0.05       1.0  T
   4   -202.3615739 -0.100710E+00  0.167E+00    0.08       1.0  T
   5   -202.6878487 -0.326275E+00  0.839E-01    0.05       1.0  T
   6   -202.7905737 -0.102725E+00  0.221E-01    0.01       1.0  T
   7   -202.7951242 -0.455054E-02  0.156E-01    0.00       1.0  T
   8   -202.7975173 -0.239310E-02  0.878E-02    0.01       1.0  T
   9   -202.7961629  0.135440E-02  0.126E-01    0.00       1.0  T
  10   -202.7976743 -0.151139E-02  0.717E-02    0.01       1.0  T
  11   -202.7981906 -0.516252E-03  0.361E-02    0.01       1.0  T
  12   -202.7982682 -0.776684E-04  0.226E-02    0.01       1.0  T
  13   -202.7982615  0.672046E-05  0.210E-02    0.01       1.0  T
  14   -202.7982557  0.582211E-05  0.194E-02    0.01       1.0  T
  15   -202.7982720 -0.162664E-04  0.137E-02    0.01       1.0  T
  16   -202.7982807 -0.871270E-05  0.106E-02    0.01       1.0  T
  17   -202.7982914 -0.107269E-04  0.328E-03    0.01       2.9  T
  18   -202.7982915 -0.872561E-07  0.235E-03    0.01       4.0  T
  19   -202.7982922 -0.695727E-06  0.107E-03    0.01       8.9  T
  20   -202.7982922 -0.472356E-07  0.880E-04    0.01      10.8  T
  21   -202.7982923 -0.104102E-06  0.279E-04    0.01      34.0  T
     SCC iter.                  ...        0 min,  0.548 sec
     gradient                   ...        0 min,  0.147 sec
 * total energy  :  -199.5296180 Eh     change       -0.1223511E-01 Eh
   gradient norm :     0.0142024 Eh/α   predicted    -0.1162576E-01 (  -4.98%)
   displ. norm   :     0.9336417 α      lambda       -0.1221562E-01
   maximum displ.:     0.5565340 α      in ANC's #14, #11, #12, ...

........................................................................
.............................. CYCLE   24 ..............................
........................................................................
   1   -202.8216861 -0.202822E+03  0.142E-01    0.01       0.0  T
   2   -202.2225766  0.599109E+00  0.186E+00    0.05       1.0  T
   3   -202.0226454  0.199931E+00  0.213E+00    0.05       1.0  T
   4   -202.3372930 -0.314648E+00  0.175E+00    0.08       1.0  T
   5   -202.7289841 -0.391691E+00  0.769E-01    0.04       1.0  T
   6   -202.8077149 -0.787308E-01  0.295E-01    0.00       1.0  T
   7   -202.8050744  0.264053E-02  0.334E-01    0.00       1.0  T
   8   -202.8155413 -0.104669E-01  0.208E-01    0.00       1.0  T
   9   -202.8136291  0.191214E-02  0.235E-01    0.00       1.0  T
  10   -202.8195538 -0.592469E-02  0.131E-01    0.00       1.0  T
  11   -202.8219812 -0.242743E-02  0.374E-02    0.01       1.0  T
  12   -202.8220472 -0.660083E-04  0.289E-02    0.01       1.0  T
  13   -202.8219786  0.686476E-04  0.326E-02    0.01       1.0  T
  14   -202.8218912  0.874032E-04  0.377E-02    0.01       1.0  T
  15   -202.8219754 -0.841787E-04  0.274E-02    0.01       1.0  T
  16   -202.8220527 -0.772908E-04  0.138E-02    0.01       1.0  T
  17   -202.8220760 -0.233257E-04  0.601E-03    0.01       1.6  T
  18   -202.8220816 -0.560892E-05  0.576E-04    0.01      16.5  T
  19   -202.8220811  0.473448E-06  0.182E-03    0.01       5.2  T
  20   -202.8220815 -0.361628E-06  0.100E-03    0.01       9.5  T
  21   -202.8220816 -0.144788E-06  0.314E-04    0.01      30.2  T
  22   -202.8220816 -0.964803E-09  0.300E-04    0.01      31.6  T
     SCC iter.                  ...        0 min,  0.574 sec
     gradient                   ...        0 min,  0.148 sec
 * total energy  :  -199.5412310 Eh     change       -0.1161301E-01 Eh
   gradient norm :     0.0143929 Eh/α   predicted    -0.1143194E-01 (  -1.56%)
   displ. norm   :     0.9410782 α      lambda       -0.1136999E-01
   maximum displ.:     0.5702809 α      in ANC's #14, #11, #12, ...

........................................................................
.............................. CYCLE   25 ..............................
........................................................................
   1   -202.8452217 -0.202845E+03  0.142E-01    0.01       0.0  T
   2   -202.4436853  0.401536E+00  0.154E+00    0.04       1.0  T
   3   -202.3502563  0.934291E-01  0.166E+00    0.05       1.0  T
   4   -202.2880310  0.622253E-01  0.187E+00    0.07       1.0  T
   5   -202.7680679 -0.480037E+00  0.703E-01    0.04       1.0  T
   6   -202.7984931 -0.304252E-01  0.525E-01    0.02       1.0  T
   7   -202.8160955 -0.176025E-01  0.434E-01    0.00       1.0  T
   8   -202.8344948 -0.183992E-01  0.264E-01    0.00       1.0  T
   9   -202.8399297 -0.543496E-02  0.191E-01    0.00       1.0  T
  10   -202.8434613 -0.353158E-02  0.117E-01    0.00       1.0  T
  11   -202.8449610 -0.149972E-02  0.632E-02    0.01       1.0  T
  12   -202.8452299 -0.268887E-03  0.484E-02    0.01       1.0  T
  13   -202.8454261 -0.196170E-03  0.323E-02    0.01       1.0  T
  14   -202.8454342 -0.809523E-05  0.283E-02    0.01       1.0  T
  15   -202.8455035 -0.693473E-04  0.152E-02    0.01       1.0  T
  16   -202.8454932  0.103160E-04  0.154E-02    0.01       1.0  T
  17   -202.8455085 -0.153099E-04  0.116E-02    0.01       1.0  T
  18   -202.8455262 -0.177103E-04  0.479E-03    0.01       2.0  T
  19   -202.8455296 -0.341014E-05  0.120E-03    0.01       7.9  T
  20   -202.8455297 -0.101498E-06  0.914E-04    0.01      10.4  T
  21   -202.8455298 -0.907297E-07  0.551E-04    0.01      17.2  T
     SCC iter.                  ...        0 min,  0.547 sec
     gradient                   ...        0 min,  0.148 sec
 * total energy  :  -199.5519347 Eh     change       -0.1070365E-01 Eh
   gradient norm :     0.0132670 Eh/α   predicted    -0.1071978E-01 (   0.15%)
   displ. norm   :     0.9416380 α      lambda       -0.1036797E-01
   maximum displ.:     0.5715958 α      in ANC's #14, #11, #12, ...

........................................................................
.............................. CYCLE   26 ..............................
........................................................................
   1   -202.8685686 -0.202869E+03  0.134E-01    0.01       0.0  T
   2   -202.6524857  0.216083E+00  0.116E+00    0.00       1.0  T
   3   -202.3766063  0.275879E+00  0.175E+00    0.07       1.0  T
   4   -202.8190714 -0.442465E+00  0.555E-01    0.02       1.0  T
   5   -202.5146701  0.304401E+00  0.140E+00    0.03       1.0  T
   6   -202.8571016 -0.342431E+00  0.262E-01    0.00       1.0  T
   7   -202.8482615  0.884008E-02  0.357E-01    0.01       1.0  T
   8   -202.8679101 -0.196486E-01  0.800E-02    0.01       1.0  T
   9   -202.8680050 -0.948692E-04  0.725E-02    0.01       1.0  T
  10   -202.8677848  0.220177E-03  0.809E-02    0.01       1.0  T
  11   -202.8684273 -0.642472E-03  0.495E-02    0.01       1.0  T
  12   -202.8685569 -0.129630E-03  0.381E-02    0.01       1.0  T
  13   -202.8684578  0.991414E-04  0.443E-02    0.01       1.0  T
  14   -202.8685622 -0.104363E-03  0.339E-02    0.01       1.0  T
  15   -202.8687380 -0.175838E-03  0.628E-03    0.01       1.5  T
  16   -202.8687396 -0.165564E-05  0.450E-03    0.01       2.1  T
  17   -202.8687417 -0.208587E-05  0.208E-03    0.01       4.6  T
  18   -202.8687414  0.283959E-06  0.247E-03    0.01       3.8  T
  19   -202.8687423 -0.843711E-06  0.881E-04    0.01      10.8  T
  20   -202.8687424 -0.804477E-07  0.512E-04    0.01      18.5  T
     SCC iter.                  ...        0 min,  0.521 sec
     gradient                   ...        0 min,  0.148 sec
 * total energy  :  -199.5616751 Eh     change       -0.9740439E-02 Eh
   gradient norm :     0.0110054 Eh/α   predicted    -0.9780530E-02 (   0.41%)
   displ. norm   :     0.9343161 α      lambda       -0.9188737E-02
   maximum displ.:     0.5800393 α      in ANC's #14, #11, #12, ...

........................................................................
.............................. CYCLE   27 ..............................
........................................................................
   1   -202.8912335 -0.202891E+03  0.123E-01    0.01       0.0  T
   2   -202.6623313  0.228902E+00  0.117E+00    0.02       1.0  T
   3   -202.6570985  0.523274E-02  0.119E+00    0.04       1.0  T
   4   -202.5777795  0.793190E-01  0.138E+00    0.05       1.0  T
   5   -202.8341073 -0.256328E+00  0.577E-01    0.01       1.0  T
   6   -202.8716376 -0.375303E-01  0.330E-01    0.00       1.0  T
   7   -202.8793206 -0.768297E-02  0.261E-01    0.00       1.0  T
   8   -202.8851149 -0.579432E-02  0.187E-01    0.00       1.0  T
   9   -202.8911676 -0.605271E-02  0.346E-02    0.01       1.0  T
  10   -202.8907323  0.435276E-03  0.579E-02    0.01       1.0  T
  11   -202.8912903 -0.557974E-03  0.149E-02    0.01       1.0  T
  12   -202.8910429  0.247395E-03  0.390E-02    0.01       1.0  T
  13   -202.8912856 -0.242765E-03  0.122E-02    0.01       1.0  T
  14   -202.8912919 -0.621697E-05  0.104E-02    0.01       1.0  T
  15   -202.8913093 -0.173951E-04  0.327E-03    0.01       2.9  T
  16   -202.8913111 -0.184487E-05  0.664E-04    0.01      14.3  T
  17   -202.8913110  0.133536E-06  0.111E-03    0.01       8.5  T
  18   -202.8913111 -0.169625E-06  0.463E-04    0.01      20.5  T
  19   -202.8913112 -0.263102E-07  0.216E-04    0.01      43.9  T
     SCC iter.                  ...        0 min,  0.496 sec
     gradient                   ...        0 min,  0.149 sec
 * total energy  :  -199.5703145 Eh     change       -0.8639411E-02 Eh
   gradient norm :     0.0094233 Eh/α   predicted    -0.8605008E-02 (  -0.40%)
   displ. norm   :     0.9280987 α      lambda       -0.8113968E-02
   maximum displ.:     0.5823647 α      in ANC's #14, #11, #12, ...

........................................................................
.............................. CYCLE   28 ..............................
........................................................................
   1   -202.9125564 -0.202913E+03  0.117E-01    0.01       0.0  T
   2   -202.7782172  0.134339E+00  0.887E-01    0.02       1.0  T
   3   -202.6906600  0.875571E-01  0.115E+00    0.03       1.0  T
   4   -202.7950498 -0.104390E+00  0.799E-01    0.01       1.0  T
   5   -202.7868311  0.821871E-02  0.878E-01    0.04       1.0  T
   6   -202.9118805 -0.125049E+00  0.768E-02    0.01       1.0  T
   7   -202.9104740  0.140649E-02  0.112E-01    0.01       1.0  T
   8   -202.9098321  0.641852E-03  0.125E-01    0.01       1.0  T
   9   -202.9112556 -0.142353E-02  0.862E-02    0.01       1.0  T
  10   -202.9119398 -0.684132E-03  0.603E-02    0.01       1.0  T
  11   -202.9120110 -0.712270E-04  0.567E-02    0.01       1.0  T
  12   -202.9124490 -0.438014E-03  0.276E-02    0.01       1.0  T
  13   -202.9125817 -0.132651E-03  0.596E-03    0.01       1.6  T
  14   -202.9125872 -0.556595E-05  0.212E-03    0.01       4.5  T
  15   -202.9125870  0.229809E-06  0.228E-03    0.01       4.2  T
  16   -202.9125879 -0.856457E-06  0.723E-04    0.01      13.1  T
  17   -202.9125879 -0.739655E-07  0.355E-04    0.01      26.8  T
     SCC iter.                  ...        0 min,  0.444 sec
     gradient                   ...        0 min,  0.150 sec
 * total energy  :  -199.5778810 Eh     change       -0.7566439E-02 Eh
   gradient norm :     0.0085342 Eh/α   predicted    -0.7551539E-02 (  -0.20%)
   displ. norm   :     0.9185555 α      lambda       -0.7088988E-02
   maximum displ.:     0.5868761 α      in ANC's #14, #11, #12, ...

........................................................................
.............................. CYCLE   29 ..............................
........................................................................
   1   -202.9321372 -0.202932E+03  0.114E-01    0.01       0.0  T
   2   -202.8971443  0.349930E-01  0.458E-01    0.01       1.0  T
   3   -202.4571554  0.439989E+00  0.170E+00    0.05       1.0  T
   4   -202.0258355  0.431320E+00  0.225E+00    0.04       1.0  T
   5   -202.8776875 -0.851852E+00  0.571E-01    0.02       1.0  T
   6   -202.9202668 -0.425793E-01  0.254E-01    0.00       1.0  T
   7   -202.9245821 -0.431530E-02  0.205E-01    0.00       1.0  T
   8   -202.9309335 -0.635140E-02  0.852E-02    0.01       1.0  T
   9   -202.9318812 -0.947662E-03  0.399E-02    0.01       1.0  T
  10   -202.9321109 -0.229782E-03  0.180E-02    0.01       1.0  T
  11   -202.9321354 -0.244420E-04  0.115E-02    0.01       1.0  T
  12   -202.9321374 -0.198218E-05  0.944E-03    0.01       1.0  T
  13   -202.9321392 -0.184821E-05  0.911E-03    0.01       1.0  T
  14   -202.9321502 -0.110343E-04  0.400E-03    0.01       2.4  T
  15   -202.9321529 -0.263988E-05  0.972E-04    0.01       9.8  T
  16   -202.9321530 -0.796831E-07  0.589E-04    0.01      16.1  T
  17   -202.9321530 -0.203277E-07  0.483E-04    0.01      19.6  T
     SCC iter.                  ...        0 min,  0.443 sec
     gradient                   ...        0 min,  0.150 sec
 * total energy  :  -199.5843938 Eh     change       -0.6512832E-02 Eh
   gradient norm :     0.0077733 Eh/α   predicted    -0.6535144E-02 (   0.34%)
   displ. norm   :     0.9065048 α      lambda       -0.6073745E-02
   maximum displ.:     0.5874030 α      in ANC's #14, #11, #12, ...

........................................................................
.............................. CYCLE   30 ..............................
........................................................................
   1   -202.9499852 -0.202950E+03  0.111E-01    0.01       0.0  T
   2   -202.8704113  0.795739E-01  0.673E-01    0.02       1.0  T
   3   -202.7605846  0.109827E+00  0.105E+00    0.02       1.0  T
   4   -202.8021429 -0.415583E-01  0.893E-01    0.02       1.0  T
   5   -202.8815148 -0.793720E-01  0.643E-01    0.03       1.0  T
   6   -202.9438217 -0.623068E-01  0.187E-01    0.00       1.0  T
   7   -202.9495032 -0.568158E-02  0.583E-02    0.01       1.0  T
   8   -202.9482217  0.128151E-02  0.995E-02    0.00       1.0  T
   9   -202.9487489 -0.527198E-03  0.825E-02    0.01       1.0  T
  10   -202.9497837 -0.103482E-02  0.349E-02    0.01       1.0  T
  11   -202.9499713 -0.187579E-03  0.139E-02    0.01       1.0  T
  12   -202.9499953 -0.240038E-04  0.733E-03    0.01       1.3  T
  13   -202.9500022 -0.689281E-05  0.338E-03    0.01       2.8  T
  14   -202.9500026 -0.419236E-06  0.291E-03    0.01       3.3  T
  15   -202.9500042 -0.154639E-05  0.449E-04    0.01      21.1  T
  16   -202.9500042  0.177650E-08  0.465E-04    0.01      20.4  T
  17   -202.9500042 -0.387160E-07  0.648E-05    0.01     146.6  T
     SCC iter.                  ...        0 min,  0.445 sec
     gradient                   ...        0 min,  0.150 sec
 * total energy  :  -199.5899094 Eh     change       -0.5515637E-02 Eh
   gradient norm :     0.0066168 Eh/α   predicted    -0.5532427E-02 (   0.30%)
   displ. norm   :     0.8882584 α      lambda       -0.5001365E-02
   maximum displ.:     0.5881829 α      in ANC's #14, #12, #11, ...

........................................................................
.............................. CYCLE   31 ..............................
........................................................................
   1   -202.9666165 -0.202967E+03  0.105E-01    0.01       0.0  T
   2   -202.7463145  0.220302E+00  0.111E+00    0.04       1.0  T
[...]
eigval :     3155.87  3156.05  3156.18  3163.41  3163.63  3163.85
eigval :     3164.21  3168.96  3169.07  3171.05  3171.44  3172.62
eigval :     3173.00  3173.31  3173.49
 reduced masses (amu)
   1: 13.01   2: 19.03   3: 18.62   4: 18.78   5: 18.72   6: 18.20   7: 17.84   8: 11.50
   9: 14.88  10: 11.51  11: 11.87  12: 11.38  13: 11.88  14: 11.16  15: 11.54  16: 11.34
  17: 11.58  18: 11.61  19: 14.33  20: 18.22  21: 12.49  22: 12.25  23: 15.65  24: 23.69
  25: 28.42  26: 24.81  27: 14.36  28: 20.33  29: 10.60  30: 10.77  31: 11.36  32: 11.58
  33: 11.21  34: 12.75  35: 12.37  36: 12.14  37: 12.12  38: 15.86  39: 13.40  40: 13.29
  41: 13.00  42: 12.94  43: 13.23  44: 14.51  45: 14.88  46: 13.89  47: 16.96  48: 11.26
  49: 11.29  50: 19.24  51: 17.69  52: 11.94  53: 12.50  54: 42.62  55: 43.39  56: 26.65
  57: 39.89  58: 37.54  59: 41.37  60: 38.75  61: 18.67  62: 25.47  63: 12.23  64: 12.99
  65: 12.96  66: 13.87  67: 15.60  68: 12.86  69: 14.27  70: 12.32  71: 12.31  72: 12.22
  73: 11.81  74: 11.83  75: 12.54  76: 12.26  77: 13.67  78: 13.22  79: 11.19  80: 10.56
  81: 10.54  82: 15.70  83: 15.72  84: 10.82  85: 14.59  86: 14.62  87: 15.24  88: 10.62
  89: 10.53  90: 13.87  91: 10.20  92: 10.63  93: 10.33  94: 11.93  95: 11.78  96: 11.78
  97: 11.72  98: 11.68  99: 11.79 100: 11.67 101: 11.74 102: 11.78 103: 11.40 104: 11.11
 105: 11.09 106: 11.01 107: 11.39 108: 11.16 109: 11.15 110: 10.80 111: 10.81 112: 11.25
 113: 11.18 114: 11.18 115: 11.18 116: 11.11 117: 11.12 118: 11.43 119: 11.41 120: 11.41
 121: 11.41 122: 11.56 123: 11.57 124: 11.56 125: 11.51 126: 11.45 127: 11.41 128: 11.07
 129: 11.07 130: 10.94 131: 10.94 132: 11.42 133: 11.12 134: 11.16 135: 11.07 136: 11.19
 137: 11.25 138: 11.16 139: 11.33 140: 11.30 141: 11.31 142: 10.70 143: 10.72 144: 11.63
 145: 11.54 146:  4.26 147:  4.19 148:  5.92 149:  6.24 150:  5.88 151:  4.11 152:  8.61
 153:  7.59 154:  4.51 155:  4.43 156:  4.37 157:  4.34 158:  4.20 159:  4.34 160:  3.91
 161:  3.91 162:  3.88 163:  3.88 164:  3.90 165:  3.90 166:  4.01 167:  4.01 168:  3.50
 169:  3.52 170:  3.46 171:  3.45 172:  3.51 173:  3.51 174:  3.52 175:  3.51 176:  3.52
 177:  3.51 178:  3.35 179:  3.36 180: 11.22 181: 11.26 182: 11.72 183: 11.76 184: 12.27
 185: 12.23 186: 11.85 187: 11.95 188: 11.96 189: 12.07 190: 11.32 191: 10.72 192:  8.61
 193:  8.92 194:  8.92 195: 10.10 196:  9.71 197:  9.72 198:  9.90 199:  9.38 200:  9.38
 201:  8.69 202:  9.21 203:  8.92 204:  2.31 205:  2.42 206:  1.90 207:  1.82 208:  1.77
 209:  1.92 210:  1.79 211:  1.92 212:  1.97 213:  2.03 214:  1.93 215:  2.10 216:  8.08
 217:  8.41 218:  5.18 219:  5.46 220:  5.47 221:  5.78 222:  7.01 223:  7.05 224:  6.20
 225:  7.21 226:  7.20 227:  7.67 228:  8.22 229:  8.71 230:  8.70 231:  8.71 232:  8.32
 233:  8.35 234:  8.31 235:  9.75 236:  8.83 237:  8.83 238: 11.40 239: 11.26 240: 10.85
 241: 10.70 242: 10.85 243: 10.81 244: 10.31 245: 10.28 246: 10.23 247: 12.40 248: 11.79
 249: 11.63 250: 11.45 251: 10.21 252: 10.20 253: 11.86 254: 11.68 255:  9.04 256: 12.06
 257: 10.38 258: 10.09 259:  9.72 260:  9.27 261:  9.26 262: 11.28 263: 11.10 264: 11.56
 265: 11.61 266: 11.56 267: 11.52 268: 11.52 269: 11.50 270: 11.56 271: 11.69 272: 11.76
 273: 11.46 274: 11.46 275: 11.47 276: 11.70 277: 11.71 278: 11.70 279: 11.67 280: 11.79
 281: 11.83 282: 11.81 283: 11.74 284: 11.86 285: 11.82 286: 11.66 287: 11.66 288: 11.60
 289: 11.58 290: 11.61 291: 11.63 292: 11.62 293: 11.62 294: 11.63 295: 11.64 296: 11.67
 297: 11.75 298: 11.76 299: 11.76 300: 12.01 301: 12.01 302:  1.82 303:  1.82 304:  1.82
 305:  1.82 306:  1.82 307:  1.82 308:  1.82 309:  1.82 310:  1.81 311:  1.81 312:  1.81
 313:  1.81 314:  1.81 315:  1.81 316:  1.82 317:  1.82 318:  1.83 319:  1.83 320:  1.82
 321:  1.82 322:  1.98 323:  1.98 324:  1.98 325:  1.98 326:  1.97 327:  1.97 328:  1.96
 329:  1.96 330:  1.96 331:  1.95 332:  1.96 333:  1.96
 IR intensities (km·mol⁻¹)
   1:116.80   2:190.78   3:  0.54   4: 75.54   5:257.38   6: 61.14   7:  3.78   8:  8.16
   9:682.58  10:  2.27  11:  1.32  12:211.79  13:  9.30  14: 62.07  15:111.38  16: 20.60
  17:  3.94  18:  1.95  19:200.46  20:  7.83  21: 10.12  22:  2.31  23:  0.73  24:******
  25: 12.88  26:  6.79  27: 57.08  28:  2.15  29:101.65  30: 16.15  31: 18.99  32:  1.74
  33: 37.73  34: 18.22  35:  0.03  36: 13.68  37:  3.22  38:  1.86  39:212.23  40:499.69
  41:205.36  42: 42.78  43: 13.53  44:  0.70  45:  0.24  46: 72.82  47: 35.83  48:444.22
  49: 34.76  50:  3.18  51:  4.44  52:229.15  53: 47.35  54:  0.94  55:  6.44  56:  7.24
  57:180.42  58: 13.02  59:356.59  60: 59.67  61: 20.58  62: 35.00  63:  1.40  64:  0.46
  65: 34.22  66:479.70  67: 21.26  68: 18.61  69:113.83  70:  6.45  71: 39.14  72: 19.42
  73:204.69  74:  4.77  75: 83.78  76:  6.33  77: 29.83  78:  1.31  79: 18.78  80: 12.61
  81: 70.69  82:  1.87  83:******  84:  6.73  85: 74.54  86: 78.54  87: 95.96  88:241.50
  89:  2.72  90:608.93  91: 18.35  92:198.44  93:  0.70  94: 33.96  95:  0.85  96: 36.95
  97: 11.74  98:  4.61  99:336.61 100: 16.84 101:205.80 102:  7.40 103: 17.78 104: 36.43
 105: 55.18 106: 46.16 107: 13.18 108:  9.99 109:  6.08 110: 24.55 111:  0.18 112:  5.12
 113:  2.38 114:  6.81 115:  0.07 116:  2.45 117:144.93 118:  9.78 119:144.90 120:328.81
 121:507.71 122:****** 123: 15.65 124:184.35 125: 15.59 126: 19.06 127: 39.73 128: 12.22
 129: 33.10 130:  9.62 131: 34.89 132:  7.52 133: 15.01 134:  6.05 135: 42.89 136:  1.07
 137:****** 138: 31.36 139:254.92 140:  4.27 141:  2.62 142:254.80 143: 17.16 144: 64.60
 145:  0.30 146:663.09 147:****** 148: 23.40 149: 11.64 150:****** 151:317.58 152:214.90
 153: 44.24 154:285.84 155:279.65 156: 95.81 157:132.65 158: 10.21 159:857.68 160: 16.77
 161: 14.21 162: 13.57 163:928.68 164: 93.69 165:494.12 166:380.25 167:****** 168:130.71
 169:179.18 170: 21.77 171: 15.34 172: 22.89 173:242.20 174: 35.01 175: 31.48 176:197.09
 177: 68.55 178: 44.15 179:191.41 180:722.44 181:  2.77 182:121.56 183:  1.01 184:  0.36
 185:  5.71 186:  2.22 187:307.66 188: 37.74 189:108.63 190:204.87 191: 12.29 192: 22.05
 193:312.99 194:  2.49 195:109.32 196: 17.31 197: 38.09 198:  4.74 199:162.69 200:  3.73
 201:214.46 202:  3.07 203:196.14 204:****** 205:146.78 206:  0.70 207:572.75 208: 37.25
 209: 48.86 210:****** 211: 40.03 212: 86.37 213:****** 214:****** 215:129.48 216:******
 217: 18.97 218:****** 219: 13.12 220:113.82 221:  4.20 222:****** 223:  1.79 224:136.92
 225:  5.75 226:  0.56 227:218.17 228: 22.25 229: 47.73 230:  1.32 231: 74.77 232:171.99
 233: 34.69 234: 33.07 235:  3.78 236: 98.25 237: 69.97 238:360.61 239: 45.22 240:123.94
 241:  3.52 242: 56.75 243:158.61 244: 10.24 245: 42.84 246: 24.40 247:  7.33 248: 73.34
 249:  1.58 250:  1.63 251:  2.18 252: 62.65 253:  3.57 254:388.90 255:  1.97 256:  6.46
 257:  1.17 258:  8.71 259: 45.51 260:  3.67 261: 20.73 262:  0.48 263:209.61 264:163.37
 265: 24.62 266:305.37 267:  8.54 268: 11.58 269:150.83 270:  1.25 271:415.85 272:  2.70
 273: 57.02 274:407.58 275:  0.79 276:****** 277:408.11 278:  2.00 279:791.75 280:  0.78
 281: 39.83 282:  1.11 283:  1.86 284: 47.53 285:109.65 286:134.04 287:169.90 288:  4.88
 289: 17.00 290:  0.86 291:  0.71 292:  0.06 293:  8.58 294:581.45 295:288.05 296: 32.44
 297: 23.97 298: 56.08 299: 16.15 300:  0.01 301:  8.25 302: 15.56 303:  2.26 304:319.41
 305:601.72 306: 11.26 307:150.57 308:****** 309:****** 310:  5.10 311: 10.75 312: 61.90
 313: 49.53 314:****** 315:401.38 316: 15.58 317:205.74 318:****** 319: 38.23 320:******
 321: 32.51 322: 51.10 323: 57.40 324:****** 325:377.62 326:****** 327:****** 328:******
 329:****** 330: 95.42 331:****** 332:****** 333:******
 Raman intensities (amu)
   1:  0.00   2:  0.00   3:  0.00   4:  0.00   5:  0.00   6:  0.00   7:  0.00   8:  0.00
   9:  0.00  10:  0.00  11:  0.00  12:  0.00  13:  0.00  14:  0.00  15:  0.00  16:  0.00
  17:  0.00  18:  0.00  19:  0.00  20:  0.00  21:  0.00  22:  0.00  23:  0.00  24:  0.00
  25:  0.00  26:  0.00  27:  0.00  28:  0.00  29:  0.00  30:  0.00  31:  0.00  32:  0.00
  33:  0.00  34:  0.00  35:  0.00  36:  0.00  37:  0.00  38:  0.00  39:  0.00  40:  0.00
  41:  0.00  42:  0.00  43:  0.00  44:  0.00  45:  0.00  46:  0.00  47:  0.00  48:  0.00
  49:  0.00  50:  0.00  51:  0.00  52:  0.00  53:  0.00  54:  0.00  55:  0.00  56:  0.00
  57:  0.00  58:  0.00  59:  0.00  60:  0.00  61:  0.00  62:  0.00  63:  0.00  64:  0.00
  65:  0.00  66:  0.00  67:  0.00  68:  0.00  69:  0.00  70:  0.00  71:  0.00  72:  0.00
  73:  0.00  74:  0.00  75:  0.00  76:  0.00  77:  0.00  78:  0.00  79:  0.00  80:  0.00
  81:  0.00  82:  0.00  83:  0.00  84:  0.00  85:  0.00  86:  0.00  87:  0.00  88:  0.00
  89:  0.00  90:  0.00  91:  0.00  92:  0.00  93:  0.00  94:  0.00  95:  0.00  96:  0.00
  97:  0.00  98:  0.00  99:  0.00 100:  0.00 101:  0.00 102:  0.00 103:  0.00 104:  0.00
 105:  0.00 106:  0.00 107:  0.00 108:  0.00 109:  0.00 110:  0.00 111:  0.00 112:  0.00
 113:  0.00 114:  0.00 115:  0.00 116:  0.00 117:  0.00 118:  0.00 119:  0.00 120:  0.00
 121:  0.00 122:  0.00 123:  0.00 124:  0.00 125:  0.00 126:  0.00 127:  0.00 128:  0.00
 129:  0.00 130:  0.00 131:  0.00 132:  0.00 133:  0.00 134:  0.00 135:  0.00 136:  0.00
 137:  0.00 138:  0.00 139:  0.00 140:  0.00 141:  0.00 142:  0.00 143:  0.00 144:  0.00
 145:  0.00 146:  0.00 147:  0.00 148:  0.00 149:  0.00 150:  0.00 151:  0.00 152:  0.00
Refinement of some symmetry elements was terminated before convergence was reached.
Some symmetry elements may remain unidentified.
Molecule has the following symmetry elements: (C2) 
It seems to be the C2 point group
 153:  0.00 154:  0.00 155:  0.00 156:  0.00 157:  0.00 158:  0.00 159:  0.00 160:  0.00
 161:  0.00 162:  0.00 163:  0.00 164:  0.00 165:  0.00 166:  0.00 167:  0.00 168:  0.00
 169:  0.00 170:  0.00 171:  0.00 172:  0.00 173:  0.00 174:  0.00 175:  0.00 176:  0.00
 177:  0.00 178:  0.00 179:  0.00 180:  0.00 181:  0.00 182:  0.00 183:  0.00 184:  0.00
 185:  0.00 186:  0.00 187:  0.00 188:  0.00 189:  0.00 190:  0.00 191:  0.00 192:  0.00
 193:  0.00 194:  0.00 195:  0.00 196:  0.00 197:  0.00 198:  0.00 199:  0.00 200:  0.00
 201:  0.00 202:  0.00 203:  0.00 204:  0.00 205:  0.00 206:  0.00 207:  0.00 208:  0.00
 209:  0.00 210:  0.00 211:  0.00 212:  0.00 213:  0.00 214:  0.00 215:  0.00 216:  0.00
 217:  0.00 218:  0.00 219:  0.00 220:  0.00 221:  0.00 222:  0.00 223:  0.00 224:  0.00
 225:  0.00 226:  0.00 227:  0.00 228:  0.00 229:  0.00 230:  0.00 231:  0.00 232:  0.00
 233:  0.00 234:  0.00 235:  0.00 236:  0.00 237:  0.00 238:  0.00 239:  0.00 240:  0.00
 241:  0.00 242:  0.00 243:  0.00 244:  0.00 245:  0.00 246:  0.00 247:  0.00 248:  0.00
 249:  0.00 250:  0.00 251:  0.00 252:  0.00 253:  0.00 254:  0.00 255:  0.00 256:  0.00
 257:  0.00 258:  0.00 259:  0.00 260:  0.00 261:  0.00 262:  0.00 263:  0.00 264:  0.00
 265:  0.00 266:  0.00 267:  0.00 268:  0.00 269:  0.00 270:  0.00 271:  0.00 272:  0.00
 273:  0.00 274:  0.00 275:  0.00 276:  0.00 277:  0.00 278:  0.00 279:  0.00 280:  0.00
 281:  0.00 282:  0.00 283:  0.00 284:  0.00 285:  0.00 286:  0.00 287:  0.00 288:  0.00
 289:  0.00 290:  0.00 291:  0.00 292:  0.00 293:  0.00 294:  0.00 295:  0.00 296:  0.00
 297:  0.00 298:  0.00 299:  0.00 300:  0.00 301:  0.00 302:  0.00 303:  0.00 304:  0.00
 305:  0.00 306:  0.00 307:  0.00 308:  0.00 309:  0.00 310:  0.00 311:  0.00 312:  0.00
 313:  0.00 314:  0.00 315:  0.00 316:  0.00 317:  0.00 318:  0.00 319:  0.00 320:  0.00
 321:  0.00 322:  0.00 323:  0.00 324:  0.00 325:  0.00 326:  0.00 327:  0.00 328:  0.00
 329:  0.00 330:  0.00 331:  0.00 332:  0.00 333:  0.00
 output can be read by thermo (or use thermo option).
 writing <g98.out> molden fake output.
 recommended (thermochemical) frequency scaling factor: 1.0
           -------------------------------------------------
          |             Thermodynamic Functions             |
           -------------------------------------------------

c2  symmetry found (for desy threshold:  0.10E+00) used in thermo
 inverting freq            1   3.7383968845187159     

          ...................................................
          :                      SETUP                      :
          :.................................................:
          :  # frequencies                         327      :
          :  # imaginary freq.                       0      :
          :  linear?                             false      :
          :  only rotor calc.                    false      :
          :  symmetry                               c2      :
          :  rotational number                       2      :
          :  scaling factor                  1.0000000      :
          :  rotor cutoff                   50.0000000 cm⁻¹ :
          :  imag. cutoff                  -20.0000000 cm⁻¹ :
          :.................................................:

    mode    ω/cm⁻¹     T·S(HO)/kcal·mol⁻¹    T·S(FR)/kcal·mol⁻¹   T·S(vib)
   ------------------------------------------------------------------------
       1      3.74    -2.97140 (  0.00%)    -1.82479 (100.00%)    -1.82483
       2      3.95    -2.93845 (  0.00%)    -1.80832 (100.00%)    -1.80836
       3      6.76    -2.62063 (  0.03%)    -1.64941 ( 99.97%)    -1.64973
       4      9.17    -2.43962 (  0.11%)    -1.55890 ( 99.89%)    -1.55989
       5     10.80    -2.34298 (  0.22%)    -1.51057 ( 99.78%)    -1.51238
       6     11.80    -2.29059 (  0.31%)    -1.48437 ( 99.69%)    -1.48686
       7     20.58    -1.96120 (  2.79%)    -1.31959 ( 97.21%)    -1.33748
       8     25.74    -1.82854 (  6.57%)    -1.25320 ( 93.43%)    -1.29098
       9     26.06    -1.82131 (  6.87%)    -1.24957 ( 93.13%)    -1.28887
      10     32.05    -1.69899 ( 14.44%)    -1.18832 ( 85.56%)    -1.26206
      11     32.71    -1.68696 ( 15.48%)    -1.18229 ( 84.52%)    -1.26039
      12     35.88    -1.63227 ( 20.95%)    -1.15488 ( 79.05%)    -1.25491
      13     52.72    -1.40505 ( 55.28%)    -1.04085 ( 44.72%)    -1.24218
      14     57.96    -1.34930 ( 64.35%)    -1.01280 ( 35.65%)    -1.22935
      15     61.72    -1.31231 ( 69.89%)    -0.99418 ( 30.11%)    -1.21653
      16     68.12    -1.25431 ( 77.50%)    -0.96494 ( 22.50%)    -1.18921
      17     74.11    -1.20488 ( 82.83%)    -0.93998 ( 17.17%)    -1.15941
      18     96.75    -1.04910 ( 93.34%)    -0.86099 (  6.66%)    -1.03658
      19     99.12    -1.03505 ( 93.92%)    -0.85383 (  6.08%)    -1.02403
      20    106.20    -0.99499 ( 95.32%)    -0.83339 (  4.68%)    -0.98743
      21    111.36    -0.96752 ( 96.09%)    -0.81934 (  3.91%)    -0.96173
      22    114.35    -0.95220 ( 96.47%)    -0.81149 (  3.53%)    -0.94724
      23    119.07    -0.92884 ( 96.98%)    -0.79949 (  3.02%)    -0.92494
      24    121.77    -0.91594 ( 97.24%)    -0.79286 (  2.76%)    -0.91253
      25    125.24    -0.89978 ( 97.52%)    -0.78454 (  2.48%)    -0.89692
      26    129.02    -0.88269 ( 97.79%)    -0.77572 (  2.21%)    -0.88033
      27    142.58    -0.82558 ( 98.51%)    -0.74613 (  1.49%)    -0.82439
      28    188.36    -0.66901 ( 99.51%)    -0.66363 (  0.49%)    -0.66898
      29    190.95    -0.66147 ( 99.53%)    -0.65959 (  0.47%)    -0.66146
      30    193.54    -0.65402 ( 99.56%)    -0.65559 (  0.44%)    -0.65403
      31    193.98    -0.65278 ( 99.56%)    -0.65492 (  0.44%)    -0.65279
      32    210.08    -0.60912 ( 99.68%)    -0.63131 (  0.32%)    -0.60919
      33    215.81    -0.59451 ( 99.71%)    -0.62334 (  0.29%)    -0.59460
      34    223.44    -0.57573 ( 99.75%)    -0.61304 (  0.25%)    -0.57582
      35    224.59    -0.57297 ( 99.75%)    -0.61152 (  0.25%)    -0.57307
      36    224.83    -0.57241 ( 99.76%)    -0.61121 (  0.24%)    -0.57251
      37    226.37    -0.56873 ( 99.76%)    -0.60918 (  0.24%)    -0.56882
      38    229.58    -0.56118 ( 99.78%)    -0.60501 (  0.22%)    -0.56128
      39    233.54    -0.55205 ( 99.79%)    -0.59994 (  0.21%)    -0.55215
      40    242.20    -0.53269 ( 99.82%)    -0.58916 (  0.18%)    -0.53280
      41    242.36    -0.53234 ( 99.82%)    -0.58896 (  0.18%)    -0.53244
      42    246.77    -0.52281 ( 99.83%)    -0.58361 (  0.17%)    -0.52291
      43    246.96    -0.52241 ( 99.83%)    -0.58339 (  0.17%)    -0.52251
      44    250.24    -0.51547 ( 99.84%)    -0.57949 (  0.16%)    -0.51557
      45    250.27    -0.51541 ( 99.84%)    -0.57945 (  0.16%)    -0.51551
      46    250.90    -0.51407 ( 99.84%)    -0.57870 (  0.16%)    -0.51418
      47    251.50    -0.51282 ( 99.84%)    -0.57799 (  0.16%)    -0.51292
      48    265.87    -0.48387 ( 99.88%)    -0.56153 (  0.12%)    -0.48397
      49    267.84    -0.48005 ( 99.88%)    -0.55935 (  0.12%)    -0.48015
      50    271.01    -0.47398 ( 99.88%)    -0.55586 (  0.12%)    -0.47407
      51    272.14    -0.47185 ( 99.89%)    -0.55463 (  0.11%)    -0.47194
      52    272.79    -0.47062 ( 99.89%)    -0.55393 (  0.11%)    -0.47072
      53    273.58    -0.46914 ( 99.89%)    -0.55307 (  0.11%)    -0.46923
      54    274.54    -0.46734 ( 99.89%)    -0.55203 (  0.11%)    -0.46743
      55    284.68    -0.44883 ( 99.90%)    -0.54128 (  0.10%)    -0.44892
      56    284.97    -0.44830 ( 99.91%)    -0.54098 (  0.09%)    -0.44839
   ------------------------------------------------------------------------

   temp. (K)  partition function   enthalpy   heat capacity  entropy
                                   cal/mol     cal/K/mol   cal/K/mol   J/K/mol
 298.15  VIB  0.373E+30            36547.651    243.066    226.913
         ROT  0.272E+09              888.752      2.981     41.575
         INT  0.101E+39            37436.404    246.047    268.488
         TR   0.375E+29             1481.254      4.968     46.966
         TOT                       38917.6576   251.0149   315.4537  1319.8585

       T/K    H(0)-H(T)+PV         H(T)/Eh          T*S/Eh         G(T)/Eh
   ------------------------------------------------------------------------
    298.15    0.620192E-01    0.838562E+00    0.149882E+00    0.688680E+00
   ------------------------------------------------------------------------

         :::::::::::::::::::::::::::::::::::::::::::::::::::::
         ::                  THERMODYNAMIC                  ::
         :::::::::::::::::::::::::::::::::::::::::::::::::::::
         :: total free energy        -198.920653345388 Eh   ::
         ::.................................................::
         :: total energy             -199.609332873130 Eh   ::
         :: zero point energy           0.776542544207 Eh   ::
         :: G(RRHO) w/o ZPVE           -0.087863016465 Eh   ::
         :: G(RRHO) contrib.            0.688679527742 Eh   ::
         :::::::::::::::::::::::::::::::::::::::::::::::::::::

optimized geometry written to: xtbopt.xyz


           -------------------------------------------------
          | TOTAL ENERGY             -199.609332873130 Eh   |
          | TOTAL ENTHALPY           -198.770771093780 Eh   |
          | TOTAL FREE ENERGY        -198.920653345388 Eh   |
          | GRADIENT NORM               0.000436693474 Eh/α |
          | HOMO-LUMO GAP               0.004971027323 eV   |
           -------------------------------------------------

------------------------------------------------------------------------
 * finished run on 2021/11/19 at 11:11:07.274     
------------------------------------------------------------------------
 total:
 * wall-time:     0 d,  0 h,  6 min,  9.800 sec
 *  cpu-time:     0 d,  0 h,  6 min,  9.789 sec
 * ratio c/w:     1.000 speedup
 SCF:
 * wall-time:     0 d,  0 h,  0 min,  1.811 sec
 *  cpu-time:     0 d,  0 h,  0 min,  1.811 sec
 * ratio c/w:     1.000 speedup
 ANC optimizer:
 * wall-time:     0 d,  0 h,  1 min, 15.730 sec
 *  cpu-time:     0 d,  0 h,  1 min, 15.716 sec
 * ratio c/w:     1.000 speedup
 analytical hessian:
 * wall-time:     0 d,  0 h,  4 min, 52.000 sec
 *  cpu-time:     0 d,  0 h,  4 min, 52.004 sec
 * ratio c/w:     1.000 speedup

