111
 energy: -198.598932826448 gnorm: 0.619695344423 xtb: 6.4.1 (bd6e46d)
Co       15.83846300000000    0.03559800000000   -0.00993100000000
C        18.16745400000000   -3.11119500000000    1.31275700000000
C        19.08356100000000   -2.16698800000000    1.26247500000000
C        18.67238100000000   -1.11308400000000    0.34118300000000
C        19.29125200000000    0.01126200000000   -0.00522600000000
C        18.58721000000000    1.23121100000000   -0.36933200000000
C        18.91532000000000    2.19126500000000   -1.21680500000000
C        17.88054000000000    3.20755100000000   -1.23370300000000
C        16.94427200000000    2.83108900000000   -0.38681100000000
N        17.34626300000000    1.59807800000000    0.17700600000000
C        15.68319800000000    3.47608800000000   -0.00766000000000
C        14.58798100000000    2.84130600000000    0.34310000000000
C        13.51435500000000    3.15926200000000    1.31212900000000
C        12.67679200000000    2.16250800000000    1.23496200000000
C        13.11509000000000    1.15882500000000    0.25451000000000
N        14.22002800000000    1.59767800000000   -0.22978200000000
C        12.50425500000000   -0.09444600000000   -0.15903800000000
C        13.16841600000000   -1.19895300000000   -0.41346200000000
C        12.79456700000000   -2.26189400000000   -1.37099000000000
C        13.74331400000000   -3.15565000000000   -1.28197000000000
C        14.72903800000000   -2.71820000000000   -0.29909300000000
N        14.37599200000000   -1.57239500000000    0.19770500000000
C        15.95992600000000   -3.37427100000000    0.14662900000000
C        17.08296700000000   -2.72840900000000    0.41375000000000
N        17.41156700000000   -1.48096800000000   -0.18465400000000
H        18.22771500000000   -4.02097600000000    1.93030400000000
H        19.99988800000000   -2.20693700000000    1.84052400000000
H        19.84268500000000    2.20806100000000   -1.81794900000000
H        17.89743900000000    4.11223900000000   -1.84632500000000
H        15.63547500000000    4.57089100000000   -0.01143700000000
H        13.46153400000000    4.03798700000000    1.93712100000000
H        11.76516200000000    2.12683800000000    1.85228600000000
H        11.40600500000000   -0.09153500000000   -0.25830800000000
H        11.92571100000000   -2.31435900000000   -2.01994000000000
H        13.74046800000000   -4.07195800000000   -1.88073000000000
H        15.92444400000000   -4.47007200000000    0.25855300000000
Co       40.00276500000000   -0.01177800000000   -0.01436400000000
C        37.67377400000000    2.83501400000000    1.86914000000000
C        36.75766600000000    1.91652400000000    1.64456700000000
C        37.16884600000001    1.05182800000000    0.54375300000000
C        36.54997500000001    0.01126200000000   -0.00522600000000
C        37.25401800000000   -1.11996200000000   -0.58932900000000
C        36.92590700000001   -1.90613400000000   -1.60019600000000
C        37.96068700000000   -2.90164300000000   -1.80533600000000
C        38.89695500000000   -2.68882700000000   -0.90330600000000
N        38.49496500000000   -1.58181500000000   -0.12053500000000
C        40.15802900000000   -3.39296800000000   -0.65039300000000
C        41.25324700000001   -2.83427500000000   -0.18796000000000
C        42.32687200000000   -3.32648100000000    0.70526200000000
C        43.16443500000000   -2.33271400000000    0.81434700000000
C        42.72613700000000   -1.16456500000000    0.03711200000000
N        41.62119900000000   -1.50595700000000   -0.52018700000000
C        43.33697200000000    0.14367000000000   -0.13675700000000
C        42.67281200000000    1.27620400000000   -0.18186400000000
C        43.04666000000001    2.49832900000000   -0.92557900000000
C        42.09791300000000    3.36005700000000   -0.67230000000000
C        41.11218900000000    2.74786200000000    0.21236300000000
N        41.46523500000000    1.52978300000000    0.48797300000000
C        39.88130100000001    3.30985600000000    0.77205800000000
C        38.75826000000000    2.62565200000000    0.91472500000000
N        38.42966000000000    1.51087700000000    0.09529100000000
H        37.61351200000000    3.61443800000000    2.64474400000000
H        35.84133900000000    1.84854400000000    2.21999200000000
H        35.99854200000000   -1.81111700000000   -2.19402100000000
H        37.94378800000000   -3.67697800000000   -2.57515600000000
H        40.20575200000000   -4.46806600000000   -0.85720600000000
H        42.37969400000000   -4.30589700000000    1.15638900000000
H        44.07606500000000   -2.41218600000000    1.42757300000000
H        44.43522300000000    0.15922600000000   -0.23484500000000
H        43.91551600000000    2.67027300000000   -1.55353100000000
H        42.10075900000000    4.37153800000000   -1.09067800000000
H        39.91678400000000    4.36587300000000    1.08532700000000
C        21.90570000000000    0.01126200000000   -0.00522600000000
C        23.12190500000001    0.01126200000000   -0.00522600000000
C        32.71932200000000    0.01126200000000   -0.00522600000000
C        33.93552700000000    0.01126200000000   -0.00522600000000
Co       27.95211000000000    0.02406400000000    0.00825900000000
C        25.67229900000000   -3.23738300000000   -0.90140700000000
C        24.71609000000000   -2.33803300000000   -1.00343300000000
C        25.10846400000000   -1.17572800000000   -0.20091700000000
C        24.47334700000000   -0.02445600000000    0.01134900000000
C        25.15880400000000    1.25014400000000    0.23757800000000
C        24.82351400000000    2.32874400000000    0.94181900000000
C        25.84805500000000    3.34806100000000    0.85123700000000
C        26.79865300000000    2.85113600000000    0.07787200000000
N        26.42165800000000    1.53453100000000   -0.33827100000000
C        28.04579200000000    3.46283800000000   -0.33899300000000
C        29.14734400000000    2.79558000000000   -0.67076500000000
C        30.14089000000000    3.04756500000000   -1.70493500000000
C        31.03477300000000    2.08670600000000   -1.60345100000000
C        30.65507500000000    1.17482200000000   -0.49947400000000
N        29.56016000000000    1.62414100000000    0.00789300000000
C        31.31228200000000   -0.02445600000000    0.01134900000000
C        30.68887100000000   -1.09363800000000    0.47286600000000
C        31.06758300000000   -2.02575300000000    1.54834100000000
C        30.12691500000000   -2.93989900000000    1.63420700000000
C        29.11861300000000   -2.64412000000000    0.63678000000000
N        29.45638800000000   -1.59074300000000   -0.01251500000000
C        27.86622000000000   -3.35112700000000    0.30558700000000
C        26.75234400000000   -2.75443100000000   -0.04175400000000
N        26.37023100000000   -1.47167400000000    0.37592800000000
H        25.67264300000000   -4.22845700000000   -1.39264100000000
H        23.80755500000000   -2.45972700000000   -1.58458100000000
H        23.89866200000000    2.44709500000000    1.51874400000000
H        25.87535000000000    4.33722500000000    1.30788700000000
H        28.13173200000000    4.56021500000000   -0.40101600000000
H        30.17356300000001    3.85378100000000   -2.43175900000000
H        31.92783500000001    1.97373800000000   -2.23722500000000
H        31.98233400000001   -1.95134700000000    2.15851100000000
H        30.14596100000000   -3.75350700000000    2.34247500000000
H        27.90470500000000   -4.45108700000000    0.36462300000000
111
 energy: -198.806649988257 gnorm: 0.334346811908 xtb: 6.4.1 (bd6e46d)
Co       15.85306437680911    0.03166928821556   -0.00906724550185
C        18.16974364991981   -3.12071214011985    1.30028472047765
C        19.10253604589198   -2.16755282758020    1.25578476046511
C        18.67161016700387   -1.11381577030760    0.34807441604121
C        19.28091061666450    0.03720735103343   -0.00200306514451
C        18.57407064465994    1.22694090362759   -0.36180362184280
C        18.93022621908091    2.22301943144338   -1.23476567637623
C        17.91494091818833    3.20932357645782   -1.24686539434609
C        16.93787390530888    2.79989788107905   -0.38122644125691
N        17.30985335668070    1.56032596240290    0.16931195255640
C        15.70651503046468    3.47076529265778   -0.00697135562989
C        14.57948319645360    2.82072743434623    0.34379471972943
C        13.51284167380939    3.16780882836817    1.28941776039392
C        12.64627411451681    2.15529426476907    1.23628979949258
C        13.11208298186495    1.15687568186225    0.27558939370418
N        14.27067203518462    1.56010961983851   -0.19633387202984
C        12.49098380334164   -0.06962240882916   -0.15112177850299
C        13.17359990155475   -1.19991183178043   -0.41977991909784
C        12.78495784444473   -2.26398546111349   -1.35221932354662
C        13.75056136939054   -3.18094666002300   -1.27617403859992
C        14.74197039491972   -2.72513897354660   -0.31035450355383
N        14.40089301612847   -1.53430831899360    0.15730174588306
C        15.94065129145268   -3.37937638814049    0.13761097172349
C        17.08743578010994   -2.70785242763305    0.41859527707013
N        17.39501618439679   -1.46006168291153   -0.14075511824552
H        18.21629200225994   -4.01457458835340    1.91897211455831
H        20.00738804989311   -2.19476114042494    1.83671597793696
H        19.84120188670503    2.22095823095176   -1.82094459964302
H        17.90761043537112    4.10798792539692   -1.84765342308368
H        15.65857999535071    4.56326511440619   -0.00195859969448
H        13.47107668069749    4.03594103827612    1.92706598387938
H        11.75749472151492    2.11466631448467    1.85099785021750
H        11.40695847332746   -0.07911861611064   -0.26579897627039
H        11.92788518024650   -2.30219804318803   -2.00883334302612
H        13.75522342155303   -4.07871291018624   -1.87570127423101
H        15.91792190807372   -4.46430031441137    0.25814083071866
Co       39.98819202837180   -0.00806336847205   -0.01279969200282
C        37.67151835550373    2.84669605399477    1.85866030288142
C        36.73876537946606    1.91832403492778    1.63811397956486
C        37.16981219208642    1.05125276953762    0.55080406175246
C        36.56087564067041   -0.01517842745105   -0.00618715483151
C        37.26739363653792   -1.11713597352464   -0.58109283535061
C        36.91107659130877   -1.93398739265018   -1.62368640957310
C        37.92627430286073   -2.90093496119747   -1.81860687464593
C        38.90338607413836   -2.65921572798045   -0.89204630213978
N        38.53144581168751   -1.54345038546423   -0.12102771415168
C        40.13473174202829   -3.38787971282656   -0.64874864263284
C        41.26174383878828   -2.81417307254928   -0.18346820459474
C        42.32838842946368   -3.33066212583875    0.68135812662704
C        43.19495519409737   -2.32587374613089    0.81697457680673
C        42.72914265477823   -1.16655017495897    0.05816229055088
N        41.57056327340453   -1.47525571486681   -0.48039031584403
C        43.35023430338216    0.11780026778957   -0.13358760650652
C        42.66761230682908    1.27832209003526   -0.18791169127067
C        43.05626342701201    2.49690018044368   -0.90676332791117
C        42.09066091656322    3.38384076458353   -0.66192861534412
C        41.09925554435635    2.75676591190921    0.20256931634625
N        41.44035404528950    1.49986556093878    0.44121581053735
C        39.90057434419375    3.31656448739451    0.76413292776718
C        38.75378946358992    2.60459018462539    0.91565861817132
N        38.44632888101087    1.48215311324490    0.13460410864416
H        37.62493485136417    3.61026395759943    2.63241997070140
H        35.83387652127034    1.83732444550639    2.21397369268279
H        36.00006416073882   -1.82322047243048   -2.19937195500379
H        37.93361125022933   -3.67255072160686   -2.57570736424728
H        40.18266004873102   -4.46234369939395   -0.84650508245577
H        42.37015786175665   -4.30202613833734    1.14687924800225
H        44.08373520466628   -2.39998824120130    1.42855400986629
H        44.43426434839967    0.14841246601721   -0.24450743493227
H        43.91334150650240    2.65626271938571   -1.54488487913681
H        42.08600062204258    4.37724656879772   -1.08449246224427
H        39.92330052081591    4.36029136786953    1.08383949675338
C        21.86329902812961    0.01013982976265   -0.00591842393535
C        23.08628075283290    0.02270386012513   -0.00855269544651
C        32.75143969765190    0.02080635541448    0.00033390685103
C        33.97157629490678    0.01124010301737   -0.00571152730450
Co       27.93968201915486    0.02560588622190    0.00751807260384
C        25.67186988155513   -3.25777152906166   -0.89003116953306
C        24.70876678404117   -2.33810532444299   -0.99043024421071
C        25.13355028503185   -1.18517784283176   -0.20621855271863
C        24.47943932541046   -0.00063437710659    0.00720550187410
C        25.18982374227237    1.25240787400243    0.23526252028173
C        24.81250867981917    2.35850301004104    0.95276325947415
C        25.81973595356054    3.34865794104661    0.85787402218904
C        26.81102644246212    2.82449998860076    0.07514718799485
N        26.46057381888902    1.50696832286845   -0.31401350526386
C        28.02834854275531    3.45858891928194   -0.34168076469665
C        29.15552404299085    2.77837913143147   -0.67104793559720
C        30.15169963584819    3.05554211665413   -1.68652511608541
C        31.06038034563510    2.07387763439683   -1.60055968378873
C        30.65824652613725    1.16773438164648   -0.52072395253208
N        29.51274356600413    1.58658082673808   -0.02154094979490
C        31.33221086018712   -0.00514882487378    0.00109168976614
C        30.67853632602499   -1.10125789323354    0.48024676015075
C        31.08215183660851   -2.02672691793606    1.53383094067006
C        30.12363199279430   -2.95832723129441    1.63061479076625
C        29.10531502551765   -2.64594661254305    0.64787253788661
N        29.42850627768536   -1.53740085684000    0.01030002899351
C        27.88836242457672   -3.35712226099968    0.31623081467864
C        26.74210330702264   -2.73845959458331   -0.05072053153576
N        26.39709713661871   -1.44460386906466    0.32792546501737
H        25.67952635863887   -4.22506302179081   -1.38701758850073
H        23.80835514540601   -2.44602611020428   -1.57735452959145
H        23.89716836259215    2.45365567303679    1.52028156489080
H        25.85984305389809    4.32945574251985    1.31067498140571
H        28.10727915322529    4.55060007470755   -0.40943592964235
H        30.16432484602130    3.85144236977185   -2.41930302155346
H        31.93096435947992    1.96442768863250   -2.23312892619416
H        31.97637708986128   -1.94476151462863    2.14675812284022
H        30.13570482811562   -3.76156040612825    2.34211848495497
H        27.91378970346647   -4.44718206603813    0.36100071657512
111
 energy: -198.936934011691 gnorm: 0.141662727630 xtb: 6.4.1 (bd6e46d)
Co       15.86527609020814    0.03103236494449   -0.00588198562145
C        18.16831358077064   -3.12354009849735    1.28546649148371
C        19.11871611095743   -2.16652096657410    1.24585868694016
C        18.66694060859267   -1.11103943422481    0.36112085327951
C        19.27028430768270    0.06050483434398   -0.00770370173671
C        18.56324304520407    1.21515404006172   -0.36074442021976
C        18.94058675927097    2.25427246261551   -1.24212406931848
C        17.95040445248960    3.20590645267206   -1.24537380840806
C        16.92986170735367    2.76301940695563   -0.37467237310338
N        17.27543526244566    1.51720692511551    0.13817450536106
C        15.73376245644315    3.45471050365487   -0.00644295658093
C        14.58443394176258    2.78631790351484    0.35595181312557
C        13.51946472027150    3.16699109348914    1.26089698861817
C        12.62112526394423    2.15207603377736    1.22510377788604
C        13.11088746146130    1.15159361594363    0.29912029367037
N        14.32927579431895    1.51551276880825   -0.14631050386881
C        12.48606018155598   -0.04595829444491   -0.14136986569602
C        13.18907292774077   -1.19176764678663   -0.43811928217420
C        12.78351740953586   -2.26148904675340   -1.33027650775018
C        13.75386331097114   -3.20115961038431   -1.26041121869274
C        14.75715775741875   -2.72681921011757   -0.32389665212722
N        14.43225535660351   -1.48258620479949    0.10080764313368
C        15.92346741833569   -3.37487520238108    0.12720976171768
C        17.08566614925297   -2.67658750738323    0.43034166940178
N        17.37450698898256   -1.43412578260892   -0.08778258517689
H        18.20331509539730   -4.00794949375645    1.90098247406601
H        20.01823172593306   -2.18195578017635    1.82615263726242
H        19.84061938262042    2.23202577491063   -1.81888734860821
H        17.91266554441373    4.10133168639938   -1.83995835603601
H        15.68212536261339    4.54471932038046   -0.00138414272702
H        13.48112050021400    4.03002129143835    1.90710765421764
H        11.74942537748187    2.10267330772099    1.84137680992370
H        11.41158213784758   -0.07148086603985   -0.26340813728340
H        11.93205475393579   -2.28990500719474   -1.99038654396887
H        13.76967190756504   -4.08629316012541   -1.86273360740246
H        15.91835076595061   -4.45285362232745    0.25014145793031
Co       39.97598242190006   -0.00805931181296   -0.00953207548636
C        37.67301133200920    2.85220699090941    1.84462774173289
C        36.72277456665679    1.91900024196049    1.62809421176887
C        37.17498204316497    1.04626047662972    0.56276460694029
C        36.57250848603725   -0.03618997599162   -0.01782686027144
C        37.27857880556614   -1.10563582784835   -0.57814272081902
C        36.90087731476655   -1.96334978107551   -1.63679043461032
C        37.89086912318117   -2.89792719044822   -1.81649922671287
C        38.91146016803813   -2.62434840143327   -0.87870922236761
N        38.56603699738168   -1.49541378523194   -0.14362708554363
C        40.10751478297057   -3.37229382875235   -0.64523910815292
C        41.25680232675931   -2.78263712781227   -0.16511779322202
C        42.32175864527179   -3.32455012699657    0.65350448901340
C        43.22011005730373   -2.32061099375004    0.80658492059361
C        42.73037319913279   -1.16571941701696    0.08226337699076
N        41.51194737686948   -1.44071870531143   -0.42295000549630
C        43.35517843111445    0.09273007169681   -0.12840123212332
C        42.65215378010672    1.27372175692931   -0.20747172944731
C        43.05770170320139    2.49035667067464   -0.88569490135604
C        42.08735633126216    3.40077516284151   -0.64272056307203
C        41.08408986982143    2.76097936504765    0.18956868544103
N        41.40899057621892    1.45952269807691    0.37607848741973
C        39.91785524851091    3.31419621506524    0.75311196915643
C        38.75567985814317    2.57184344400080    0.92144312230135
N        38.46725844984044    1.44712701217509    0.18180522618087
H        37.63787753218827    3.60711370654040    2.61347743273236
H        35.82311233727772    1.82668586050941    2.20104954091100
H        36.00078980278017   -1.83447944256951   -2.19940116277916
H        37.92857972588007   -3.66748671199229   -2.56689861374967
H        40.15915908003978   -4.44428675390587   -0.84252190725191
H        42.36011115279558   -4.29249127379071    1.12838662093091
H        44.09181155084364   -2.38639959931828    1.42132728312474
H        44.42965480999209    0.14046632776108   -0.24356680919366
H        43.90917095603155    2.64074361783868   -1.52906745530590
H        42.07155116490654    4.38228381449158   -1.07037599840945
H        39.92291731332030    4.35062684522851    1.07384647080462
C        21.82534362090355    0.01777055221054   -0.00233901194953
C        23.04960860647904    0.03448830967789   -0.00700110043716
C        32.78903709224904    0.02004776915302    0.00292905034457
C        34.01217085015281    0.00166377867030   -0.00016709831095
Co       27.93221515775365    0.02828047637050    0.00538302701113
C        25.67662770361188   -3.27027798959843   -0.87585272265428
C        24.70576478243333   -2.33213980439657   -0.97321123612586
C        25.15811478387542   -1.18350181771378   -0.21818132274621
C        24.47998323957873    0.02507833681743    0.00615995733937
C        25.22088313561002    1.24557161783705    0.23503946140942
C        24.80462473604517    2.38643762788921    0.95340528196878
C        25.79057398622136    3.34214392749207    0.85386308290957
C        26.82646401097230    2.79135154915574    0.07433365246629
N        26.49899487969392    1.47372889086761   -0.26678271309102
C        28.00799317946793    3.44449402965981   -0.34335545247637
C        29.15395977485224    2.74510674820094   -0.68018049037789
C        30.15747250976702    3.05467428282878   -1.66365230138908
C        31.08328779933989    2.06206739280692   -1.58546397788006
C        30.66450384413062    1.15431601557579   -0.54241295078742
N        29.45953217780018    1.53830223169843   -0.06419836330177
C        31.35524004582703    0.01261021885048   -0.00945897218105
C        30.66364943343150   -1.09647097983810    0.49535010949787
C        31.08932505924652   -2.02234004426297    1.51427745275946
C        30.12181103188087   -2.97217640120960    1.61469373795681
C        29.09005161876983   -2.64052963182801    0.65954646439330
N        29.39858584547641   -1.46783530067331    0.04847832095381
C        27.90988729100163   -3.35039066037113    0.32628576936607
C        26.74206741962613   -2.71489460112744   -0.06959210413412
N        26.42545792436252   -1.41362173709204    0.26756742223318
H        25.68683246657235   -4.22179882163049   -1.37360789885628
H        23.80916084803368   -2.42976781642949   -1.56154666592658
H        23.89514040821169    2.45686124639966    1.51535043337425
H        25.84606659686382    4.31767606703549    1.30636313944621
H        28.08149219253405    4.53161897072524   -0.41017808115410
H        30.15459730443028    3.84772336025681   -2.39680789332654
H        31.93629632135578    1.95572862457808   -2.22217442662164
H        31.96995086824844   -1.94000816471506    2.12830664256776
H        30.12420785334898   -3.76887704009753    2.33215208526686
H        27.91714466100909   -4.43455408926376    0.36431396027376
111
 energy: -199.013894190173 gnorm: 0.092820626086 xtb: 6.4.1 (bd6e46d)
Co       15.87472849900922    0.03278660472911   -0.00015186147460
C        18.16994215490117   -3.11918033194172    1.27184747139795
C        19.13200050433175   -2.16459242190753    1.23613875710368
C        18.66506118723681   -1.09813712954530    0.38498927533891
C        19.27276780100897    0.07428292695387   -0.00364912627363
C        18.56189708489041    1.20076829899792   -0.37032703332237
C        18.95621501312274    2.27272599845745   -1.24113438115540
C        17.97443503663945    3.20534910044877   -1.23767199669981
C        16.92675976761988    2.72931190736709   -0.37659824263264
N        17.25268526429959    1.47233496490785    0.09011532248442
C        15.75919666865666    3.42669710378221   -0.00150898857024
C        14.60691834799426    2.74566850850319    0.38050807423066
C        13.52603885947970    3.16032399077632    1.23734160338112
C        12.60705179636865    2.15344236151094    1.20743105804828
C        13.11961376085639    1.13523258265625    0.32746789502100
N        14.38200139293019    1.46579119165071   -0.08101252803049
C        12.49057285502552   -0.03251657582642   -0.13416650716188
C        13.21022191905358   -1.17479990460317   -0.46499864821391
C        12.78596818854909   -2.26017587774318   -1.31294715793691
C        13.75274156760269   -3.21227224340317   -1.24132355484631
C        14.77517021284913   -2.71378899360268   -0.34756173305138
N        14.46889531666477   -1.43168687301303    0.03325634199232
C        15.91892742800665   -3.35927007485029    0.12015010931818
C        17.08119009183079   -2.64609599342135    0.44832893078083
N        17.35760190375431   -1.39669076133097   -0.02953432241507
H        18.19184819465516   -4.00711654153429    1.87718792302737
H        20.03684245640573   -2.17231270460820    1.80780081241713
H        19.85656131762674    2.24498052350313   -1.81507723510063
H        17.91714060316744    4.10323532179996   -1.82566338075095
H        15.71108143795230    4.51469493763083   -0.00550373945234
H        13.48949965177169    4.02791378005918    1.87569123543461
H        11.73313554113201    2.09535272451120    1.82141980892415
H        11.41677213539762   -0.06433226301936   -0.25328287879365
H        11.93031580126375   -2.28141215884547   -1.96474422546999
H        13.78133424269582   -4.10123632300230   -1.83831723303714
H        15.92338203767844   -4.43677708298018    0.23537892986298
Co       39.96668741750076   -0.01070611774346   -0.00429206605925
C        37.67144533051624    2.85055724617687    1.83045557080668
C        36.70965057416749    1.91894934858745    1.61837057554354
C        37.17704742697303    1.02893278405589    0.58434105967733
C        36.57036045376157   -0.05114281903747   -0.01506471658132
C        37.28016481183437   -1.08993852943352   -0.58465150682072
C        36.88540464514991   -1.98159339117315   -1.63922960050452
C        37.86693106955747   -2.89886193557141   -1.80888807596252
C        38.91471625503613   -2.59100976230335   -0.87445897865490
N        38.58924023009764   -1.44244609038173   -0.18269735160943
C        40.08219395778263   -3.34581497280730   -0.63522910782819
C        41.23437661730345   -2.74730799671670   -0.13344934938115
C        42.31521369636675   -3.31364092374382    0.63162206595047
C        43.23419447167498   -2.31866761140567    0.78899950575442
C        42.72164477620486   -1.15490986964331    0.11319710845532
N        41.45922426728855   -1.40399192419861   -0.34952451554500
C        43.35067615718339    0.07819386411905   -0.12381553640566
C        42.63103941044307    1.26204251322334   -0.23702851265471
C        43.05528371441930    2.48585002837105   -0.86892582439157
C        42.08851510224934    3.40815240313881   -0.62192829214200
C        41.06612967578639    2.75259076899573    0.16389093136291
N        41.37241031384782    1.42207884883486    0.30031579383821
C        39.92248109019744    3.30024872865881    0.74326250450970
C        38.76024019868245    2.53864489170558    0.93343281959859
N        38.48409436084783    1.39965186654370    0.23205130161329
H        37.64938515110941    3.61080547428056    2.58995367918250
H        35.80464891580868    1.82066973871131    2.18130114760598
H        35.98494236838569   -1.84786721539594   -2.19789198553612
H        37.92408752966430   -3.67210025274721   -2.55320629092350
H        40.13029647188821   -4.41415091340989   -0.84096796506588
H        42.35175267756602   -4.28459303355328    1.09794337833029
H        44.10811281132442   -2.37549146718361    1.40310041141621
H        44.42447393309479    0.13156335454949   -0.23494870154332
H        43.91092969341644    2.62763266897839   -1.50547122733611
H        42.05990519331274    4.39243293847420   -1.04364036045459
H        39.91797084416409    4.33764330042469    1.05637053013648
C        21.78811142382960    0.02850184716972   -0.00306158526008
C        23.01440642867148    0.04691106684773   -0.00515808234953
C        32.83221284956310    0.01519991566238   -0.00310273136971
C        34.05787552267444   -0.00539346481036   -0.00376865768269
Co       27.93447390655390    0.03300393753513    0.00211138056209
C        25.67923463438233   -3.26952478410057   -0.86150288230307
C        24.70314102003357   -2.32552595651099   -0.95628332527631
C        25.16876923015550   -1.16702297575585   -0.23998990688468
C        24.46772554787294    0.04444051860110    0.00195621749467
C        25.23203337561958    1.23270100145552    0.24291198915160
C        24.79269946686066    2.40021369443825    0.94798680469155
C        25.77095638385629    3.33710583380265    0.84568836617792
C        26.83715070456842    2.75933597066248    0.08481707188733
N        26.52582537641672    1.43573276667601   -0.20609416440430
C        27.99259794861062    3.41496049787586   -0.34559542561109
C        29.14149028241989    2.70048978274264   -0.69794762244467
C        30.16228301541446    3.04530692091294   -1.64302321971008
C        31.10287771063934    2.05676327087321   -1.56725179756240
C        30.67269685091894    1.12968078315246   -0.56446461784014
N        29.42080535231132    1.48062406209294   -0.11737595460200
C        31.38518986402185    0.02251806680669   -0.01618349366579
C        30.65811943453161   -1.07744345770088    0.51329158734270
C        31.09368767901368   -2.02032398971452    1.49705640353555
C        30.12379475789566   -2.97728210400147    1.59525718424418
C        29.07692006639548   -2.61598375600985    0.67719701016372
N        29.37602694493071   -1.39951934271025    0.09761213603404
C        27.92238822441437   -3.32985662390141    0.32925716692786
C        26.75188302706784   -2.68936529391760   -0.09551611283630
N        26.45341451247536   -1.37675610718973    0.19899760066903
H        25.69202172707491   -4.22281316616707   -1.35234351307216
H        23.80314891039300   -2.41548929637162   -1.53667012336398
H        23.88098810372828    2.46024229244215    1.50507627061471
H        25.83158391589825    4.31227696263078    1.29481057724118
H        28.05340005667163    4.50039636032336   -0.40852611245488
H        30.14808047207507    3.84703501923781   -2.36388119543721
H        31.95443536515427    1.95211694185603   -2.20557005092397
H        31.97370684832068   -1.94035391525993    2.10597234134018
H        30.11481620430643   -3.77944944382761    2.30942187710203