      -----------------------------------------------------------      
     |                   =====================                   |     
     |                           x T B                           |     
     |                   =====================                   |     
     |                         S. Grimme                         |     
     |          Mulliken Center for Theoretical Chemistry        |     
     |                    University of Bonn                     |     
      -----------------------------------------------------------      

   * xtb version 6.4.1 (bd6e46d) compiled by 'conda@4901f00b25ba' on 2021-06-10

   xtb is free software: you can redistribute it and/or modify it under
   the terms of the GNU Lesser General Public License as published by
   the Free Software Foundation, either version 3 of the License, or
   (at your option) any later version.
   
   xtb is distributed in the hope that it will be useful,
   but WITHOUT ANY WARRANTY; without even the implied warranty of
   MERCHANTABILITY or FITNESS FOR A PARTICULAR PURPOSE.  See the
   GNU Lesser General Public License for more details.
   
   Cite this work as:
   * C. Bannwarth, E. Caldeweyher, S. Ehlert, A. Hansen, P. Pracht,
     J. Seibert, S. Spicher, S. Grimme, WIREs Comput. Mol. Sci., 2020, 11,
     e01493. DOI: 10.1002/wcms.1493
   
   for GFN2-xTB:
   * C. Bannwarth, S. Ehlert and S. Grimme., J. Chem. Theory Comput., 2019,
     15, 1652-1671. DOI: 10.1021/acs.jctc.8b01176
   for GFN1-xTB:
   * S. Grimme, C. Bannwarth, P. Shushkov, J. Chem. Theory Comput., 2017,
     13, 1989-2009. DOI: 10.1021/acs.jctc.7b00118
   for GFN0-xTB:
   * P. Pracht, E. Caldeweyher, S. Ehlert, S. Grimme, ChemRxiv, 2019, preprint.
     DOI: 10.26434/chemrxiv.8326202.v1
   for GFN-FF:
   * S. Spicher and S. Grimme, Angew. Chem. Int. Ed., 2020, 59, 15665-15673.
     DOI: 10.1002/anie.202004239
   
   for DFT-D4:
   * E. Caldeweyher, C. Bannwarth and S. Grimme, J. Chem. Phys., 2017,
     147, 034112. DOI: 10.1063/1.4993215
   * E. Caldeweyher, S. Ehlert, A. Hansen, H. Neugebauer, S. Spicher,
     C. Bannwarth and S. Grimme, J. Chem. Phys., 2019, 150, 154122.
     DOI: 10.1063/1.5090222
   * E. Caldeweyher, J.-M. Mewes, S. Ehlert and S. Grimme, Phys. Chem. Chem. Phys.
     2020, 22, 8499-8512. DOI: 10.1039/D0CP00502A
   
   for sTDA-xTB:
   * S. Grimme and C. Bannwarth, J. Chem. Phys., 2016, 145, 054103.
     DOI: 10.1063/1.4959605
   
   in the mass-spec context:
   * V. Asgeirsson, C. Bauer and S. Grimme, Chem. Sci., 2017, 8, 4879.
     DOI: 10.1039/c7sc00601b
   * J. Koopman and S. Grimme, ACS Omega 2019, 4, 12, 15120-15133.
     DOI: 10.1021/acsomega.9b02011
   
   for metadynamics refer to:
   * S. Grimme, J. Chem. Theory Comput., 2019, 155, 2847-2862
     DOI: 10.1021/acs.jctc.9b00143
   
   for SPH calculations refer to:
   * S. Spicher and S. Grimme, J. Chem. Theory Comput., 2021, 17, 1701-1714
     DOI: 10.1021/acs.jctc.0c01306
   
   with help from (in alphabetical order)
   P. Atkinson, C. Bannwarth, F. Bohle, G. Brandenburg, E. Caldeweyher
   M. Checinski, S. Dohm, S. Ehlert, S. Ehrlich, I. Gerasimov, J. Koopman
   C. Lavigne, S. Lehtola, F. März, M. Müller, F. Musil, H. Neugebauer
   J. Pisarek, C. Plett, P. Pracht, J. Seibert, P. Shushkov, S. Spicher
   M. Stahn, M. Steiner, T. Strunk, J. Stückrath, T. Rose, and J. Unsleber
   
 * started run on 2021/11/21 at 01:42:15.609     

           -------------------------------------------------
          |                Calculation Setup                |
           -------------------------------------------------

          program call               : /home/jeff/miniconda3/bin/xtb /home/jeff/chem/final-year-proejct/Fe+2_4_5_outenergy/input_structure.xyz --gfn 2 --parallel 1 --etemp 300 --chrg 0 --uhf 0 -I det_control.in
          coordinate file            : /home/jeff/chem/final-year-proejct/Fe+2_4_5_outenergy/input_structure.xyz
          omp threads                :                     1
          number of atoms            :                   193
          number of electrons        :                   656
          charge                     :                     0
          spin                       :                   0.0
          first test random number   :      0.12176863432661

   ID    Z sym.   atoms
    1   26 Fe     1, 37, 89, 124, 159
    2    6 C      2-9, 11-15, 17-21, 23, 24, 38-45, 47-51, 53-57, 59, 60,
                  73-88, 90-97, 99-103, 105-109, 111, 112, 125-132, 134-138,
                  140-144, 146, 147, 160-167, 169-173, 175-179, 181, 182
    3    7 N      10, 16, 22, 25, 46, 52, 58, 61, 98, 104, 110, 113, 133,
                  139, 145, 148, 168, 174, 180, 183
    4    1 H      26-36, 62-72, 114-123, 149-158, 184-193

           -------------------------------------------------
          |                 G F N 2 - x T B                 |
           -------------------------------------------------

        Reference                      10.1021/acs.jctc.8b01176
      * Hamiltonian:
        H0-scaling (s, p, d)           1.850000    2.230000    2.230000
        zeta-weighting                 0.500000
      * Dispersion:
        s8                             2.700000
        a1                             0.520000
        a2                             5.000000
        s9                             5.000000
      * Repulsion:
        kExp                           1.500000    1.000000
        rExp                           1.000000
      * Coulomb:
        alpha                          2.000000
        third order                    shell-resolved
        anisotropic                    true
        a3                             3.000000
        a5                             4.000000
        cn-shift                       1.200000
        cn-exp                         4.000000
        max-rad                        5.000000


          ...................................................
          :                      SETUP                      :
          :.................................................:
          :  # basis functions                 646          :
          :  # atomic orbitals                 641          :
          :  # shells                          339          :
          :  # electrons                       656          :
          :  max. iterations                   250          :
          :  Hamiltonian                  GFN2-xTB          :
          :  restarted?                      false          :
          :  GBSA solvation                  false          :
          :  PC potential                    false          :
          :  electronic temp.          300.0000000     K    :
          :  accuracy                    1.0000000          :
          :  -> integral cutoff          0.2500000E+02      :
          :  -> integral neglect         0.1000000E-07      :
          :  -> SCF convergence          0.1000000E-05 Eh   :
          :  -> wf. convergence          0.1000000E-03 e    :
          :  Broyden damping             0.4000000          :
          ...................................................

 iter      E             dE          RMSdq      gap      omega  full diag
   1   -354.0044952 -0.354004E+03  0.836E+00    0.00       0.0  T
   2   -342.7958374  0.112087E+02  0.835E+00    0.01       1.0  T
   3   -316.9594527  0.258364E+02  0.912E+00    0.15       1.0  T
   4   -310.1600939  0.679936E+01  0.837E+00    0.06       1.0  T
   5   -330.2813787 -0.201213E+02  0.771E+00    0.01       1.0  T
   6   -350.0920922 -0.198107E+02  0.581E+00    0.06       1.0  T
   7   -349.3212220  0.770870E+00  0.533E+00    0.11       1.0  T
   8   -334.0403519  0.152809E+02  0.768E+00    0.09       1.0  T
   9   -341.7679494 -0.772760E+01  0.691E+00    0.02       1.0  T
  10   -342.9518055 -0.118386E+01  0.610E+00    0.05       1.0  T
  11   -351.5474959 -0.859569E+01  0.391E+00    0.06       1.0  T
  12   -348.3441420  0.320335E+01  0.513E+00    0.03       1.0  T
  13   -349.7749632 -0.143082E+01  0.437E+00    0.02       1.0  T
  14   -345.2565985  0.451836E+01  0.533E+00    0.02       1.0  T
  15   -352.0851094 -0.682851E+01  0.356E+00    0.03       1.0  T
  16   -354.0583365 -0.197323E+01  0.314E+00    0.01       1.0  T
  17   -352.9660659  0.109227E+01  0.354E+00    0.03       1.0  T
  18   -354.4630267 -0.149696E+01  0.275E+00    0.07       1.0  T
  19   -353.4788136  0.984213E+00  0.270E+00    0.03       1.0  T
  20   -352.6227356  0.856078E+00  0.350E+00    0.09       1.0  T
  21   -354.1344109 -0.151168E+01  0.254E+00    0.06       1.0  T
  22   -353.7440082  0.390403E+00  0.265E+00    0.03       1.0  T
  23   -352.5237185  0.122029E+01  0.353E+00    0.01       1.0  T
  24   -353.5358399 -0.101212E+01  0.269E+00    0.03       1.0  T
  25   -355.1389102 -0.160307E+01  0.229E+00    0.03       1.0  T
  26   -354.7596460  0.379264E+00  0.247E+00    0.05       1.0  T
  27   -354.7412149  0.184311E-01  0.243E+00    0.05       1.0  T
  28   -350.3611461  0.438007E+01  0.436E+00    0.05       1.0  T
  29   -355.0953613 -0.473422E+01  0.199E+00    0.03       1.0  T
  30   -353.1914808  0.190388E+01  0.317E+00    0.01       1.0  T
  31   -354.6662500 -0.147477E+01  0.201E+00    0.02       1.0  T
  32   -354.0845815  0.581668E+00  0.233E+00    0.01       1.0  T
  33   -354.8242493 -0.739668E+00  0.171E+00    0.01       1.0  T
  34   -354.5796108  0.244639E+00  0.184E+00    0.03       1.0  T
  35   -355.1268272 -0.547216E+00  0.146E+00    0.04       1.0  T
  36   -354.6705080  0.456319E+00  0.181E+00    0.02       1.0  T
  37   -354.6757856 -0.527762E-02  0.181E+00    0.02       1.0  T
  38   -354.6496186  0.261670E-01  0.184E+00    0.02       1.0  T
  39   -354.8666472 -0.217029E+00  0.154E+00    0.00       1.0  T
  40   -355.2553637 -0.388716E+00  0.118E+00    0.07       1.0  T
  41   -355.2846669 -0.293032E-01  0.129E+00    0.08       1.0  T
  42   -355.2744438  0.102231E-01  0.129E+00    0.08       1.0  T
  43   -355.2741637  0.280038E-03  0.129E+00    0.08       1.0  T
  44   -355.2288783  0.452854E-01  0.140E+00    0.05       1.0  T
  45   -355.2672229 -0.383446E-01  0.130E+00    0.06       1.0  T
  46   -355.2880204 -0.207975E-01  0.118E+00    0.07       1.0  T
  47   -355.3050006 -0.169802E-01  0.109E+00    0.08       1.0  T
  48   -355.3454181 -0.404176E-01  0.903E-01    0.10       1.0  T
  49   -355.3365382  0.887993E-02  0.740E-01    0.09       1.0  T
  50   -355.3394317 -0.289350E-02  0.652E-01    0.09       1.0  T
  51   -355.3463358 -0.690405E-02  0.585E-01    0.09       1.0  T
  52   -355.3579472 -0.116114E-01  0.505E-01    0.10       1.0  T
  53   -355.3520615  0.588571E-02  0.482E-01    0.09       1.0  T
  54   -355.3322777  0.197838E-01  0.510E-01    0.08       1.0  T
  55   -355.3307492  0.152842E-02  0.510E-01    0.09       1.0  T
  56   -355.3538692 -0.231199E-01  0.417E-01    0.10       1.0  T
  57   -355.3606692 -0.680005E-02  0.387E-01    0.11       1.0  T
  58   -355.3657245 -0.505524E-02  0.361E-01    0.12       1.0  T
  59   -355.3705253 -0.480080E-02  0.338E-01    0.12       1.0  T
  60   -355.3778649 -0.733959E-02  0.301E-01    0.14       1.0  T
  61   -355.3826660 -0.480117E-02  0.293E-01    0.16       1.0  T
  62   -355.3841048 -0.143879E-02  0.290E-01    0.17       1.0  T
  63   -355.3852051 -0.110030E-02  0.279E-01    0.18       1.0  T
  64   -355.3869451 -0.173996E-02  0.252E-01    0.20       1.0  T
  65   -355.3875211 -0.576069E-03  0.214E-01    0.20       1.0  T
  66   -355.3872973  0.223887E-03  0.199E-01    0.19       1.0  T
  67   -355.3869837  0.313513E-03  0.166E-01    0.18       1.0  T
  68   -355.3868747  0.109041E-03  0.147E-01    0.18       1.0  T
  69   -355.3870231 -0.148406E-03  0.138E-01    0.18       1.0  T
  70   -355.3875811 -0.557990E-03  0.119E-01    0.19       1.0  T
  71   -355.3879798 -0.398738E-03  0.989E-02    0.20       1.0  T
  72   -355.3880477 -0.678518E-04  0.770E-02    0.20       1.0  T
  73   -355.3880596 -0.119090E-04  0.604E-02    0.20       1.0  T
  74   -355.3881815 -0.121890E-03  0.460E-02    0.20       1.0  T
  75   -355.3882968 -0.115298E-03  0.428E-02    0.21       1.0  T
  76   -355.3883234 -0.266341E-04  0.413E-02    0.21       1.0  T
  77   -355.3883690 -0.456011E-04  0.389E-02    0.21       1.0  T
  78   -355.3884430 -0.740025E-04  0.339E-02    0.21       1.0  T
  79   -355.3884961 -0.530805E-04  0.305E-02    0.22       1.0  T
  80   -355.3885595 -0.633906E-04  0.269E-02    0.22       1.0  T
  81   -355.3886059 -0.464029E-04  0.229E-02    0.23       1.0  T
  82   -355.3886372 -0.313266E-04  0.191E-02    0.23       1.0  T
  83   -355.3886574 -0.201728E-04  0.131E-02    0.23       1.0  T
  84   -355.3886642 -0.680156E-05  0.857E-03    0.23       1.0  T
  85   -355.3886656 -0.142721E-05  0.564E-03    0.24       1.3  T
  86   -355.3886661 -0.453768E-06  0.386E-03    0.23       1.9  T
  87   -355.3886666 -0.564331E-06  0.299E-03    0.23       2.4  T
  88   -355.3886669 -0.286491E-06  0.240E-03    0.23       3.0  T
  89   -355.3886670 -0.627440E-07  0.200E-03    0.23       3.6  T
  90   -355.3886671 -0.943496E-07  0.138E-03    0.24       5.2  T
  91   -355.3886672 -0.628010E-07  0.106E-03    0.24       6.8  T
  92   -355.3886672 -0.588217E-07  0.871E-04    0.24       8.3  T
  93   -355.3886672 -0.183075E-07  0.779E-04    0.24       9.2  T

   *** convergence criteria satisfied after 93 iterations ***

         #    Occupation            Energy/Eh            Energy/eV
      -------------------------------------------------------------
         1        2.0000           -0.6678101             -18.1720
       ...           ...                  ...                  ...
       322        2.0000           -0.3377588              -9.1909
       323        2.0000           -0.3377524              -9.1907
       324        1.9861           -0.3303338              -8.9888
       325        1.9860           -0.3303234              -8.9886
       326        1.9855           -0.3302896              -8.9876
       327        1.9775           -0.3298703              -8.9762
       328        1.9773           -0.3298614              -8.9760 (HOMO)
       329        0.0191           -0.3212083              -8.7405 (LUMO)
       330        0.0182           -0.3211587              -8.7392
       331        0.0180           -0.3211525              -8.7390
       332        0.0162           -0.3210470              -8.7361
       333        0.0161           -0.3210425              -8.7360
       ...           ...                  ...                  ...
       641                          1.6408101              44.6487
      -------------------------------------------------------------
                  HL-Gap            0.0086530 Eh            0.2355 eV
             Fermi-level           -0.3256168 Eh           -8.8605 eV

 SCC (total)                   0 d,  0 h,  0 min,  9.850 sec
 SCC setup                      ...        0 min,  0.007 sec (  0.069%)
 Dispersion                     ...        0 min,  0.014 sec (  0.145%)
 classical contributions        ...        0 min,  0.002 sec (  0.015%)
 integral evaluation            ...        0 min,  0.120 sec (  1.215%)
 iterations                     ...        0 min,  9.388 sec ( 95.316%)
 molecular gradient             ...        0 min,  0.306 sec (  3.112%)
 printout                       ...        0 min,  0.013 sec (  0.128%)

         :::::::::::::::::::::::::::::::::::::::::::::::::::::
         ::                     SUMMARY                     ::
         :::::::::::::::::::::::::::::::::::::::::::::::::::::
         :: total energy            -349.059562714436 Eh    ::
         :: gradient norm              0.000249747634 Eh/a0 ::
         :: HOMO-LUMO gap              0.235461449843 eV    ::
         ::.................................................::
         :: SCC energy              -355.388667228600 Eh    ::
         :: -> isotropic ES           -0.036949277678 Eh    ::
         :: -> anisotropic ES          0.051542512383 Eh    ::
         :: -> anisotropic XC          0.209859526675 Eh    ::
         :: -> dispersion             -0.276867500285 Eh    ::
         :: repulsion energy           6.333693335750 Eh    ::
         :: add. restraining           0.000000000000 Eh    ::
         :: total charge              -0.000000000009 e     ::
         :::::::::::::::::::::::::::::::::::::::::::::::::::::

           -------------------------------------------------
          |                Property Printout                |
           -------------------------------------------------

    * Orbital Energies and Occupations

         #    Occupation            Energy/Eh            Energy/eV
      -------------------------------------------------------------
         1        2.0000           -0.6678101             -18.1720
       ...           ...                  ...                  ...
       316        2.0000           -0.3392253              -9.2308
       317        2.0000           -0.3391674              -9.2292
       318        2.0000           -0.3391642              -9.2291
       319        2.0000           -0.3379985              -9.1974
       320        2.0000           -0.3379937              -9.1973
       321        2.0000           -0.3379919              -9.1972
       322        2.0000           -0.3377588              -9.1909
       323        2.0000           -0.3377524              -9.1907
       324        1.9861           -0.3303338              -8.9888
       325        1.9860           -0.3303234              -8.9886
       326        1.9855           -0.3302896              -8.9876
       327        1.9775           -0.3298703              -8.9762
       328        1.9773           -0.3298614              -8.9760 (HOMO)
       329        0.0191           -0.3212083              -8.7405 (LUMO)
       330        0.0182           -0.3211587              -8.7392
       331        0.0180           -0.3211525              -8.7390
       332        0.0162           -0.3210470              -8.7361
       333        0.0161           -0.3210425              -8.7360
       334                         -0.3092007              -8.4138
       335                         -0.3039230              -8.2702
       336                         -0.2971156              -8.0849
       337                         -0.2908942              -7.9156
       338                         -0.2908862              -7.9154
       339                         -0.2908854              -7.9154
       ...                                ...                  ...
       641                          1.6408101              44.6487
      -------------------------------------------------------------
                  HL-Gap            0.0086530 Eh            0.2355 eV
             Fermi-level           -0.3256168 Eh           -8.8605 eV

     #   Z          covCN         q      C6AA      α(0)
     1  26 Fe       3.083     0.562     5.146     7.318
     2   6 C        3.027    -0.054    29.318     8.882
     3   6 C        3.013    -0.054    29.328     8.883
     4   6 C        3.184     0.070    25.998     8.321
     5   6 C        2.955     0.010    27.783     8.645
     6   6 C        3.184     0.070    25.999     8.321
     7   6 C        3.013    -0.054    29.327     8.883
     8   6 C        3.027    -0.054    29.318     8.882
     9   6 C        3.160     0.064    26.256     8.377
    10   7 N        2.637    -0.214    25.678     7.526
    11   6 C        2.903    -0.060    29.500     8.906
    12   6 C        3.155     0.065    26.248     8.378
    13   6 C        3.023    -0.053    29.300     8.879
    14   6 C        3.013    -0.055    29.349     8.887
    15   6 C        3.166     0.070    26.093     8.348
    16   7 N        2.638    -0.213    25.641     7.521
    17   6 C        2.903    -0.059    29.468     8.901
    18   6 C        3.166     0.070    26.093     8.348
    19   6 C        3.013    -0.055    29.349     8.887
    20   6 C        3.023    -0.053    29.300     8.879
    21   6 C        3.155     0.065    26.248     8.378
    22   7 N        2.638    -0.213    25.641     7.521
    23   6 C        2.903    -0.060    29.499     8.906
    24   6 C        3.160     0.064    26.256     8.377
    25   7 N        2.637    -0.214    25.677     7.526
    26   1 H        0.926     0.030     2.581     2.512
    27   1 H        0.926     0.033     2.546     2.495
    28   1 H        0.926     0.033     2.546     2.495
    29   1 H        0.926     0.030     2.581     2.512
    30   1 H        0.926     0.049     2.328     2.386
    31   1 H        0.926     0.031     2.575     2.510
    32   1 H        0.926     0.031     2.571     2.507
    33   1 H        0.926     0.047     2.352     2.398
    34   1 H        0.926     0.031     2.571     2.507
    35   1 H        0.926     0.031     2.575     2.510
    36   1 H        0.926     0.049     2.327     2.386
    37  26 Fe       3.083     0.562     5.146     7.318
    38   6 C        3.027    -0.054    29.318     8.882
    39   6 C        3.013    -0.054    29.328     8.883
    40   6 C        3.184     0.070    25.999     8.321
    41   6 C        2.955     0.010    27.783     8.645
    42   6 C        3.184     0.070    25.999     8.321
    43   6 C        3.013    -0.054    29.327     8.883
    44   6 C        3.027    -0.054    29.318     8.882
    45   6 C        3.159     0.064    26.255     8.377
    46   7 N        2.637    -0.214    25.678     7.526
    47   6 C        2.903    -0.060    29.500     8.906
    48   6 C        3.155     0.065    26.248     8.378
    49   6 C        3.023    -0.053    29.300     8.879
    50   6 C        3.013    -0.055    29.349     8.887
    51   6 C        3.166     0.070    26.094     8.348
    52   7 N        2.638    -0.213    25.641     7.521
    53   6 C        2.903    -0.059    29.468     8.901
    54   6 C        3.166     0.070    26.093     8.348
    55   6 C        3.013    -0.055    29.349     8.887
    56   6 C        3.023    -0.053    29.300     8.879
    57   6 C        3.155     0.065    26.248     8.378
    58   7 N        2.638    -0.213    25.641     7.521
    59   6 C        2.903    -0.060    29.500     8.906
    60   6 C        3.159     0.064    26.255     8.377
    61   7 N        2.637    -0.214    25.677     7.526
    62   1 H        0.926     0.030     2.581     2.512
    63   1 H        0.926     0.033     2.546     2.495
    64   1 H        0.926     0.033     2.546     2.495
    65   1 H        0.926     0.030     2.581     2.512
    66   1 H        0.926     0.049     2.328     2.386
    67   1 H        0.926     0.031     2.575     2.510
    68   1 H        0.926     0.031     2.571     2.507
    69   1 H        0.926     0.047     2.353     2.399
    70   1 H        0.926     0.031     2.571     2.507
    71   1 H        0.926     0.031     2.575     2.510
    72   1 H        0.926     0.049     2.328     2.386
    73   6 C        1.990    -0.023    31.647     9.085
    74   6 C        1.963    -0.011    31.367     9.044
    75   6 C        1.963    -0.011    31.362     9.044
    76   6 C        1.990    -0.023    31.652     9.086
    77   6 C        1.990    -0.023    31.647     9.085
    78   6 C        1.964    -0.011    31.364     9.044
    79   6 C        1.964    -0.011    31.364     9.044
    80   6 C        1.990    -0.023    31.647     9.085
    81   6 C        1.991    -0.023    31.647     9.085
    82   6 C        1.964    -0.011    31.364     9.044
    83   6 C        1.964    -0.011    31.364     9.044
    84   6 C        1.990    -0.023    31.647     9.085
    85   6 C        1.990    -0.023    31.650     9.085
    86   6 C        1.963    -0.011    31.362     9.044
    87   6 C        1.963    -0.011    31.366     9.044
    88   6 C        1.990    -0.022    31.645     9.085
    89  26 Fe       3.077     0.565     5.144     7.316
    90   6 C        3.027    -0.054    29.317     8.881
    91   6 C        3.014    -0.054    29.329     8.884
    92   6 C        3.185     0.071    25.987     8.319
    93   6 C        2.955     0.010    27.785     8.646
    94   6 C        3.185     0.071    25.988     8.319
    95   6 C        3.014    -0.054    29.328     8.883
    96   6 C        3.027    -0.054    29.317     8.881
    97   6 C        3.160     0.064    26.257     8.377
    98   7 N        2.636    -0.215    25.705     7.530
    99   6 C        2.903    -0.059    29.457     8.899
   100   6 C        3.161     0.064    26.256     8.376
   101   6 C        3.027    -0.054    29.316     8.881
   102   6 C        3.014    -0.054    29.330     8.884
   103   6 C        3.185     0.071    25.984     8.318
   104   7 N        2.636    -0.216    25.706     7.530
   105   6 C        2.955     0.010    27.786     8.646
   106   6 C        3.185     0.071    25.984     8.318
   107   6 C        3.014    -0.054    29.330     8.884
   108   6 C        3.027    -0.054    29.316     8.881
   109   6 C        3.161     0.064    26.256     8.376
   110   7 N        2.636    -0.216    25.706     7.530
   111   6 C        2.903    -0.059    29.456     8.899
   112   6 C        3.160     0.064    26.257     8.376
   113   7 N        2.636    -0.215    25.704     7.530
   114   1 H        0.926     0.030     2.582     2.513
   115   1 H        0.926     0.033     2.549     2.497
   116   1 H        0.926     0.033     2.549     2.497
   117   1 H        0.926     0.030     2.582     2.513
   118   1 H        0.926     0.050     2.321     2.382
   119   1 H        0.926     0.030     2.582     2.513
   120   1 H        0.926     0.033     2.549     2.497
   121   1 H        0.926     0.033     2.549     2.496
   122   1 H        0.926     0.030     2.582     2.513
   123   1 H        0.926     0.050     2.321     2.382
   124  26 Fe       3.077     0.566     5.144     7.316
   125   6 C        3.027    -0.054    29.317     8.881
   126   6 C        3.014    -0.054    29.330     8.884
   127   6 C        3.185     0.071    25.984     8.318
   128   6 C        2.955     0.010    27.786     8.646
   129   6 C        3.185     0.071    25.984     8.318
   130   6 C        3.014    -0.054    29.330     8.884
   131   6 C        3.027    -0.054    29.317     8.881
   132   6 C        3.161     0.064    26.256     8.376
   133   7 N        2.636    -0.216    25.706     7.530
   134   6 C        2.903    -0.059    29.455     8.899
   135   6 C        3.161     0.064    26.256     8.376
   136   6 C        3.027    -0.054    29.317     8.881
   137   6 C        3.014    -0.054    29.329     8.884
   138   6 C        3.185     0.071    25.984     8.318
   139   7 N        2.636    -0.216    25.706     7.530
   140   6 C        2.955     0.010    27.786     8.646
   141   6 C        3.186     0.071    25.983     8.318
   142   6 C        3.014    -0.054    29.330     8.884
   143   6 C        3.027    -0.054    29.317     8.881
   144   6 C        3.161     0.064    26.256     8.376
   145   7 N        2.636    -0.216    25.706     7.530
   146   6 C        2.903    -0.059    29.455     8.899
   147   6 C        3.161     0.064    26.256     8.376
   148   7 N        2.636    -0.216    25.706     7.530
   149   1 H        0.926     0.030     2.582     2.513
   150   1 H        0.926     0.033     2.549     2.497
   151   1 H        0.926     0.033     2.549     2.497
   152   1 H        0.926     0.030     2.582     2.513
   153   1 H        0.926     0.050     2.321     2.382
   154   1 H        0.926     0.030     2.582     2.513
   155   1 H        0.926     0.033     2.549     2.497
   156   1 H        0.926     0.033     2.549     2.497
   157   1 H        0.926     0.030     2.582     2.513
   158   1 H        0.926     0.050     2.321     2.382
   159  26 Fe       3.077     0.565     5.144     7.316
   160   6 C        3.027    -0.054    29.316     8.881
   161   6 C        3.014    -0.054    29.330     8.884
   162   6 C        3.185     0.071    25.984     8.318
   163   6 C        2.955     0.010    27.787     8.646
   164   6 C        3.185     0.071    25.984     8.318
   165   6 C        3.014    -0.054    29.329     8.884
   166   6 C        3.027    -0.054    29.316     8.881
   167   6 C        3.161     0.064    26.256     8.376
   168   7 N        2.636    -0.216    25.706     7.530
   169   6 C        2.903    -0.059    29.457     8.899
   170   6 C        3.160     0.064    26.257     8.376
   171   6 C        3.027    -0.054    29.317     8.881
   172   6 C        3.014    -0.054    29.329     8.884
   173   6 C        3.185     0.071    25.987     8.319
   174   7 N        2.636    -0.215    25.704     7.530
   175   6 C        2.955     0.010    27.785     8.646
   176   6 C        3.185     0.071    25.988     8.319
   177   6 C        3.014    -0.054    29.328     8.883
   178   6 C        3.027    -0.054    29.317     8.881
   179   6 C        3.160     0.064    26.257     8.376
   180   7 N        2.636    -0.216    25.705     7.530
   181   6 C        2.903    -0.059    29.457     8.899
   182   6 C        3.161     0.064    26.256     8.376
   183   7 N        2.636    -0.216    25.706     7.530
   184   1 H        0.926     0.030     2.582     2.513
   185   1 H        0.926     0.033     2.549     2.497
   186   1 H        0.926     0.033     2.549     2.496
   187   1 H        0.926     0.030     2.582     2.513
   188   1 H        0.926     0.050     2.321     2.382
   189   1 H        0.926     0.030     2.582     2.513
   190   1 H        0.926     0.033     2.549     2.496
   191   1 H        0.926     0.033     2.548     2.496
   192   1 H        0.926     0.030     2.582     2.513
   193   1 H        0.926     0.050     2.321     2.382

 Mol. C6AA /au·bohr⁶  :     653970.622338
 Mol. C8AA /au·bohr⁸  :   17267203.373578
 Mol. α(0) /au        :       1326.317527


Wiberg/Mayer (AO) data.
largest (>0.10) Wiberg bond orders for each atom

 ---------------------------------------------------------------------------
     #   Z sym  total        # sym  WBO       # sym  WBO       # sym  WBO
 ---------------------------------------------------------------------------
     1  26 Fe   3.277 --    16 N    0.660    22 N    0.660    25 N    0.657
                            10 N    0.657
     2   6 C    3.957 --     3 C    1.644    24 C    1.171    26 H    0.972
     3   6 C    3.962 --     2 C    1.644     4 C    1.182    27 H    0.971
     4   6 C    3.922 --    25 N    1.257     5 C    1.257     3 C    1.182
     5   6 C    3.951 --     6 C    1.257     4 C    1.257    73 C    1.182
     6   6 C    3.923 --    10 N    1.257     5 C    1.257     7 C    1.182
     7   6 C    3.962 --     8 C    1.644     6 C    1.182    28 H    0.971
     8   6 C    3.957 --     7 C    1.644     9 C    1.171    29 H    0.972
     9   6 C    3.937 --    11 C    1.361    10 N    1.217     8 C    1.171
    10   7 N    3.416 --     6 C    1.257     9 C    1.217     1 Fe   0.657
    11   6 C    3.943 --     9 C    1.361    12 C    1.361    30 H    0.963
    12   6 C    3.942 --    11 C    1.361    16 N    1.227    13 C    1.163
    13   6 C    3.962 --    14 C    1.660    12 C    1.163    31 H    0.972
    14   6 C    3.960 --    13 C    1.660    15 C    1.164    32 H    0.972
    15   6 C    3.944 --    17 C    1.358    16 N    1.239    14 C    1.164
    16   7 N    3.412 --    15 C    1.239    12 C    1.227     1 Fe   0.660
    17   6 C    3.939 --    15 C    1.358    18 C    1.358    33 H    0.965
    18   6 C    3.944 --    17 C    1.358    22 N    1.239    19 C    1.164
    19   6 C    3.960 --    20 C    1.660    18 C    1.164    34 H    0.972
    20   6 C    3.962 --    19 C    1.660    21 C    1.163    35 H    0.972
    21   6 C    3.942 --    23 C    1.361    22 N    1.227    20 C    1.163
    22   7 N    3.412 --    18 C    1.239    21 C    1.227     1 Fe   0.660
    23   6 C    3.943 --    24 C    1.361    21 C    1.361    36 H    0.963
    24   6 C    3.937 --    23 C    1.361    25 N    1.217     2 C    1.171
    25   7 N    3.416 --     4 C    1.257    24 C    1.217     1 Fe   0.657
    26   1 H    0.998 --     2 C    0.972
    27   1 H    0.998 --     3 C    0.971
    28   1 H    0.998 --     7 C    0.971
    29   1 H    0.998 --     8 C    0.972
    30   1 H    0.996 --    11 C    0.963
    31   1 H    0.998 --    13 C    0.972
    32   1 H    0.998 --    14 C    0.972
    33   1 H    0.997 --    17 C    0.965
    34   1 H    0.998 --    19 C    0.972
    35   1 H    0.998 --    20 C    0.972
    36   1 H    0.996 --    23 C    0.963
    37  26 Fe   3.277 --    52 N    0.660    58 N    0.660    46 N    0.657
                            61 N    0.657
    38   6 C    3.957 --    39 C    1.644    60 C    1.171    62 H    0.972
    39   6 C    3.962 --    38 C    1.644    40 C    1.182    63 H    0.971
    40   6 C    3.923 --    61 N    1.257    41 C    1.257    39 C    1.182
    41   6 C    3.951 --    42 C    1.257    40 C    1.257    88 C    1.182
    42   6 C    3.923 --    41 C    1.257    46 N    1.257    43 C    1.182
    43   6 C    3.962 --    44 C    1.644    42 C    1.182    64 H    0.971
    44   6 C    3.957 --    43 C    1.644    45 C    1.171    65 H    0.972
    45   6 C    3.937 --    47 C    1.361    46 N    1.217    44 C    1.171
    46   7 N    3.416 --    42 C    1.257    45 C    1.217    37 Fe   0.657
    47   6 C    3.943 --    45 C    1.361    48 C    1.361    66 H    0.963
    48   6 C    3.942 --    47 C    1.361    52 N    1.227    49 C    1.163
    49   6 C    3.962 --    50 C    1.660    48 C    1.163    67 H    0.972
    50   6 C    3.960 --    49 C    1.660    51 C    1.164    68 H    0.972
    51   6 C    3.944 --    53 C    1.358    52 N    1.239    50 C    1.164
    52   7 N    3.412 --    51 C    1.239    48 C    1.227    37 Fe   0.660
    53   6 C    3.939 --    51 C    1.358    54 C    1.358    69 H    0.965
    54   6 C    3.944 --    53 C    1.358    58 N    1.239    55 C    1.164
    55   6 C    3.960 --    56 C    1.660    54 C    1.164    70 H    0.972
    56   6 C    3.962 --    55 C    1.660    57 C    1.163    71 H    0.972
    57   6 C    3.942 --    59 C    1.361    58 N    1.227    56 C    1.163
    58   7 N    3.412 --    54 C    1.239    57 C    1.227    37 Fe   0.660
    59   6 C    3.943 --    60 C    1.361    57 C    1.361    72 H    0.963
    60   6 C    3.937 --    59 C    1.361    61 N    1.217    38 C    1.171
    61   7 N    3.416 --    40 C    1.257    60 C    1.217    37 Fe   0.657
    62   1 H    0.998 --    38 C    0.972
    63   1 H    0.998 --    39 C    0.971
    64   1 H    0.998 --    43 C    0.971
    65   1 H    0.998 --    44 C    0.972
    66   1 H    0.996 --    47 C    0.963
    67   1 H    0.998 --    49 C    0.972
    68   1 H    0.998 --    50 C    0.972
    69   1 H    0.997 --    53 C    0.965
    70   1 H    0.998 --    55 C    0.972
    71   1 H    0.998 --    56 C    0.972
    72   1 H    0.996 --    59 C    0.963
    73   6 C    3.920 --    74 C    2.476     5 C    1.182    76 C    0.204
    74   6 C    3.931 --    73 C    2.476    75 C    1.301
    75   6 C    3.928 --    76 C    2.474    74 C    1.301
    76   6 C    3.921 --    75 C    2.474    93 C    1.185    73 C    0.204
    77   6 C    3.919 --    78 C    2.472   105 C    1.186    80 C    0.203
    78   6 C    3.928 --    77 C    2.472    79 C    1.304
    79   6 C    3.928 --    80 C    2.472    78 C    1.304
    80   6 C    3.919 --    79 C    2.472   128 C    1.186    77 C    0.203
    81   6 C    3.919 --    82 C    2.472   140 C    1.186    84 C    0.203
    82   6 C    3.928 --    81 C    2.472    83 C    1.304
    83   6 C    3.928 --    84 C    2.472    82 C    1.304
    84   6 C    3.919 --    83 C    2.472   163 C    1.186    81 C    0.203
    85   6 C    3.920 --    86 C    2.475   175 C    1.184    88 C    0.203
    86   6 C    3.928 --    85 C    2.475    87 C    1.301
    87   6 C    3.931 --    88 C    2.477    86 C    1.301
    88   6 C    3.919 --    87 C    2.477    41 C    1.182    85 C    0.203
    89  26 Fe   3.242 --    98 N    0.652   113 N    0.652   104 N    0.651
                           110 N    0.651
    90   6 C    3.957 --    91 C    1.643   112 C    1.172   114 H    0.972
    91   6 C    3.961 --    90 C    1.643    92 C    1.182   115 H    0.971
    92   6 C    3.923 --   113 N    1.260    93 C    1.254    91 C    1.182
    93   6 C    3.941 --    94 C    1.254    92 C    1.254    76 C    1.185
    94   6 C    3.923 --    98 N    1.260    93 C    1.254    95 C    1.182
    95   6 C    3.961 --    96 C    1.643    94 C    1.182   116 H    0.971
    96   6 C    3.957 --    95 C    1.643    97 C    1.172   117 H    0.972
    97   6 C    3.936 --    99 C    1.361    98 N    1.215    96 C    1.172
    98   7 N    3.407 --    94 C    1.260    97 C    1.215    89 Fe   0.652
    99   6 C    3.937 --   100 C    1.361    97 C    1.361   118 H    0.963
   100   6 C    3.936 --    99 C    1.361   104 N    1.215   101 C    1.172
   101   6 C    3.957 --   102 C    1.643   100 C    1.172   119 H    0.972
   102   6 C    3.961 --   101 C    1.643   103 C    1.183   120 H    0.971
   103   6 C    3.923 --   104 N    1.261   105 C    1.253   102 C    1.183
   104   7 N    3.407 --   103 C    1.261   100 C    1.215    89 Fe   0.651
   105   6 C    3.941 --   106 C    1.254   103 C    1.253    77 C    1.186
   106   6 C    3.923 --   110 N    1.261   105 C    1.254   107 C    1.183
   107   6 C    3.961 --   108 C    1.643   106 C    1.183   121 H    0.971
   108   6 C    3.957 --   107 C    1.643   109 C    1.172   122 H    0.972
   109   6 C    3.936 --   111 C    1.361   110 N    1.215   108 C    1.172
   110   7 N    3.407 --   106 C    1.261   109 C    1.215    89 Fe   0.651
   111   6 C    3.937 --   109 C    1.361   112 C    1.361   123 H    0.963
   112   6 C    3.936 --   111 C    1.361   113 N    1.215    90 C    1.172
   113   7 N    3.407 --    92 C    1.260   112 C    1.215    89 Fe   0.652
   114   1 H    0.998 --    90 C    0.972
   115   1 H    0.998 --    91 C    0.971
   116   1 H    0.998 --    95 C    0.971
   117   1 H    0.998 --    96 C    0.972
   118   1 H    0.996 --    99 C    0.963
   119   1 H    0.998 --   101 C    0.972
   120   1 H    0.998 --   102 C    0.971
   121   1 H    0.998 --   107 C    0.971
   122   1 H    0.998 --   108 C    0.972
   123   1 H    0.996 --   111 C    0.963
   124  26 Fe   3.241 --   133 N    0.651   145 N    0.651   148 N    0.651
                           139 N    0.651
   125   6 C    3.957 --   126 C    1.643   147 C    1.172   149 H    0.972
   126   6 C    3.961 --   125 C    1.643   127 C    1.183   150 H    0.971
   127   6 C    3.923 --   148 N    1.261   128 C    1.253   126 C    1.183
   128   6 C    3.941 --   127 C    1.253   129 C    1.253    80 C    1.186
   129   6 C    3.923 --   133 N    1.261   128 C    1.253   130 C    1.183
   130   6 C    3.961 --   131 C    1.643   129 C    1.183   151 H    0.971
   131   6 C    3.957 --   130 C    1.643   132 C    1.172   152 H    0.972
   132   6 C    3.936 --   134 C    1.361   133 N    1.215   131 C    1.172
   133   7 N    3.407 --   129 C    1.261   132 C    1.215   124 Fe   0.651
   134   6 C    3.936 --   132 C    1.361   135 C    1.361   153 H    0.963
   135   6 C    3.936 --   134 C    1.361   139 N    1.215   136 C    1.172
   136   6 C    3.957 --   137 C    1.643   135 C    1.172   154 H    0.972
   137   6 C    3.961 --   136 C    1.643   138 C    1.183   155 H    0.971
   138   6 C    3.923 --   139 N    1.261   140 C    1.254   137 C    1.183
   139   7 N    3.407 --   138 C    1.261   135 C    1.215   124 Fe   0.651
   140   6 C    3.941 --   138 C    1.254   141 C    1.253    81 C    1.186
   141   6 C    3.923 --   145 N    1.261   140 C    1.253   142 C    1.183
   142   6 C    3.961 --   143 C    1.643   141 C    1.183   156 H    0.971
   143   6 C    3.957 --   142 C    1.643   144 C    1.172   157 H    0.972
   144   6 C    3.936 --   146 C    1.361   145 N    1.215   143 C    1.172
   145   7 N    3.407 --   141 C    1.261   144 C    1.215   124 Fe   0.651
   146   6 C    3.936 --   144 C    1.361   147 C    1.361   158 H    0.963
   147   6 C    3.936 --   146 C    1.361   148 N    1.215   125 C    1.172
   148   7 N    3.407 --   127 C    1.261   147 C    1.215   124 Fe   0.651
   149   1 H    0.998 --   125 C    0.972
   150   1 H    0.998 --   126 C    0.971
   151   1 H    0.998 --   130 C    0.971
   152   1 H    0.998 --   131 C    0.972
   153   1 H    0.996 --   134 C    0.963
   154   1 H    0.998 --   136 C    0.972
   155   1 H    0.998 --   137 C    0.971
   156   1 H    0.998 --   142 C    0.971
   157   1 H    0.998 --   143 C    0.972
   158   1 H    0.996 --   146 C    0.963
   159  26 Fe   3.242 --   174 N    0.652   180 N    0.652   183 N    0.651
                           168 N    0.651
   160   6 C    3.957 --   161 C    1.643   182 C    1.172   184 H    0.972
   161   6 C    3.961 --   160 C    1.643   162 C    1.183   185 H    0.971
   162   6 C    3.923 --   183 N    1.261   163 C    1.254   161 C    1.183
   163   6 C    3.941 --   164 C    1.254   162 C    1.254    84 C    1.186
   164   6 C    3.923 --   168 N    1.261   163 C    1.254   165 C    1.183
   165   6 C    3.961 --   166 C    1.643   164 C    1.183   186 H    0.971
   166   6 C    3.957 --   165 C    1.643   167 C    1.172   187 H    0.972
   167   6 C    3.936 --   169 C    1.361   168 N    1.215   166 C    1.172
   168   7 N    3.407 --   164 C    1.261   167 C    1.215   159 Fe   0.651
   169   6 C    3.937 --   167 C    1.361   170 C    1.361   188 H    0.963
   170   6 C    3.936 --   169 C    1.361   174 N    1.215   171 C    1.172
   171   6 C    3.958 --   172 C    1.643   170 C    1.172   189 H    0.972
   172   6 C    3.961 --   171 C    1.643   173 C    1.182   190 H    0.971
   173   6 C    3.923 --   174 N    1.260   175 C    1.254   172 C    1.182
   174   7 N    3.407 --   173 C    1.260   170 C    1.215   159 Fe   0.652
   175   6 C    3.941 --   176 C    1.255   173 C    1.254    85 C    1.184
   176   6 C    3.923 --   180 N    1.260   175 C    1.255   177 C    1.182
   177   6 C    3.961 --   178 C    1.643   176 C    1.182   191 H    0.971
   178   6 C    3.958 --   177 C    1.643   179 C    1.172   192 H    0.972
   179   6 C    3.936 --   181 C    1.361   180 N    1.215   178 C    1.172
   180   7 N    3.407 --   176 C    1.260   179 C    1.215   159 Fe   0.652
   181   6 C    3.937 --   182 C    1.361   179 C    1.361   193 H    0.963
   182   6 C    3.936 --   181 C    1.361   183 N    1.215   160 C    1.172
   183   7 N    3.407 --   162 C    1.261   182 C    1.215   159 Fe   0.651
   184   1 H    0.998 --   160 C    0.972
   185   1 H    0.998 --   161 C    0.971
   186   1 H    0.998 --   165 C    0.971
   187   1 H    0.998 --   166 C    0.972
   188   1 H    0.996 --   169 C    0.963
   189   1 H    0.998 --   171 C    0.972
   190   1 H    0.998 --   172 C    0.971
   191   1 H    0.998 --   177 C    0.971
   192   1 H    0.998 --   178 C    0.972
   193   1 H    0.996 --   181 C    0.963
 ---------------------------------------------------------------------------

Topologies differ in total number of bonds
Writing topology from bond orders to xtbtopo.mol

molecular dipole:
                 x           y           z       tot (Debye)
 q only:        0.002      -0.001      -0.002
   full:        0.002      -0.001      -0.003       0.009
molecular quadrupole (traceless):
                xx          xy          yy          xz          yz          zz
 q only:       65.937       0.232     -22.101      -0.247      -0.766     -43.836
  q+dip:      128.749       0.336      -5.506      -0.417      -4.079    -123.243
   full:       92.426       0.320     -17.963      -0.408      -1.997     -74.463


           -------------------------------------------------
          | TOTAL ENERGY             -349.059562714436 Eh   |
          | GRADIENT NORM               0.000249747634 Eh/α |
          | HOMO-LUMO GAP               0.235461449843 eV   |
           -------------------------------------------------

------------------------------------------------------------------------
 * finished run on 2021/11/21 at 01:42:25.560     
------------------------------------------------------------------------
 total:
 * wall-time:     0 d,  0 h,  0 min,  9.951 sec
 *  cpu-time:     0 d,  0 h,  0 min,  9.951 sec
 * ratio c/w:     1.000 speedup
 SCF:
 * wall-time:     0 d,  0 h,  0 min,  9.852 sec
 *  cpu-time:     0 d,  0 h,  0 min,  9.852 sec
 * ratio c/w:     1.000 speedup

