      -----------------------------------------------------------      
     |                   =====================                   |     
     |                           x T B                           |     
     |                   =====================                   |     
     |                         S. Grimme                         |     
     |          Mulliken Center for Theoretical Chemistry        |     
     |                    University of Bonn                     |     
      -----------------------------------------------------------      

   * xtb version 6.4.1 (bd6e46d) compiled by 'conda@4901f00b25ba' on 2021-06-10

   xtb is free software: you can redistribute it and/or modify it under
   the terms of the GNU Lesser General Public License as published by
   the Free Software Foundation, either version 3 of the License, or
   (at your option) any later version.
   
   xtb is distributed in the hope that it will be useful,
   but WITHOUT ANY WARRANTY; without even the implied warranty of
   MERCHANTABILITY or FITNESS FOR A PARTICULAR PURPOSE.  See the
   GNU Lesser General Public License for more details.
   
   Cite this work as:
   * C. Bannwarth, E. Caldeweyher, S. Ehlert, A. Hansen, P. Pracht,
     J. Seibert, S. Spicher, S. Grimme, WIREs Comput. Mol. Sci., 2020, 11,
     e01493. DOI: 10.1002/wcms.1493
   
   for GFN2-xTB:
   * C. Bannwarth, S. Ehlert and S. Grimme., J. Chem. Theory Comput., 2019,
     15, 1652-1671. DOI: 10.1021/acs.jctc.8b01176
   for GFN1-xTB:
   * S. Grimme, C. Bannwarth, P. Shushkov, J. Chem. Theory Comput., 2017,
     13, 1989-2009. DOI: 10.1021/acs.jctc.7b00118
   for GFN0-xTB:
   * P. Pracht, E. Caldeweyher, S. Ehlert, S. Grimme, ChemRxiv, 2019, preprint.
     DOI: 10.26434/chemrxiv.8326202.v1
   for GFN-FF:
   * S. Spicher and S. Grimme, Angew. Chem. Int. Ed., 2020, 59, 15665-15673.
     DOI: 10.1002/anie.202004239
   
   for DFT-D4:
   * E. Caldeweyher, C. Bannwarth and S. Grimme, J. Chem. Phys., 2017,
     147, 034112. DOI: 10.1063/1.4993215
   * E. Caldeweyher, S. Ehlert, A. Hansen, H. Neugebauer, S. Spicher,
     C. Bannwarth and S. Grimme, J. Chem. Phys., 2019, 150, 154122.
     DOI: 10.1063/1.5090222
   * E. Caldeweyher, J.-M. Mewes, S. Ehlert and S. Grimme, Phys. Chem. Chem. Phys.
     2020, 22, 8499-8512. DOI: 10.1039/D0CP00502A
   
   for sTDA-xTB:
   * S. Grimme and C. Bannwarth, J. Chem. Phys., 2016, 145, 054103.
     DOI: 10.1063/1.4959605
   
   in the mass-spec context:
   * V. Asgeirsson, C. Bauer and S. Grimme, Chem. Sci., 2017, 8, 4879.
     DOI: 10.1039/c7sc00601b
   * J. Koopman and S. Grimme, ACS Omega 2019, 4, 12, 15120-15133.
     DOI: 10.1021/acsomega.9b02011
   
   for metadynamics refer to:
   * S. Grimme, J. Chem. Theory Comput., 2019, 155, 2847-2862
     DOI: 10.1021/acs.jctc.9b00143
   
   for SPH calculations refer to:
   * S. Spicher and S. Grimme, J. Chem. Theory Comput., 2021, 17, 1701-1714
     DOI: 10.1021/acs.jctc.0c01306
   
   with help from (in alphabetical order)
   P. Atkinson, C. Bannwarth, F. Bohle, G. Brandenburg, E. Caldeweyher
   M. Checinski, S. Dohm, S. Ehlert, S. Ehrlich, I. Gerasimov, J. Koopman
   C. Lavigne, S. Lehtola, F. März, M. Müller, F. Musil, H. Neugebauer
   J. Pisarek, C. Plett, P. Pracht, J. Seibert, P. Shushkov, S. Spicher
   M. Stahn, M. Steiner, T. Strunk, J. Stückrath, T. Rose, and J. Unsleber
   
 * started run on 2021/11/21 at 01:41:14.394     

           -------------------------------------------------
          |                Calculation Setup                |
           -------------------------------------------------

          program call               : /home/jeff/miniconda3/bin/xtb /home/jeff/chem/final-year-proejct/free_base/_6_4_outenergy/input_structure.xyz --gfn 2 --parallel 1 --etemp 300 --chrg 0 --uhf 0 -I det_control.in
          coordinate file            : /home/jeff/chem/final-year-proejct/free_base/_6_4_outenergy/input_structure.xyz
          omp threads                :                     1
          number of atoms            :                   164
          number of electrons        :                   522
          charge                     :                     0
          spin                       :                   0.0
          first test random number   :      0.65105092201840

   ID    Z sym.   atoms
    1    6 C      1-8, 10-14, 16-20, 22, 23, 38-45, 47-51, 53-57, 59, 60,
                  75-100, 102-106, 108-112, 114, 115, 129-136, 138-142,
                  144-148, 150, 151
    2    7 N      9, 15, 21, 24, 46, 52, 58, 61, 101, 107, 113, 116, 137,
                  143, 149, 152
    3    1 H      25-37, 62-74, 117-128, 153-164

           -------------------------------------------------
          |                 G F N 2 - x T B                 |
           -------------------------------------------------

        Reference                      10.1021/acs.jctc.8b01176
      * Hamiltonian:
        H0-scaling (s, p, d)           1.850000    2.230000    2.230000
        zeta-weighting                 0.500000
      * Dispersion:
        s8                             2.700000
        a1                             0.520000
        a2                             5.000000
        s9                             5.000000
      * Repulsion:
        kExp                           1.500000    1.000000
        rExp                           1.000000
      * Coulomb:
        alpha                          2.000000
        third order                    shell-resolved
        anisotropic                    true
        a3                             3.000000
        a5                             4.000000
        cn-shift                       1.200000
        cn-exp                         4.000000
        max-rad                        5.000000


          ...................................................
          :                      SETUP                      :
          :.................................................:
          :  # basis functions                 506          :
          :  # atomic orbitals                 506          :
          :  # shells                          278          :
          :  # electrons                       522          :
          :  max. iterations                   250          :
          :  Hamiltonian                  GFN2-xTB          :
          :  restarted?                      false          :
          :  GBSA solvation                  false          :
          :  PC potential                    false          :
          :  electronic temp.          300.0000000     K    :
          :  accuracy                    1.0000000          :
          :  -> integral cutoff          0.2500000E+02      :
          :  -> integral neglect         0.1000000E-07      :
          :  -> SCF convergence          0.1000000E-05 Eh   :
          :  -> wf. convergence          0.1000000E-03 e    :
          :  Broyden damping             0.4000000          :
          ...................................................

 iter      E             dE          RMSdq      gap      omega  full diag
   1   -286.6595600 -0.286660E+03  0.600E+00    0.62       0.0  T
   2   -287.0576971 -0.398137E+00  0.382E+00    0.85       1.0  T
   3   -286.9178619  0.139835E+00  0.153E+00    0.69       1.0  T
   4   -287.0578941 -0.140032E+00  0.592E-01    0.85       1.0  T
   5   -287.1292884 -0.713943E-01  0.216E-01    0.84       1.0  T
   6   -287.1394310 -0.101426E-01  0.918E-02    0.84       1.0  T
   7   -287.1401959 -0.764832E-03  0.584E-02    0.84       1.0  T
   8   -287.1406374 -0.441543E-03  0.242E-02    0.84       1.0  T
   9   -287.1407068 -0.693896E-04  0.128E-02    0.84       1.0  T
  10   -287.1407189 -0.121363E-04  0.720E-03    0.84       1.1  T
  11   -287.1407309 -0.119913E-04  0.197E-03    0.84       4.0  T
  12   -287.1407317 -0.765210E-06  0.936E-04    0.84       8.3  T
  13   -287.1407318 -0.127365E-06  0.427E-04    0.84      18.3  T

   *** convergence criteria satisfied after 13 iterations ***

         #    Occupation            Energy/Eh            Energy/eV
      -------------------------------------------------------------
         1        2.0000           -0.6856289             -18.6569
       ...           ...                  ...                  ...
       255        2.0000           -0.3706884             -10.0869
       256        2.0000           -0.3693396             -10.0502
       257        2.0000           -0.3693041             -10.0493
       258        2.0000           -0.3633684              -9.8878
       259        2.0000           -0.3585303              -9.7561
       260        2.0000           -0.3518777              -9.5751
       261        2.0000           -0.3462400              -9.4217 (HOMO)
       262        0.0000           -0.3153738              -8.5818 (LUMO)
       263                         -0.3087436              -8.4013
       264                         -0.3016959              -8.2096
       265                         -0.2996079              -8.1527
       266                         -0.2991172              -8.1394
       ...                                ...                  ...
       506                          1.7162143              46.7006
      -------------------------------------------------------------
                  HL-Gap            0.0308663 Eh            0.8399 eV
             Fermi-level           -0.3308061 Eh           -9.0017 eV

 SCC (total)                   0 d,  0 h,  0 min,  1.077 sec
 SCC setup                      ...        0 min,  0.005 sec (  0.430%)
 Dispersion                     ...        0 min,  0.010 sec (  0.921%)
 classical contributions        ...        0 min,  0.001 sec (  0.109%)
 integral evaluation            ...        0 min,  0.078 sec (  7.223%)
 iterations                     ...        0 min,  0.767 sec ( 71.219%)
 molecular gradient             ...        0 min,  0.210 sec ( 19.480%)
 printout                       ...        0 min,  0.007 sec (  0.616%)

         :::::::::::::::::::::::::::::::::::::::::::::::::::::
         ::                     SUMMARY                     ::
         :::::::::::::::::::::::::::::::::::::::::::::::::::::
         :: total energy            -281.601588033555 Eh    ::
         :: gradient norm              0.000605909977 Eh/a0 ::
         :: HOMO-LUMO gap              0.839913872599 eV    ::
         ::.................................................::
         :: SCC energy              -287.140731810570 Eh    ::
         :: -> isotropic ES            0.135930420144 Eh    ::
         :: -> anisotropic ES         -0.013031921572 Eh    ::
         :: -> anisotropic XC          0.207377460282 Eh    ::
         :: -> dispersion             -0.226503118724 Eh    ::
         :: repulsion energy           5.542712268028 Eh    ::
         :: add. restraining           0.000000000000 Eh    ::
         :: total charge               0.000000000303 e     ::
         :::::::::::::::::::::::::::::::::::::::::::::::::::::

           -------------------------------------------------
          |                Property Printout                |
           -------------------------------------------------

    * Orbital Energies and Occupations

         #    Occupation            Energy/Eh            Energy/eV
      -------------------------------------------------------------
         1        2.0000           -0.6856289             -18.6569
       ...           ...                  ...                  ...
       249        2.0000           -0.3740320             -10.1779
       250        2.0000           -0.3727506             -10.1431
       251        2.0000           -0.3727424             -10.1428
       252        2.0000           -0.3718450             -10.1184
       253        2.0000           -0.3718386             -10.1182
       254        2.0000           -0.3707245             -10.0879
       255        2.0000           -0.3706884             -10.0869
       256        2.0000           -0.3693396             -10.0502
       257        2.0000           -0.3693041             -10.0493
       258        2.0000           -0.3633684              -9.8878
       259        2.0000           -0.3585303              -9.7561
       260        2.0000           -0.3518777              -9.5751
       261        2.0000           -0.3462400              -9.4217 (HOMO)
       262        0.0000           -0.3153738              -8.5818 (LUMO)
       263                         -0.3087436              -8.4013
       264                         -0.3016959              -8.2096
       265                         -0.2996079              -8.1527
       266                         -0.2991172              -8.1394
       267                         -0.2984225              -8.1205
       268                         -0.2979115              -8.1066
       269                         -0.2963089              -8.0630
       270                         -0.2746483              -7.4736
       271                         -0.2671829              -7.2704
       272                         -0.2605313              -7.0894
       ...                                ...                  ...
       506                          1.7162143              46.7006
      -------------------------------------------------------------
                  HL-Gap            0.0308663 Eh            0.8399 eV
             Fermi-level           -0.3308061 Eh           -9.0017 eV

     #   Z          covCN         q      C6AA      α(0)
     1   6 C        3.016    -0.055    29.335     8.884
     2   6 C        3.009    -0.053    29.300     8.879
     3   6 C        3.196     0.087    25.560     8.242
     4   6 C        2.952     0.011    27.761     8.642
     5   6 C        3.097     0.064    26.448     8.428
     6   6 C        3.026    -0.050    29.211     8.865
     7   6 C        3.034    -0.052    29.249     8.871
     8   6 C        3.073     0.064    26.485     8.438
     9   7 N        2.785    -0.081    22.816     7.094
    10   6 C        2.899    -0.055    29.362     8.885
    11   6 C        3.171     0.087    25.715     8.284
    12   6 C        3.012    -0.054    29.314     8.881
    13   6 C        3.010    -0.054    29.316     8.882
    14   6 C        3.174     0.087    25.705     8.281
    15   7 N        1.870    -0.321    29.171     8.006
    16   6 C        2.899    -0.057    29.405     8.891
    17   6 C        3.074     0.065    26.468     8.435
    18   6 C        3.026    -0.051    29.237     8.869
    19   6 C        3.031    -0.051    29.229     8.868
    20   6 C        3.069     0.066    26.460     8.435
    21   7 N        2.787    -0.081    22.810     7.093
    22   6 C        2.899    -0.055    29.362     8.885
    23   6 C        3.175     0.086    25.718     8.282
    24   7 N        1.870    -0.325    29.279     8.021
    25   1 H        0.926     0.019     2.752     2.594
    26   1 H        0.926     0.021     2.714     2.576
    27   1 H        0.926     0.043     2.404     2.425
    28   1 H        0.926     0.042     2.428     2.437
    29   1 H        0.860     0.214     1.037     1.595
    30   1 H        0.925     0.047     2.356     2.400
    31   1 H        0.926     0.020     2.739     2.588
    32   1 H        0.926     0.020     2.739     2.588
    33   1 H        0.926     0.046     2.366     2.405
    34   1 H        0.926     0.042     2.421     2.433
    35   1 H        0.926     0.042     2.422     2.433
    36   1 H        0.860     0.214     1.036     1.594
    37   1 H        0.925     0.047     2.355     2.400
    38   6 C        3.016    -0.055    29.335     8.884
    39   6 C        3.009    -0.053    29.300     8.879
    40   6 C        3.196     0.087    25.560     8.242
    41   6 C        2.952     0.011    27.761     8.642
    42   6 C        3.097     0.064    26.449     8.428
    43   6 C        3.026    -0.050    29.211     8.865
    44   6 C        3.034    -0.052    29.249     8.871
    45   6 C        3.073     0.064    26.485     8.438
    46   7 N        2.785    -0.081    22.816     7.094
    47   6 C        2.899    -0.055    29.362     8.885
    48   6 C        3.171     0.087    25.716     8.284
    49   6 C        3.012    -0.054    29.314     8.881
    50   6 C        3.010    -0.054    29.316     8.882
    51   6 C        3.174     0.087    25.705     8.281
    52   7 N        1.870    -0.321    29.170     8.006
    53   6 C        2.899    -0.057    29.405     8.891
    54   6 C        3.074     0.065    26.468     8.435
    55   6 C        3.026    -0.051    29.237     8.869
    56   6 C        3.031    -0.051    29.229     8.868
    57   6 C        3.069     0.066    26.460     8.435
    58   7 N        2.787    -0.081    22.810     7.093
    59   6 C        2.899    -0.055    29.362     8.885
    60   6 C        3.175     0.086    25.719     8.282
    61   7 N        1.870    -0.325    29.279     8.021
    62   1 H        0.926     0.019     2.752     2.594
    63   1 H        0.926     0.021     2.714     2.576
    64   1 H        0.926     0.043     2.404     2.425
    65   1 H        0.926     0.042     2.429     2.437
    66   1 H        0.860     0.214     1.037     1.595
    67   1 H        0.925     0.047     2.356     2.400
    68   1 H        0.926     0.020     2.739     2.588
    69   1 H        0.926     0.020     2.739     2.588
    70   1 H        0.926     0.046     2.366     2.405
    71   1 H        0.926     0.042     2.421     2.433
    72   1 H        0.926     0.042     2.422     2.433
    73   1 H        0.860     0.214     1.035     1.594
    74   1 H        0.925     0.047     2.355     2.400
    75   6 C        1.996    -0.020    31.579     9.075
    76   6 C        1.963    -0.012    31.388     9.047
    77   6 C        1.965    -0.003    31.150     9.013
    78   6 C        1.965    -0.004    31.170     9.016
    79   6 C        1.963    -0.011    31.362     9.044
    80   6 C        1.994    -0.021    31.602     9.078
    81   6 C        1.994    -0.021    31.589     9.077
    82   6 C        1.963    -0.011    31.367     9.044
    83   6 C        1.965    -0.003    31.154     9.014
    84   6 C        1.965    -0.003    31.154     9.014
    85   6 C        1.963    -0.011    31.366     9.044
    86   6 C        1.994    -0.021    31.589     9.077
    87   6 C        1.994    -0.021    31.602     9.079
    88   6 C        1.963    -0.011    31.362     9.044
    89   6 C        1.965    -0.004    31.170     9.016
    90   6 C        1.965    -0.003    31.151     9.013
    91   6 C        1.963    -0.012    31.387     9.047
    92   6 C        1.996    -0.020    31.580     9.075
    93   6 C        3.018    -0.054    29.328     8.883
    94   6 C        3.008    -0.053    29.297     8.879
    95   6 C        3.197     0.087    25.561     8.242
    96   6 C        2.952     0.012    27.749     8.640
    97   6 C        3.100     0.064    26.454     8.429
    98   6 C        3.025    -0.050    29.218     8.867
    99   6 C        3.037    -0.052    29.247     8.870
   100   6 C        3.073     0.064    26.490     8.439
   101   7 N        2.786    -0.081    22.820     7.095
   102   6 C        2.899    -0.053    29.306     8.876
   103   6 C        3.174     0.085    25.733     8.285
   104   6 C        3.018    -0.054    29.328     8.883
   105   6 C        3.009    -0.053    29.298     8.879
   106   6 C        3.197     0.087    25.560     8.242
   107   7 N        1.870    -0.324    29.256     8.018
   108   6 C        2.952     0.012    27.757     8.641
   109   6 C        3.100     0.064    26.453     8.428
   110   6 C        3.025    -0.050    29.220     8.867
   111   6 C        3.037    -0.052    29.246     8.870
   112   6 C        3.073     0.064    26.491     8.439
   113   7 N        2.785    -0.081    22.821     7.095
   114   6 C        2.899    -0.053    29.305     8.876
   115   6 C        3.174     0.085    25.732     8.285
   116   7 N        1.870    -0.324    29.254     8.017
   117   1 H        0.926     0.019     2.749     2.593
   118   1 H        0.926     0.021     2.713     2.576
   119   1 H        0.926     0.043     2.406     2.426
   120   1 H        0.926     0.041     2.430     2.438
   121   1 H        0.860     0.214     1.035     1.594
   122   1 H        0.925     0.048     2.345     2.395
   123   1 H        0.926     0.019     2.749     2.593
   124   1 H        0.926     0.021     2.714     2.576
   125   1 H        0.926     0.043     2.407     2.426
   126   1 H        0.926     0.041     2.430     2.438
   127   1 H        0.860     0.214     1.035     1.594
   128   1 H        0.925     0.048     2.345     2.395
   129   6 C        3.018    -0.054    29.328     8.883
   130   6 C        3.008    -0.053    29.298     8.879
   131   6 C        3.197     0.087    25.561     8.242
   132   6 C        2.952     0.012    27.757     8.641
   133   6 C        3.100     0.064    26.453     8.429
   134   6 C        3.025    -0.050    29.220     8.867
   135   6 C        3.037    -0.052    29.246     8.870
   136   6 C        3.073     0.064    26.491     8.439
   137   7 N        2.785    -0.081    22.821     7.095
   138   6 C        2.899    -0.053    29.305     8.876
   139   6 C        3.174     0.085    25.732     8.285
   140   6 C        3.018    -0.054    29.328     8.883
   141   6 C        3.009    -0.053    29.297     8.879
   142   6 C        3.197     0.087    25.561     8.242
   143   7 N        1.870    -0.324    29.253     8.017
   144   6 C        2.952     0.012    27.750     8.640
   145   6 C        3.100     0.064    26.455     8.429
   146   6 C        3.025    -0.050    29.218     8.866
   147   6 C        3.037    -0.052    29.247     8.870
   148   6 C        3.073     0.064    26.490     8.439
   149   7 N        2.786    -0.081    22.821     7.095
   150   6 C        2.899    -0.053    29.306     8.876
   151   6 C        3.173     0.085    25.733     8.285
   152   7 N        1.870    -0.324    29.255     8.018
   153   1 H        0.926     0.019     2.749     2.593
   154   1 H        0.926     0.021     2.714     2.576
   155   1 H        0.926     0.043     2.407     2.426
   156   1 H        0.926     0.041     2.430     2.438
   157   1 H        0.860     0.215     1.035     1.594
   158   1 H        0.925     0.048     2.345     2.395
   159   1 H        0.926     0.019     2.749     2.593
   160   1 H        0.926     0.021     2.713     2.576
   161   1 H        0.926     0.043     2.407     2.426
   162   1 H        0.926     0.041     2.430     2.438
   163   1 H        0.860     0.215     1.035     1.594
   164   1 H        0.925     0.048     2.345     2.395

 Mol. C6AA /au·bohr⁶  :     461034.954833
 Mol. C8AA /au·bohr⁸  :   11931460.382285
 Mol. α(0) /au        :       1092.613168


Wiberg/Mayer (AO) data.
largest (>0.10) Wiberg bond orders for each atom

 ---------------------------------------------------------------------------
     #   Z sym  total        # sym  WBO       # sym  WBO       # sym  WBO
 ---------------------------------------------------------------------------
     1   6 C    3.960 --     2 C    1.717    23 C    1.115    25 H    0.973
     2   6 C    3.961 --     1 C    1.717     3 C    1.121    26 H    0.971
     3   6 C    3.915 --    24 N    1.362     4 C    1.242     2 C    1.121
     4   6 C    3.940 --     5 C    1.247     3 C    1.242    75 C    1.194
     5   6 C    3.901 --     4 C    1.247     6 C    1.237     9 N    1.226
     6   6 C    3.955 --     7 C    1.592     5 C    1.237    27 H    0.972
     7   6 C    3.948 --     6 C    1.592     8 C    1.224    28 H    0.973
     8   6 C    3.918 --    10 C    1.345     7 C    1.224     9 N    1.202
     9   7 N    3.590 --     5 C    1.226     8 C    1.202    29 H    0.900
    10   6 C    3.921 --    11 C    1.357     8 C    1.345    30 H    0.964
    11   6 C    3.939 --    10 C    1.357    15 N    1.324    12 C    1.107
    12   6 C    3.963 --    13 C    1.731    11 C    1.107    31 H    0.973
    13   6 C    3.962 --    12 C    1.731    14 C    1.109    32 H    0.973
    14   6 C    3.938 --    16 C    1.354    15 N    1.325    13 C    1.109
    15   7 N    3.001 --    14 C    1.325    11 C    1.324
    16   6 C    3.922 --    14 C    1.354    17 C    1.347    33 H    0.965
    17   6 C    3.921 --    16 C    1.347    18 C    1.216    21 N    1.210
    18   6 C    3.949 --    19 C    1.608    17 C    1.216    34 H    0.973
    19   6 C    3.953 --    18 C    1.608    20 C    1.215    35 H    0.973
    20   6 C    3.916 --    22 C    1.342    19 C    1.215    21 N    1.211
    21   7 N    3.586 --    20 C    1.211    17 C    1.210    36 H    0.900
    22   6 C    3.937 --    23 C    1.367    20 C    1.342    37 H    0.964
    23   6 C    3.924 --    22 C    1.367    24 N    1.298     1 C    1.115
    24   7 N    3.009 --     3 C    1.362    23 C    1.298
    25   1 H    0.999 --     1 C    0.973
    26   1 H    0.999 --     2 C    0.971
    27   1 H    0.998 --     6 C    0.972
    28   1 H    0.998 --     7 C    0.973
    29   1 H    0.954 --     9 N    0.900
    30   1 H    0.997 --    10 C    0.964
    31   1 H    0.999 --    12 C    0.973
    32   1 H    0.999 --    13 C    0.973
    33   1 H    0.997 --    16 C    0.965
    34   1 H    0.998 --    18 C    0.973
    35   1 H    0.998 --    19 C    0.973
    36   1 H    0.954 --    21 N    0.900
    37   1 H    0.997 --    22 C    0.964
    38   6 C    3.960 --    39 C    1.716    60 C    1.115    62 H    0.973
    39   6 C    3.961 --    38 C    1.716    40 C    1.122    63 H    0.971
    40   6 C    3.915 --    61 N    1.362    41 C    1.242    39 C    1.122
    41   6 C    3.940 --    42 C    1.247    40 C    1.242    92 C    1.194
    42   6 C    3.901 --    41 C    1.247    43 C    1.237    46 N    1.226
    43   6 C    3.955 --    44 C    1.592    42 C    1.237    64 H    0.972
    44   6 C    3.948 --    43 C    1.592    45 C    1.224    65 H    0.973
    45   6 C    3.918 --    47 C    1.344    44 C    1.224    46 N    1.202
    46   7 N    3.590 --    42 C    1.226    45 C    1.202    66 H    0.900
    47   6 C    3.921 --    48 C    1.357    45 C    1.344    67 H    0.964
    48   6 C    3.939 --    47 C    1.357    52 N    1.324    49 C    1.107
    49   6 C    3.963 --    50 C    1.731    48 C    1.107    68 H    0.973
    50   6 C    3.962 --    49 C    1.731    51 C    1.109    69 H    0.973
    51   6 C    3.938 --    53 C    1.354    52 N    1.325    50 C    1.109
    52   7 N    3.001 --    51 C    1.325    48 C    1.324
    53   6 C    3.922 --    51 C    1.354    54 C    1.347    70 H    0.965
    54   6 C    3.921 --    53 C    1.347    55 C    1.216    58 N    1.210
    55   6 C    3.949 --    56 C    1.608    54 C    1.216    71 H    0.973
    56   6 C    3.953 --    55 C    1.608    57 C    1.215    72 H    0.973
    57   6 C    3.916 --    59 C    1.342    56 C    1.215    58 N    1.211
    58   7 N    3.586 --    57 C    1.211    54 C    1.210    73 H    0.900
    59   6 C    3.937 --    60 C    1.367    57 C    1.342    74 H    0.964
    60   6 C    3.924 --    59 C    1.367    61 N    1.298    38 C    1.115
    61   7 N    3.009 --    40 C    1.362    60 C    1.298
    62   1 H    0.999 --    38 C    0.973
    63   1 H    0.999 --    39 C    0.971
    64   1 H    0.998 --    43 C    0.972
    65   1 H    0.998 --    44 C    0.973
    66   1 H    0.954 --    46 N    0.900
    67   1 H    0.997 --    47 C    0.964
    68   1 H    0.999 --    49 C    0.973
    69   1 H    0.999 --    50 C    0.973
    70   1 H    0.997 --    53 C    0.965
    71   1 H    0.998 --    55 C    0.973
    72   1 H    0.998 --    56 C    0.973
    73   1 H    0.954 --    58 N    0.900
    74   1 H    0.997 --    59 C    0.964
    75   6 C    3.882 --    76 C    2.435     4 C    1.194    78 C    0.192
    76   6 C    3.924 --    75 C    2.435    77 C    1.337
    77   6 C    3.915 --    78 C    2.349    76 C    1.337    80 C    0.191
    78   6 C    3.917 --    77 C    2.349    79 C    1.338    75 C    0.192
    79   6 C    3.920 --    80 C    2.431    78 C    1.338
    80   6 C    3.883 --    79 C    2.431    96 C    1.198    77 C    0.191
    81   6 C    3.881 --    82 C    2.429   108 C    1.200    84 C    0.191
    82   6 C    3.920 --    81 C    2.429    83 C    1.340
    83   6 C    3.915 --    84 C    2.345    82 C    1.340    86 C    0.191
    84   6 C    3.915 --    83 C    2.345    85 C    1.340    81 C    0.191
    85   6 C    3.920 --    86 C    2.429    84 C    1.340
    86   6 C    3.882 --    85 C    2.429   132 C    1.200    83 C    0.191
    87   6 C    3.883 --    88 C    2.431   144 C    1.199    90 C    0.191
    88   6 C    3.920 --    87 C    2.431    89 C    1.338
    89   6 C    3.917 --    90 C    2.349    88 C    1.338    92 C    0.192
    90   6 C    3.915 --    89 C    2.349    91 C    1.337    87 C    0.191
    91   6 C    3.924 --    92 C    2.434    90 C    1.337
    92   6 C    3.882 --    91 C    2.434    41 C    1.194    89 C    0.192
    93   6 C    3.961 --    94 C    1.715   115 C    1.115   117 H    0.973
    94   6 C    3.960 --    93 C    1.715    95 C    1.124   118 H    0.972
    95   6 C    3.916 --   116 N    1.362    96 C    1.240    94 C    1.124
    96   6 C    3.926 --    97 C    1.242    95 C    1.240    80 C    1.198
    97   6 C    3.902 --    96 C    1.242    98 C    1.242   101 N    1.227
    98   6 C    3.952 --    99 C    1.587    97 C    1.242   119 H    0.972
    99   6 C    3.949 --    98 C    1.587   100 C    1.228   120 H    0.973
   100   6 C    3.914 --   102 C    1.335    99 C    1.228   101 N    1.203
   101   7 N    3.586 --    97 C    1.227   100 C    1.203   121 H    0.897
   102   6 C    3.923 --   103 C    1.372   100 C    1.335   122 H    0.963
   103   6 C    3.926 --   102 C    1.372   107 N    1.294   104 C    1.115
   104   6 C    3.961 --   105 C    1.716   103 C    1.115   123 H    0.973
   105   6 C    3.960 --   104 C    1.716   106 C    1.124   124 H    0.972
   106   6 C    3.916 --   107 N    1.363   108 C    1.239   105 C    1.124
   107   7 N    3.000 --   106 C    1.363   103 C    1.294
   108   6 C    3.926 --   109 C    1.242   106 C    1.239    81 C    1.200
   109   6 C    3.902 --   108 C    1.242   110 C    1.242   113 N    1.227
   110   6 C    3.952 --   111 C    1.587   109 C    1.242   125 H    0.972
   111   6 C    3.949 --   110 C    1.587   112 C    1.228   126 H    0.973
   112   6 C    3.914 --   114 C    1.336   111 C    1.228   113 N    1.203
   113   7 N    3.586 --   109 C    1.227   112 C    1.203   127 H    0.897
   114   6 C    3.922 --   115 C    1.371   112 C    1.336   128 H    0.963
   115   6 C    3.926 --   114 C    1.371   116 N    1.295    93 C    1.115
   116   7 N    3.000 --    95 C    1.362   115 C    1.295
   117   1 H    0.999 --    93 C    0.973
   118   1 H    0.999 --    94 C    0.972
   119   1 H    0.998 --    98 C    0.972
   120   1 H    0.998 --    99 C    0.973
   121   1 H    0.954 --   101 N    0.897
   122   1 H    0.997 --   102 C    0.963
   123   1 H    0.999 --   104 C    0.973
   124   1 H    0.999 --   105 C    0.972
   125   1 H    0.998 --   110 C    0.972
   126   1 H    0.998 --   111 C    0.973
   127   1 H    0.954 --   113 N    0.897
   128   1 H    0.997 --   114 C    0.963
   129   6 C    3.961 --   130 C    1.716   151 C    1.115   153 H    0.973
   130   6 C    3.960 --   129 C    1.716   131 C    1.124   154 H    0.972
   131   6 C    3.916 --   152 N    1.363   132 C    1.239   130 C    1.124
   132   6 C    3.926 --   133 C    1.242   131 C    1.239    86 C    1.200
   133   6 C    3.902 --   132 C    1.242   134 C    1.242   137 N    1.227
   134   6 C    3.952 --   135 C    1.587   133 C    1.242   155 H    0.972
   135   6 C    3.949 --   134 C    1.587   136 C    1.228   156 H    0.973
   136   6 C    3.914 --   138 C    1.336   135 C    1.228   137 N    1.203
   137   7 N    3.586 --   133 C    1.227   136 C    1.203   157 H    0.897
   138   6 C    3.922 --   139 C    1.371   136 C    1.336   158 H    0.963
   139   6 C    3.926 --   138 C    1.371   143 N    1.295   140 C    1.115
   140   6 C    3.961 --   141 C    1.715   139 C    1.115   159 H    0.973
   141   6 C    3.960 --   140 C    1.715   142 C    1.124   160 H    0.972
   142   6 C    3.916 --   143 N    1.363   144 C    1.240   141 C    1.124
   143   7 N    3.000 --   142 C    1.363   139 C    1.295
   144   6 C    3.926 --   145 C    1.242   142 C    1.240    87 C    1.199
   145   6 C    3.902 --   144 C    1.242   146 C    1.242   149 N    1.227
   146   6 C    3.952 --   147 C    1.587   145 C    1.242   161 H    0.972
   147   6 C    3.949 --   146 C    1.587   148 C    1.228   162 H    0.973
   148   6 C    3.914 --   150 C    1.335   147 C    1.228   149 N    1.203
   149   7 N    3.586 --   145 C    1.227   148 C    1.203   163 H    0.897
   150   6 C    3.923 --   151 C    1.372   148 C    1.335   164 H    0.963
   151   6 C    3.926 --   150 C    1.372   152 N    1.294   129 C    1.115
   152   7 N    3.000 --   131 C    1.363   151 C    1.294
   153   1 H    0.999 --   129 C    0.973
   154   1 H    0.999 --   130 C    0.972
   155   1 H    0.998 --   134 C    0.972
   156   1 H    0.998 --   135 C    0.973
   157   1 H    0.954 --   137 N    0.897
   158   1 H    0.997 --   138 C    0.963
   159   1 H    0.999 --   140 C    0.973
   160   1 H    0.999 --   141 C    0.972
   161   1 H    0.998 --   146 C    0.972
   162   1 H    0.998 --   147 C    0.973
   163   1 H    0.954 --   149 N    0.897
   164   1 H    0.997 --   150 C    0.963
 ---------------------------------------------------------------------------

Topologies differ in total number of bonds
Writing topology from bond orders to xtbtopo.mol

molecular dipole:
                 x           y           z       tot (Debye)
 q only:        0.000      -0.001      -0.019
   full:        0.000      -0.001      -0.028       0.070
molecular quadrupole (traceless):
                xx          xy          yy          xz          yz          zz
 q only:       67.297     -43.930     -16.451       0.026      -2.170     -50.846
  q+dip:      129.093     -23.148      -5.982      -2.671      -7.935    -123.111
   full:       93.932     -22.254     -12.714      -2.627      -4.617     -81.218


           -------------------------------------------------
          | TOTAL ENERGY             -281.601588033555 Eh   |
          | GRADIENT NORM               0.000605909977 Eh/α |
          | HOMO-LUMO GAP               0.839913872599 eV   |
           -------------------------------------------------

------------------------------------------------------------------------
 * finished run on 2021/11/21 at 01:41:15.540     
------------------------------------------------------------------------
 total:
 * wall-time:     0 d,  0 h,  0 min,  1.146 sec
 *  cpu-time:     0 d,  0 h,  0 min,  1.146 sec
 * ratio c/w:     1.000 speedup
 SCF:
 * wall-time:     0 d,  0 h,  0 min,  1.079 sec
 *  cpu-time:     0 d,  0 h,  0 min,  1.079 sec
 * ratio c/w:     1.000 speedup

