      -----------------------------------------------------------      
     |                   =====================                   |     
     |                           x T B                           |     
     |                   =====================                   |     
     |                         S. Grimme                         |     
     |          Mulliken Center for Theoretical Chemistry        |     
     |                    University of Bonn                     |     
      -----------------------------------------------------------      

   * xtb version 6.4.1 (bd6e46d) compiled by 'conda@4901f00b25ba' on 2021-06-10

   xtb is free software: you can redistribute it and/or modify it under
   the terms of the GNU Lesser General Public License as published by
   the Free Software Foundation, either version 3 of the License, or
   (at your option) any later version.
   
   xtb is distributed in the hope that it will be useful,
   but WITHOUT ANY WARRANTY; without even the implied warranty of
   MERCHANTABILITY or FITNESS FOR A PARTICULAR PURPOSE.  See the
   GNU Lesser General Public License for more details.
   
   Cite this work as:
   * C. Bannwarth, E. Caldeweyher, S. Ehlert, A. Hansen, P. Pracht,
     J. Seibert, S. Spicher, S. Grimme, WIREs Comput. Mol. Sci., 2020, 11,
     e01493. DOI: 10.1002/wcms.1493
   
   for GFN2-xTB:
   * C. Bannwarth, S. Ehlert and S. Grimme., J. Chem. Theory Comput., 2019,
     15, 1652-1671. DOI: 10.1021/acs.jctc.8b01176
   for GFN1-xTB:
   * S. Grimme, C. Bannwarth, P. Shushkov, J. Chem. Theory Comput., 2017,
     13, 1989-2009. DOI: 10.1021/acs.jctc.7b00118
   for GFN0-xTB:
   * P. Pracht, E. Caldeweyher, S. Ehlert, S. Grimme, ChemRxiv, 2019, preprint.
     DOI: 10.26434/chemrxiv.8326202.v1
   for GFN-FF:
   * S. Spicher and S. Grimme, Angew. Chem. Int. Ed., 2020, 59, 15665-15673.
     DOI: 10.1002/anie.202004239
   
   for DFT-D4:
   * E. Caldeweyher, C. Bannwarth and S. Grimme, J. Chem. Phys., 2017,
     147, 034112. DOI: 10.1063/1.4993215
   * E. Caldeweyher, S. Ehlert, A. Hansen, H. Neugebauer, S. Spicher,
     C. Bannwarth and S. Grimme, J. Chem. Phys., 2019, 150, 154122.
     DOI: 10.1063/1.5090222
   * E. Caldeweyher, J.-M. Mewes, S. Ehlert and S. Grimme, Phys. Chem. Chem. Phys.
     2020, 22, 8499-8512. DOI: 10.1039/D0CP00502A
   
   for sTDA-xTB:
   * S. Grimme and C. Bannwarth, J. Chem. Phys., 2016, 145, 054103.
     DOI: 10.1063/1.4959605
   
   in the mass-spec context:
   * V. Asgeirsson, C. Bauer and S. Grimme, Chem. Sci., 2017, 8, 4879.
     DOI: 10.1039/c7sc00601b
   * J. Koopman and S. Grimme, ACS Omega 2019, 4, 12, 15120-15133.
     DOI: 10.1021/acsomega.9b02011
   
   for metadynamics refer to:
   * S. Grimme, J. Chem. Theory Comput., 2019, 155, 2847-2862
     DOI: 10.1021/acs.jctc.9b00143
   
   for SPH calculations refer to:
   * S. Spicher and S. Grimme, J. Chem. Theory Comput., 2021, 17, 1701-1714
     DOI: 10.1021/acs.jctc.0c01306
   
   with help from (in alphabetical order)
   P. Atkinson, C. Bannwarth, F. Bohle, G. Brandenburg, E. Caldeweyher
   M. Checinski, S. Dohm, S. Ehlert, S. Ehrlich, I. Gerasimov, J. Koopman
   C. Lavigne, S. Lehtola, F. März, M. Müller, F. Musil, H. Neugebauer
   J. Pisarek, C. Plett, P. Pracht, J. Seibert, P. Shushkov, S. Spicher
   M. Stahn, M. Steiner, T. Strunk, J. Stückrath, T. Rose, and J. Unsleber
   
 * started run on 2021/11/21 at 19:09:37.734     

           -------------------------------------------------
          |                Calculation Setup                |
           -------------------------------------------------

          program call               : /home/jeff/miniconda3/bin/xtb /home/jeff/chem/final-year-proejct/Ni+2_4_4_outenergy/input_structure.xyz --gfn 2 --parallel 1 --etemp 300 --chrg 0 --uhf 0 -I det_control.in
          coordinate file            : /home/jeff/chem/final-year-proejct/Ni+2_4_4_outenergy/input_structure.xyz
          omp threads                :                     1
          number of atoms            :                   154
          number of electrons        :                   530
          charge                     :                     0
          spin                       :                   0.0
          first test random number   :      0.51885328328595

   ID    Z sym.   atoms
    1   28 Ni     1, 37, 85, 120
    2    6 C      2-9, 11-15, 17-21, 23, 24, 38-45, 47-51, 53-57, 59, 60,
                  73-84, 86-93, 95-99, 101-105, 107, 108, 121-128, 130-134,
                  136-140, 142, 143
    3    7 N      10, 16, 22, 25, 46, 52, 58, 61, 94, 100, 106, 109, 129,
                  135, 141, 144
    4    1 H      26-36, 62-72, 110-119, 145-154

           -------------------------------------------------
          |                 G F N 2 - x T B                 |
           -------------------------------------------------

        Reference                      10.1021/acs.jctc.8b01176
      * Hamiltonian:
        H0-scaling (s, p, d)           1.850000    2.230000    2.230000
        zeta-weighting                 0.500000
      * Dispersion:
        s8                             2.700000
        a1                             0.520000
        a2                             5.000000
        s9                             5.000000
      * Repulsion:
        kExp                           1.500000    1.000000
        rExp                           1.000000
      * Coulomb:
        alpha                          2.000000
        third order                    shell-resolved
        anisotropic                    true
        a3                             3.000000
        a5                             4.000000
        cn-shift                       1.200000
        cn-exp                         4.000000
        max-rad                        5.000000


          ...................................................
          :                      SETUP                      :
          :.................................................:
          :  # basis functions                 514          :
          :  # atomic orbitals                 510          :
          :  # shells                          270          :
          :  # electrons                       530          :
          :  max. iterations                   250          :
          :  Hamiltonian                  GFN2-xTB          :
          :  restarted?                      false          :
          :  GBSA solvation                  false          :
          :  PC potential                    false          :
          :  electronic temp.          300.0000000     K    :
          :  accuracy                    1.0000000          :
          :  -> integral cutoff          0.2500000E+02      :
          :  -> integral neglect         0.1000000E-07      :
          :  -> SCF convergence          0.1000000E-05 Eh   :
          :  -> wf. convergence          0.1000000E-03 e    :
          :  Broyden damping             0.4000000          :
          ...................................................

 iter      E             dE          RMSdq      gap      omega  full diag
   1   -289.1705849 -0.289171E+03  0.782E+00    0.69       0.0  T
   2   -289.5255025 -0.354918E+00  0.423E+00    1.01       1.0  T
   3   -289.4852292  0.402732E-01  0.120E+00    0.85       1.0  T
   4   -289.4929927 -0.776348E-02  0.628E-01    1.05       1.0  T
   5   -289.5378294 -0.448367E-01  0.308E-01    1.01       1.0  T
   6   -289.5466273 -0.879792E-02  0.196E-01    1.02       1.0  T
   7   -289.5455770  0.105026E-02  0.137E-01    1.03       1.0  T
   8   -289.5487536 -0.317656E-02  0.298E-02    1.02       1.0  T
   9   -289.5488411 -0.875494E-04  0.157E-02    1.02       1.0  T
  10   -289.5488651 -0.239813E-04  0.885E-03    1.02       1.0  T
  11   -289.5488807 -0.155981E-04  0.334E-03    1.02       2.4  T
  12   -289.5488818 -0.103154E-05  0.230E-03    1.02       3.5  T
  13   -289.5488824 -0.597930E-06  0.113E-03    1.02       7.1  T
  14   -289.5488824 -0.733499E-07  0.615E-04    1.02      13.1  T
  15   -289.5488824 -0.129879E-07  0.447E-04    1.02      18.0  T

   *** convergence criteria satisfied after 15 iterations ***

         #    Occupation            Energy/Eh            Energy/eV
      -------------------------------------------------------------
         1        2.0000           -0.6769181             -18.4199
       ...           ...                  ...                  ...
       259        2.0000           -0.3671150              -9.9897
       260        2.0000           -0.3627329              -9.8705
       261        2.0000           -0.3627277              -9.8703
       262        2.0000           -0.3612277              -9.8295
       263        2.0000           -0.3612126              -9.8291
       264        2.0000           -0.3604905              -9.8094
       265        2.0000           -0.3538873              -9.6298 (HOMO)
       266                         -0.3164005              -8.6097 (LUMO)
       267                         -0.3088787              -8.4050
       268                         -0.3006626              -8.1814
       269                         -0.3006255              -8.1804
       270                         -0.3005998              -8.1797
       ...                                ...                  ...
       510                          1.6330929              44.4387
      -------------------------------------------------------------
                  HL-Gap            0.0374868 Eh            1.0201 eV
             Fermi-level           -0.3351431 Eh           -9.1197 eV

 SCC (total)                   0 d,  0 h,  0 min,  1.280 sec
 SCC setup                      ...        0 min,  0.004 sec (  0.341%)
 Dispersion                     ...        0 min,  0.009 sec (  0.711%)
 classical contributions        ...        0 min,  0.001 sec (  0.089%)
 integral evaluation            ...        0 min,  0.082 sec (  6.370%)
 iterations                     ...        0 min,  0.935 sec ( 73.105%)
 molecular gradient             ...        0 min,  0.241 sec ( 18.819%)
 printout                       ...        0 min,  0.007 sec (  0.564%)

         :::::::::::::::::::::::::::::::::::::::::::::::::::::
         ::                     SUMMARY                     ::
         :::::::::::::::::::::::::::::::::::::::::::::::::::::
         :: total energy            -284.526419564155 Eh    ::
         :: gradient norm              0.000687012681 Eh/a0 ::
         :: HOMO-LUMO gap              1.020068291347 eV    ::
         ::.................................................::
         :: SCC energy              -289.548882444200 Eh    ::
         :: -> isotropic ES            0.082895347504 Eh    ::
         :: -> anisotropic ES          0.021181070269 Eh    ::
         :: -> anisotropic XC          0.122192844406 Eh    ::
         :: -> dispersion             -0.252081036822 Eh    ::
         :: repulsion energy           5.026490948521 Eh    ::
         :: add. restraining           0.000000000000 Eh    ::
         :: total charge               0.000000000009 e     ::
         :::::::::::::::::::::::::::::::::::::::::::::::::::::

           -------------------------------------------------
          |                Property Printout                |
           -------------------------------------------------

    * Orbital Energies and Occupations

         #    Occupation            Energy/Eh            Energy/eV
      -------------------------------------------------------------
         1        2.0000           -0.6769181             -18.4199
       ...           ...                  ...                  ...
       253        2.0000           -0.3685844             -10.0297
       254        2.0000           -0.3685486             -10.0287
       255        2.0000           -0.3684746             -10.0267
       256        2.0000           -0.3671425              -9.9905
       257        2.0000           -0.3671310              -9.9901
       258        2.0000           -0.3671280              -9.9901
       259        2.0000           -0.3671150              -9.9897
       260        2.0000           -0.3627329              -9.8705
       261        2.0000           -0.3627277              -9.8703
       262        2.0000           -0.3612277              -9.8295
       263        2.0000           -0.3612126              -9.8291
       264        2.0000           -0.3604905              -9.8094
       265        2.0000           -0.3538873              -9.6298 (HOMO)
       266                         -0.3164005              -8.6097 (LUMO)
       267                         -0.3088787              -8.4050
       268                         -0.3006626              -8.1814
       269                         -0.3006255              -8.1804
       270                         -0.3005998              -8.1797
       271                         -0.3005987              -8.1797
       272                         -0.3003539              -8.1730
       273                         -0.2993759              -8.1464
       274                         -0.2993653              -8.1461
       275                         -0.2984125              -8.1202
       276                         -0.2983748              -8.1192
       ...                                ...                  ...
       510                          1.6330929              44.4387
      -------------------------------------------------------------
                  HL-Gap            0.0374868 Eh            1.0201 eV
             Fermi-level           -0.3351431 Eh           -9.1197 eV

     #   Z          covCN         q      C6AA      α(0)
     1  28 Ni       3.021    -0.292   189.386    28.395
     2   6 C        3.024    -0.052    29.268     8.874
     3   6 C        3.021    -0.050    29.227     8.868
     4   6 C        3.186     0.074    25.916     8.307
     5   6 C        2.956     0.026    27.433     8.591
     6   6 C        3.186     0.074    25.918     8.307
     7   6 C        3.021    -0.050    29.228     8.868
     8   6 C        3.024    -0.052    29.268     8.874
     9   6 C        3.172     0.073    26.005     8.330
    10   7 N        2.625    -0.048    22.177     6.994
    11   6 C        2.904    -0.041    29.028     8.834
    12   6 C        3.168     0.074    25.997     8.331
    13   6 C        3.020    -0.051    29.247     8.871
    14   6 C        3.021    -0.051    29.249     8.871
    15   6 C        3.168     0.075    25.991     8.330
    16   7 N        2.625    -0.047    22.157     6.991
    17   6 C        2.904    -0.043    29.071     8.841
    18   6 C        3.168     0.075    25.991     8.330
    19   6 C        3.021    -0.051    29.249     8.871
    20   6 C        3.020    -0.051    29.247     8.871
    21   6 C        3.168     0.074    25.997     8.331
    22   7 N        2.625    -0.047    22.158     6.991
    23   6 C        2.904    -0.041    29.028     8.834
    24   6 C        3.172     0.073    26.005     8.330
    25   7 N        2.625    -0.048    22.175     6.994
    26   1 H        0.926     0.035     2.512     2.478
    27   1 H        0.926     0.037     2.487     2.466
    28   1 H        0.926     0.037     2.486     2.466
    29   1 H        0.926     0.035     2.512     2.478
    30   1 H        0.926     0.049     2.330     2.387
    31   1 H        0.926     0.036     2.505     2.475
    32   1 H        0.926     0.036     2.506     2.475
    33   1 H        0.926     0.049     2.338     2.391
    34   1 H        0.926     0.036     2.506     2.475
    35   1 H        0.926     0.036     2.505     2.475
    36   1 H        0.926     0.049     2.330     2.387
    37  28 Ni       3.022    -0.292   189.387    28.395
    38   6 C        3.024    -0.052    29.268     8.874
    39   6 C        3.021    -0.050    29.227     8.868
    40   6 C        3.186     0.074    25.916     8.307
    41   6 C        2.956     0.026    27.433     8.591
    42   6 C        3.186     0.074    25.918     8.307
    43   6 C        3.021    -0.050    29.228     8.868
    44   6 C        3.024    -0.052    29.268     8.874
    45   6 C        3.172     0.073    26.004     8.330
    46   7 N        2.625    -0.048    22.177     6.994
    47   6 C        2.904    -0.041    29.029     8.834
    48   6 C        3.168     0.074    25.997     8.331
    49   6 C        3.020    -0.051    29.248     8.871
    50   6 C        3.021    -0.051    29.249     8.871
    51   6 C        3.168     0.075    25.991     8.330
    52   7 N        2.625    -0.047    22.157     6.991
    53   6 C        2.904    -0.043    29.071     8.841
    54   6 C        3.168     0.075    25.991     8.330
    55   6 C        3.021    -0.051    29.249     8.871
    56   6 C        3.020    -0.051    29.247     8.871
    57   6 C        3.168     0.074    25.997     8.331
    58   7 N        2.625    -0.047    22.158     6.991
    59   6 C        2.904    -0.041    29.029     8.834
    60   6 C        3.172     0.073    26.004     8.330
    61   7 N        2.625    -0.048    22.176     6.994
    62   1 H        0.926     0.035     2.512     2.478
    63   1 H        0.926     0.037     2.487     2.466
    64   1 H        0.926     0.037     2.486     2.466
    65   1 H        0.926     0.035     2.512     2.478
    66   1 H        0.926     0.049     2.330     2.387
    67   1 H        0.926     0.036     2.505     2.475
    68   1 H        0.926     0.036     2.506     2.475
    69   1 H        0.926     0.049     2.338     2.391
    70   1 H        0.926     0.036     2.506     2.475
    71   1 H        0.926     0.036     2.505     2.475
    72   1 H        0.926     0.049     2.330     2.387
    73   6 C        1.992    -0.021    31.602     9.079
    74   6 C        1.963    -0.009    31.311     9.036
    75   6 C        1.963    -0.008    31.294     9.034
    76   6 C        1.992    -0.022    31.622     9.081
    77   6 C        1.992    -0.021    31.610     9.080
    78   6 C        1.963    -0.009    31.301     9.035
    79   6 C        1.963    -0.009    31.301     9.035
    80   6 C        1.992    -0.021    31.610     9.080
    81   6 C        1.992    -0.022    31.621     9.081
    82   6 C        1.963    -0.008    31.294     9.034
    83   6 C        1.963    -0.009    31.311     9.036
    84   6 C        1.992    -0.021    31.601     9.078
    85  28 Ni       3.015    -0.286   189.260    28.386
    86   6 C        3.024    -0.052    29.264     8.874
    87   6 C        3.022    -0.050    29.226     8.868
    88   6 C        3.187     0.074    25.902     8.304
    89   6 C        2.956     0.026    27.427     8.590
    90   6 C        3.187     0.074    25.903     8.304
    91   6 C        3.022    -0.050    29.225     8.868
    92   6 C        3.024    -0.052    29.264     8.873
    93   6 C        3.173     0.073    26.000     8.328
    94   7 N        2.623    -0.050    22.211     6.999
    95   6 C        2.904    -0.039    28.980     8.827
    96   6 C        3.173     0.073    26.001     8.329
    97   6 C        3.024    -0.052    29.264     8.873
    98   6 C        3.022    -0.050    29.226     8.868
    99   6 C        3.187     0.074    25.902     8.304
   100   7 N        2.623    -0.050    22.211     6.999
   101   6 C        2.956     0.026    27.432     8.591
   102   6 C        3.187     0.074    25.900     8.303
   103   6 C        3.022    -0.050    29.228     8.868
   104   6 C        3.024    -0.052    29.263     8.873
   105   6 C        3.173     0.073    26.000     8.328
   106   7 N        2.623    -0.050    22.210     6.999
   107   6 C        2.904    -0.039    28.979     8.827
   108   6 C        3.173     0.073    25.999     8.328
   109   7 N        2.623    -0.049    22.210     6.999
   110   1 H        0.926     0.035     2.511     2.478
   111   1 H        0.926     0.037     2.486     2.466
   112   1 H        0.926     0.037     2.486     2.465
   113   1 H        0.926     0.035     2.511     2.478
   114   1 H        0.926     0.050     2.323     2.383
   115   1 H        0.926     0.035     2.511     2.478
   116   1 H        0.926     0.037     2.487     2.466
   117   1 H        0.926     0.037     2.487     2.466
   118   1 H        0.926     0.035     2.511     2.478
   119   1 H        0.926     0.050     2.322     2.383
   120  28 Ni       3.015    -0.286   189.262    28.386
   121   6 C        3.024    -0.052    29.263     8.873
   122   6 C        3.022    -0.050    29.226     8.868
   123   6 C        3.187     0.074    25.902     8.304
   124   6 C        2.956     0.026    27.432     8.591
   125   6 C        3.187     0.074    25.900     8.303
   126   6 C        3.022    -0.050    29.227     8.868
   127   6 C        3.024    -0.052    29.263     8.873
   128   6 C        3.173     0.073    26.000     8.328
   129   7 N        2.623    -0.050    22.211     6.999
   130   6 C        2.904    -0.039    28.980     8.827
   131   6 C        3.173     0.073    25.999     8.328
   132   6 C        3.024    -0.052    29.264     8.873
   133   6 C        3.022    -0.050    29.226     8.868
   134   6 C        3.187     0.074    25.903     8.304
   135   7 N        2.623    -0.049    22.210     6.999
   136   6 C        2.956     0.026    27.426     8.590
   137   6 C        3.187     0.074    25.902     8.304
   138   6 C        3.022    -0.050    29.224     8.868
   139   6 C        3.024    -0.052    29.264     8.874
   140   6 C        3.173     0.073    25.999     8.328
   141   7 N        2.623    -0.050    22.211     6.999
   142   6 C        2.904    -0.039    28.980     8.827
   143   6 C        3.173     0.073    26.001     8.329
   144   7 N        2.623    -0.050    22.211     6.999
   145   1 H        0.926     0.035     2.511     2.478
   146   1 H        0.926     0.037     2.487     2.466
   147   1 H        0.926     0.037     2.487     2.466
   148   1 H        0.926     0.035     2.511     2.478
   149   1 H        0.926     0.050     2.322     2.383
   150   1 H        0.926     0.035     2.511     2.478
   151   1 H        0.926     0.037     2.485     2.465
   152   1 H        0.926     0.037     2.485     2.465
   153   1 H        0.926     0.035     2.511     2.478
   154   1 H        0.926     0.050     2.323     2.383

 Mol. C6AA /au·bohr⁶  :     467124.589398
 Mol. C8AA /au·bohr⁸  :   13717456.744474
 Mol. α(0) /au        :       1127.158795


Wiberg/Mayer (AO) data.
largest (>0.10) Wiberg bond orders for each atom

 ---------------------------------------------------------------------------
     #   Z sym  total        # sym  WBO       # sym  WBO       # sym  WBO
 ---------------------------------------------------------------------------
     1  28 Ni   3.475 --    25 N    0.753    10 N    0.753    16 N    0.751
                            22 N    0.751
     2   6 C    3.953 --     3 C    1.646    24 C    1.170    26 H    0.972
     3   6 C    3.957 --     2 C    1.646     4 C    1.178    27 H    0.970
     4   6 C    3.917 --    25 N    1.262     5 C    1.253     3 C    1.178
     5   6 C    3.945 --     6 C    1.253     4 C    1.253    73 C    1.180
     6   6 C    3.917 --    10 N    1.262     5 C    1.253     7 C    1.178
     7   6 C    3.957 --     8 C    1.646     6 C    1.178    28 H    0.970
     8   6 C    3.953 --     7 C    1.646     9 C    1.170    29 H    0.972
     9   6 C    3.930 --    11 C    1.356    10 N    1.227     8 C    1.170
    10   7 N    3.577 --     6 C    1.262     9 C    1.227     1 Ni   0.753
    11   6 C    3.935 --     9 C    1.356    12 C    1.353    30 H    0.964
    12   6 C    3.935 --    11 C    1.353    16 N    1.239    13 C    1.161
    13   6 C    3.957 --    14 C    1.661    12 C    1.161    31 H    0.972
    14   6 C    3.955 --    13 C    1.661    15 C    1.161    32 H    0.972
    15   6 C    3.937 --    17 C    1.353    16 N    1.242    14 C    1.161
    16   7 N    3.571 --    15 C    1.242    12 C    1.239     1 Ni   0.751
    17   6 C    3.931 --    18 C    1.353    15 C    1.353    33 H    0.964
    18   6 C    3.937 --    17 C    1.353    22 N    1.242    19 C    1.161
    19   6 C    3.955 --    20 C    1.661    18 C    1.161    34 H    0.972
    20   6 C    3.957 --    19 C    1.661    21 C    1.161    35 H    0.972
    21   6 C    3.935 --    23 C    1.353    22 N    1.240    20 C    1.161
    22   7 N    3.571 --    18 C    1.242    21 C    1.240     1 Ni   0.751
    23   6 C    3.935 --    24 C    1.356    21 C    1.353    36 H    0.964
    24   6 C    3.930 --    23 C    1.356    25 N    1.227     2 C    1.170
    25   7 N    3.577 --     4 C    1.262    24 C    1.227     1 Ni   0.753
    26   1 H    0.998 --     2 C    0.972
    27   1 H    0.998 --     3 C    0.970
    28   1 H    0.998 --     7 C    0.970
    29   1 H    0.998 --     8 C    0.972
    30   1 H    0.996 --    11 C    0.964
    31   1 H    0.998 --    13 C    0.972
    32   1 H    0.998 --    14 C    0.972
    33   1 H    0.997 --    17 C    0.964
    34   1 H    0.998 --    19 C    0.972
    35   1 H    0.998 --    20 C    0.972
    36   1 H    0.996 --    23 C    0.964
    37  28 Ni   3.475 --    61 N    0.753    46 N    0.753    52 N    0.751
                            58 N    0.751
    38   6 C    3.953 --    39 C    1.646    60 C    1.170    62 H    0.972
    39   6 C    3.957 --    38 C    1.646    40 C    1.178    63 H    0.970
    40   6 C    3.917 --    61 N    1.262    41 C    1.253    39 C    1.178
    41   6 C    3.945 --    40 C    1.253    42 C    1.253    84 C    1.179
    42   6 C    3.917 --    46 N    1.262    41 C    1.253    43 C    1.178
    43   6 C    3.957 --    44 C    1.646    42 C    1.178    64 H    0.970
    44   6 C    3.953 --    43 C    1.646    45 C    1.170    65 H    0.972
    45   6 C    3.930 --    47 C    1.356    46 N    1.227    44 C    1.170
    46   7 N    3.577 --    42 C    1.262    45 C    1.227    37 Ni   0.753
    47   6 C    3.935 --    45 C    1.356    48 C    1.353    66 H    0.964
    48   6 C    3.935 --    47 C    1.353    52 N    1.239    49 C    1.161
    49   6 C    3.957 --    50 C    1.661    48 C    1.161    67 H    0.972
    50   6 C    3.955 --    49 C    1.661    51 C    1.161    68 H    0.972
    51   6 C    3.937 --    53 C    1.353    52 N    1.242    50 C    1.161
    52   7 N    3.571 --    51 C    1.242    48 C    1.239    37 Ni   0.751
    53   6 C    3.931 --    51 C    1.353    54 C    1.353    69 H    0.964
    54   6 C    3.937 --    53 C    1.353    58 N    1.242    55 C    1.161
    55   6 C    3.955 --    56 C    1.661    54 C    1.161    70 H    0.972
    56   6 C    3.957 --    55 C    1.661    57 C    1.161    71 H    0.972
    57   6 C    3.935 --    59 C    1.353    58 N    1.239    56 C    1.161
    58   7 N    3.571 --    54 C    1.242    57 C    1.239    37 Ni   0.751
    59   6 C    3.935 --    60 C    1.355    57 C    1.353    72 H    0.964
    60   6 C    3.930 --    59 C    1.355    61 N    1.227    38 C    1.170
    61   7 N    3.577 --    40 C    1.262    60 C    1.227    37 Ni   0.753
    62   1 H    0.998 --    38 C    0.972
    63   1 H    0.998 --    39 C    0.970
    64   1 H    0.998 --    43 C    0.970
    65   1 H    0.998 --    44 C    0.972
    66   1 H    0.996 --    47 C    0.964
    67   1 H    0.998 --    49 C    0.972
    68   1 H    0.998 --    50 C    0.972
    69   1 H    0.997 --    53 C    0.964
    70   1 H    0.998 --    55 C    0.972
    71   1 H    0.998 --    56 C    0.972
    72   1 H    0.996 --    59 C    0.964
    73   6 C    3.919 --    74 C    2.476     5 C    1.180    76 C    0.204
    74   6 C    3.931 --    73 C    2.476    75 C    1.301
    75   6 C    3.928 --    76 C    2.475    74 C    1.301
    76   6 C    3.921 --    75 C    2.475    89 C    1.182    73 C    0.204
    77   6 C    3.919 --    78 C    2.472   101 C    1.183    80 C    0.203
    78   6 C    3.928 --    77 C    2.472    79 C    1.303
    79   6 C    3.928 --    80 C    2.472    78 C    1.303
    80   6 C    3.919 --    79 C    2.472   124 C    1.183    77 C    0.203
    81   6 C    3.920 --    82 C    2.475   136 C    1.181    84 C    0.204
    82   6 C    3.928 --    81 C    2.475    83 C    1.301
    83   6 C    3.931 --    84 C    2.477    82 C    1.301
    84   6 C    3.919 --    83 C    2.477    41 C    1.179    81 C    0.204
    85  28 Ni   3.459 --   100 N    0.749   106 N    0.749   109 N    0.749
                            94 N    0.749
    86   6 C    3.953 --    87 C    1.644   108 C    1.171   110 H    0.972
    87   6 C    3.955 --    86 C    1.644    88 C    1.179   111 H    0.970
    88   6 C    3.918 --   109 N    1.264    89 C    1.250    87 C    1.179
    89   6 C    3.934 --    90 C    1.251    88 C    1.250    76 C    1.182
    90   6 C    3.918 --    94 N    1.264    89 C    1.251    91 C    1.179
    91   6 C    3.955 --    92 C    1.644    90 C    1.179   112 H    0.970
    92   6 C    3.953 --    91 C    1.644    93 C    1.171   113 H    0.972
    93   6 C    3.929 --    95 C    1.354    94 N    1.226    92 C    1.171
    94   7 N    3.568 --    90 C    1.264    93 C    1.226    85 Ni   0.749
    95   6 C    3.930 --    96 C    1.355    93 C    1.354   114 H    0.963
    96   6 C    3.929 --    95 C    1.355   100 N    1.225    97 C    1.171
    97   6 C    3.953 --    98 C    1.644    96 C    1.171   115 H    0.972
    98   6 C    3.955 --    97 C    1.644    99 C    1.179   116 H    0.970
    99   6 C    3.917 --   100 N    1.265   101 C    1.250    98 C    1.179
   100   7 N    3.568 --    99 C    1.265    96 C    1.225    85 Ni   0.749
   101   6 C    3.934 --    99 C    1.250   102 C    1.250    77 C    1.183
   102   6 C    3.917 --   106 N    1.265   101 C    1.250   103 C    1.179
   103   6 C    3.955 --   104 C    1.644   102 C    1.179   117 H    0.970
   104   6 C    3.953 --   103 C    1.644   105 C    1.171   118 H    0.972
   105   6 C    3.929 --   107 C    1.355   106 N    1.225   104 C    1.171
   106   7 N    3.568 --   102 C    1.265   105 C    1.225    85 Ni   0.749
   107   6 C    3.930 --   105 C    1.355   108 C    1.354   119 H    0.963
   108   6 C    3.929 --   107 C    1.354   109 N    1.226    86 C    1.171
   109   7 N    3.568 --    88 C    1.264   108 C    1.226    85 Ni   0.749
   110   1 H    0.998 --    86 C    0.972
   111   1 H    0.998 --    87 C    0.970
   112   1 H    0.998 --    91 C    0.970
   113   1 H    0.998 --    92 C    0.972
   114   1 H    0.996 --    95 C    0.963
   115   1 H    0.998 --    97 C    0.972
   116   1 H    0.998 --    98 C    0.970
   117   1 H    0.998 --   103 C    0.970
   118   1 H    0.998 --   104 C    0.972
   119   1 H    0.996 --   107 C    0.963
   120  28 Ni   3.459 --   144 N    0.749   129 N    0.749   141 N    0.749
                           135 N    0.749
   121   6 C    3.953 --   122 C    1.644   143 C    1.171   145 H    0.972
   122   6 C    3.955 --   121 C    1.644   123 C    1.179   146 H    0.970
   123   6 C    3.917 --   144 N    1.265   124 C    1.250   122 C    1.179
   124   6 C    3.934 --   123 C    1.250   125 C    1.250    80 C    1.183
   125   6 C    3.917 --   129 N    1.265   124 C    1.250   126 C    1.179
   126   6 C    3.955 --   127 C    1.644   125 C    1.179   147 H    0.970
   127   6 C    3.953 --   126 C    1.644   128 C    1.171   148 H    0.972
   128   6 C    3.929 --   130 C    1.355   129 N    1.225   127 C    1.171
   129   7 N    3.568 --   125 C    1.265   128 C    1.225   120 Ni   0.749
   130   6 C    3.930 --   128 C    1.355   131 C    1.354   149 H    0.963
   131   6 C    3.929 --   130 C    1.354   135 N    1.226   132 C    1.171
   132   6 C    3.954 --   133 C    1.644   131 C    1.171   150 H    0.972
   133   6 C    3.955 --   132 C    1.644   134 C    1.179   151 H    0.970
   134   6 C    3.918 --   135 N    1.264   136 C    1.251   133 C    1.179
   135   7 N    3.568 --   134 C    1.264   131 C    1.226   120 Ni   0.749
   136   6 C    3.934 --   137 C    1.251   134 C    1.251    81 C    1.181
   137   6 C    3.918 --   141 N    1.264   136 C    1.251   138 C    1.179
   138   6 C    3.955 --   139 C    1.644   137 C    1.179   152 H    0.970
   139   6 C    3.954 --   138 C    1.644   140 C    1.171   153 H    0.972
   140   6 C    3.929 --   142 C    1.354   141 N    1.226   139 C    1.171
   141   7 N    3.568 --   137 C    1.264   140 C    1.226   120 Ni   0.749
   142   6 C    3.930 --   143 C    1.355   140 C    1.354   154 H    0.963
   143   6 C    3.929 --   142 C    1.355   144 N    1.225   121 C    1.171
   144   7 N    3.568 --   123 C    1.265   143 C    1.225   120 Ni   0.749
   145   1 H    0.998 --   121 C    0.972
   146   1 H    0.998 --   122 C    0.970
   147   1 H    0.998 --   126 C    0.970
   148   1 H    0.998 --   127 C    0.972
   149   1 H    0.996 --   130 C    0.963
   150   1 H    0.998 --   132 C    0.972
   151   1 H    0.998 --   133 C    0.970
   152   1 H    0.998 --   138 C    0.970
   153   1 H    0.998 --   139 C    0.972
   154   1 H    0.996 --   142 C    0.963
 ---------------------------------------------------------------------------

Topologies differ in total number of bonds
Writing topology from bond orders to xtbtopo.mol

molecular dipole:
                 x           y           z       tot (Debye)
 q only:       -0.000      -0.001      -0.002
   full:       -0.000      -0.001      -0.003       0.008
molecular quadrupole (traceless):
                xx          xy          yy          xz          yz          zz
 q only:       54.920       0.181       9.055      -0.204      -0.982     -63.974
  q+dip:      104.400       0.279      21.613      -0.327      -1.948    -126.014
   full:       71.286       0.230       8.318      -0.313      -1.198     -79.605


           -------------------------------------------------
          | TOTAL ENERGY             -284.526419564155 Eh   |
          | GRADIENT NORM               0.000687012681 Eh/α |
          | HOMO-LUMO GAP               1.020068291347 eV   |
           -------------------------------------------------

------------------------------------------------------------------------
 * finished run on 2021/11/21 at 19:09:39.093     
------------------------------------------------------------------------
 total:
 * wall-time:     0 d,  0 h,  0 min,  1.358 sec
 *  cpu-time:     0 d,  0 h,  0 min,  1.358 sec
 * ratio c/w:     1.000 speedup
 SCF:
 * wall-time:     0 d,  0 h,  0 min,  1.281 sec
 *  cpu-time:     0 d,  0 h,  0 min,  1.281 sec
 * ratio c/w:     1.000 speedup

