259
 energy: -470.078279238342 gnorm: 0.000778343130 xtb: 6.4.1 (bd6e46d)
Co       52.25621589341624    0.28331896034048    0.42274656784667
C        54.93199183939431   -2.21285232143283    2.48225520621754
C        55.80985376533993   -1.58196940655189    1.66792154424392
C        55.04576629146045   -0.66079647675320    0.88344504415553
C        55.62568614030423    0.27144733607202    0.01581568051364
C        54.88976111801338    1.35245728260968   -0.48031997895850
C        55.48979430211672    2.49171562161221   -1.10285751159179
C        54.49093506220676    3.37472238673075   -1.33505644603919
C        53.28208403876742    2.74508600449727   -0.89735423727883
N        53.54407401525427    1.51447852457667   -0.35544927185270
C        52.02584701036272    3.26940661327414   -1.12082899648449
C        50.86596626699044    2.55395001733749   -0.90317820605272
C        49.57233306105466    2.98523219769983   -1.34629431633924
C        48.71627859772790    1.97454091001659   -1.07687912558061
C        49.48311309401954    0.95204849521774   -0.42638637809908
N        50.79786304314084    1.31212218727557   -0.33751319564473
C        48.92653305922072   -0.18099951051752    0.13167268660466
C        49.63914329536073   -1.03266354567036    0.95130464400055
C        49.03481271828889   -2.07088316119297    1.73456656352360
C        50.01201404565518   -2.58210839202945    2.51604453738516
C        51.21751736221119   -1.88742186744041    2.16953212285872
N        50.97559860895640   -0.93759797309933    1.21771748862732
C        52.46158717078652   -2.22344125070013    2.66365093598921
C        53.63415233847134   -1.70633826049701    2.15304725513473
N        53.72097809621401   -0.74060054715115    1.18529186166996
H        55.12338634649180   -2.96412054471493    3.22357510651816
H        56.87611300705380   -1.68488917885141    1.61720635502857
H        56.53971489087355    2.59692962085520   -1.29127969854650
H        54.54501015341511    4.35022628578695   -1.77786801395071
H        51.95045901771417    4.24892447035815   -1.56814443856677
H        49.37458725346730    3.92875210133361   -1.81717055751979
H        47.66242604310212    1.91445816932792   -1.26870625821435
H        47.87072530848069   -0.35859124557876   -0.00483529363238
H        47.99667702696795   -2.33818074166964    1.69192869717956
H        49.95055468159190   -3.36663380241591    3.24530490139614
H        52.52517977780241   -2.98957937172718    3.42138974631881
Co      115.33506269958963   -0.22086912417259    0.36329749995327
C       112.63415647750327    2.18149910253997    2.49853769931920
C       111.75774030174863    1.53350582652946    1.69618287050807
C       112.53112387764433    0.63959545952304    0.88921075292983
C       111.95939715240318   -0.30410408334764    0.02890750711086
C       112.71520641814983   -1.35611207010955   -0.49704491572200
C       112.13654734714360   -2.50185225768025   -1.12759250304129
C       113.15483399366778   -3.35372509745757   -1.38917949084715
C       114.35330956810758   -2.69698136845615   -0.96304597229268
N       114.06740299966438   -1.48151065127604   -0.39987862012274
C       115.61946137050187   -3.18290188783604   -1.21618847002991
C       116.76184134564105   -2.43498352793052   -1.01636181334305
C       118.05739187911945   -2.82245775493517   -1.49318129006818
C       118.88757622172383   -1.78715390601917   -1.23674260295967
C       118.10522678723140   -0.79398869968501   -0.55975354286789
N       116.80488301052702   -1.19596374186706   -0.44207430091297
C       118.63995832430160    0.35135922440758   -0.00547918194784
C       117.92193766773551    1.17274759469839    0.84001010873637
C       118.51295908900015    2.22146112195952    1.61940894606193
C       117.54009838951414    2.69374157003576    2.43030545370379
C       116.34834826116028    1.96563679643668    2.10550508819317
N       116.59623330074470    1.03315313961846    1.13819732091825
C       115.10649363276582    2.25928438395327    2.63102048830371
C       113.93857877468452    1.71368412066124    2.13953565678102
N       113.85923532126154    0.75427630282532    1.16492212300816
H       112.43688627795609    2.92129882701653    3.24977782610145
H       110.68836425334851    1.60952958857695    1.66539187189535
H       111.08779866712798   -2.62973538774040   -1.30732708636375
H       113.11981291665475   -4.32344771132973   -1.84634790157519
H       115.71419980286269   -4.15548851149268   -1.67473783982408
H       118.27305923787296   -3.75596699844655   -1.97599238885198
H       119.93402670861735   -1.69243908871925   -1.45347190810002
H       119.68588887156352    0.56332727884779   -0.16668602014635
H       119.54088553310649    2.52172745946549    1.55443479099163
H       117.59513033038279    3.47238738830337    3.16633528618777
H       115.03721443525227    3.01543539688079    3.39820615455022
C        56.98575323739956    0.15795819658282   -0.29028728240962
C        58.15273944666463    0.00756223862129   -0.58935908966656
C        67.50158501778314   -0.16686443157099   -0.07109002601737
C        68.63548910092376   -0.02585460203124    0.34120858864382
C        77.94317679694768    0.23320152986446    0.26566607034683
C        79.07959269345270    0.14784882267599   -0.15518210058067
C        88.39739400807410   -0.21434772200167   -0.20930663816605
C        89.54053829316948   -0.19733747125117    0.20131973720988
C        98.87512469787791    0.36101635836639    0.36361677933043
C       100.02450831244896    0.43647443449645   -0.02143720751320
C       109.40975318084809   -0.09956710816220   -0.50094942867098
C       110.58836833608719   -0.22627578017208   -0.24035611857561
Co       62.86799250153419   -0.44321376877820   -1.16966884800537
C        60.28714979252313   -3.57538418408998   -0.14866882866800
C        59.39003009489790   -2.56165527601076   -0.18967203239040
C        60.12071097569473   -1.38756482168312   -0.55680576840587
C        59.51008018008284   -0.16743757375486   -0.87396533807448
C        60.21095921047615    0.82487422281274   -1.56986461703228
C        59.57815792736282    1.91996798951715   -2.23696087880921
C        60.55082878359257    2.57134158234433   -2.91759262832069
C        61.77803953014040    1.90066849994013   -2.61435329364171
N        61.55068556863593    0.81901718250376   -1.80557621542692
C        63.02303823051408    2.37932687256085   -2.97092601949474
C        64.19667396508657    1.87730022818480   -2.44611619307622
C        65.46734483123446    2.52386805091921   -2.57009452649594
C        66.32829459773757    1.83712467677347   -1.78193862913591
C        65.58879588723963    0.74423101481899   -1.22903534667373
N        64.29092169186578    0.77868437293446   -1.63338801436332
C        66.17996332753503   -0.29723260122293   -0.50193222868084
C        65.50290164196105   -1.50808710626045   -0.30627911874451
C        66.15133728039311   -2.72126409988719    0.08494047369647
C        65.21342604359225   -3.69619894789173    0.02431607918996
C        63.98781285307268   -3.05913702896220   -0.34991089060746
N        64.18706075318052   -1.72187080608321   -0.57275719298012
C        62.75907191881459   -3.68719816959965   -0.33495747671648
C        61.56537150552484   -3.00081714799996   -0.43745102600992
N        61.44531066810020   -1.66226243692715   -0.70067862114690
H        60.11975802053959   -4.61092049395066    0.07542027437866
H        58.32942756468641   -2.59462945563187   -0.03453315208144
H        58.52571097746318    2.12117386108642   -2.20955938638436
H        60.46656222056674    3.43650110818127   -3.54604204470843
H        63.07543532314908    3.25140890328159   -3.60506185100483
H        65.65269688827139    3.39701601454094   -3.16493013658417
H        67.37326098299089    2.01071528838944   -1.61482626651655
H        67.19288576362202   -2.80280886806944    0.32556118688848
H        65.31876592357571   -4.74313230141299    0.23265914274791
H        62.72617521203900   -4.74660238797432   -0.13001607591909
Co       73.28966030491276    0.36503811807007    1.25789702502232
C        70.91442057616662   -2.84817835008314    2.48500056153101
C        69.97260263832359   -2.11638079608254    1.84280826762115
C        70.63212329823867   -0.94757350128464    1.34926097003266
C        69.96304959887978    0.12547807437499    0.74501582948950
C        70.57580847030128    1.38153681390927    0.64091614263132
C        69.85441215287729    2.59433251779836    0.40610920101046
C        70.73905170477784    3.60642376389045    0.57392108500269
C        72.00509348931703    2.99991003433061    0.85102193558547
N        71.88524272253896    1.63668660215353    0.90431654800557
C        73.19667082917088    3.69490276000218    0.91748831889380
C        74.42784576967168    3.07079193064616    0.89195668117025
C        75.66525855453469    3.75305433816877    0.66534002194558
C        76.60570376757798    2.79526308794727    0.48360601502038
C        75.94585153297815    1.53874895665760    0.65889218526493
N        74.62215557013531    1.71461180865158    0.91165744158624
C        76.61485706545393    0.30748057402814    0.68734414518696
C        76.00284822905076   -0.82543795943423    1.24049606969634
C        76.72476706345800   -1.98813140441386    1.65711614865443
C        75.84095857895088   -2.77227476108298    2.31966703601399
C        74.57482578768678   -2.10907614512025    2.24998788267805
N        74.69399412869538   -0.90984968144982    1.59920935750857
C        73.38392643881750   -2.67212796639068    2.66426696691906
C        72.15207658966028   -2.14729805858268    2.32722809788720
N        71.95688672070997   -0.97102109430506    1.65248771273815
H        70.80317057572536   -3.78421558646591    2.99690597770282
H        68.92299835028592   -2.31037891027353    1.74176051509350
H        68.80499085315337    2.64624725985229    0.19135390371524
H        70.57203252687469    4.66318878574157    0.49688233188715
H        73.16586035818148    4.77318976353333    0.87513969806626
H        75.77713214997996    4.81916671621874    0.62694787370551
H        77.65462072563784    2.90955256688423    0.29339526573181
H        77.77391432063388   -2.14232128996391    1.49688202760373
H        76.00871447620916   -3.71997007739295    2.79330153943575
H        73.41533624081848   -3.62120896858071    3.17776709834732
Co       83.72842368623090   -0.14157342871559   -1.14758318798372
C        81.14497979237009   -3.42509207820422   -0.94573230629852
C        80.27300063046606   -2.44211218558774   -0.61654598795571
C        81.00632217404791   -1.21488329340120   -0.66950583497501
C        80.40642844305512    0.04819994575121   -0.57644427305599
C        81.08456188559839    1.19509625913887   -1.01104019205933
C        80.43471578470337    2.43291229518756   -1.31185155651693
C        81.38093177830834    3.24713157647105   -1.83752547750887
C        82.61206573910131    2.51847489340329   -1.79881056485862
N        82.40807256294383    1.25279179260085   -1.31513866488165
C        83.84701389252928    3.07930958620878   -2.05611138865236
C        85.03468365066165    2.44741477036001   -1.74426359461578
C        86.30670279945950    3.10213864459287   -1.71613092402684
C        87.18752075995909    2.21295807976406   -1.19792464079676
C        86.45689695848421    1.00428686305515   -0.96951566683340
N        85.14599923226956    1.15792095676142   -1.29683052071773
C        87.06246244082671   -0.20973891099392   -0.61814125092442
C        86.37862936338868   -1.42227347749850   -0.77893627637374
C        87.02395453254474   -2.69776210229404   -0.81290702728884
C        86.06827884628485   -3.60538205652997   -1.12504350114720
C        84.83699605231497   -2.88254031837618   -1.22228610213954
N        85.04875709543919   -1.54206814023698   -1.03426307351365
C        83.59818568104363   -3.48323117893273   -1.32622913871979
C        82.41550321431006   -2.79569908716732   -1.13882484103885
N        82.31072239963659   -1.43931025157731   -0.98057567286656
H        80.96631906606467   -4.47935892175019   -1.03058259914468
H        79.22485198852463   -2.51573287779960   -0.40178308818817
H        79.38771266997414    2.61840794775925   -1.17465274701202
H        81.27707418055550    4.25268768510588   -2.19618922190131
H        83.88464793408329    4.09732072890771   -2.41343741412784
H        86.48046522301753    4.11280010658332   -2.03069385046658
H        88.23924619097387    2.33058435068087   -1.02389688087463
H        88.07381145802226   -2.85152087832298   -0.65994741615490
H        86.16580909766010   -4.66576310607551   -1.25399299013885
H        83.55570270022670   -4.55480676757691   -1.45029730176725
Co       94.19705636623233   -0.00351525900355    1.21365996532573
C        91.93595033114100   -3.52319997502439    1.16497111738473
C        90.96642585557363   -2.64015662237036    0.82706892508635
C        91.58217735874436   -1.34979625335487    0.80074088342063
C        90.87180895045456   -0.15579201209293    0.62045814703767
C        91.44318837442867    1.07627426930268    0.96542178547489
C        90.68035490898005    2.27067410265129    1.16206285817381
C        91.53214125888451    3.19019659801916    1.67518455407851
C        92.81890830876625    2.56670163191466    1.73334711520372
N        92.74515712886702    1.26655898888171    1.30887582482770
C        93.98505629873173    3.23428566633003    2.04990902257226
C        95.23818429330959    2.69800069319125    1.83049179563036
C        96.44934237789825    3.45882488023636    1.87777857477970
C        97.42855790057779    2.65319433208589    1.40228507434562
C        96.81785866544118    1.39077797940961    1.12344286655211
N        95.48451557165416    1.42488914011659    1.38885815248389
C        97.53506290528709    0.24991452475736    0.74198888014037
C        96.95835942552156   -1.02351863380939    0.83740306139574
C        97.71929569108917   -2.23516337173798    0.82757641760245
C        96.85690221366713   -3.23279039965577    1.13654436307779
C        95.56744783591139   -2.62850957479257    1.27677484431415
N        95.64840107628677   -1.27209205040390    1.10565392192876
C        94.39527232227590   -3.34128676700274    1.43242260643165
C        93.14696840052513   -2.77051975090302    1.28707846118977
N        92.90882761086534   -1.43648271131749    1.08513380518064
H        91.86071937883538   -4.58498436153352    1.29721748681243
H        89.92432592789393   -2.81934042310718    0.65079600237041
H        89.62874052636172    2.35930201713994    0.97112961565085
H        91.33017686691935    4.20202615631792    1.96844112466896
H        93.91612471552259    4.25913718586504    2.38214253349779
H        96.51840777302991    4.47738277786530    2.20690172182458
H        98.47308469993611    2.86207457353682    1.28247378555673
H        98.77589869732751   -2.28899297127072    0.65187182658079
H        97.05412676850577   -4.28202484469405    1.24034438256325
H        94.45854843004155   -4.41045121876271    1.56782439710233
Co      104.68949783066465    0.43111427702793   -1.05939115268320
C       101.98515274431281   -2.56403403277621   -2.18753880677186
C       101.14202733973907   -1.76420802596278   -1.49289097324917
C       101.91903348238796   -0.65069173414008   -1.04113190558606
C       101.36036128414089    0.47827721972123   -0.42882458759945
C       102.08578132694896    1.67092353506532   -0.32286845730588
C       101.48542124244631    2.93559612721683   -0.03118305643626
C       102.46328529563044    3.86383574298018   -0.15351660198505
C       103.66390485851787    3.15041373576436   -0.46593766513017
N       103.41256409027947    1.80914336467763   -0.58773704697200
C       104.91501063693973    3.73150544984644   -0.49434236065766
C       106.08291203986957    2.99738726540574   -0.54175504546805
C       107.38080434158616    3.55255706466905   -0.30742709197861
C       108.24585020576900    2.51152676710166   -0.27554372659172
C       107.47504698933396    1.33543865852979   -0.54158278513428
N       106.15751103308146    1.63861600368436   -0.69646135693626
C       108.04608189381133    0.07568530869104   -0.75897371219722
C       107.30508255348273   -0.96131299531764   -1.33571994858604
C       107.89522300231032   -2.14765052594821   -1.87343185711468
C       106.89706162179159   -2.83748323366243   -2.47359121501427
C       105.69635539646616   -2.09211277048031   -2.24875622956329
N       105.96399009901937   -0.93588412801105   -1.56517194060163
C       104.43581319797381   -2.55958867904986   -2.56121394523023
C       103.27943765679079   -1.95863036447198   -2.10802826636795
N       103.22053025457274   -0.77811997165580   -1.41563000554772
H       101.77323185795997   -3.48703557157486   -2.69123915972488
H       100.08835284735368   -1.87731019789634   -1.32850412980505
H       100.44727440184182    3.07647605118938    0.19533225682979
H       102.40090007696256    4.92685374298846   -0.02460256968705
H       104.98670611549748    4.80194746192458   -0.37431460972805
H       107.58158822875372    4.59682596648453   -0.16695112853438
H       109.30810344664449    2.52258608774288   -0.12866866817049
H       108.93848765842247   -2.38575442093463   -1.81582077720589
H       106.94686536577093   -3.77164944288434   -2.99838040987031
H       104.35297402275793   -3.49210691987385   -3.09872628929447
