      -----------------------------------------------------------      
     |                   =====================                   |     
     |                           x T B                           |     
     |                   =====================                   |     
     |                         S. Grimme                         |     
     |          Mulliken Center for Theoretical Chemistry        |     
     |                    University of Bonn                     |     
      -----------------------------------------------------------      

   * xtb version 6.4.1 (bd6e46d) compiled by 'conda@4901f00b25ba' on 2021-06-10

   xtb is free software: you can redistribute it and/or modify it under
   the terms of the GNU Lesser General Public License as published by
   the Free Software Foundation, either version 3 of the License, or
   (at your option) any later version.
   
   xtb is distributed in the hope that it will be useful,
   but WITHOUT ANY WARRANTY; without even the implied warranty of
   MERCHANTABILITY or FITNESS FOR A PARTICULAR PURPOSE.  See the
   GNU Lesser General Public License for more details.
   
   Cite this work as:
   * C. Bannwarth, E. Caldeweyher, S. Ehlert, A. Hansen, P. Pracht,
     J. Seibert, S. Spicher, S. Grimme, WIREs Comput. Mol. Sci., 2020, 11,
     e01493. DOI: 10.1002/wcms.1493
   
   for GFN2-xTB:
   * C. Bannwarth, S. Ehlert and S. Grimme., J. Chem. Theory Comput., 2019,
     15, 1652-1671. DOI: 10.1021/acs.jctc.8b01176
   for GFN1-xTB:
   * S. Grimme, C. Bannwarth, P. Shushkov, J. Chem. Theory Comput., 2017,
     13, 1989-2009. DOI: 10.1021/acs.jctc.7b00118
   for GFN0-xTB:
   * P. Pracht, E. Caldeweyher, S. Ehlert, S. Grimme, ChemRxiv, 2019, preprint.
     DOI: 10.26434/chemrxiv.8326202.v1
   for GFN-FF:
   * S. Spicher and S. Grimme, Angew. Chem. Int. Ed., 2020, 59, 15665-15673.
     DOI: 10.1002/anie.202004239
   
   for DFT-D4:
   * E. Caldeweyher, C. Bannwarth and S. Grimme, J. Chem. Phys., 2017,
     147, 034112. DOI: 10.1063/1.4993215
   * E. Caldeweyher, S. Ehlert, A. Hansen, H. Neugebauer, S. Spicher,
     C. Bannwarth and S. Grimme, J. Chem. Phys., 2019, 150, 154122.
     DOI: 10.1063/1.5090222
   * E. Caldeweyher, J.-M. Mewes, S. Ehlert and S. Grimme, Phys. Chem. Chem. Phys.
     2020, 22, 8499-8512. DOI: 10.1039/D0CP00502A
   
   for sTDA-xTB:
   * S. Grimme and C. Bannwarth, J. Chem. Phys., 2016, 145, 054103.
     DOI: 10.1063/1.4959605
   
   in the mass-spec context:
   * V. Asgeirsson, C. Bauer and S. Grimme, Chem. Sci., 2017, 8, 4879.
     DOI: 10.1039/c7sc00601b
   * J. Koopman and S. Grimme, ACS Omega 2019, 4, 12, 15120-15133.
     DOI: 10.1021/acsomega.9b02011
   
   for metadynamics refer to:
   * S. Grimme, J. Chem. Theory Comput., 2019, 155, 2847-2862
     DOI: 10.1021/acs.jctc.9b00143
   
   for SPH calculations refer to:
   * S. Spicher and S. Grimme, J. Chem. Theory Comput., 2021, 17, 1701-1714
     DOI: 10.1021/acs.jctc.0c01306
   
   with help from (in alphabetical order)
   P. Atkinson, C. Bannwarth, F. Bohle, G. Brandenburg, E. Caldeweyher
   M. Checinski, S. Dohm, S. Ehlert, S. Ehrlich, I. Gerasimov, J. Koopman
   C. Lavigne, S. Lehtola, F. März, M. Müller, F. Musil, H. Neugebauer
   J. Pisarek, C. Plett, P. Pracht, J. Seibert, P. Shushkov, S. Spicher
   M. Stahn, M. Steiner, T. Strunk, J. Stückrath, T. Rose, and J. Unsleber
   
 * started run on 2021/11/18 at 20:42:54.525     

           -------------------------------------------------
          |                Calculation Setup                |
           -------------------------------------------------

          program call               : /home/jeff/miniconda3/bin/xtb input_structure_1.xyz --gfn 2 --ohess normal --parallel 1 --etemp 300 --chrg 0 --uhf 0 -I det_control.in
          hostname                   : jelfscompute1
          coordinate file            : input_structure_1.xyz
          omp threads                :                     1
          number of atoms            :                   232
          number of electrons        :                   754
          charge                     :                     0
          spin                       :                   0.0
          first test random number   :      0.03588851258261

   ID    Z sym.   atoms
    1   30 Zn     1, 37, 93, 128, 163, 198
    2    6 C      2-9, 11-15, 17-21, 23, 24, 38-45, 47-51, 53-57, 59, 60,
                  73-92, 94-101, 103-107, 109-113, 115, 116, 129-136,
                  138-142, 144-148, 150, 151, 164-171, 173-177, 179-183, 185,
                  186, 199-206, 208-212, 214-218, 220, 221
    3    7 N      10, 16, 22, 25, 46, 52, 58, 61, 102, 108, 114, 117, 137,
                  143, 149, 152, 172, 178, 184, 187, 207, 213, 219, 222
    4    1 H      26-36, 62-72, 118-127, 153-162, 188-197, 223-232

molecular fragmentation (1/2 indicates fragments):
111111111111111111111111111111111111222222222222222222222222222222222222
222222222222222222222222222222222222222222222222222222222222222222222222
222222222222222222222222222222222222222222222222222222222222222222222222
2222222222222222
# atoms in fragment 1/2:    36   196
 fragment masses (1/2) :      372.71     2099.72
CMA distance (Bohr)    :  77.838
constraining FC (au)   :  0.0500

           -------------------------------------------------
          |                 G F N 2 - x T B                 |
           -------------------------------------------------

        Reference                      10.1021/acs.jctc.8b01176
      * Hamiltonian:
        H0-scaling (s, p, d)           1.850000    2.230000    2.230000
        zeta-weighting                 0.500000
      * Dispersion:
        s8                             2.700000
        a1                             0.520000
        a2                             5.000000
        s9                             5.000000
      * Repulsion:
        kExp                           1.500000    1.000000
        rExp                           1.000000
      * Coulomb:
        alpha                          2.000000
        third order                    shell-resolved
        anisotropic                    true
        a3                             3.000000
        a5                             4.000000
        cn-shift                       1.200000
        cn-exp                         4.000000
        max-rad                        5.000000


          ...................................................
          :                      SETUP                      :
          :.................................................:
          :  # basis functions                 742          :
          :  # atomic orbitals                 742          :
          :  # shells                          402          :
          :  # electrons                       754          :
          :  max. iterations                   250          :
          :  Hamiltonian                  GFN2-xTB          :
          :  restarted?                      false          :
          :  GBSA solvation                  false          :
          :  PC potential                    false          :
          :  electronic temp.          300.0000000     K    :
          :  accuracy                    1.0000000          :
          :  -> integral cutoff          0.2500000E+02      :
          :  -> integral neglect         0.1000000E-07      :
          :  -> SCF convergence          0.1000000E-05 Eh   :
          :  -> wf. convergence          0.1000000E-03 e    :
          :  Broyden damping             0.4000000          :
          ...................................................

 iter      E             dE          RMSdq      gap      omega  full diag
   1   -409.4275118 -0.409428E+03  0.705E+00    0.03       0.0  T
   2   -396.2054138  0.132221E+02  0.485E+00    0.08       1.0  T
   3   -246.9181307  0.149287E+03  0.983E+00    0.03       1.0  T
   4    -91.9495421  0.154969E+03  0.209E+01    0.02       1.0  T
   5   -359.1119716 -0.267162E+03  0.593E+00    0.08       1.0  T
   6   -275.3593246  0.837526E+02  0.725E+00    0.05       1.0  T
   7   -389.3537546 -0.113994E+03  0.416E+00    0.03       1.0  T
   8   -403.1362213 -0.137825E+02  0.337E+00    0.12       1.0  T
   9   -409.6042601 -0.646804E+01  0.235E+00    0.10       1.0  T
  10   -410.0065179 -0.402258E+00  0.200E+00    0.05       1.0  T
  11   -410.3034385 -0.296921E+00  0.171E+00    0.18       1.0  T
  12   -410.4497427 -0.146304E+00  0.149E+00    0.14       1.0  T
  13   -410.8975121 -0.447769E+00  0.120E+00    0.17       1.0  T
  14   -410.8906464  0.686575E-02  0.101E+00    0.04       1.0  T
  15   -410.9678342 -0.771879E-01  0.804E-01    0.06       1.0  T
  16   -410.7414061  0.226428E+00  0.813E-01    0.01       1.0  T
  17   -410.7087290  0.326770E-01  0.868E-01    0.08       1.0  T
  18   -411.0983644 -0.389635E+00  0.438E-01    0.17       1.0  T
  19   -411.1096066 -0.112422E-01  0.422E-01    0.09       1.0  T
  20   -411.0640763  0.455303E-01  0.452E-01    0.02       1.0  T
  21   -411.1422413 -0.781650E-01  0.307E-01    0.19       1.0  T
  22   -411.1464356 -0.419426E-02  0.278E-01    0.18       1.0  T
  23   -411.1500102 -0.357459E-02  0.221E-01    0.24       1.0  T
  24   -411.1612316 -0.112214E-01  0.167E-01    0.18       1.0  T
  25   -411.1662537 -0.502208E-02  0.128E-01    0.17       1.0  T
  26   -411.1704736 -0.421994E-02  0.904E-02    0.13       1.0  T
  27   -411.1718763 -0.140270E-02  0.777E-02    0.10       1.0  T
  28   -411.1733426 -0.146631E-02  0.664E-02    0.10       1.0  T
  29   -411.1748379 -0.149527E-02  0.460E-02    0.10       1.0  T
  30   -411.1757783 -0.940456E-03  0.242E-02    0.09       1.0  T
  31   -411.1759683 -0.189961E-03  0.149E-02    0.09       1.0  T
  32   -411.1759925 -0.242002E-04  0.103E-02    0.09       1.0  T
  33   -411.1760015 -0.895716E-05  0.733E-03    0.09       1.0  T
  34   -411.1760068 -0.535910E-05  0.574E-03    0.09       1.1  T
  35   -411.1760097 -0.289299E-05  0.491E-03    0.09       1.3  T
  36   -411.1760138 -0.410824E-05  0.439E-03    0.09       1.5  T
  37   -411.1760155 -0.172037E-05  0.420E-03    0.09       1.6  T
  38   -411.1760160 -0.502741E-06  0.388E-03    0.09       1.7  T
  39   -411.1760184 -0.230898E-05  0.325E-03    0.09       2.0  T
  40   -411.1760190 -0.659473E-06  0.295E-03    0.09       2.2  T
  41   -411.1760198 -0.749128E-06  0.266E-03    0.09       2.5  T
  42   -411.1760202 -0.431058E-06  0.252E-03    0.09       2.6  T
  43   -411.1760207 -0.545108E-06  0.229E-03    0.09       2.9  T
  44   -411.1760217 -0.917407E-06  0.181E-03    0.09       3.6  T
  45   -411.1760219 -0.223365E-06  0.167E-03    0.09       3.9  T
  46   -411.1760223 -0.429563E-06  0.130E-03    0.09       5.0  T
  47   -411.1760225 -0.188234E-06  0.107E-03    0.09       6.1  T
  48   -411.1760226 -0.146054E-06  0.851E-04    0.09       7.7  T
  49   -411.1760227 -0.696560E-07  0.680E-04    0.09       9.7  T

   *** convergence criteria satisfied after 49 iterations ***

         #    Occupation            Energy/Eh            Energy/eV
      -------------------------------------------------------------
         1        2.0000           -0.6832184             -18.5913
       ...           ...                  ...                  ...
       371        2.0000           -0.3614354              -9.8352
       372        2.0000           -0.3539004              -9.6301
       373        2.0000           -0.3525345              -9.5930
       374        2.0000           -0.3524532              -9.5907
       375        2.0000           -0.3482262              -9.4757
       376        1.9840           -0.3416744              -9.2974
       377        1.6049           -0.3384285              -9.2091 (HOMO)
       378        0.2117           -0.3350698              -9.1177 (LUMO)
       379        0.1994           -0.3350063              -9.1160
       380        0.0000           -0.3215635              -8.7502
       381                         -0.3173071              -8.6344
       382                         -0.3172254              -8.6321
       ...                                ...                  ...
       742                          1.6198594              44.0786
      -------------------------------------------------------------
                  HL-Gap            0.0033587 Eh            0.0914 eV
             Fermi-level           -0.3370968 Eh           -9.1729 eV

 SCC (total)                   0 d,  0 h,  0 min,  8.163 sec
 SCC setup                      ...        0 min,  0.009 sec (  0.110%)
 Dispersion                     ...        0 min,  0.019 sec (  0.231%)
 classical contributions        ...        0 min,  0.002 sec (  0.022%)
 integral evaluation            ...        0 min,  0.147 sec (  1.796%)
 iterations                     ...        0 min,  7.574 sec ( 92.784%)
 molecular gradient             ...        0 min,  0.393 sec (  4.809%)
 printout                       ...        0 min,  0.020 sec (  0.247%)

         :::::::::::::::::::::::::::::::::::::::::::::::::::::
         ::                     SUMMARY                     ::
         :::::::::::::::::::::::::::::::::::::::::::::::::::::
         :: total energy            -403.388874609358 Eh    ::
         :: gradient norm              0.915184060409 Eh/a0 ::
         :: HOMO-LUMO gap              0.091395500576 eV    ::
         ::.................................................::
         :: SCC energy              -411.176022713576 Eh    ::
         :: -> isotropic ES            0.408944470617 Eh    ::
         :: -> anisotropic ES          0.046494341639 Eh    ::
         :: -> anisotropic XC          0.266741051914 Eh    ::
         :: -> dispersion             -0.363029419083 Eh    ::
         :: repulsion energy           7.787356693842 Eh    ::
         :: add. restraining           0.000000000000 Eh    ::
         :: total charge              -0.000000000004 e     ::
         :::::::::::::::::::::::::::::::::::::::::::::::::::::

      ----------------------------------------------------------- 
     |                   =====================                   |
     |                        A N C O P T                        |
     |                   =====================                   |
     |               Approximate Normal Coordinate               |
     |                Rational Function Optimizer                |
      ----------------------------------------------------------- 

          ...................................................
          :                      SETUP                      :
          :.................................................:
          :   optimization level            normal          :
          :   max. optcycles                   696          :
          :   ANC micro-cycles                  20          :
          :   degrees of freedom               690          :
          :.................................................:
          :   RF solver                   davidson          :
          :   write xtbopt.log                true          :
          :   linear?                        false          :
          :   energy convergence         0.5000000E-05 Eh   :
          :   grad. convergence          0.1000000E-02 Eh/α :
          :   maximium RF displ.         1.0000000          :
          :   Hlow (freq-cutoff)         0.1000000E-01      :
          :   Hmax (freq-cutoff)         5.0000000          :
          :   S6 in model hess.         20.0000000          :
          ...................................................

generating ANC from model Hessian ...
Using Lindh-Hessian (1995)
 Shifting diagonal of input Hessian by    1.0124436971473865E-002
 Lowest  eigenvalues of input Hessian
    0.010000    0.010039    0.010094    0.010097    0.010097    0.010097
    0.010098    0.010104    0.010108    0.010110    0.010111    0.010114
    0.010116    0.010117    0.010120    0.010120    0.010123    0.000000
 Highest eigenvalues
    2.576440    2.785520    2.844620    2.909723    2.909723    2.909725


........................................................................
.............................. CYCLE    1 ..............................
........................................................................
   1   -411.1760228 -0.411176E+03  0.436E-04    0.09       0.0  T
   2   -411.1760207  0.203272E-05  0.172E-03    0.09       3.8  T
   3   -411.1760226 -0.189528E-05  0.520E-04    0.09      12.6  T
   4   -411.1760189  0.374999E-05  0.188E-03    0.09       3.5  T
   5   -411.1760224 -0.355950E-05  0.747E-04    0.09       8.8  T
   6   -411.1760225 -0.773521E-07  0.801E-04    0.09       8.2  T
   7   -411.1760227 -0.207317E-06  0.356E-04    0.09      18.5  T
     SCC iter.                  ...        0 min,  1.088 sec
     gradient                   ...        0 min,  0.393 sec
 * total energy  :  -403.3888746 Eh     change       -0.1495692E-07 Eh
   gradient norm :     0.9151792 Eh/α   predicted     0.0000000E+00 (-100.00%)
   displ. norm   :     0.5703992 α      lambda       -0.4400072E+00
   maximum displ.:     0.1306421 α      in ANC's #673, #238, #558, ...

........................................................................
.............................. CYCLE    2 ..............................
........................................................................
   1   -411.1442019 -0.411144E+03  0.358E-01    0.07       0.0  T
   2   -411.0754118  0.687901E-01  0.435E-01    0.04       1.0  T
   3   -410.7964465  0.278965E+00  0.614E-01    0.04       1.0  T
   4   -411.0812903 -0.284844E+00  0.408E-01    0.22       1.0  T
   5   -411.1034431 -0.221528E-01  0.313E-01    0.03       1.0  T
   6   -411.1145235 -0.110804E-01  0.359E-01    0.11       1.0  T
   7   -411.1386586 -0.241351E-01  0.198E-01    0.09       1.0  T
   8   -411.1522431 -0.135844E-01  0.138E-01    0.06       1.0  T
   9   -411.1595037 -0.726060E-02  0.121E-01    0.10       1.0  T
  10   -411.1603214 -0.817768E-03  0.924E-02    0.10       1.0  T
  11   -411.1647106 -0.438916E-02  0.570E-02    0.08       1.0  T
  12   -411.1640704  0.640142E-03  0.681E-02    0.10       1.0  T
  13   -411.1654957 -0.142528E-02  0.522E-02    0.10       1.0  T
  14   -411.1667985 -0.130280E-02  0.314E-02    0.08       1.0  T
  15   -411.1668325 -0.339379E-04  0.247E-02    0.08       1.0  T
  16   -411.1672763 -0.443829E-03  0.107E-02    0.08       1.0  T
  17   -411.1672486  0.277200E-04  0.109E-02    0.08       1.0  T
  18   -411.1673230 -0.743794E-04  0.378E-03    0.08       1.7  T
  19   -411.1673309 -0.794798E-05  0.174E-03    0.08       3.8  T
  20   -411.1673313 -0.414054E-06  0.119E-03    0.08       5.5  T
  21   -411.1673320 -0.734374E-06  0.580E-04    0.08      11.3  T
  22   -411.1673322 -0.156981E-06  0.268E-04    0.08      24.5  T
     SCC iter.                  ...        0 min,  3.413 sec
     gradient                   ...        0 min,  0.394 sec
 * total energy  :  -403.7382583 Eh     change       -0.3493837E+00 Eh
   gradient norm :     0.5207972 Eh/α   predicted    -0.2916191E+00 ( -16.53%)
   displ. norm   :     0.6472424 α      lambda       -0.2810399E+00
   maximum displ.:     0.1788332 α      in ANC's #238, #235, #237, ...

........................................................................
.............................. CYCLE    3 ..............................
........................................................................
   1   -411.2020091 -0.411202E+03  0.371E-01    0.05       0.0  T
   2   -411.1370955  0.649136E-01  0.458E-01    0.13       1.0  T
   3   -411.0176173  0.119478E+00  0.595E-01    0.01       1.0  T
   4   -410.8338734  0.183744E+00  0.684E-01    0.09       1.0  T
   5   -411.1447853 -0.310912E+00  0.357E-01    0.21       1.0  T
   6   -411.0714889  0.732964E-01  0.422E-01    0.03       1.0  T
   7   -411.1548501 -0.833612E-01  0.305E-01    0.08       1.0  T
   8   -411.1876277 -0.327775E-01  0.284E-01    0.09       1.0  T
   9   -411.1349785  0.526492E-01  0.266E-01    0.01       1.0  T
  10   -411.2149354 -0.799570E-01  0.898E-02    0.08       1.0  T
  11   -411.2184277 -0.349223E-02  0.661E-02    0.08       1.0  T
  12   -411.2199076 -0.147993E-02  0.530E-02    0.08       1.0  T
  13   -411.2202190 -0.311394E-03  0.463E-02    0.07       1.0  T
  14   -411.2211587 -0.939694E-03  0.283E-02    0.07       1.0  T
  15   -411.2218307 -0.671972E-03  0.977E-03    0.07       1.0  T
  16   -411.2218900 -0.592876E-04  0.781E-03    0.07       1.0  T
  17   -411.2219301 -0.401636E-04  0.291E-03    0.07       2.3  T
  18   -411.2219290  0.116318E-05  0.255E-03    0.07       2.6  T
  19   -411.2219336 -0.459867E-05  0.774E-04    0.07       8.5  T
  20   -411.2219339 -0.344843E-06  0.457E-04    0.07      14.4  T
  21   -411.2219338  0.831015E-07  0.483E-04    0.07      13.6  T
     SCC iter.                  ...        0 min,  3.252 sec
     gradient                   ...        0 min,  0.394 sec
 * total energy  :  -403.9447135 Eh     change       -0.2064552E+00 Eh
   gradient norm :     0.2186360 Eh/α   predicted    -0.1993870E+00 (  -3.42%)
   displ. norm   :     0.7227397 α      lambda       -0.1307235E+00
   maximum displ.:     0.2323005 α      in ANC's #238, #235, #237, ...

........................................................................
.............................. CYCLE    4 ..............................
........................................................................
   1   -411.3160098 -0.411316E+03  0.286E-01    0.09       0.0  T
   2   -410.7779760  0.538034E+00  0.910E-01    0.02       1.0  T
   3   -410.9266134 -0.148637E+00  0.646E-01    0.02       1.0  T
   4   -411.2484896 -0.321876E+00  0.423E-01    0.14       1.0  T
   5   -411.2300588  0.184308E-01  0.379E-01    0.02       1.0  T
   6   -411.2662172 -0.361584E-01  0.355E-01    0.23       1.0  T
   7   -411.2865699 -0.203527E-01  0.269E-01    0.16       1.0  T
   8   -411.3089809 -0.224110E-01  0.157E-01    0.09       1.0  T
   9   -411.2975616  0.114193E-01  0.164E-01    0.04       1.0  T
  10   -411.3149787 -0.174172E-01  0.126E-01    0.12       1.0  T
  11   -411.3171593 -0.218062E-02  0.116E-01    0.11       1.0  T
  12   -411.3195828 -0.242347E-02  0.101E-01    0.10       1.0  T
  13   -411.3233124 -0.372958E-02  0.593E-02    0.08       1.0  T
  14   -411.3252789 -0.196651E-02  0.403E-02    0.07       1.0  T
  15   -411.3261672 -0.888303E-03  0.233E-02    0.07       1.0  T
  16   -411.3264227 -0.255532E-03  0.157E-02    0.06       1.0  T
  17   -411.3266224 -0.199661E-03  0.757E-03    0.07       1.0  T
  18   -411.3265821  0.402609E-04  0.892E-03    0.06       1.0  T
  19   -411.3266525 -0.703366E-04  0.437E-03    0.07       1.5  T
  20   -411.3266680 -0.155343E-04  0.137E-03    0.07       4.8  T
  21   -411.3266698 -0.174000E-05  0.514E-04    0.07      12.8  T
  22   -411.3266693  0.472734E-06  0.771E-04    0.07       8.5  T
  23   -411.3266694 -0.986170E-07  0.688E-04    0.07       9.5  T
     SCC iter.                  ...        0 min,  3.570 sec
     gradient                   ...        0 min,  0.395 sec
 * total energy  :  -404.0491449 Eh     change       -0.1044314E+00 Eh
   gradient norm :     0.1187390 Eh/α   predicted    -0.9950368E-01 (  -4.72%)
   displ. norm   :     0.7824476 α      lambda       -0.8504178E-01
   maximum displ.:     0.2468093 α      in ANC's #122, #238, #230, ...

........................................................................
.............................. CYCLE    5 ..............................
........................................................................
   1   -411.4109002 -0.411411E+03  0.274E-01    0.11       0.0  T
   2   -410.7007335  0.710167E+00  0.102E+00    0.09       1.0  T
   3   -411.2732598 -0.572526E+00  0.513E-01    0.24       1.0  T
   4   -411.3563204 -0.830606E-01  0.418E-01    0.14       1.0  T
   5   -411.3919677 -0.356473E-01  0.261E-01    0.13       1.0  T
   6   -411.3807062  0.112615E-01  0.312E-01    0.09       1.0  T
   7   -411.4126068 -0.319006E-01  0.102E-01    0.09       1.0  T
   8   -411.3835187  0.290881E-01  0.187E-01    0.04       1.0  T
   9   -411.4194569 -0.359381E-01  0.637E-02    0.09       1.0  T
  10   -411.4197711 -0.314197E-03  0.628E-02    0.09       1.0  T
  11   -411.4198300 -0.589443E-04  0.624E-02    0.08       1.0  T
  12   -411.4206558 -0.825797E-03  0.417E-02    0.08       1.0  T
  13   -411.4215546 -0.898800E-03  0.163E-02    0.07       1.0  T
  14   -411.4216770 -0.122396E-03  0.109E-02    0.07       1.0  T
  15   -411.4217052 -0.282180E-04  0.704E-03    0.07       1.0  T
  16   -411.4217072 -0.197456E-05  0.650E-03    0.07       1.0  T
  17   -411.4217337 -0.264629E-04  0.284E-03    0.07       2.3  T
  18   -411.4217370 -0.333628E-05  0.133E-03    0.07       4.9  T
  19   -411.4217380 -0.103331E-05  0.666E-04    0.07       9.9  T
  20   -411.4217382 -0.170260E-06  0.372E-04    0.07      17.6  T
  21   -411.4217383 -0.595276E-07  0.180E-04    0.07      36.4  T
     SCC iter.                  ...        0 min,  3.250 sec
     gradient                   ...        0 min,  0.394 sec
 * total energy  :  -404.1209230 Eh     change       -0.7177809E-01 Eh
   gradient norm :     0.0909776 Eh/α   predicted    -0.6855420E-01 (  -4.49%)
   displ. norm   :     0.8136517 α      lambda       -0.6280146E-01
   maximum displ.:     0.3119952 α      in ANC's #122, #238, #230, ...

........................................................................
.............................. CYCLE    6 ..............................
........................................................................
   1   -411.4980284 -0.411498E+03  0.266E-01    0.12       0.0  T
   2   -410.6849155  0.813113E+00  0.106E+00    0.13       1.0  T
   3   -411.4349859 -0.750070E+00  0.351E-01    0.27       1.0  T
   4   -411.4032010  0.317849E-01  0.526E-01    0.20       1.0  T
   5   -411.4857140 -0.825130E-01  0.194E-01    0.15       1.0  T
   6   -411.4854165  0.297460E-03  0.175E-01    0.14       1.0  T
   7   -411.4887976 -0.338110E-02  0.158E-01    0.13       1.0  T
   8   -411.4960270 -0.722939E-02  0.123E-01    0.12       1.0  T
   9   -411.4989947 -0.296769E-02  0.981E-02    0.12       1.0  T
  10   -411.4994859 -0.491215E-03  0.948E-02    0.12       1.0  T
  11   -411.4999030 -0.417091E-03  0.914E-02    0.13       1.0  T
  12   -411.5028734 -0.297032E-02  0.626E-02    0.10       1.0  T
  13   -411.5055649 -0.269153E-02  0.205E-02    0.09       1.0  T
  14   -411.5058280 -0.263078E-03  0.103E-02    0.08       1.0  T
  15   -411.5058066  0.213560E-04  0.990E-03    0.08       1.0  T
  16   -411.5058175 -0.109064E-04  0.702E-03    0.08       1.0  T
  17   -411.5058542 -0.366820E-04  0.354E-03    0.08       1.9  T
  18   -411.5058622 -0.799903E-05  0.133E-03    0.08       4.9  T
  19   -411.5058621  0.123173E-06  0.138E-03    0.08       4.7  T
  20   -411.5058631 -0.104115E-05  0.519E-04    0.08      12.7  T
  21   -411.5058633 -0.158897E-06  0.238E-04    0.08      27.6  T
  22   -411.5058633 -0.215300E-07  0.160E-04    0.08      41.2  T
     SCC iter.                  ...        0 min,  3.401 sec
     gradient                   ...        0 min,  0.394 sec
 * total energy  :  -404.1749067 Eh     change       -0.5398369E-01 Eh
   gradient norm :     0.0708335 Eh/α   predicted    -0.5218894E-01 (  -3.32%)
   displ. norm   :     0.8305941 α      lambda       -0.4733468E-01
   maximum displ.:     0.3511547 α      in ANC's #122, #39, #124, ...

........................................................................
.............................. CYCLE    7 ..............................
........................................................................
   1   -411.5705619 -0.411571E+03  0.257E-01    0.13       0.0  T
   2   -410.7385039  0.832058E+00  0.104E+00    0.10       1.0  T
   3   -411.5459633 -0.807459E+00  0.248E-01    0.27       1.0  T
   4   -411.5034721  0.424911E-01  0.388E-01    0.14       1.0  T
   5   -411.5334380 -0.299658E-01  0.334E-01    0.20       1.0  T
   6   -411.5535968 -0.201589E-01  0.194E-01    0.22       1.0  T
   7   -411.5592366 -0.563979E-02  0.166E-01    0.16       1.0  T
   8   -411.5618302 -0.259356E-02  0.152E-01    0.17       1.0  T
   9   -411.5656632 -0.383303E-02  0.121E-01    0.17       1.0  T
  10   -411.5664878 -0.824618E-03  0.114E-01    0.16       1.0  T
  11   -411.5669074 -0.419557E-03  0.112E-01    0.16       1.0  T
  12   -411.5697057 -0.279831E-02  0.903E-02    0.14       1.0  T
  13   -411.5738187 -0.411297E-02  0.462E-02    0.10       1.0  T
  14   -411.5752713 -0.145266E-02  0.213E-02    0.10       1.0  T
  15   -411.5753277 -0.563419E-04  0.198E-02    0.10       1.0  T
  16   -411.5755057 -0.178035E-03  0.135E-02    0.10       1.0  T
  17   -411.5755973 -0.915388E-04  0.721E-03    0.09       1.0  T
  18   -411.5756285 -0.312746E-04  0.399E-03    0.09       1.6  T
  19   -411.5756362 -0.764406E-05  0.162E-03    0.09       4.0  T
  20   -411.5756378 -0.160504E-05  0.692E-04    0.09       9.5  T
  21   -411.5756377  0.123044E-06  0.767E-04    0.09       8.6  T
  22   -411.5756379 -0.284686E-06  0.409E-04    0.09      16.0  T
     SCC iter.                  ...        0 min,  3.399 sec
     gradient                   ...        0 min,  0.394 sec
 * total energy  :  -404.2160744 Eh     change       -0.4116768E-01 Eh
   gradient norm :     0.0528710 Eh/α   predicted    -0.3999515E-01 (  -2.85%)
   displ. norm   :     0.8472230 α      lambda       -0.3640782E-01
   maximum displ.:     0.3548173 α      in ANC's #122, #39, #35, ...

........................................................................
.............................. CYCLE    8 ..............................
........................................................................
   1   -411.6178147 -0.411618E+03  0.252E-01    0.14       0.0  T
   2   -410.8201181  0.797697E+00  0.988E-01    0.06       1.0  T
   3   -411.5779446 -0.757827E+00  0.348E-01    0.26       1.0  T
   4   -411.4580467  0.119898E+00  0.619E-01    0.24       1.0  T
   5   -411.5936316 -0.135585E+00  0.261E-01    0.16       1.0  T
   6   -411.5849060  0.872563E-02  0.304E-01    0.26       1.0  T
   7   -411.5990833 -0.141773E-01  0.217E-01    0.26       1.0  T
   8   -411.6085125 -0.942924E-02  0.161E-01    0.15       1.0  T
   9   -411.6121967 -0.368416E-02  0.131E-01    0.19       1.0  T
  10   -411.6138366 -0.163991E-02  0.115E-01    0.17       1.0  T
  11   -411.6141838 -0.347221E-03  0.112E-01    0.18       1.0  T
  12   -411.6158805 -0.169665E-02  0.987E-02    0.17       1.0  T
  13   -411.6188054 -0.292492E-02  0.736E-02    0.15       1.0  T
  14   -411.6202675 -0.146211E-02  0.559E-02    0.13       1.0  T
  15   -411.6211229 -0.855407E-03  0.358E-02    0.10       1.0  T
  16   -411.6222699 -0.114703E-02  0.178E-02    0.11       1.0  T
  17   -411.6224025 -0.132570E-03  0.106E-02    0.11       1.0  T
  18   -411.6223493  0.531896E-04  0.991E-03    0.10       1.0  T
  19   -411.6224065 -0.571933E-04  0.820E-03    0.11       1.0  T
  20   -411.6224655 -0.589343E-04  0.209E-03    0.10       3.1  T
  21   -411.6224689 -0.339857E-05  0.386E-04    0.10      17.0  T
  22   -411.6224689 -0.367679E-07  0.216E-04    0.10      30.4  T
  23   -411.6224688  0.994905E-07  0.376E-04    0.10      17.4  T
     SCC iter.                  ...        0 min,  3.556 sec
     gradient                   ...        0 min,  0.394 sec
 * total energy  :  -404.2482292 Eh     change       -0.3215478E-01 Eh
   gradient norm :     0.0409852 Eh/α   predicted    -0.3127044E-01 (  -2.75%)
   displ. norm   :     0.8715436 α      lambda       -0.2926715E-01
   maximum displ.:     0.3235314 α      in ANC's #122, #39, #35, ...

........................................................................
.............................. CYCLE    9 ..............................
........................................................................
   1   -411.6423481 -0.411642E+03  0.246E-01    0.16       0.0  T
   2   -410.8355305  0.806818E+00  0.969E-01    0.04       1.0  T
   3   -411.5948937 -0.759363E+00  0.388E-01    0.26       1.0  T
   4   -411.5705134  0.243803E-01  0.433E-01    0.23       1.0  T
   5   -411.6114083 -0.408949E-01  0.299E-01    0.20       1.0  T
   6   -411.6284220 -0.170137E-01  0.224E-01    0.22       1.0  T
   7   -411.6337425 -0.532052E-02  0.169E-01    0.21       1.0  T
   8   -411.6407137 -0.697124E-02  0.114E-01    0.17       1.0  T
   9   -411.6410184 -0.304613E-03  0.107E-01    0.20       1.0  T
  10   -411.6420903 -0.107195E-02  0.948E-02    0.17       1.0  T
  11   -411.6423443 -0.253966E-03  0.922E-02    0.18       1.0  T
  12   -411.6434341 -0.108978E-02  0.814E-02    0.17       1.0  T
  13   -411.6446907 -0.125666E-02  0.680E-02    0.16       1.0  T
  14   -411.6474107 -0.272002E-02  0.241E-02    0.13       1.0  T
  15   -411.6474837 -0.729405E-04  0.235E-02    0.13       1.0  T
  16   -411.6476508 -0.167140E-03  0.150E-02    0.12       1.0  T
  17   -411.6477514 -0.100586E-03  0.784E-03    0.12       1.0  T
  18   -411.6474239  0.327488E-03  0.194E-02    0.12       1.0  T
  19   -411.6477654 -0.341514E-03  0.633E-03    0.12       1.0  T
  20   -411.6478005 -0.350290E-04  0.153E-03    0.12       4.3  T
  21   -411.6477979  0.251213E-05  0.217E-03    0.12       3.0  T
  22   -411.6478026 -0.467639E-05  0.253E-04    0.12      25.9  T
  23   -411.6478026 -0.178176E-07  0.223E-04    0.12      29.5  T
  24   -411.6478027 -0.397937E-07  0.612E-05    0.12     107.2  T
     SCC iter.                  ...        0 min,  3.709 sec
     gradient                   ...        0 min,  0.394 sec
 * total energy  :  -404.2747653 Eh     change       -0.2653616E-01 Eh
   gradient norm :     0.0348228 Eh/α   predicted    -0.2574909E-01 (  -2.97%)
   displ. norm   :     0.9067622 α      lambda       -0.2548893E-01
   maximum displ.:     0.3642826 α      in ANC's #39, #35, #122, ...

........................................................................
.............................. CYCLE   10 ..............................
........................................................................
   1   -411.6549172 -0.411655E+03  0.239E-01    0.20       0.0  T
   2   -410.9736880  0.681229E+00  0.874E-01    0.03       1.0  T
   3   -411.6171077 -0.643420E+00  0.355E-01    0.36       1.0  T
   4   -411.6119757  0.513200E-02  0.353E-01    0.29       1.0  T
   5   -411.6247141 -0.127385E-01  0.304E-01    0.27       1.0  T
   6   -411.6485040 -0.237899E-01  0.171E-01    0.29       1.0  T
   7   -411.6520946 -0.359059E-02  0.127E-01    0.28       1.0  T
   8   -411.6554045 -0.330982E-02  0.960E-02    0.22       1.0  T
   9   -411.6564603 -0.105588E-02  0.821E-02    0.23       1.0  T
  10   -411.6566945 -0.234173E-03  0.782E-02    0.22       1.0  T
  11   -411.6573133 -0.618778E-03  0.721E-02    0.22       1.0  T
  12   -411.6585662 -0.125287E-02  0.557E-02    0.19       1.0  T
  13   -411.6600604 -0.149424E-02  0.303E-02    0.17       1.0  T
  14   -411.6604015 -0.341123E-03  0.188E-02    0.14       1.0  T
  15   -411.6604431 -0.415929E-04  0.180E-02    0.15       1.0  T
  16   -411.6606482 -0.205077E-03  0.573E-03    0.14       1.1  T
  17   -411.6606256  0.226111E-04  0.677E-03    0.14       1.0  T
  18   -411.6606455 -0.198974E-04  0.418E-03    0.14       1.6  T
  19   -411.6606623 -0.168472E-04  0.923E-04    0.14       7.1  T
  20   -411.6606629 -0.564793E-06  0.354E-04    0.14      18.6  T
  21   -411.6606630 -0.712692E-07  0.254E-04    0.14      25.9  T
     SCC iter.                  ...        0 min,  3.247 sec
     gradient                   ...        0 min,  0.394 sec
 * total energy  :  -404.2988546 Eh     change       -0.2408929E-01 Eh
   gradient norm :     0.0322437 Eh/α   predicted    -0.2322321E-01 (  -3.60%)
   displ. norm   :     0.9508451 α      lambda       -0.2485109E-01
   maximum displ.:     0.3813353 α      in ANC's #39, #35, #30, ...

........................................................................
.............................. CYCLE   11 ..............................
........................................................................
   1   -411.6620795 -0.411662E+03  0.243E-01    0.26       0.0  T
   2   -411.3498261  0.312253E+00  0.609E-01    0.03       1.0  T
   3   -411.6369398 -0.287114E+00  0.277E-01    0.17       1.0  T
   4   -411.6348462  0.209352E-02  0.294E-01    0.34       1.0  T
   5   -411.6372314 -0.238520E-02  0.293E-01    0.46       1.0  T
   6   -411.6570376 -0.198062E-01  0.147E-01    0.28       1.0  T
   7   -411.6595627 -0.252505E-02  0.127E-01    0.19       1.0  T
   8   -411.6623790 -0.281628E-02  0.988E-02    0.26       1.0  T
   9   -411.6643127 -0.193377E-02  0.715E-02    0.24       1.0  T
  10   -411.6646838 -0.371102E-03  0.651E-02    0.25       1.0  T
  11   -411.6655291 -0.845213E-03  0.516E-02    0.25       1.0  T
  12   -411.6665211 -0.992069E-03  0.313E-02    0.24       1.0  T
  13   -411.6671957 -0.674550E-03  0.630E-03    0.17       1.0  T
  14   -411.6670263  0.169411E-03  0.154E-02    0.20       1.0  T
  15   -411.6671130 -0.867059E-04  0.106E-02    0.16       1.0  T
  16   -411.6672076 -0.946172E-04  0.320E-03    0.17       2.1  T
  17   -411.6672145 -0.692204E-05  0.121E-03    0.17       5.4  T
  18   -411.6672139  0.591404E-06  0.127E-03    0.17       5.2  T
  19   -411.6672151 -0.116080E-05  0.399E-04    0.17      16.4  T
  20   -411.6672151 -0.663252E-07  0.231E-04    0.17      28.4  T
  21   -411.6672152 -0.376376E-07  0.969E-05    0.17      67.8  T
     SCC iter.                  ...        0 min,  3.241 sec
     gradient                   ...        0 min,  0.395 sec
 * total energy  :  -404.3236707 Eh     change       -0.2481604E-01 Eh
   gradient norm :     0.0332623 Eh/α   predicted    -0.2365958E-01 (  -4.66%)
   displ. norm   :     0.9428186 α      lambda       -0.2537371E-01
   maximum displ.:     0.3596916 α      in ANC's #39, #30, #35, ...

........................................................................
.............................. CYCLE   12 ..............................
........................................................................
   1   -411.6558819 -0.411656E+03  0.237E-01    0.34       0.0  T
   2   -411.6266582  0.292237E-01  0.276E-01    0.11       1.0  T
   3   -411.6379532 -0.112949E-01  0.252E-01    0.49       1.0  T
   4   -411.6424954 -0.454229E-02  0.212E-01    0.54       1.0  T
   5   -411.6574146 -0.149191E-01  0.634E-02    0.40       1.0  T
   6   -411.6583454 -0.930848E-03  0.467E-02    0.32       1.0  T
   7   -411.6588529 -0.507420E-03  0.251E-02    0.30       1.0  T
   8   -411.6589789 -0.126021E-03  0.203E-02    0.27       1.0  T
   9   -411.6589676  0.113096E-04  0.148E-02    0.28       1.0  T
  10   -411.6590387 -0.711592E-04  0.798E-03    0.25       1.0  T
  11   -411.6590466 -0.785440E-05  0.429E-03    0.25       1.5  T
  12   -411.6590558 -0.923799E-05  0.213E-03    0.23       3.1  T
  13   -411.6590571 -0.132643E-05  0.108E-03    0.24       6.1  T
  14   -411.6590574 -0.238352E-06  0.572E-04    0.24      11.5  T
  15   -411.6590574 -0.389148E-07  0.353E-04    0.23      18.6  T
     SCC iter.                  ...        0 min,  2.319 sec
     gradient                   ...        0 min,  0.394 sec
 * total energy  :  -404.3501030 Eh     change       -0.2643231E-01 Eh
   gradient norm :     0.0427617 Eh/α   predicted    -0.2396449E-01 (  -9.34%)
   displ. norm   :     0.9124556 α      lambda       -0.2819567E-01
   maximum displ.:     0.3684683 α      in ANC's #18, #30, #39, ...

........................................................................
.............................. CYCLE   13 ..............................
........................................................................
   1   -411.6503537 -0.411650E+03  0.236E-01    0.46       0.0  T
   2   -411.6415918  0.876194E-02  0.211E-01    0.33       1.0  T
   3   -411.6341310  0.746077E-02  0.252E-01    0.45       1.0  T
   4   -411.6440936 -0.996264E-02  0.155E-01    0.49       1.0  T
   5   -411.6522567 -0.816312E-02  0.343E-02    0.41       1.0  T
   6   -411.6524647 -0.207944E-03  0.159E-02    0.40       1.0  T
   7   -411.6525532 -0.885056E-04  0.532E-03    0.41       1.2  T
   8   -411.6525573 -0.413016E-05  0.309E-03    0.41       2.1  T
   9   -411.6525570  0.363279E-06  0.212E-03    0.41       3.1  T
  10   -411.6525584 -0.139825E-05  0.789E-04    0.41       8.3  T
  11   -411.6525586 -0.211309E-06  0.364E-04    0.41      18.0  T
  12   -411.6525586 -0.220175E-07  0.202E-04    0.41      32.5  T
     SCC iter.                  ...        0 min,  1.853 sec
     gradient                   ...        0 min,  0.395 sec
 * total energy  :  -404.3804775 Eh     change       -0.3037449E-01 Eh
   gradient norm :     0.0554109 Eh/α   predicted    -0.2583555E-01 ( -14.94%)
   displ. norm   :     0.8807945 α      lambda       -0.3354447E-01
   maximum displ.:     0.3823263 α      in ANC's #18, #30, #35, ...

........................................................................
.............................. CYCLE   14 ..............................
........................................................................
   1   -411.6466588 -0.411647E+03  0.231E-01    0.71       0.0  T
   2   -411.6426147  0.404404E-02  0.177E-01    0.64       1.0  T
   3   -411.6350611  0.755366E-02  0.219E-01    0.74       1.0  T
   4   -411.6454704 -0.104093E-01  0.922E-02    0.75       1.0  T
   5   -411.6480691 -0.259879E-02  0.310E-02    0.70       1.0  T
   6   -411.6483200 -0.250852E-03  0.600E-03    0.71       1.1  T
   7   -411.6483265 -0.655271E-05  0.369E-03    0.71       1.8  T
   8   -411.6483280 -0.145797E-05  0.222E-03    0.71       3.0  T
   9   -411.6483289 -0.897995E-06  0.129E-03    0.71       5.1  T
  10   -411.6483294 -0.528047E-06  0.399E-04    0.71      16.5  T
  11   -411.6483294 -0.132093E-07  0.271E-04    0.71      24.3  T
     SCC iter.                  ...        0 min,  1.707 sec
     gradient                   ...        0 min,  0.395 sec
 * total energy  :  -404.4167598 Eh     change       -0.3628233E-01 Eh
   gradient norm :     0.0671715 Eh/α   predicted    -0.2978441E-01 ( -17.91%)
   displ. norm   :     0.8617215 α      lambda       -0.3963817E-01
   maximum displ.:     0.3917211 α      in ANC's #18, #30, #35, ...

........................................................................
.............................. CYCLE   15 ..............................
........................................................................
   1   -411.6465995 -0.411647E+03  0.215E-01    1.02       0.0  T
   2   -411.6445429  0.205664E-02  0.157E-01    1.02       1.0  T
   3   -411.6398018  0.474113E-02  0.177E-01    1.02       1.0  T
   4   -411.6472565 -0.745469E-02  0.457E-02    1.02       1.0  T
   5   -411.6476523 -0.395823E-03  0.282E-02    1.02       1.0  T
   6   -411.6478868 -0.234509E-03  0.513E-03    1.02       1.3  T
   7   -411.6478910 -0.419296E-05  0.342E-03    1.02       1.9  T
   8   -411.6478935 -0.250525E-05  0.185E-03    1.02       3.5  T
   9   -411.6478942 -0.721893E-06  0.834E-04    1.02       7.9  T
  10   -411.6478944 -0.148191E-06  0.370E-04    1.02      17.8  T
     SCC iter.                  ...        0 min,  1.551 sec
     gradient                   ...        0 min,  0.393 sec
 * total energy  :  -404.4589380 Eh     change       -0.4217825E-01 Eh
   gradient norm :     0.0757137 Eh/α   predicted    -0.3453621E-01 ( -18.12%)
   displ. norm   :     0.8534730 α      lambda       -0.4457851E-01
   maximum displ.:     0.4025340 α      in ANC's #18, #30, #35, ...

........................................................................
.............................. CYCLE   16 ..............................
........................................................................
   1   -411.6504380 -0.411650E+03  0.199E-01    1.03       0.0  T
   2   -411.6490842  0.135373E-02  0.149E-01    1.03       1.0  T
   3   -411.6462633  0.282091E-02  0.144E-01    1.03       1.0  T
   4   -411.6513219 -0.505864E-02  0.261E-02    1.03       1.0  T
   5   -411.6514484 -0.126453E-03  0.131E-02    1.03       1.0  T
   6   -411.6514967 -0.482979E-04  0.459E-03    1.03       1.4  T
   7   -411.6514996 -0.288612E-05  0.294E-03    1.03       2.2  T
   8   -411.6515007 -0.108543E-05  0.149E-03    1.03       4.4  T
   9   -411.6515013 -0.611685E-06  0.648E-04    1.03      10.1  T
  10   -411.6515014 -0.101241E-06  0.297E-04    1.03      22.1  T
     SCC iter.                  ...        0 min,  1.554 sec
     gradient                   ...        0 min,  0.393 sec
 * total energy  :  -404.5021571 Eh     change       -0.4321904E-01 Eh
   gradient norm :     0.0709727 Eh/α   predicted    -0.3852521E-01 ( -10.86%)
   displ. norm   :     0.9327137 α      lambda       -0.5177398E-01
   maximum displ.:     0.4314806 α      in ANC's #18, #30, #79, ...

........................................................................
.............................. CYCLE   17 ..............................
........................................................................
   1   -411.6909120 -0.411691E+03  0.237E-01    1.00       0.0  T
   2   -411.6889193  0.199271E-02  0.184E-01    1.00       1.0  T
   3   -411.6863781  0.254125E-02  0.156E-01    1.00       1.0  T
   4   -411.6922254 -0.584734E-02  0.365E-02    1.00       1.0  T
   5   -411.6925097 -0.284328E-03  0.162E-02    1.00       1.0  T
   6   -411.6926133 -0.103529E-03  0.625E-03    1.00       1.1  T
   7   -411.6926209 -0.762445E-05  0.326E-03    1.00       2.0  T
   8   -411.6926221 -0.119791E-05  0.205E-03    1.00       3.2  T
   9   -411.6926231 -0.105959E-05  0.763E-04    1.00       8.6  T
  10   -411.6926233 -0.123924E-06  0.370E-04    1.00      17.8  T
  11   -411.6926233 -0.181993E-07  0.207E-04    1.00      31.7  T
     SCC iter.                  ...        0 min,  1.711 sec
     gradient                   ...        0 min,  0.393 sec
 * total energy  :  -404.5449973 Eh     change       -0.4284027E-01 Eh
   gradient norm :     0.0936646 Eh/α   predicted    -0.4840756E-01 (  13.00%)
   displ. norm   :     0.8201892 α      lambda       -0.4238261E-01
   maximum displ.:     0.3685356 α      in ANC's #30, #18, #35, ...

........................................................................
.............................. CYCLE   18 ..............................
........................................................................
   1   -411.7091585 -0.411709E+03  0.166E-01    0.99       0.0  T
   2   -411.7081602  0.998289E-03  0.134E-01    0.99       1.0  T
   3   -411.7070585  0.110168E-02  0.103E-01    0.99       1.0  T
   4   -411.7096411 -0.258260E-02  0.287E-02    0.99       1.0  T
   5   -411.7098978 -0.256681E-03  0.762E-03    0.99       1.0  T
   6   -411.7099127 -0.148453E-04  0.401E-03    0.99       1.6  T
   7   -411.7099158 -0.312008E-05  0.250E-03    0.99       2.6  T
   8   -411.7099166 -0.832368E-06  0.986E-04    0.99       6.7  T
   9   -411.7099168 -0.224157E-06  0.429E-04    0.99      15.3  T
     SCC iter.                  ...        0 min,  1.400 sec
     gradient                   ...        0 min,  0.394 sec
 * total energy  :  -404.5808404 Eh     change       -0.3584305E-01 Eh
   gradient norm :     0.0810995 Eh/α   predicted    -0.3544692E-01 (  -1.11%)
   displ. norm   :     0.7653447 α      lambda       -0.3700554E-01
   maximum displ.:     0.3883052 α      in ANC's #18, #30, #35, ...

........................................................................
.............................. CYCLE   19 ..............................
........................................................................
   1   -411.7526978 -0.411753E+03  0.138E-01    0.98       0.0  T
   2   -411.7523869  0.310893E-03  0.993E-02    0.98       1.0  T
   3   -411.7506763  0.171061E-02  0.868E-02    0.98       1.0  T
   4   -411.7528420 -0.216577E-02  0.249E-02    0.98       1.0  T
   5   -411.7530488 -0.206751E-03  0.683E-03    0.98       1.0  T
   6   -411.7530609 -0.121163E-04  0.271E-03    0.98       2.4  T
   7   -411.7530613 -0.418275E-06  0.170E-03    0.98       3.9  T
   8   -411.7530617 -0.374349E-06  0.743E-04    0.98       8.8  T
   9   -411.7530619 -0.183789E-06  0.293E-04    0.98      22.4  T
     SCC iter.                  ...        0 min,  1.399 sec
     gradient                   ...        0 min,  0.394 sec
 * total energy  :  -404.6095122 Eh     change       -0.2867182E-01 Eh
   gradient norm :     0.0616468 Eh/α   predicted    -0.2934082E-01 (   2.33%)
   displ. norm   :     0.8670190 α      lambda       -0.2954651E-01
   maximum displ.:     0.4788816 α      in ANC's #18, #30, #35, ...

........................................................................
.............................. CYCLE   20 ..............................
........................................................................
   1   -411.7914045 -0.411791E+03  0.117E-01    0.99       0.0  T
   2   -411.7912892  0.115323E-03  0.773E-02    0.98       1.0  T
   3   -411.7889686  0.232058E-02  0.771E-02    0.99       1.0  T
   4   -411.7914743 -0.250569E-02  0.142E-02    0.99       1.0  T
   5   -411.7915370 -0.626279E-04  0.326E-03    0.99       2.0  T
   6   -411.7915390 -0.201906E-05  0.173E-03    0.99       3.8  T
   7   -411.7915390  0.201039E-07  0.127E-03    0.99       5.2  T
   8   -411.7915395 -0.508277E-06  0.422E-04    0.99      15.6  T
   9   -411.7915395 -0.510407E-07  0.185E-04    0.99      35.5  T
     SCC iter.                  ...        0 min,  1.402 sec
     gradient                   ...        0 min,  0.393 sec
 * total energy  :  -404.6362710 Eh     change       -0.2675879E-01 Eh
   gradient norm :     0.0515172 Eh/α   predicted    -0.2587864E-01 (  -3.29%)
   displ. norm   :     0.9042545 α      lambda       -0.2943216E-01
   maximum displ.:     0.4875033 α      in ANC's #18, #30, #39, ...
 * RMSD in coord.:     0.8509373 α      energy gain  -0.1247396E+01 Eh

generating ANC from model Hessian ...
Using Lindh-Hessian (1995)
 Shifting diagonal of input Hessian by    1.0027790875940735E-002
 Lowest  eigenvalues of input Hessian
    0.010000    0.010009    0.010013    0.010019    0.010022    0.010023
    0.010023    0.010023    0.010025    0.010026    0.010027    0.010027
    0.000000    0.000000    0.000000    0.000000    0.000000    0.000000
 Highest eigenvalues
    2.382915    2.540162    2.561296    2.852271    2.860352    2.906589


........................................................................
.............................. CYCLE   21 ..............................
........................................................................
   1   -411.8700493 -0.411870E+03  0.133E-01    0.97       0.0  T
   2   -411.8699744  0.748770E-04  0.836E-02    0.97       1.0  T
   3   -411.8678200  0.215446E-02  0.758E-02    0.97       1.0  T
   4   -411.8701075 -0.228752E-02  0.172E-02    0.97       1.0  T
   5   -411.8702220 -0.114538E-03  0.430E-03    0.97       1.5  T
   6   -411.8702269 -0.486935E-05  0.199E-03    0.97       3.3  T
   7   -411.8702273 -0.450404E-06  0.121E-03    0.97       5.4  T
   8   -411.8702275 -0.163164E-06  0.610E-04    0.97      10.8  T
   9   -411.8702276 -0.103585E-06  0.208E-04    0.97      31.6  T
     SCC iter.                  ...        0 min,  1.400 sec
     gradient                   ...        0 min,  0.394 sec
 * total energy  :  -404.6609961 Eh     change       -0.2472506E-01 Eh
   gradient norm :     0.0520828 Eh/α   predicted     0.0000000E+00 (-100.00%)
   displ. norm   :     0.7635926 α      lambda       -0.2171266E-01
   maximum displ.:     0.3699498 α      in ANC's #38, #47, #48, ...

........................................................................
.............................. CYCLE   22 ..............................
........................................................................
   1   -411.9015302 -0.411902E+03  0.800E-02    0.96       0.0  T
   2   -411.9014872  0.429458E-04  0.508E-02    0.96       1.0  T
   3   -411.9003804  0.110687E-02  0.493E-02    0.96       1.0  T
   4   -411.9015514 -0.117100E-02  0.752E-03    0.96       1.0  T
   5   -411.9015735 -0.221318E-04  0.208E-03    0.96       3.2  T
   6   -411.9015743 -0.795980E-06  0.111E-03    0.96       5.9  T
   7   -411.9015745 -0.179032E-06  0.581E-04    0.96      11.3  T
   8   -411.9015745 -0.608208E-07  0.286E-04    0.96      23.0  T
     SCC iter.                  ...        0 min,  1.246 sec
     gradient                   ...        0 min,  0.397 sec
 * total energy  :  -404.6816364 Eh     change       -0.2064034E-01 Eh
   gradient norm :     0.0348134 Eh/α   predicted    -0.1718642E-01 ( -16.73%)
   displ. norm   :     0.9464033 α      lambda       -0.2450414E-01
   maximum displ.:     0.4597455 α      in ANC's #38, #47, #48, ...

........................................................................
.............................. CYCLE   23 ..............................
........................................................................
   1   -411.9361222 -0.411936E+03  0.998E-02    0.94       0.0  T
   2   -411.9360668  0.554360E-04  0.629E-02    0.94       1.0  T
   3   -411.9345017  0.156512E-02  0.593E-02    0.94       1.0  T
   4   -411.9361522 -0.165057E-02  0.864E-03    0.94       1.0  T
   5   -411.9361824 -0.301791E-04  0.246E-03    0.94       2.7  T
   6   -411.9361837 -0.128429E-05  0.126E-03    0.94       5.2  T
   7   -411.9361839 -0.233202E-06  0.644E-04    0.94      10.2  T
   8   -411.9361840 -0.591187E-07  0.350E-04    0.94      18.7  T
     SCC iter.                  ...        0 min,  1.245 sec
     gradient                   ...        0 min,  0.395 sec
 * total energy  :  -404.7046432 Eh     change       -0.2300681E-01 Eh
   gradient norm :     0.0264405 Eh/α   predicted    -0.2322743E-01 (   0.96%)
   displ. norm   :     0.9599763 α      lambda       -0.2274017E-01
   maximum displ.:     0.4878138 α      in ANC's #38, #47, #48, ...

........................................................................
.............................. CYCLE   24 ..............................
........................................................................
   1   -411.9688412 -0.411969E+03  0.125E-01    0.93       0.0  T
   2   -411.9688035  0.377205E-04  0.760E-02    0.93       1.0  T
   3   -411.9671376  0.166589E-02  0.593E-02    0.93       1.0  T
   4   -411.9688689 -0.173134E-02  0.694E-03    0.93       1.0  T
   5   -411.9688872 -0.182441E-04  0.236E-03    0.93       2.8  T
   6   -411.9688882 -0.104315E-05  0.131E-03    0.93       5.0  T
   7   -411.9688884 -0.228432E-06  0.632E-04    0.93      10.4  T
   8   -411.9688885 -0.752100E-07  0.325E-04    0.93      20.2  T
     SCC iter.                  ...        0 min,  1.244 sec
     gradient                   ...        0 min,  0.394 sec
 * total energy  :  -404.7253522 Eh     change       -0.2070896E-01 Eh
   gradient norm :     0.0306518 Eh/α   predicted    -0.2184825E-01 (   5.50%)
   displ. norm   :     0.9480340 α      lambda       -0.2134366E-01
   maximum displ.:     0.4677676 α      in ANC's #38, #47, #48, ...

........................................................................
.............................. CYCLE   25 ..............................
........................................................................
   1   -412.0043382 -0.412004E+03  0.121E-01    0.92       0.0  T
   2   -412.0043189  0.193160E-04  0.726E-02    0.92       1.0  T
   3   -412.0031464  0.117248E-02  0.452E-02    0.92       1.0  T
   4   -412.0043569 -0.121050E-02  0.614E-03    0.92       1.1  T
   5   -412.0043698 -0.128570E-04  0.209E-03    0.92       3.1  T
   6   -412.0043705 -0.658330E-06  0.128E-03    0.92       5.1  T
   7   -412.0043707 -0.213281E-06  0.658E-04    0.92      10.0  T
   8   -412.0043708 -0.100498E-06  0.261E-04    0.92      25.2  T
     SCC iter.                  ...        0 min,  1.246 sec
     gradient                   ...        0 min,  0.393 sec
 * total energy  :  -404.7451679 Eh     change       -0.1981568E-01 Eh
   gradient norm :     0.0280465 Eh/α   predicted    -0.2026335E-01 (   2.26%)
   displ. norm   :     0.9490551 α      lambda       -0.1931424E-01
   maximum displ.:     0.5004153 α      in ANC's #38, #47, #32, ...

........................................................................
.............................. CYCLE   26 ..............................
........................................................................
   1   -412.0395068 -0.412040E+03  0.115E-01    0.92       0.0  T
   2   -412.0394921  0.147055E-04  0.688E-02    0.92       1.0  T
   3   -412.0385161  0.976029E-03  0.409E-02    0.92       1.0  T
   4   -412.0395226 -0.100651E-02  0.646E-03    0.92       1.0  T
   5   -412.0395373 -0.147373E-04  0.186E-03    0.92       3.5  T
   6   -412.0395377 -0.386367E-06  0.120E-03    0.92       5.5  T
   7   -412.0395379 -0.175992E-06  0.643E-04    0.92      10.2  T
   8   -412.0395380 -0.101812E-06  0.226E-04    0.92      29.0  T
     SCC iter.                  ...        0 min,  1.248 sec
     gradient                   ...        0 min,  0.393 sec
 * total energy  :  -404.7635608 Eh     change       -0.1839297E-01 Eh
   gradient norm :     0.0238671 Eh/α   predicted    -0.1835536E-01 (  -0.20%)
   displ. norm   :     0.9600248 α      lambda       -0.1832334E-01
   maximum displ.:     0.5133716 α      in ANC's #38, #47, #32, ...

........................................................................
.............................. CYCLE   27 ..............................
........................................................................
   1   -412.0738338 -0.412074E+03  0.129E-01    0.93       0.0  T
   2   -412.0738220  0.118260E-04  0.770E-02    0.92       1.0  T
   3   -412.0728912  0.930788E-03  0.407E-02    0.93       1.0  T
   4   -412.0738503 -0.959091E-03  0.665E-03    0.92       1.0  T
   5   -412.0738660 -0.156523E-04  0.196E-03    0.92       3.3  T
   6   -412.0738663 -0.310414E-06  0.133E-03    0.92       4.9  T
   7   -412.0738665 -0.246403E-06  0.655E-04    0.92      10.0  T
   8   -412.0738666 -0.102065E-06  0.226E-04    0.92      29.1  T
     SCC iter.                  ...        0 min,  1.244 sec
     gradient                   ...        0 min,  0.394 sec
 * total energy  :  -404.7807891 Eh     change       -0.1722824E-01 Eh
   gradient norm :     0.0199788 Eh/α   predicted    -0.1760549E-01 (   2.19%)
   displ. norm   :     0.9621292 α      lambda       -0.1725888E-01
   maximum displ.:     0.5131975 α      in ANC's #38, #47, #32, ...

........................................................................
.............................. CYCLE   28 ..............................
........................................................................
   1   -412.1057991 -0.412106E+03  0.139E-01    0.93       0.0  T
   2   -412.1057902  0.892364E-05  0.826E-02    0.93       1.0  T
   3   -412.1049961  0.794071E-03  0.389E-02    0.93       1.0  T
   4   -412.1058165 -0.820388E-03  0.581E-03    0.93       1.1  T
   5   -412.1058277 -0.112165E-04  0.201E-03    0.93       3.3  T
   6   -412.1058280 -0.275285E-06  0.137E-03    0.93       4.8  T
   7   -412.1058283 -0.293861E-06  0.603E-04    0.93      10.9  T
   8   -412.1058284 -0.862510E-07  0.207E-04    0.93      31.7  T
     SCC iter.                  ...        0 min,  1.248 sec
     gradient                   ...        0 min,  0.396 sec
 * total energy  :  -404.7967682 Eh     change       -0.1597911E-01 Eh
   gradient norm :     0.0191669 Eh/α   predicted    -0.1661765E-01 (   4.00%)
   displ. norm   :     0.9519015 α      lambda       -0.1582468E-01
   maximum displ.:     0.5292524 α      in ANC's #38, #47, #32, ...

........................................................................
.............................. CYCLE   29 ..............................
........................................................................
   1   -412.1331172 -0.412133E+03  0.128E-01    0.93       0.0  T
   2   -412.1331103  0.697195E-05  0.756E-02    0.93       1.0  T
   3   -412.1324976  0.612657E-03  0.355E-02    0.93       1.0  T
   4   -412.1331324 -0.634829E-03  0.472E-03    0.93       1.4  T
   5   -412.1331397 -0.728562E-05  0.190E-03    0.93       3.5  T
   6   -412.1331401 -0.398416E-06  0.120E-03    0.93       5.5  T
   7   -412.1331404 -0.230115E-06  0.489E-04    0.93      13.4  T
   8   -412.1331404 -0.587515E-07  0.178E-04    0.93      36.9  T
     SCC iter.                  ...        0 min,  1.242 sec
     gradient                   ...        0 min,  0.393 sec
 * total energy  :  -404.8116648 Eh     change       -0.1489663E-01 Eh
   gradient norm :     0.0177871 Eh/α   predicted    -0.1508185E-01 (   1.24%)
   displ. norm   :     0.9532353 α      lambda       -0.1441871E-01
   maximum displ.:     0.5354879 α      in ANC's #38, #32, #47, ...

........................................................................
.............................. CYCLE   30 ..............................
........................................................................
   1   -412.1584486 -0.412158E+03  0.119E-01    0.93       0.0  T
   2   -412.1584429  0.566206E-05  0.706E-02    0.93       1.0  T
   3   -412.1579099  0.533037E-03  0.338E-02    0.93       1.0  T
   4   -412.1584624 -0.552497E-03  0.451E-03    0.93       1.5  T
   5   -412.1584693 -0.690467E-05  0.183E-03    0.93       3.6  T
   6   -412.1584698 -0.497686E-06  0.108E-03    0.93       6.1  T
   7   -412.1584699 -0.177548E-06  0.437E-04    0.93      15.0  T
   8   -412.1584700 -0.471455E-07  0.165E-04    0.93      39.8  T
     SCC iter.                  ...        0 min,  1.248 sec
     gradient                   ...        0 min,  0.394 sec
 * total energy  :  -404.8254306 Eh     change       -0.1376581E-01 Eh
   gradient norm :     0.0156060 Eh/α   predicted    -0.1376019E-01 (  -0.04%)
   displ. norm   :     0.9549039 α      lambda       -0.1330930E-01
   maximum displ.:     0.5429254 α      in ANC's #38, #32, #47, ...

........................................................................
.............................. CYCLE   31 ..............................
........................................................................
   1   -412.1868496 -0.412187E+03  0.118E-01    0.93       0.0  T
   2   -412.1868476  0.197814E-05  0.700E-02    0.93       1.0  T
   3   -412.1864482  0.399400E-03  0.288E-02    0.93       1.0  T
   4   -412.1868610 -0.412715E-03  0.444E-03    0.93       1.5  T
   5   -412.1868679 -0.691689E-05  0.172E-03    0.93       3.8  T
   6   -412.1868682 -0.361361E-06  0.107E-03    0.93       6.1  T
   7   -412.1868684 -0.174624E-06  0.422E-04    0.93      15.5  T
   8   -412.1868685 -0.436224E-07  0.150E-04    0.93      43.8  T
     SCC iter.                  ...        0 min,  1.245 sec
     gradient                   ...        0 min,  0.392 sec
 * total energy  :  -404.8380801 Eh     change       -0.1264950E-01 Eh
   gradient norm :     0.0140336 Eh/α   predicted    -0.1272264E-01 (   0.58%)
   displ. norm   :     0.9625149 α      lambda       -0.1259060E-01
   maximum displ.:     0.5610833 α      in ANC's #38, #32, #47, ...

........................................................................
.............................. CYCLE   32 ..............................
........................................................................
   1   -412.2124010 -0.412212E+03  0.129E-01    0.93       0.0  T
   2   -412.2123993  0.171618E-05  0.762E-02    0.93       1.0  T
   3   -412.2119914  0.407827E-03  0.299E-02    0.93       1.0  T
   4   -412.2124137 -0.422321E-03  0.442E-03    0.92       1.5  T
   5   -412.2124200 -0.628950E-05  0.195E-03    0.92       3.4  T
   6   -412.2124204 -0.353085E-06  0.128E-03    0.92       5.1  T
   7   -412.2124207 -0.274975E-06  0.461E-04    0.93      14.2  T
   8   -412.2124207 -0.558044E-07  0.166E-04    0.92      39.5  T
     SCC iter.                  ...        0 min,  1.247 sec
     gradient                   ...        0 min,  0.394 sec
 * total energy  :  -404.8493980 Eh     change       -0.1131786E-01 Eh
   gradient norm :     0.0146957 Eh/α   predicted    -0.1212749E-01 (   7.15%)
   displ. norm   :     0.9366845 α      lambda       -0.1176624E-01
   maximum displ.:     0.5306799 α      in ANC's #38, #32, #47, ...

........................................................................
.............................. CYCLE   33 ..............................
........................................................................
   1   -412.2350476 -0.412235E+03  0.120E-01    0.92       0.0  T
   2   -412.2350465  0.113859E-05  0.711E-02    0.92       1.0  T
   3   -412.2346975  0.348984E-03  0.280E-02    0.92       1.0  T
   4   -412.2350593 -0.361778E-03  0.408E-03    0.92       1.6  T
   5   -412.2350646 -0.531121E-05  0.181E-03    0.92       3.6  T
   6   -412.2350650 -0.355392E-06  0.116E-03    0.92       5.6  T
   7   -412.2350652 -0.209440E-06  0.435E-04    0.92      15.1  T
   8   -412.2350652 -0.451892E-07  0.155E-04    0.92      42.4  T
     SCC iter.                  ...        0 min,  1.244 sec
     gradient                   ...        0 min,  0.395 sec
 * total energy  :  -404.8601610 Eh     change       -0.1076307E-01 Eh
   gradient norm :     0.0118908 Eh/α   predicted    -0.1104484E-01 (   2.62%)
   displ. norm   :     0.9457527 α      lambda       -0.1022416E-01
   maximum displ.:     0.5579979 α      in ANC's #38, #32, #40, ...

........................................................................
.............................. CYCLE   34 ..............................
........................................................................
   1   -412.2562292 -0.412256E+03  0.111E-01    0.92       0.0  T
   2   -412.2562289  0.339206E-06  0.653E-02    0.92       1.0  T
   3   -412.2559414  0.287520E-03  0.255E-02    0.92       1.0  T
   4   -412.2562397 -0.298313E-03  0.383E-03    0.92       1.7  T
   5   -412.2562446 -0.493549E-05  0.152E-03    0.92       4.3  T
   6   -412.2562449 -0.261553E-06  0.978E-04    0.92       6.7  T
   7   -412.2562451 -0.166504E-06  0.347E-04    0.92      18.9  T
     SCC iter.                  ...        0 min,  1.090 sec
     gradient                   ...        0 min,  0.396 sec
 * total energy  :  -404.8698493 Eh     change       -0.9688241E-02 Eh
   gradient norm :     0.0109555 Eh/α   predicted    -0.9684557E-02 (  -0.04%)
   displ. norm   :     0.9500917 α      lambda       -0.9417093E-02
   maximum displ.:     0.5601975 α      in ANC's #38, #32, #24, ...

........................................................................
.............................. CYCLE   35 ..............................
........................................................................
   1   -412.2802103 -0.412280E+03  0.110E-01    0.92       0.0  T
   2   -412.2802113 -0.102588E-05  0.649E-02    0.92       1.0  T
   3   -412.2799719  0.239409E-03  0.236E-02    0.92       1.0  T
   4   -412.2802203 -0.248392E-03  0.375E-03    0.92       1.7  T
   5   -412.2802251 -0.482785E-05  0.140E-03    0.92       4.7  T
   6   -412.2802252 -0.130718E-06  0.100E-03    0.92       6.5  T
   7   -412.2802254 -0.192974E-06  0.316E-04    0.92      20.8  T
   8   -412.2802254 -0.212939E-07  0.118E-04    0.92      55.4  T
     SCC iter.                  ...        0 min,  1.244 sec
     gradient                   ...        0 min,  0.394 sec
 * total energy  :  -404.8786655 Eh     change       -0.8816248E-02 Eh
   gradient norm :     0.0103961 Eh/α   predicted    -0.8958834E-02 (   1.62%)
   displ. norm   :     0.9542572 α      lambda       -0.8921002E-02
   maximum displ.:     0.5587142 α      in ANC's #38, #32, #24, ...

........................................................................
.............................. CYCLE   36 ..............................
........................................................................
   1   -412.3024020 -0.412302E+03  0.118E-01    0.91       0.0  T
   2   -412.3024038 -0.177861E-05  0.695E-02    0.91       1.0  T
   3   -412.3021866  0.217200E-03  0.232E-02    0.91       1.0  T
   4   -412.3024123 -0.225667E-03  0.370E-03    0.91       1.8  T
   5   -412.3024166 -0.430877E-05  0.155E-03    0.91       4.2  T
   6   -412.3024166 -0.441560E-07  0.121E-03    0.91       5.4  T
   7   -412.3024169 -0.321325E-06  0.312E-04    0.91      21.0  T
   8   -412.3024170 -0.215896E-07  0.125E-04    0.91      52.6  T
     SCC iter.                  ...        0 min,  1.244 sec
     gradient                   ...        0 min,  0.395 sec
 * total energy  :  -404.8865597 Eh     change       -0.7894159E-02 Eh
   gradient norm :     0.0110583 Eh/α   predicted    -0.8522264E-02 (   7.96%)
   displ. norm   :     0.9245965 α      lambda       -0.8134182E-02
   maximum displ.:     0.5414887 α      in ANC's #38, #32, #24, ...

........................................................................
.............................. CYCLE   37 ..............................
........................................................................
   1   -412.3197462 -0.412320E+03  0.109E-01    0.91       0.0  T
   2   -412.3197492 -0.298193E-05  0.640E-02    0.91       1.0  T
   3   -412.3196024  0.146860E-03  0.194E-02    0.91       1.0  T
   4   -412.3197546 -0.152192E-03  0.349E-03    0.91       1.9  T
   5   -412.3197586 -0.405080E-05  0.139E-03    0.91       4.7  T
   6   -412.3197587 -0.101240E-06  0.102E-03    0.91       6.4  T
   7   -412.3197589 -0.207354E-06  0.352E-04    0.91      18.7  T
   8   -412.3197589 -0.288233E-07  0.111E-04    0.91      59.2  T
     SCC iter.                  ...        0 min,  1.246 sec
     gradient                   ...        0 min,  0.392 sec
 * total energy  :  -404.8939453 Eh     change       -0.7385608E-02 Eh
   gradient norm :     0.0099036 Eh/α   predicted    -0.7543955E-02 (   2.14%)
   displ. norm   :     0.9354745 α      lambda       -0.7139810E-02
   maximum displ.:     0.5459935 α      in ANC's #38, #32, #24, ...

........................................................................
.............................. CYCLE   38 ..............................
........................................................................
   1   -412.3371410 -0.412337E+03  0.101E-01    0.91       0.0  T
   2   -412.3371441 -0.311437E-05  0.592E-02    0.91       1.0  T
   3   -412.3370301  0.114014E-03  0.172E-02    0.91       1.0  T
   4   -412.3371485 -0.118379E-03  0.315E-03    0.91       2.1  T
   5   -412.3371519 -0.338664E-05  0.117E-03    0.91       5.6  T
   6   -412.3371519 -0.741112E-07  0.872E-04    0.91       7.5  T
   7   -412.3371521 -0.163549E-06  0.283E-04    0.91      23.2  T
     SCC iter.                  ...        0 min,  1.089 sec
     gradient                   ...        0 min,  0.394 sec
 * total energy  :  -404.9006057 Eh     change       -0.6660445E-02 Eh
   gradient norm :     0.0086952 Eh/α   predicted    -0.6693963E-02 (   0.50%)
   displ. norm   :     0.9471602 α      lambda       -0.6717468E-02
   maximum displ.:     0.5432342 α      in ANC's #38, #32, #24, ...

........................................................................
.............................. CYCLE   39 ..............................
........................................................................
   1   -412.3561018 -0.412356E+03  0.107E-01    0.90       0.0  T
   2   -412.3561045 -0.273323E-05  0.629E-02    0.90       1.0  T
   3   -412.3559785  0.126002E-03  0.186E-02    0.90       1.0  T
   4   -412.3561104 -0.131852E-03  0.298E-03    0.90       2.2  T
   5   -412.3561129 -0.255398E-05  0.135E-03    0.90       4.8  T
   6   -412.3561129  0.599671E-07  0.113E-03    0.90       5.8  T
   7   -412.3561132 -0.339843E-06  0.217E-04    0.90      30.3  T
   8   -412.3561132 -0.999790E-08  0.931E-05    0.90      70.5  T
     SCC iter.                  ...        0 min,  1.246 sec
     gradient                   ...        0 min,  0.393 sec
 * total energy  :  -404.9064685 Eh     change       -0.5862789E-02 Eh
   gradient norm :     0.0102406 Eh/α   predicted    -0.6371897E-02 (   8.68%)
   displ. norm   :     0.9112179 α      lambda       -0.6449952E-02
   maximum displ.:     0.5083237 α      in ANC's #38, #32, #24, ...

........................................................................
.............................. CYCLE   40 ..............................
........................................................................
   1   -412.3752756 -0.412375E+03  0.102E-01    0.90       0.0  T
   2   -412.3752795 -0.389595E-05  0.600E-02    0.90       1.0  T
   3   -412.3752000  0.795417E-04  0.153E-02    0.90       1.0  T
   4   -412.3752829 -0.828831E-04  0.305E-03    0.90       2.1  T
   5   -412.3752856 -0.275942E-05  0.122E-03    0.90       5.4  T
   6   -412.3752856  0.618458E-07  0.992E-04    0.90       6.6  T
   7   -412.3752858 -0.245386E-06  0.322E-04    0.90      20.4  T
     SCC iter.                  ...        0 min,  1.091 sec
     gradient                   ...        0 min,  0.395 sec
 * total energy  :  -404.9120852 Eh     change       -0.5616649E-02 Eh
   gradient norm :     0.0099481 Eh/α   predicted    -0.5902736E-02 (   5.09%)
   displ. norm   :     0.9242867 α      lambda       -0.5476522E-02
   maximum displ.:     0.5164390 α      in ANC's #38, #32, #24, ...

........................................................................
.............................. CYCLE   41 ..............................
........................................................................
   1   -412.3865861 -0.412387E+03  0.933E-02    0.90       0.0  T
   2   -412.3865897 -0.361634E-05  0.547E-02    0.90       1.0  T
   3   -412.3865408  0.489395E-04  0.121E-02    0.90       1.0  T
   4   -412.3865925 -0.517277E-04  0.239E-03    0.90       2.7  T
   5   -412.3865942 -0.163748E-05  0.926E-04    0.90       7.1  T
   6   -412.3865941  0.216632E-07  0.669E-04    0.90       9.8  T
   7   -412.3865943 -0.113619E-06  0.280E-04    0.90      23.5  T
     SCC iter.                  ...        0 min,  1.093 sec
     gradient                   ...        0 min,  0.393 sec
 * total energy  :  -404.9171434 Eh     change       -0.5058208E-02 Eh
   gradient norm :     0.0084100 Eh/α   predicted    -0.5077580E-02 (   0.38%)
   displ. norm   :     0.9349689 α      lambda       -0.5009320E-02
   maximum displ.:     0.5042798 α      in ANC's #38, #32, #24, ...

........................................................................
.............................. CYCLE   42 ..............................
........................................................................
   1   -412.4025359 -0.412403E+03  0.903E-02    0.89       0.0  T
   2   -412.4025390 -0.315972E-05  0.529E-02    0.89       1.0  T
   3   -412.4024872  0.518369E-04  0.123E-02    0.89       1.0  T
   4   -412.4025421 -0.549369E-04  0.224E-03    0.89       2.9  T
   5   -412.4025435 -0.140108E-05  0.847E-04    0.89       7.8  T
   6   -412.4025434  0.775919E-07  0.764E-04    0.89       8.6  T
   7   -412.4025436 -0.164298E-06  0.168E-04    0.89      39.1  T
     SCC iter.                  ...        0 min,  1.089 sec
     gradient                   ...        0 min,  0.396 sec
 * total energy  :  -404.9217934 Eh     change       -0.4650052E-02 Eh
   gradient norm :     0.0074746 Eh/α   predicted    -0.4694151E-02 (   0.95%)
   displ. norm   :     0.9349730 α      lambda       -0.4569137E-02
   maximum displ.:     0.4886653 α      in ANC's #38, #32, #24, ...
 * RMSD in coord.:     1.2843791 α      energy gain  -0.2855224E+00 Eh

generating ANC from model Hessian ...
Using Lindh-Hessian (1995)
 Shifting diagonal of input Hessian by    1.0040849674362372E-002
 Lowest  eigenvalues of input Hessian
    0.010000    0.010001    0.010002    0.010007    0.010010    0.010020
    0.010022    0.010023    0.010025    0.010029    0.010033    0.010034
    0.010036    0.010038    0.010039    0.000000    0.000000    0.000000
 Highest eigenvalues
    2.378991    2.856827    2.871187    2.872490    2.901399    2.901673


........................................................................
.............................. CYCLE   43 ..............................
........................................................................
   1   -412.4214587 -0.412421E+03  0.880E-02    0.89       0.0  T
   2   -412.4214622 -0.346893E-05  0.515E-02    0.89       1.0  T
   3   -412.4214227  0.394485E-04  0.113E-02    0.89       1.0  T
   4   -412.4214650 -0.422338E-04  0.211E-03    0.89       3.1  T
   5   -412.4214661 -0.113446E-05  0.700E-04    0.89       9.4  T
   6   -412.4214661  0.115802E-07  0.432E-04    0.89      15.2  T
   7   -412.4214661 -0.283811E-07  0.218E-04    0.89      30.0  T
     SCC iter.                  ...        0 min,  1.094 sec
     gradient                   ...        0 min,  0.394 sec
 * total energy  :  -404.9260222 Eh     change       -0.4228779E-02 Eh
   gradient norm :     0.0070661 Eh/α   predicted     0.0000000E+00 (-100.00%)
   displ. norm   :     0.3444121 α      lambda       -0.1544833E-02
   maximum displ.:     0.2371260 α      in ANC's #30, #32, #25, ...

........................................................................
.............................. CYCLE   44 ..............................
........................................................................
   1   -412.4269747 -0.412427E+03  0.320E-02    0.89       0.0  T
   2   -412.4269750 -0.334254E-06  0.188E-02    0.89       1.0  T
   3   -412.4269699  0.509037E-05  0.392E-03    0.89       1.7  T
   4   -412.4269753 -0.536950E-05  0.762E-04    0.89       8.6  T
   5   -412.4269754 -0.139271E-06  0.359E-04    0.89      18.3  T
   6   -412.4269754 -0.104647E-07  0.245E-04    0.89      26.8  T
     SCC iter.                  ...        0 min,  0.937 sec
     gradient                   ...        0 min,  0.395 sec
 * total energy  :  -404.9275110 Eh     change       -0.1488751E-02 Eh
   gradient norm :     0.0047426 Eh/α   predicted    -0.8650859E-03 ( -41.89%)
   displ. norm   :     0.7101444 α      lambda       -0.2979104E-02
   maximum displ.:     0.4470586 α      in ANC's #30, #32, #25, ...

........................................................................
.............................. CYCLE   45 ..............................
........................................................................
   1   -412.4356682 -0.412436E+03  0.671E-02    0.89       0.0  T
   2   -412.4356695 -0.134575E-05  0.394E-02    0.89       1.0  T
   3   -412.4356465  0.230804E-04  0.829E-03    0.89       1.0  T
   4   -412.4356710 -0.245098E-04  0.146E-03    0.89       4.5  T
   5   -412.4356714 -0.447878E-06  0.783E-04    0.89       8.4  T
   6   -412.4356715 -0.380162E-07  0.540E-04    0.89      12.2  T
     SCC iter.                  ...        0 min,  0.937 sec
     gradient                   ...        0 min,  0.397 sec
 * total energy  :  -404.9302677 Eh     change       -0.2756758E-02 Eh
   gradient norm :     0.0064265 Eh/α   predicted    -0.2240742E-02 ( -18.72%)
   displ. norm   :     0.8399056 α      lambda       -0.3381743E-02
   maximum displ.:     0.5201245 α      in ANC's #30, #32, #25, ...

........................................................................
.............................. CYCLE   46 ..............................
........................................................................
   1   -412.4428756 -0.412443E+03  0.843E-02    0.89       0.0  T
   2   -412.4428776 -0.199529E-05  0.496E-02    0.89       1.0  T
   3   -412.4428476  0.300338E-04  0.948E-03    0.89       1.0  T
   4   -412.4428798 -0.321943E-04  0.162E-03    0.89       4.1  T
   5   -412.4428802 -0.427863E-06  0.975E-04    0.89       6.7  T
[...]
 153:  0.00 154:  0.00 155:  0.00 156:  0.00 157:  0.00 158:  0.00 159:  0.00 160:  0.00
 161:  0.00 162:  0.00 163:  0.00 164:  0.00 165:  0.00 166:  0.00 167:  0.00 168:  0.00
 169:  0.00 170:  0.00 171:  0.00 172:  0.00 173:  0.00 174:  0.00 175:  0.00 176:  0.00
 177:  0.00 178:  0.00 179:  0.00 180:  0.00 181:  0.00 182:  0.00 183:  0.00 184:  0.00
 185:  0.00 186:  0.00 187:  0.00 188:  0.00 189:  0.00 190:  0.00 191:  0.00 192:  0.00
 193:  0.00 194:  0.00 195:  0.00 196:  0.00 197:  0.00 198:  0.00 199:  0.00 200:  0.00
 201:  0.00 202:  0.00 203:  0.00 204:  0.00 205:  0.00 206:  0.00 207:  0.00 208:  0.00
 209:  0.00 210:  0.00 211:  0.00 212:  0.00 213:  0.00 214:  0.00 215:  0.00 216:  0.00
 217:  0.00 218:  0.00 219:  0.00 220:  0.00 221:  0.00 222:  0.00 223:  0.00 224:  0.00
 225:  0.00 226:  0.00 227:  0.00 228:  0.00 229:  0.00 230:  0.00 231:  0.00 232:  0.00
 233:  0.00 234:  0.00 235:  0.00 236:  0.00 237:  0.00 238:  0.00 239:  0.00 240:  0.00
 241:  0.00 242:  0.00 243:  0.00 244:  0.00 245:  0.00 246:  0.00 247:  0.00 248:  0.00
 249:  0.00 250:  0.00 251:  0.00 252:  0.00 253:  0.00 254:  0.00 255:  0.00 256:  0.00
 257:  0.00 258:  0.00 259:  0.00 260:  0.00 261:  0.00 262:  0.00 263:  0.00 264:  0.00
 265:  0.00 266:  0.00 267:  0.00 268:  0.00 269:  0.00 270:  0.00 271:  0.00 272:  0.00
 273:  0.00 274:  0.00 275:  0.00 276:  0.00 277:  0.00 278:  0.00 279:  0.00 280:  0.00
 281:  0.00 282:  0.00 283:  0.00 284:  0.00 285:  0.00 286:  0.00 287:  0.00 288:  0.00
 289:  0.00 290:  0.00 291:  0.00 292:  0.00 293:  0.00 294:  0.00 295:  0.00 296:  0.00
 297:  0.00 298:  0.00 299:  0.00 300:  0.00 301:  0.00 302:  0.00 303:  0.00 304:  0.00
 305:  0.00 306:  0.00 307:  0.00 308:  0.00 309:  0.00 310:  0.00 311:  0.00 312:  0.00
 313:  0.00 314:  0.00 315:  0.00 316:  0.00 317:  0.00 318:  0.00 319:  0.00 320:  0.00
 321:  0.00 322:  0.00 323:  0.00 324:  0.00 325:  0.00 326:  0.00 327:  0.00 328:  0.00
 329:  0.00 330:  0.00 331:  0.00 332:  0.00 333:  0.00 334:  0.00 335:  0.00 336:  0.00
 337:  0.00 338:  0.00 339:  0.00 340:  0.00 341:  0.00 342:  0.00 343:  0.00 344:  0.00
 345:  0.00 346:  0.00 347:  0.00 348:  0.00 349:  0.00 350:  0.00 351:  0.00 352:  0.00
 353:  0.00 354:  0.00 355:  0.00 356:  0.00 357:  0.00 358:  0.00 359:  0.00 360:  0.00
 361:  0.00 362:  0.00 363:  0.00 364:  0.00 365:  0.00 366:  0.00 367:  0.00 368:  0.00
 369:  0.00 370:  0.00 371:  0.00 372:  0.00 373:  0.00 374:  0.00 375:  0.00 376:  0.00
 377:  0.00 378:  0.00 379:  0.00 380:  0.00 381:  0.00 382:  0.00 383:  0.00 384:  0.00
 385:  0.00 386:  0.00 387:  0.00 388:  0.00 389:  0.00 390:  0.00 391:  0.00 392:  0.00
 393:  0.00 394:  0.00 395:  0.00 396:  0.00 397:  0.00 398:  0.00 399:  0.00 400:  0.00
 401:  0.00 402:  0.00 403:  0.00 404:  0.00 405:  0.00 406:  0.00 407:  0.00 408:  0.00
 409:  0.00 410:  0.00 411:  0.00 412:  0.00 413:  0.00 414:  0.00 415:  0.00 416:  0.00
 417:  0.00 418:  0.00 419:  0.00 420:  0.00 421:  0.00 422:  0.00 423:  0.00 424:  0.00
 425:  0.00 426:  0.00 427:  0.00 428:  0.00 429:  0.00 430:  0.00 431:  0.00 432:  0.00
 433:  0.00 434:  0.00 435:  0.00 436:  0.00 437:  0.00 438:  0.00 439:  0.00 440:  0.00
 441:  0.00 442:  0.00 443:  0.00 444:  0.00 445:  0.00 446:  0.00 447:  0.00 448:  0.00
 449:  0.00 450:  0.00 451:  0.00 452:  0.00 453:  0.00 454:  0.00 455:  0.00 456:  0.00
 457:  0.00 458:  0.00 459:  0.00 460:  0.00 461:  0.00 462:  0.00 463:  0.00 464:  0.00
 465:  0.00 466:  0.00 467:  0.00 468:  0.00 469:  0.00 470:  0.00 471:  0.00 472:  0.00
 473:  0.00 474:  0.00 475:  0.00 476:  0.00 477:  0.00 478:  0.00 479:  0.00 480:  0.00
 481:  0.00 482:  0.00 483:  0.00 484:  0.00 485:  0.00 486:  0.00 487:  0.00 488:  0.00
 489:  0.00 490:  0.00 491:  0.00 492:  0.00 493:  0.00 494:  0.00 495:  0.00 496:  0.00
 497:  0.00 498:  0.00 499:  0.00 500:  0.00 501:  0.00 502:  0.00 503:  0.00 504:  0.00
 505:  0.00 506:  0.00 507:  0.00 508:  0.00 509:  0.00 510:  0.00 511:  0.00 512:  0.00
 513:  0.00 514:  0.00 515:  0.00 516:  0.00 517:  0.00 518:  0.00 519:  0.00 520:  0.00
 521:  0.00 522:  0.00 523:  0.00 524:  0.00 525:  0.00 526:  0.00 527:  0.00 528:  0.00
 529:  0.00 530:  0.00 531:  0.00 532:  0.00 533:  0.00 534:  0.00 535:  0.00 536:  0.00
 537:  0.00 538:  0.00 539:  0.00 540:  0.00 541:  0.00 542:  0.00 543:  0.00 544:  0.00
 545:  0.00 546:  0.00 547:  0.00 548:  0.00 549:  0.00 550:  0.00 551:  0.00 552:  0.00
 553:  0.00 554:  0.00 555:  0.00 556:  0.00 557:  0.00 558:  0.00 559:  0.00 560:  0.00
 561:  0.00 562:  0.00 563:  0.00 564:  0.00 565:  0.00 566:  0.00 567:  0.00 568:  0.00
 569:  0.00 570:  0.00 571:  0.00 572:  0.00 573:  0.00 574:  0.00 575:  0.00 576:  0.00
 577:  0.00 578:  0.00 579:  0.00 580:  0.00 581:  0.00 582:  0.00 583:  0.00 584:  0.00
 585:  0.00 586:  0.00 587:  0.00 588:  0.00 589:  0.00 590:  0.00 591:  0.00 592:  0.00
 593:  0.00 594:  0.00 595:  0.00 596:  0.00 597:  0.00 598:  0.00 599:  0.00 600:  0.00
 601:  0.00 602:  0.00 603:  0.00 604:  0.00 605:  0.00 606:  0.00 607:  0.00 608:  0.00
 609:  0.00 610:  0.00 611:  0.00 612:  0.00 613:  0.00 614:  0.00 615:  0.00 616:  0.00
 617:  0.00 618:  0.00 619:  0.00 620:  0.00 621:  0.00 622:  0.00 623:  0.00 624:  0.00
 625:  0.00 626:  0.00 627:  0.00 628:  0.00 629:  0.00 630:  0.00 631:  0.00 632:  0.00
 633:  0.00 634:  0.00 635:  0.00 636:  0.00 637:  0.00 638:  0.00 639:  0.00 640:  0.00
 641:  0.00 642:  0.00 643:  0.00 644:  0.00 645:  0.00 646:  0.00 647:  0.00 648:  0.00
 649:  0.00 650:  0.00 651:  0.00 652:  0.00 653:  0.00 654:  0.00 655:  0.00 656:  0.00
 657:  0.00 658:  0.00 659:  0.00 660:  0.00 661:  0.00 662:  0.00 663:  0.00 664:  0.00
 665:  0.00 666:  0.00 667:  0.00 668:  0.00 669:  0.00 670:  0.00 671:  0.00 672:  0.00
 673:  0.00 674:  0.00 675:  0.00 676:  0.00 677:  0.00 678:  0.00 679:  0.00 680:  0.00
 681:  0.00 682:  0.00 683:  0.00 684:  0.00 685:  0.00 686:  0.00 687:  0.00 688:  0.00
 689:  0.00 690:  0.00 691:  0.00 692:  0.00 693:  0.00 694:  0.00 695:  0.00 696:  0.00
 output can be read by thermo (or use thermo option).
 writing <g98.out> molden fake output.
 recommended (thermochemical) frequency scaling factor: 1.0
           -------------------------------------------------
          |             Thermodynamic Functions             |
           -------------------------------------------------
 symmetry recognition skipped because # atoms >         200
 inverting freq            1   3.6521486358845543     
 inverting freq            2   1.2930260991308735     
 inverting freq            3   1.1290614183129817     

          ...................................................
          :                      SETUP                      :
          :.................................................:
          :  # frequencies                         690      :
          :  # imaginary freq.                       0      :
          :  linear?                             false      :
          :  only rotor calc.                    false      :
          :  symmetry                               C1      :
          :  rotational number                       1      :
          :  scaling factor                  1.0000000      :
          :  rotor cutoff                   50.0000000 cm⁻¹ :
          :  imag. cutoff                  -20.0000000 cm⁻¹ :
          :.................................................:

    mode    ω/cm⁻¹     T·S(HO)/kcal·mol⁻¹    T·S(FR)/kcal·mol⁻¹   T·S(vib)
   ------------------------------------------------------------------------
       1      3.65    -2.98523 (  0.00%)    -1.83173 (100.00%)    -1.83176
       2      1.29    -3.60042 (  0.00%)    -2.13932 (100.00%)    -2.13932
       3      1.13    -3.68076 (  0.00%)    -2.17949 (100.00%)    -2.17949
       4      2.03    -3.33341 (  0.00%)    -2.00582 (100.00%)    -2.00582
       5      3.19    -3.06554 (  0.00%)    -1.87188 (100.00%)    -1.87190
       6      4.73    -2.83203 (  0.01%)    -1.75512 ( 99.99%)    -1.75521
       7      5.18    -2.77869 (  0.01%)    -1.72845 ( 99.99%)    -1.72858
       8      5.75    -2.71653 (  0.02%)    -1.69737 ( 99.98%)    -1.69755
       9      6.74    -2.62265 (  0.03%)    -1.65043 ( 99.97%)    -1.65075
      10      7.46    -2.56179 (  0.05%)    -1.61999 ( 99.95%)    -1.62046
      11      7.70    -2.54309 (  0.06%)    -1.61064 ( 99.94%)    -1.61117
      12      8.19    -2.50648 (  0.07%)    -1.59234 ( 99.93%)    -1.59300
      13      8.80    -2.46407 (  0.10%)    -1.57113 ( 99.90%)    -1.57199
      14     10.22    -2.37559 (  0.17%)    -1.52688 ( 99.83%)    -1.52836
      15     11.15    -2.32401 (  0.25%)    -1.50108 ( 99.75%)    -1.50311
      16     12.65    -2.24931 (  0.41%)    -1.46372 ( 99.59%)    -1.46693
      17     16.90    -2.07784 (  1.29%)    -1.37796 ( 98.71%)    -1.38696
      18     21.24    -1.94241 (  3.15%)    -1.31019 ( 96.85%)    -1.33013
      19     23.60    -1.88002 (  4.73%)    -1.27897 ( 95.27%)    -1.30739
      20     24.92    -1.84775 (  5.81%)    -1.26281 ( 94.19%)    -1.29682
      21     25.87    -1.82558 (  6.69%)    -1.25172 ( 93.31%)    -1.29011
      22     28.88    -1.76055 ( 10.02%)    -1.21915 ( 89.98%)    -1.27337
      23     30.72    -1.72394 ( 12.48%)    -1.20082 ( 87.52%)    -1.26609
      24     34.46    -1.65605 ( 18.41%)    -1.16680 ( 81.59%)    -1.25688
      25     38.99    -1.58310 ( 26.99%)    -1.13023 ( 73.01%)    -1.25248
      26     39.92    -1.56917 ( 28.89%)    -1.12324 ( 71.11%)    -1.25209
      27     40.12    -1.56620 ( 29.31%)    -1.12176 ( 70.69%)    -1.25202
      28     40.45    -1.56134 ( 30.00%)    -1.11932 ( 70.00%)    -1.25190
      29     40.80    -1.55630 ( 30.72%)    -1.11679 ( 69.28%)    -1.25179
      30     41.31    -1.54900 ( 31.78%)    -1.11313 ( 68.22%)    -1.25165
      31     41.59    -1.54501 ( 32.37%)    -1.11113 ( 67.63%)    -1.25157
      32     42.66    -1.52992 ( 34.65%)    -1.10355 ( 65.35%)    -1.25127
      33     43.74    -1.51516 ( 36.94%)    -1.09615 ( 63.06%)    -1.25094
      34     48.19    -1.45799 ( 46.33%)    -1.06745 ( 53.67%)    -1.24838
      35     49.76    -1.43912 ( 49.52%)    -1.05796 ( 50.48%)    -1.24672
      36     54.17    -1.38906 ( 57.95%)    -1.03281 ( 42.05%)    -1.23925
      37     60.66    -1.32251 ( 68.41%)    -0.99932 ( 31.59%)    -1.22042
      38     66.28    -1.27040 ( 75.54%)    -0.97306 ( 24.46%)    -1.19765
      39     68.65    -1.24977 ( 78.04%)    -0.96265 ( 21.96%)    -1.18671
      40     72.94    -1.21419 ( 81.91%)    -0.94469 ( 18.09%)    -1.16544
      41     72.95    -1.21407 ( 81.92%)    -0.94463 ( 18.08%)    -1.16537
      42     73.14    -1.21255 ( 82.08%)    -0.94386 ( 17.92%)    -1.16440
      43     73.62    -1.20874 ( 82.46%)    -0.94193 ( 17.54%)    -1.16193
      44     74.06    -1.20525 ( 82.80%)    -0.94017 ( 17.20%)    -1.15965
      45     75.55    -1.19360 ( 83.90%)    -0.93428 ( 16.10%)    -1.15185
      46     81.83    -1.14684 ( 87.77%)    -0.91062 ( 12.23%)    -1.11794
      47     87.98    -1.10452 ( 90.55%)    -0.88916 (  9.45%)    -1.08417
      48     97.02    -1.04751 ( 93.41%)    -0.86018 (  6.59%)    -1.03517
      49     97.03    -1.04746 ( 93.41%)    -0.86016 (  6.59%)    -1.03512
      50    105.86    -0.99683 ( 95.26%)    -0.83433 (  4.74%)    -0.98912
      51    114.53    -0.95127 ( 96.50%)    -0.81101 (  3.50%)    -0.94635
      52    116.42    -0.94184 ( 96.71%)    -0.80617 (  3.29%)    -0.93737
      53    122.62    -0.91192 ( 97.31%)    -0.79079 (  2.69%)    -0.90866
      54    124.82    -0.90171 ( 97.49%)    -0.78553 (  2.51%)    -0.89879
      55    124.90    -0.90133 ( 97.50%)    -0.78534 (  2.50%)    -0.89842
      56    125.02    -0.90078 ( 97.51%)    -0.78506 (  2.49%)    -0.89790
      57    125.20    -0.89996 ( 97.52%)    -0.78463 (  2.48%)    -0.89710
      58    127.59    -0.88910 ( 97.70%)    -0.77903 (  2.30%)    -0.88657
      59    127.69    -0.88865 ( 97.70%)    -0.77880 (  2.30%)    -0.88612
      60    127.78    -0.88826 ( 97.71%)    -0.77860 (  2.29%)    -0.88575
      61    139.12    -0.83957 ( 98.36%)    -0.75340 (  1.64%)    -0.83815
      62    143.71    -0.82106 ( 98.56%)    -0.74378 (  1.44%)    -0.81994
      63    144.68    -0.81724 ( 98.59%)    -0.74179 (  1.41%)    -0.81618
      64    146.07    -0.81178 ( 98.65%)    -0.73895 (  1.35%)    -0.81080
      65    149.20    -0.79975 ( 98.75%)    -0.73267 (  1.25%)    -0.79891
      66    149.46    -0.79875 ( 98.76%)    -0.73216 (  1.24%)    -0.79793
      67    152.50    -0.78737 ( 98.86%)    -0.72621 (  1.14%)    -0.78667
      68    152.68    -0.78669 ( 98.86%)    -0.72585 (  1.14%)    -0.78600
      69    154.61    -0.77957 ( 98.92%)    -0.72213 (  1.08%)    -0.77895
      70    155.25    -0.77723 ( 98.94%)    -0.72090 (  1.06%)    -0.77663
      71    165.34    -0.74173 ( 99.17%)    -0.70225 (  0.83%)    -0.74140
      72    166.07    -0.73927 ( 99.18%)    -0.70095 (  0.82%)    -0.73895
      73    166.95    -0.73629 ( 99.20%)    -0.69938 (  0.80%)    -0.73599
      74    167.78    -0.73351 ( 99.22%)    -0.69791 (  0.78%)    -0.73323
      75    168.50    -0.73112 ( 99.23%)    -0.69665 (  0.77%)    -0.73085
      76    169.03    -0.72934 ( 99.24%)    -0.69571 (  0.76%)    -0.72908
      77    171.39    -0.72159 ( 99.28%)    -0.69161 (  0.72%)    -0.72137
      78    180.39    -0.69302 ( 99.41%)    -0.67645 (  0.59%)    -0.69292
      79    181.79    -0.68871 ( 99.43%)    -0.67415 (  0.57%)    -0.68863
      80    181.84    -0.68856 ( 99.43%)    -0.67407 (  0.57%)    -0.68847
      81    181.90    -0.68837 ( 99.43%)    -0.67397 (  0.57%)    -0.68829
      82    181.99    -0.68810 ( 99.43%)    -0.67383 (  0.57%)    -0.68802
      83    182.14    -0.68766 ( 99.44%)    -0.67359 (  0.56%)    -0.68758
      84    182.32    -0.68710 ( 99.44%)    -0.67329 (  0.56%)    -0.68702
      85    188.97    -0.66722 ( 99.51%)    -0.66267 (  0.49%)    -0.66720
      86    192.79    -0.65616 ( 99.55%)    -0.65674 (  0.45%)    -0.65617
      87    193.82    -0.65324 ( 99.56%)    -0.65517 (  0.44%)    -0.65324
      88    194.77    -0.65055 ( 99.57%)    -0.65372 (  0.43%)    -0.65056
      89    195.76    -0.64775 ( 99.58%)    -0.65221 (  0.42%)    -0.64777
      90    196.05    -0.64695 ( 99.58%)    -0.65179 (  0.42%)    -0.64697
      91    196.28    -0.64630 ( 99.58%)    -0.65144 (  0.42%)    -0.64632
      92    196.56    -0.64550 ( 99.58%)    -0.65100 (  0.42%)    -0.64552
      93    196.69    -0.64514 ( 99.58%)    -0.65081 (  0.42%)    -0.64517
      94    197.10    -0.64401 ( 99.59%)    -0.65020 (  0.41%)    -0.64404
      95    197.36    -0.64328 ( 99.59%)    -0.64981 (  0.41%)    -0.64330
      96    198.03    -0.64141 ( 99.60%)    -0.64880 (  0.40%)    -0.64144
      97    198.25    -0.64081 ( 99.60%)    -0.64848 (  0.40%)    -0.64084
      98    198.43    -0.64030 ( 99.60%)    -0.64820 (  0.40%)    -0.64033
      99    199.25    -0.63806 ( 99.60%)    -0.64699 (  0.40%)    -0.63809
     100    199.70    -0.63681 ( 99.61%)    -0.64632 (  0.39%)    -0.63684
     101    200.21    -0.63541 ( 99.61%)    -0.64556 (  0.39%)    -0.63545
     102    202.76    -0.62847 ( 99.63%)    -0.64181 (  0.37%)    -0.62852
     103    202.93    -0.62801 ( 99.63%)    -0.64156 (  0.37%)    -0.62806
     104    203.26    -0.62711 ( 99.64%)    -0.64108 (  0.36%)    -0.62716
     105    203.65    -0.62608 ( 99.64%)    -0.64052 (  0.36%)    -0.62614
     106    204.03    -0.62505 ( 99.64%)    -0.63996 (  0.36%)    -0.62510
     107    204.04    -0.62502 ( 99.64%)    -0.63994 (  0.36%)    -0.62507
     108    204.33    -0.62425 ( 99.64%)    -0.63952 (  0.36%)    -0.62430
     109    205.08    -0.62226 ( 99.65%)    -0.63845 (  0.35%)    -0.62232
     110    208.58    -0.61301 ( 99.67%)    -0.63342 (  0.33%)    -0.61307
     111    212.78    -0.60217 ( 99.70%)    -0.62752 (  0.30%)    -0.60224
     112    214.01    -0.59904 ( 99.70%)    -0.62581 (  0.30%)    -0.59912
     113    220.60    -0.58264 ( 99.74%)    -0.61683 (  0.26%)    -0.58273
     114    222.23    -0.57867 ( 99.74%)    -0.61465 (  0.26%)    -0.57876
     115    226.85    -0.56760 ( 99.76%)    -0.60855 (  0.24%)    -0.56770
     116    238.05    -0.54186 ( 99.81%)    -0.59428 (  0.19%)    -0.54196
     117    254.52    -0.50658 ( 99.85%)    -0.57446 (  0.15%)    -0.50668
     118    256.29    -0.50296 ( 99.86%)    -0.57241 (  0.14%)    -0.50306
     119    262.05    -0.49137 ( 99.87%)    -0.56582 (  0.13%)    -0.49147
     120    262.47    -0.49053 ( 99.87%)    -0.56534 (  0.13%)    -0.49063
     121    262.58    -0.49033 ( 99.87%)    -0.56522 (  0.13%)    -0.49042
     122    262.78    -0.48992 ( 99.87%)    -0.56499 (  0.13%)    -0.49002
     123    262.99    -0.48951 ( 99.87%)    -0.56476 (  0.13%)    -0.48961
     124    263.08    -0.48933 ( 99.87%)    -0.56465 (  0.13%)    -0.48942
     125    263.44    -0.48862 ( 99.87%)    -0.56425 (  0.13%)    -0.48872
     126    271.76    -0.47256 ( 99.89%)    -0.55504 (  0.11%)    -0.47265
     127    273.59    -0.46911 ( 99.89%)    -0.55305 (  0.11%)    -0.46920
     128    282.20    -0.45328 ( 99.90%)    -0.54388 (  0.10%)    -0.45336
     129    292.64    -0.43490 ( 99.91%)    -0.53312 (  0.09%)    -0.43498
   ------------------------------------------------------------------------

   temp. (K)  partition function   enthalpy   heat capacity  entropy
                                   cal/mol     cal/K/mol   cal/K/mol   J/K/mol
 298.15  VIB  0.257E+77            86073.386    543.009    554.187
         ROT  0.104E+11              888.752      2.981     48.812
         INT  0.267E+87            86962.139    545.990    603.000
         TR   0.119E+30             1481.254      4.968     49.257
         TOT                       88443.3926   550.9577   652.2569  2729.0427

       T/K    H(0)-H(T)+PV         H(T)/Eh          T*S/Eh         G(T)/Eh
   ------------------------------------------------------------------------
    298.15    0.140944E+00    0.172239E+01    0.309908E+00    0.141248E+01
   ------------------------------------------------------------------------

         :::::::::::::::::::::::::::::::::::::::::::::::::::::
         ::                  THERMODYNAMIC                  ::
         :::::::::::::::::::::::::::::::::::::::::::::::::::::
         :: total free energy        -403.535946975651 Eh   ::
         ::.................................................::
         :: total energy             -404.948431189077 Eh   ::
         :: zero point energy           1.581448981051 Eh   ::
         :: G(RRHO) w/o ZPVE           -0.168964767625 Eh   ::
         :: G(RRHO) contrib.            1.412484213426 Eh   ::
         :::::::::::::::::::::::::::::::::::::::::::::::::::::

optimized geometry written to: xtbopt.xyz


           -------------------------------------------------
          | TOTAL ENERGY             -404.948431189077 Eh   |
          | TOTAL ENTHALPY           -403.226038690442 Eh   |
          | TOTAL FREE ENERGY        -403.535946975651 Eh   |
          | GRADIENT NORM               0.000554289646 Eh/α |
          | HOMO-LUMO GAP               0.860166450010 eV   |
           -------------------------------------------------

------------------------------------------------------------------------
 * finished run on 2021/11/18 at 21:12:52.904     
------------------------------------------------------------------------
 total:
 * wall-time:     0 d,  0 h, 29 min, 58.378 sec
 *  cpu-time:     0 d,  0 h, 29 min, 58.390 sec
 * ratio c/w:     1.000 speedup
 SCF:
 * wall-time:     0 d,  0 h,  0 min,  8.168 sec
 *  cpu-time:     0 d,  0 h,  0 min,  8.168 sec
 * ratio c/w:     1.000 speedup
 ANC optimizer:
 * wall-time:     0 d,  0 h,  2 min, 21.100 sec
 *  cpu-time:     0 d,  0 h,  2 min, 21.095 sec
 * ratio c/w:     1.000 speedup
 analytical hessian:
 * wall-time:     0 d,  0 h, 27 min, 28.795 sec
 *  cpu-time:     0 d,  0 h, 27 min, 28.813 sec
 * ratio c/w:     1.000 speedup

