232
 energy: -403.388874624315 gnorm: 0.915179223851 xtb: 6.4.1 (bd6e46d)
Zn       34.82588100000000    0.04286800000000   -0.01312800000000
C        37.15487200000000   -3.10392600000000    1.30956100000000
C        38.07097900000000   -2.15971800000000    1.25927900000000
C        37.65980000000000   -1.10581400000000    0.33798700000000
C        38.27867000000000    0.01853200000000   -0.00842300000000
C        37.57462800000000    1.23848000000000   -0.37252800000000
C        37.90273900000000    2.19853500000000   -1.22000200000000
C        36.86795900000000    3.21482100000000   -1.23689900000000
C        35.93169100000001    2.83835900000000   -0.39000800000000
N        36.33368100000000    1.60534800000000    0.17380900000000
C        34.67061700000000    3.48335800000000   -0.01085600000000
C        33.57539900000000    2.84857500000000    0.33990400000000
C        32.50177400000000    3.16653100000000    1.30893200000000
C        31.66421100000000    2.16977700000000    1.23176600000000
C        32.10250800000000    1.16609400000000    0.25131400000000
N        33.20744700000000    1.60494700000000   -0.23297800000000
C        31.49167400000000   -0.08717700000000   -0.16223400000000
C        32.15583400000000   -1.19168300000000   -0.41665800000000
C        31.78198500000000   -2.25462500000000   -1.37418600000000
C        32.73073300000000   -3.14838000000000   -1.28516600000000
C        33.71645700000000   -2.71093100000000   -0.30228900000000
N        33.36341100000000   -1.56512600000000    0.19450800000000
C        34.94734400000000   -3.36700100000000    0.14343200000000
C        36.07038600000000   -2.72114000000000    0.41055300000000
N        36.39898600000001   -1.47369900000000   -0.18785000000000
H        37.21513400000001   -4.01370600000000    1.92710800000000
H        38.98730700000000   -2.19966700000000    1.83732700000000
H        38.83010400000000    2.21533100000000   -1.82114500000000
H        36.88485800000000    4.11950900000000   -1.84952100000000
H        34.62289400000000    4.57816100000000   -0.01463300000000
H        32.44895200000000    4.04525600000000    1.93392500000000
H        30.75258100000000    2.13410800000000    1.84909000000000
H        30.39342300000000   -0.08426600000000   -0.26150500000000
H        30.91313000000000   -2.30709000000000   -2.02313600000000
H        32.72788700000000   -4.06468900000000   -1.88392600000000
H        34.91186200000000   -4.46280300000000    0.25535700000000
Zn      104.76176300000002   -0.00450900000000   -0.01756100000000
C       102.43277200000001    2.84228300000000    1.86594400000000
C       101.51666500000002    1.92379400000000    1.64137100000000
C       101.92784500000000    1.05909700000000    0.54055600000000
C       101.30897400000001    0.01853200000000   -0.00842300000000
C       102.01301599999999   -1.11269300000000   -0.59252600000000
C       101.68490600000000   -1.89886400000000   -1.60339200000000
C       102.71968600000001   -2.89437400000000   -1.80853300000000
C       103.65595399999999   -2.68155700000000   -0.90650200000000
N       103.25396300000000   -1.57454600000000   -0.12373100000000
C       104.91702800000000   -3.38569800000000   -0.65358900000000
C       106.01224499999999   -2.82700600000000   -0.19115600000000
C       107.08587100000000   -3.31921100000000    0.70206600000000
C       107.92343400000000   -2.32544400000000    0.81115100000000
C       107.48513600000000   -1.15729500000000    0.03391600000000
N       106.38019800000001   -1.49868700000000   -0.52338300000000
C       108.09597100000001    0.15094000000000   -0.13995400000000
C       107.43181000000000    1.28347300000000   -0.18506000000000
C       107.80565900000001    2.50559900000000   -0.92877500000000
C       106.85691200000001    3.36732600000000   -0.67549600000000
C       105.87118800000000    2.75513200000000    0.20916700000000
N       106.22423400000000    1.53705300000000    0.48477700000000
C       104.64030000000000    3.31712600000000    0.76886200000000
C       103.51725900000000    2.63292100000000    0.91152900000000
N       103.18865800000000    1.51814600000000    0.09209500000000
H       102.37251000000002    3.62170800000000    2.64154800000000
H       100.60033800000001    1.85581300000000    2.21679600000000
H       100.75754100000002   -1.80384800000000   -2.19721700000000
H       102.70278700000000   -3.66970800000000   -2.57835300000000
H       104.96475100000002   -4.46079600000000   -0.86040300000000
H       107.13869200000001   -4.29862800000000    1.15319300000000
H       108.83506400000000   -2.40491600000000    1.42437700000000
H       109.19422100000001    0.16649600000000   -0.23804100000000
H       108.67451500000001    2.67754300000000   -1.55672700000000
H       106.85975800000000    4.37880700000000   -1.09387400000000
H       104.67578200000000    4.37314200000000    1.08213100000000
C        41.17337400000000    0.01649600000000   -0.00953500000000
C        42.38135100000000    0.02395100000000   -0.00784000000000
C        43.80011900000000    0.02464800000000   -0.00270300000000
C        45.01563500000000    0.01649600000000   -0.00953500000000
C        54.52352500000001    0.01649600000000   -0.00953500000000
C        55.73150100000000    0.02395100000000   -0.00784000000000
C        57.15026900000000    0.02464800000000   -0.00270300000000
C        58.36578600000001    0.01649600000000   -0.00953500000000
C        67.87367500000001    0.01649600000000   -0.00953500000000
C        69.08165200000001    0.02395100000000   -0.00784000000000
C        70.50042000000001    0.02464800000000   -0.00270300000000
C        71.71593600000000    0.01649600000000   -0.00953500000000
C        81.22382500000001    0.01649600000000   -0.00953500000000
C        82.43180200000000    0.02395100000000   -0.00784000000000
C        83.85057000000000    0.02464800000000   -0.00270300000000
C        85.06608700000000    0.01649600000000   -0.00953500000000
C        94.57397600000002    0.01649600000000   -0.00953500000000
C        95.78195300000000    0.02395100000000   -0.00784000000000
C        97.20072100000000    0.02464800000000   -0.00270300000000
C        98.41623700000000    0.01649600000000   -0.00953500000000
Zn       49.80421700000001    0.03663200000000    0.00260400000000
C        47.52440600000001   -3.22481500000000   -0.90706200000000
C        46.56819700000000   -2.32546500000000   -1.00908800000000
C        46.96057100000000   -1.16316000000000   -0.20657200000000
C        46.32545400000000   -0.01188700000000    0.00569400000000
C        47.01091100000000    1.26271200000000    0.23192300000000
C        46.67562100000000    2.34131200000000    0.93616300000000
C        47.70016200000000    3.36062900000000    0.84558200000000
C        48.65076000000000    2.86370400000000    0.07221700000000
N        48.27376500000000    1.54709900000000   -0.34392600000000
C        49.89789900000000    3.47540600000000   -0.34464800000000
C        50.99945100000000    2.80814900000000   -0.67642000000000
C        51.99299700000001    3.06013300000000   -1.71059000000000
C        52.88688000000000    2.09927400000000   -1.60910600000000
C        52.50718200000001    1.18739000000000   -0.50512900000000
N        51.41226700000000    1.63670900000000    0.00223800000000
C        53.16438900000000   -0.01188700000000    0.00569400000000
C        52.54097800000001   -1.08106900000000    0.46721100000000
C        52.91969000000001   -2.01318500000000    1.54268600000000
C        51.97902200000000   -2.92733100000000    1.62855200000000
C        50.97072000000000   -2.63155200000000    0.63112500000000
N        51.30849500000000   -1.57817400000000   -0.01817000000000
C        49.71832700000001   -3.33855900000000    0.29993200000000
C        48.60445100000000   -2.74186300000000   -0.04741000000000
N        48.22233800000001   -1.45910500000000    0.37027300000000
H        47.52475000000000   -4.21588900000000   -1.39829600000000
H        45.65966200000000   -2.44715900000000   -1.59023600000000
H        45.75076900000000    2.45966400000000    1.51308900000000
H        47.72745700000000    4.34979300000000    1.30223200000000
H        49.98383900000001    4.57278400000000   -0.40667100000000
H        52.02567000000000    3.86634900000000   -2.43741400000000
H        53.77994200000001    1.98630600000000   -2.24288000000000
H        53.83444100000000   -1.93877800000000    2.15285600000000
H        51.99806800000000   -3.74093900000000    2.33682000000000
H        49.75681200000000   -4.43851800000000    0.35896800000000
Zn       63.15436700000001    0.03663200000000    0.00260400000000
C        60.87455600000000   -3.22481500000000   -0.90706200000000
C        59.91834700000000   -2.32546500000000   -1.00908800000000
C        60.31072100000000   -1.16316000000000   -0.20657200000000
C        59.67560500000000   -0.01188700000000    0.00569400000000
C        60.36106200000000    1.26271200000000    0.23192300000000
C        60.02577100000000    2.34131200000000    0.93616300000000
C        61.05031300000001    3.36062900000000    0.84558200000000
C        62.00091000000000    2.86370400000000    0.07221700000000
N        61.62391600000000    1.54709900000000   -0.34392600000000
C        63.24805000000001    3.47540600000000   -0.34464800000000
C        64.34960100000001    2.80814900000000   -0.67642000000000
C        65.34314800000000    3.06013300000000   -1.71059000000000
C        66.23703100000000    2.09927400000000   -1.60910600000000
C        65.85733300000000    1.18739000000000   -0.50512900000000
N        64.76241700000000    1.63670900000000    0.00223800000000
C        66.51454000000000   -0.01188700000000    0.00569400000000
C        65.89112799999999   -1.08106900000000    0.46721100000000
C        66.26984100000000   -2.01318500000000    1.54268600000000
C        65.32917200000000   -2.92733100000000    1.62855200000000
C        64.32087100000000   -2.63155200000000    0.63112500000000
N        64.65864600000000   -1.57817400000000   -0.01817000000000
C        63.06847800000000   -3.33855900000000    0.29993200000000
C        61.95460100000000   -2.74186300000000   -0.04741000000000
N        61.57248900000000   -1.45910500000000    0.37027300000000
H        60.87490100000000   -4.21588900000000   -1.39829600000000
H        59.00981300000001   -2.44715900000000   -1.59023600000000
H        59.10091900000000    2.45966400000000    1.51308900000000
H        61.07760700000000    4.34979300000000    1.30223200000000
H        63.33398900000001    4.57278400000000   -0.40667100000000
H        65.37582000000000    3.86634900000000   -2.43741400000000
H        67.13009200000000    1.98630600000000   -2.24288000000000
H        67.18459100000000   -1.93877800000000    2.15285600000000
H        65.34821900000000   -3.74093900000000    2.33682000000000
H        63.10696200000000   -4.43851800000000    0.35896800000000
Zn       76.50451700000001    0.03663200000000    0.00260400000000
C        74.22470700000000   -3.22481500000000   -0.90706200000000
C        73.26849700000000   -2.32546500000000   -1.00908800000000
C        73.66087200000000   -1.16316000000000   -0.20657200000000
C        73.02575500000000   -0.01188700000000    0.00569400000000
C        73.71121200000000    1.26271200000000    0.23192300000000
C        73.37592200000000    2.34131200000000    0.93616300000000
C        74.40046300000000    3.36062900000000    0.84558200000000
C        75.35106000000000    2.86370400000000    0.07221700000000
N        74.97406599999999    1.54709900000000   -0.34392600000000
C        76.59820000000001    3.47540600000000   -0.34464800000000
C        77.69975200000000    2.80814900000000   -0.67642000000000
C        78.69329800000001    3.06013300000000   -1.71059000000000
C        79.58718100000000    2.09927400000000   -1.60910600000000
C        79.20748300000000    1.18739000000000   -0.50512900000000
N        78.11256800000000    1.63670900000000    0.00223800000000
C        79.86469000000000   -0.01188700000000    0.00569400000000
C        79.24127900000001   -1.08106900000000    0.46721100000000
C        79.61999100000000   -2.01318500000000    1.54268600000000
C        78.67932300000000   -2.92733100000000    1.62855200000000
C        77.67102100000000   -2.63155200000000    0.63112500000000
N        78.00879600000000   -1.57817400000000   -0.01817000000000
C        76.41862800000000   -3.33855900000000    0.29993200000000
C        75.30475100000001   -2.74186300000000   -0.04741000000000
N        74.92263900000000   -1.45910500000000    0.37027300000000
H        74.22505099999999   -4.21588900000000   -1.39829600000000
H        72.35996299999999   -2.44715900000000   -1.59023600000000
H        72.45107000000000    2.45966400000000    1.51308900000000
H        74.42775800000000    4.34979300000000    1.30223200000000
H        76.68414000000000    4.57278400000000   -0.40667100000000
H        78.72597000000002    3.86634900000000   -2.43741400000000
H        80.48024300000000    1.98630600000000   -2.24288000000000
H        80.53474199999999   -1.93877800000000    2.15285600000000
H        78.69836900000000   -3.74093900000000    2.33682000000000
H        76.45711300000001   -4.43851800000000    0.35896800000000
Zn       89.85466800000000    0.03663200000000    0.00260400000000
C        87.57485699999999   -3.22481500000000   -0.90706200000000
C        86.61864799999999   -2.32546500000000   -1.00908800000000
C        87.01102200000000   -1.16316000000000   -0.20657200000000
C        86.37590500000000   -0.01188700000000    0.00569400000000
C        87.06136300000001    1.26271200000000    0.23192300000000
C        86.72607200000000    2.34131200000000    0.93616300000000
C        87.75061400000000    3.36062900000000    0.84558200000000
C        88.70121100000000    2.86370400000000    0.07221700000000
N        88.32421700000000    1.54709900000000   -0.34392600000000
C        89.94835000000000    3.47540600000000   -0.34464800000000
C        91.04990200000000    2.80814900000000   -0.67642000000000
C        92.04344900000001    3.06013300000000   -1.71059000000000
C        92.93733200000000    2.09927400000000   -1.60910600000000
C        92.55763400000001    1.18739000000000   -0.50512900000000
N        91.46271800000000    1.63670900000000    0.00223800000000
C        93.21484100000001   -0.01188700000000    0.00569400000000
C        92.59142900000001   -1.08106900000000    0.46721100000000
C        92.97014200000000   -2.01318500000000    1.54268600000000
C        92.02947300000000   -2.92733100000000    1.62855200000000
C        91.02117200000001   -2.63155200000000    0.63112500000000
N        91.35894700000001   -1.57817400000000   -0.01817000000000
C        89.76877899999999   -3.33855900000000    0.29993200000000
C        88.65490200000001   -2.74186300000000   -0.04741000000000
N        88.27279000000000   -1.45910500000000    0.37027300000000
H        87.57520200000000   -4.21588900000000   -1.39829600000000
H        85.71011300000001   -2.44715900000000   -1.59023600000000
H        85.80122000000000    2.45966400000000    1.51308900000000
H        87.77790800000000    4.34979300000000    1.30223200000000
H        90.03429000000000    4.57278400000000   -0.40667100000000
H        92.07612100000000    3.86634900000000   -2.43741400000000
H        93.83039300000000    1.98630600000000   -2.24288000000000
H        93.88489199999999   -1.93877800000000    2.15285600000000
H        92.04852000000001   -3.74093900000000    2.33682000000000
H        89.80726300000001   -4.43851800000000    0.35896800000000
232
 energy: -403.738258327911 gnorm: 0.520797229722 xtb: 6.4.1 (bd6e46d)
Zn       34.83676608387008    0.04283384880136   -0.01195716931195
C        37.15464731238163   -3.11254015995824    1.30161580719820
C        38.08508612368491   -2.15886884075856    1.25578965794183
C        37.65551606537286   -1.10842474835679    0.34490195540924
C        38.25920214241584    0.03694547638112   -0.01123362815829
C        37.56254393157178    1.23440594974152   -0.36480633739606
C        37.91395390024100    2.22439292277858   -1.23679619653243
C        36.89588888613884    3.21720497868081   -1.24967147388853
C        35.92544806009074    2.81734331942115   -0.38324590110663
N        36.31342419989910    1.58933186596053    0.17664405070010
C        34.68866656289325    3.48221311874096   -0.01186193315766
C        33.56480636038984    2.83368103384269    0.34105756132240
C        32.50379473622197    3.17388877388611    1.29307918333432
C        31.63949416998094    2.16209435103291    1.23430252798063
C        32.09527767274992    1.16687541851741    0.26677406585903
N        33.23722379713810    1.58752057618151   -0.21749403744487
C        31.48066593699943   -0.06578252715462   -0.15548479944887
C        32.15938494226322   -1.19610125346515   -0.42203928452858
C        31.77432496632952   -2.25334015433478   -1.36148722513315
C        32.73792372011602   -3.16931043579230   -1.28154204257428
C        33.72583833975371   -2.72160949977316   -0.31010476967046
N        33.37103113865707   -1.54413313326679    0.17132644684615
C        34.92922823373711   -3.37280647735314    0.13588598525876
C        36.07709624061422   -2.70720767653803    0.41254127133203
N        36.39489479159344   -1.47301031726109   -0.16266340035379
H        37.20744013165699   -4.00865500301417    1.91940130310641
H        38.99162977735033   -2.19106964192678    1.83464010711949
H        38.82758032050964    2.22289748180249   -1.82225429029633
H        36.89090719789504    4.11648007870297   -1.85016441750758
H        34.63705977090687    4.57389476112922   -0.00888516783373
H        32.45549583797670    4.04365890017450    1.92811785038474
H        30.74866864321943    2.12569443862679    1.84769856659396
H        30.39528950323816   -0.07681981211856   -0.26587814070277
H        30.91508625367787   -2.29836569663583   -2.01607340533605
H        32.73786182246163   -4.06829011723044   -1.88032958500797
H        34.90728520015231   -4.45831642094636    0.25573541763827
Zn      104.75088188544227   -0.00468083640822   -0.01641419476057
C       102.43300601714405    2.85222087447982    1.85973453285179
C       101.50258512127070    1.92359690192018    1.63777883112972
C       101.93217133825046    1.06036217125359    0.54785161211087
C       101.32845208417193    0.00090238175034   -0.01444704235849
C       102.02513610878405   -1.11011171640518   -0.58418530669700
C       101.67370235438020   -1.92114632351803   -1.62466656461537
C       102.69176849524801   -2.89435156533930   -1.82151680483324
C       103.66220594388685   -2.66218026788359   -0.89596415647057
N       103.27422699614168   -1.55934048297495   -0.11798969895966
C       104.89897361452424   -3.38440008491523   -0.65436737116124
C       106.02283856948446   -2.81258093869422   -0.18725161440513
C       107.08384237105086   -3.32349514498444    0.68512248055950
C       107.94815321673407   -2.31835694856700    0.81506292348123
C       107.49237501769234   -1.16092982845308    0.04896468170451
N       106.35041581310409   -1.48444548445210   -0.50493627567855
C       108.10698012462609    0.12866112991522   -0.13728712633393
C       107.42825819000564    1.28881377548274   -0.18952990802424
C       107.81331578896540    2.50197552557450   -0.91653566905036
C       106.84971763229589    3.38722081323863   -0.66804900463537
C       105.86180461228089    2.76707778023755    0.20346585965435
N       106.21661580832992    1.52072479410260    0.45810575037178
C       104.65841771555277    3.32424226410804    0.76252392641894
C       103.51054915969416    2.61887214578406    0.91088473319645
N       103.19276925618588    1.51280967093566    0.11672379270380
H       102.38020252117951    3.61817756717189    2.63303826270760
H       100.59602215881783    1.84787139643352    2.21255795401921
H       100.76007343095407   -1.81106045962914   -2.19970633190252
H       102.69674374597810   -3.66661595760155   -2.57842869286093
H       104.95059226070667   -4.45767831744529   -0.85397709159257
H       107.13214829986825   -4.29598190585748    1.14778099450466
H       108.83897818895427   -2.39638964601611    1.42456872333058
H       109.19235565546039    0.15999023054958   -0.24371649783799
H       108.67255805664452    2.66765909580172   -1.55140400885579
H       106.84978202760897    4.38167961251899   -1.08966961692030
H       104.68036102401334    4.36866831956748    1.08167808967421
C        41.16317640625102    0.01686508794142   -0.00776896409233
C        42.38511658448162    0.02417435205532   -0.00812395378749
C        43.77180549835568    0.02536345445070   -0.00302584206866
C        44.99042189521057    0.02434406439465   -0.01224826532628
C        54.53879312865974    0.02322003940084   -0.00726070635411
C        55.75545657810713    0.02452240049755   -0.00622150207213
C        57.12481949709392    0.02521445437036   -0.00331186147973
C        58.34256293281922    0.02415302427307   -0.01322122303437
C        67.88896827729155    0.02327392017724   -0.00704340152281
C        69.10561672764439    0.02454396259275   -0.00613583103296
C        70.47498332020805    0.02521331044843   -0.00333944982155
C        71.69270228468766    0.02411977438529   -0.01332267491956
C        81.23903527790195    0.02326334545449   -0.00702107108828
C        82.45590459600992    0.02455773840680   -0.00607275337432
C        83.82501395537065    0.02521202168492   -0.00333020928400
C        85.04291821900232    0.02409396268978   -0.01338441041103
C        94.59222934338538    0.02378401832470   -0.00643179785221
C        95.80952215670098    0.02443656716965   -0.00671610260813
C        97.19912167269214    0.02397028538448   -0.00301148147344
C        98.42172899473884    0.01592736814518   -0.00875818139861
Zn       49.79524537881180    0.03938187054468    0.00151223335531
C        47.52647512029957   -3.24203673279470   -0.90087896193841
C        46.56206040781692   -2.32413401320841   -1.00037271834321
C        46.98624494262686   -1.17856899935793   -0.21006965802636
C        46.34204578587813    0.00635540303695    0.00473254206478
C        47.03964326995994    1.26653490815860    0.22927604140475
C        46.66747891212177    2.36575271601020    0.94707401310608
C        47.67740434520162    3.36238801219863    0.85238282492101
C        48.66111051200973    2.84509210082628    0.06749263507526
N        48.29514423673302    1.53687230256654   -0.33381508907219
C        49.88415431876002    3.47500220694396   -0.34541539452566
C        51.00817986993040    2.79667726574898   -0.67746792549202
C        51.99831373190133    3.06740371951786   -1.69850686498651
C        52.90659464199516    2.08755289854509   -1.60737609225757
C        52.50918605638098    1.18783258684074   -0.52077941469180
N        51.38235317925287    1.62138363209419   -0.01309957850341
C        53.16776590658736    0.00505963060279   -0.00353170318282
C        52.52508372134725   -1.09482650856426    0.47559322166043
C        52.93076655522036   -2.01073907103756    1.53311223256408
C        51.97462750073839   -2.94370817660640    1.62673330151534
C        50.96047279476514   -2.64034674725461    0.64031147016853
N        51.29671833198108   -1.54661639558169   -0.00750745308498
C        49.73873367370642   -3.34494349406021    0.30965094210574
C        48.59194951586837   -2.73015092794286   -0.05470811848141
N        48.23335607859156   -1.45114095335494    0.34247937199229
H        47.52943164451775   -4.21259452513830   -1.39446192444110
H        45.66047160211800   -2.43766477953973   -1.58559949056361
H        45.75057771672943    2.46321592080002    1.51351453783623
H        47.71777939818184    4.34440924531187    1.30390329219602
H        49.96834216375060    4.56679615001432   -0.41157151665023
H        52.01889805961936    3.86468907221174   -2.42978644002524
H        53.78026950003685    1.98017957631911   -2.23950351094648
H        53.82904192357751   -1.93379630681698    2.14486089015540
H        51.99106489735212   -3.74658960250303    2.33701365498798
H        49.76238872012890   -4.43542668169356    0.35689069806942
Zn       63.14508498108713    0.03926896736747    0.00157008872153
C        60.87596519869180   -3.24238394200748   -0.90065285756199
C        59.91235040825343   -2.32474272055699   -1.00030412072435
C        60.33659076871029   -1.17863090877903   -0.20866131725398
C        59.69277053649997    0.00597845210604    0.00464032976723
C        60.39008924090374    1.26705949839722    0.22874625740384
C        60.01790645201437    2.36576982480767    0.94717068079001
C        61.02750375539102    3.36268569826844    0.85218203818416
C        62.01144121941329    2.84536878959216    0.06743865220259
N        61.64494214684756    1.53680524695545   -0.33388557883634
C        63.23411617782335    3.47493101104350   -0.34512435826935
C        64.35842712176220    2.79657748525695   -0.67746084651103
C        65.34835542941865    3.06734181348745   -1.69857732777344
C        66.25675272898657    2.08750151935783   -1.60742646058431
C        65.85918620942429    1.18782834025621   -0.52098312582900
N        64.73253152521396    1.62140990077587   -0.01313962433273
C        66.51785701199135    0.00488772467693   -0.00338114504709
C        65.87553464388287   -1.09474154529588    0.47559309802740
C        66.28126482697508   -2.01086585417471    1.53297831679460
C        65.32469639607977   -2.94330617378795    1.62709583751217
C        64.31085705339767   -2.63975788844723    0.64054055665531
N        64.64662638243509   -1.54706223522463   -0.00752877399204
C        63.08821764796892   -3.34492880826843    0.30898429549698
C        61.94271530372381   -2.73044666548705   -0.05451899663480
N        61.58357122617412   -1.45063578565128    0.34247117905719
H        60.87948043883455   -4.21266484884307   -1.39455668212582
H        59.01072822171179   -2.43775475402844   -1.58571942774864
H        59.10076485800552    2.46324709936450    1.51349195670021
H        61.06792493918848    4.34450452172478    1.30392170971137
H        63.31849992528116    4.56675736847111   -0.41140382092489
H        65.36904078879483    3.86468363924398   -2.42977390434277
H        67.13042895499845    1.98018280124114   -2.23948352726408
H        67.17929883731641   -1.93382412631193    2.14485303368039
H        65.34121628354785   -3.74651412716102    2.33701818956048
H        63.11254597377808   -4.43539662303562    0.35628170683334
Zn       76.49519290734850    0.03919426560920    0.00158027316926
C        74.22597072187040   -3.24245532419997   -0.90057987054159
C        73.26254851455391   -2.32485795214143   -1.00032129828543
C        73.68677251465459   -1.17854239973701   -0.20855962954290
C        73.04292265306455    0.00591167560730    0.00459447010621
C        73.74029723735318    1.26710810031708    0.22876975373778
C        73.36813187805436    2.36576108258513    0.94722512581284
C        74.37764975226432    3.36274448705203    0.85213481315593
C        75.36161973105591    2.84543158594448    0.06742778416697
N        74.99499987842916    1.53677964108036   -0.33387197811695
C        76.58422075252417    3.47491715656049   -0.34507098333355
C        77.70860084735165    2.79658620711787   -0.67746027674818
C        78.69846922724163    3.06734108353163   -1.69858233307758
C        79.60687463634069    2.08746106578704   -1.60745289557416
C        79.20927292367645    1.18788104004091   -0.52100927764029
N        78.08273141531913    1.62143605153371   -0.01312615105390
C        79.86811861550609    0.00484024038407   -0.00332577686873
C        79.22580183057352   -1.09475082282717    0.47561891983718
C        79.63151296958343   -2.01083503978826    1.53289242222238
C        78.67475149551063   -2.94316608650744    1.62718806150362
C        77.66112789106407   -2.63961126397631    0.64063094649026
N        77.99674032011160   -1.54723653869996   -0.00754629966877
C        76.43813712395455   -3.34497145905281    0.30882126994032
C        75.29297573874963   -2.73056048268864   -0.05441336422011
N        74.93370398354706   -1.45047223090351    0.34245891608112
H        74.22960974929971   -4.21268233796485   -1.39457702774359
H        72.36089519848217   -2.43777601690428   -1.58574816031696
H        72.45091766135856    2.46325992389879    1.51348938401284
H        74.41807709387155    4.34453105502136    1.30392441249781
H        76.66864640748575    4.56675628683039   -0.41138479814391
H        78.71918954799580    3.86468870742426   -2.42977172491065
H        80.48057822886584    1.98017725372751   -2.23946750496836
H        80.52948085545451   -1.93381971958434    2.14482939223476
H        78.69135463289750   -3.74649239873911    2.33700757889617
H        76.46269934939617   -4.43542024797584    0.35607834619032
Zn       89.84524954646018    0.03918954197024    0.00156732504045
C        87.57591863433579   -3.24259619668092   -0.90039376089348
C        86.61281944229695   -2.32494497124297   -1.00036330405855
C        87.03700259737704   -1.17847061930144   -0.20841573042613
C        86.39297944211957    0.00587636691758    0.00455481044697
C        87.09048164156097    1.26719131726825    0.22873535868346
C        86.71837313964113    2.36571566619419    0.94726199238023
C        87.72781601213060    3.36279718171133    0.85206378181880
C        88.71181003956406    2.84553699768819    0.06739932545326
N        88.34501841011114    1.53680744260115   -0.33388729309948
C        89.93434732164643    3.47493265738714   -0.34489734142956
C        91.05897853893079    2.79658232625425   -0.67730176682735
C        92.04855227218523    3.06727366510522   -1.69856028938061
C        92.95702430698505    2.08732515543382   -1.60760091286876
C        92.55921925286150    1.18702148392270   -0.52205840073620
N        91.43310683463365    1.62127856167255   -0.01317773236211