      -----------------------------------------------------------      
     |                   =====================                   |     
     |                           x T B                           |     
     |                   =====================                   |     
     |                         S. Grimme                         |     
     |          Mulliken Center for Theoretical Chemistry        |     
     |                    University of Bonn                     |     
      -----------------------------------------------------------      

   * xtb version 6.4.1 (bd6e46d) compiled by 'conda@4901f00b25ba' on 2021-06-10

   xtb is free software: you can redistribute it and/or modify it under
   the terms of the GNU Lesser General Public License as published by
   the Free Software Foundation, either version 3 of the License, or
   (at your option) any later version.
   
   xtb is distributed in the hope that it will be useful,
   but WITHOUT ANY WARRANTY; without even the implied warranty of
   MERCHANTABILITY or FITNESS FOR A PARTICULAR PURPOSE.  See the
   GNU Lesser General Public License for more details.
   
   Cite this work as:
   * C. Bannwarth, E. Caldeweyher, S. Ehlert, A. Hansen, P. Pracht,
     J. Seibert, S. Spicher, S. Grimme, WIREs Comput. Mol. Sci., 2020, 11,
     e01493. DOI: 10.1002/wcms.1493
   
   for GFN2-xTB:
   * C. Bannwarth, S. Ehlert and S. Grimme., J. Chem. Theory Comput., 2019,
     15, 1652-1671. DOI: 10.1021/acs.jctc.8b01176
   for GFN1-xTB:
   * S. Grimme, C. Bannwarth, P. Shushkov, J. Chem. Theory Comput., 2017,
     13, 1989-2009. DOI: 10.1021/acs.jctc.7b00118
   for GFN0-xTB:
   * P. Pracht, E. Caldeweyher, S. Ehlert, S. Grimme, ChemRxiv, 2019, preprint.
     DOI: 10.26434/chemrxiv.8326202.v1
   for GFN-FF:
   * S. Spicher and S. Grimme, Angew. Chem. Int. Ed., 2020, 59, 15665-15673.
     DOI: 10.1002/anie.202004239
   
   for DFT-D4:
   * E. Caldeweyher, C. Bannwarth and S. Grimme, J. Chem. Phys., 2017,
     147, 034112. DOI: 10.1063/1.4993215
   * E. Caldeweyher, S. Ehlert, A. Hansen, H. Neugebauer, S. Spicher,
     C. Bannwarth and S. Grimme, J. Chem. Phys., 2019, 150, 154122.
     DOI: 10.1063/1.5090222
   * E. Caldeweyher, J.-M. Mewes, S. Ehlert and S. Grimme, Phys. Chem. Chem. Phys.
     2020, 22, 8499-8512. DOI: 10.1039/D0CP00502A
   
   for sTDA-xTB:
   * S. Grimme and C. Bannwarth, J. Chem. Phys., 2016, 145, 054103.
     DOI: 10.1063/1.4959605
   
   in the mass-spec context:
   * V. Asgeirsson, C. Bauer and S. Grimme, Chem. Sci., 2017, 8, 4879.
     DOI: 10.1039/c7sc00601b
   * J. Koopman and S. Grimme, ACS Omega 2019, 4, 12, 15120-15133.
     DOI: 10.1021/acsomega.9b02011
   
   for metadynamics refer to:
   * S. Grimme, J. Chem. Theory Comput., 2019, 155, 2847-2862
     DOI: 10.1021/acs.jctc.9b00143
   
   for SPH calculations refer to:
   * S. Spicher and S. Grimme, J. Chem. Theory Comput., 2021, 17, 1701-1714
     DOI: 10.1021/acs.jctc.0c01306
   
   with help from (in alphabetical order)
   P. Atkinson, C. Bannwarth, F. Bohle, G. Brandenburg, E. Caldeweyher
   M. Checinski, S. Dohm, S. Ehlert, S. Ehrlich, I. Gerasimov, J. Koopman
   C. Lavigne, S. Lehtola, F. März, M. Müller, F. Musil, H. Neugebauer
   J. Pisarek, C. Plett, P. Pracht, J. Seibert, P. Shushkov, S. Spicher
   M. Stahn, M. Steiner, T. Strunk, J. Stückrath, T. Rose, and J. Unsleber
   
 * started run on 2021/11/21 at 14:42:24.582     

           -------------------------------------------------
          |                Calculation Setup                |
           -------------------------------------------------

          program call               : /home/jeff/miniconda3/bin/xtb input_structure_1.xyz --gfn 2 --ohess normal --parallel 1 --etemp 300 --chrg 0 --uhf 0 -I det_control.in
          hostname                   : jelfscompute1
          coordinate file            : input_structure_1.xyz
          omp threads                :                     1
          number of atoms            :                   310
          number of electrons        :                  1074
          charge                     :                     0
          spin                       :                   0.0
          first test random number   :      0.64992507369760

   ID    Z sym.   atoms
    1   28 Ni     1, 37, 101, 136, 171, 206, 241, 276
    2    6 C      2-9, 11-15, 17-21, 23, 24, 38-45, 47-51, 53-57, 59, 60,
                  73-100, 102-109, 111-115, 117-121, 123, 124, 137-144,
                  146-150, 152-156, 158, 159, 172-179, 181-185, 187-191, 193,
                  194, 207-214, 216-220, 222-226, 228, 229, 242-249, 251-255,
                  257-261, 263, 264, 277-284, 286-290, 292-296, 298, 299
    3    7 N      10, 16, 22, 25, 46, 52, 58, 61, 110, 116, 122, 125, 145,
                  151, 157, 160, 180, 186, 192, 195, 215, 221, 227, 230, 250,
                  256, 262, 265, 285, 291, 297, 300
    4    1 H      26-36, 62-72, 126-135, 161-170, 196-205, 231-240, 266-275,
                  301-310

molecular fragmentation (1/2 indicates fragments):
111111111111111111111111111111111111222222222222222222222222222222222222
222222222222222222222222222222222222222222222222222222222222222222222222
222222222222222222222222222222222222222222222222222222222222222222222222
222222222222222222222222222222222222222222222222222222222222222222222222
2222222222222222222222
# atoms in fragment 1/2:    36   274
 fragment masses (1/2) :      366.02     2892.41
CMA distance (Bohr)    : 102.893
constraining FC (au)   :  0.0500

           -------------------------------------------------
          |                 G F N 2 - x T B                 |
           -------------------------------------------------

        Reference                      10.1021/acs.jctc.8b01176
      * Hamiltonian:
        H0-scaling (s, p, d)           1.850000    2.230000    2.230000
        zeta-weighting                 0.500000
      * Dispersion:
        s8                             2.700000
        a1                             0.520000
        a2                             5.000000
        s9                             5.000000
      * Repulsion:
        kExp                           1.500000    1.000000
        rExp                           1.000000
      * Coulomb:
        alpha                          2.000000
        third order                    shell-resolved
        anisotropic                    true
        a3                             3.000000
        a5                             4.000000
        cn-shift                       1.200000
        cn-exp                         4.000000
        max-rad                        5.000000


          ...................................................
          :                      SETUP                      :
          :.................................................:
          :  # basis functions                1042          :
          :  # atomic orbitals                1034          :
          :  # shells                          546          :
          :  # electrons                      1074          :
          :  max. iterations                   250          :
          :  Hamiltonian                  GFN2-xTB          :
          :  restarted?                      false          :
          :  GBSA solvation                  false          :
          :  PC potential                    false          :
          :  electronic temp.          300.0000000     K    :
          :  accuracy                    1.0000000          :
          :  -> integral cutoff          0.2500000E+02      :
          :  -> integral neglect         0.1000000E-07      :
          :  -> SCF convergence          0.1000000E-05 Eh   :
          :  -> wf. convergence          0.1000000E-03 e    :
          :  Broyden damping             0.4000000          :
          ...................................................

 iter      E             dE          RMSdq      gap      omega  full diag
   1   -583.1347526 -0.583135E+03  0.903E+00    0.73       0.0  T
   2   -574.1436346  0.899112E+01  0.615E+00    0.03       1.0  T
   3   -258.4263380  0.315717E+03  0.143E+01    0.01       1.0  T
   4    -85.1725515  0.173254E+03  0.156E+01    0.02       1.0  T
   5   -433.9348922 -0.348762E+03  0.916E+00    0.02       1.0  T
   6   -471.9009271 -0.379660E+02  0.706E+00    0.03       1.0  T
   7   -154.0441016  0.317857E+03  0.130E+01    0.04       1.0  T
   8   -416.7008404 -0.262657E+03  0.810E+00    0.02       1.0  T
   9   -463.4231400 -0.467223E+02  0.742E+00    0.03       1.0  T
  10   -554.2555411 -0.908324E+02  0.531E+00    0.00       1.0  T
  11   -569.2971575 -0.150416E+02  0.560E+00    0.02       1.0  T
  12   -581.1134609 -0.118163E+02  0.303E+00    0.04       1.0  T
  13   -565.5661771  0.155473E+02  0.537E+00    0.01       1.0  T
  14   -554.9740449  0.105921E+02  0.537E+00    0.06       1.0  T
  15   -565.4601516 -0.104861E+02  0.449E+00    0.01       1.0  T
  16   -574.1998168 -0.873967E+01  0.397E+00    0.01       1.0  T
  17   -570.7177261  0.348209E+01  0.460E+00    0.04       1.0  T
  18   -570.6852763  0.324498E-01  0.443E+00    0.02       1.0  T
  19   -570.5043368  0.180939E+00  0.444E+00    0.01       1.0  T
  20   -579.5910468 -0.908671E+01  0.231E+00    0.02       1.0  T
  21   -582.3179251 -0.272688E+01  0.273E+00    0.01       1.0  T
  22   -584.0414769 -0.172355E+01  0.195E+00    0.02       1.0  T
  23   -577.9406353  0.610084E+01  0.424E+00    0.03       1.0  T
  24   -577.9230180  0.176173E-01  0.424E+00    0.03       1.0  T
  25   -577.9148324  0.818563E-02  0.425E+00    0.02       1.0  T
  26   -579.3091714 -0.139434E+01  0.378E+00    0.02       1.0  T
  27   -577.9265773  0.138259E+01  0.414E+00    0.10       1.0  T
  28   -577.2488801  0.677697E+00  0.431E+00    0.14       1.0  T
  29   -577.3219631 -0.730830E-01  0.429E+00    0.15       1.0  T
  30   -574.2352579  0.308671E+01  0.506E+00    0.02       1.0  T
  31   -572.4369563  0.179830E+01  0.533E+00    0.01       1.0  T
  32   -572.4512243 -0.142680E-01  0.531E+00    0.00       1.0  T
  33   -571.7519168  0.699307E+00  0.539E+00    0.01       1.0  T
  34   -572.4960999 -0.744183E+00  0.520E+00    0.02       1.0  T
  35   -572.2813898  0.214710E+00  0.528E+00    0.02       1.0  T
  36   -571.5599385  0.721451E+00  0.540E+00    0.05       1.0  T
  37   -571.4923894  0.675491E-01  0.538E+00    0.04       1.0  T
  38   -571.4500587  0.423307E-01  0.526E+00    0.02       1.0  T
  39   -571.4779684 -0.279097E-01  0.526E+00    0.02       1.0  T
  40   -571.4673400  0.106285E-01  0.526E+00    0.02       1.0  T
  41   -573.1459178 -0.167858E+01  0.498E+00    0.02       1.0  T
  42   -572.5387313  0.607187E+00  0.506E+00    0.00       1.0  T
  43   -573.4620796 -0.923348E+00  0.491E+00    0.01       1.0  T
  44   -565.2414649  0.822061E+01  0.612E+00    0.01       1.0  T
  45   -565.2209743  0.204906E-01  0.613E+00    0.02       1.0  T
  46   -565.2228790 -0.190475E-02  0.609E+00    0.01       1.0  T
  47   -564.2251498  0.997729E+00  0.618E+00    0.01       1.0  T
  48   -563.5765413  0.648609E+00  0.626E+00    0.03       1.0  T
  49   -561.0928887  0.248365E+01  0.662E+00    0.15       1.0  T
  50   -559.0781770  0.201471E+01  0.684E+00    0.04       1.0  T
  51   -559.1017835 -0.236065E-01  0.684E+00    0.04       1.0  T
  52   -559.0033170  0.984665E-01  0.683E+00    0.04       1.0  T
  53   -559.0579470 -0.546300E-01  0.682E+00    0.04       1.0  T
  54   -555.6881806  0.336977E+01  0.709E+00    0.02       1.0  T
  55   -555.5562946  0.131886E+00  0.718E+00    0.00       1.0  T
  56   -555.3305774  0.225717E+00  0.721E+00    0.01       1.0  T
  57   -556.6129323 -0.128235E+01  0.715E+00    0.00       1.0  T
  58   -556.2598142  0.353118E+00  0.719E+00    0.01       1.0  T
  59   -550.2844549  0.597536E+01  0.761E+00    0.12       1.0  T
  60   -550.5027577 -0.218303E+00  0.744E+00    0.00       1.0  T
  61   -550.5793551 -0.765974E-01  0.729E+00    0.04       1.0  T
  62   -550.3900061  0.189349E+00  0.642E+00    0.01       1.0  T
  63   -549.5371977  0.852808E+00  0.648E+00    0.02       1.0  T
  64   -549.7083290 -0.171131E+00  0.645E+00    0.02       1.0  T
  65   -550.0077309 -0.299402E+00  0.641E+00    0.00       1.0  T
  66   -551.2910026 -0.128327E+01  0.627E+00    0.01       1.0  T
  67   -553.0765108 -0.178551E+01  0.648E+00    0.02       1.0  T
  68   -553.9669207 -0.890410E+00  0.587E+00    0.07       1.0  T
  69   -555.2417803 -0.127486E+01  0.574E+00    0.10       1.0  T
  70   -555.7697059 -0.527926E+00  0.568E+00    0.08       1.0  T
  71   -555.7798047 -0.100988E-01  0.567E+00    0.08       1.0  T
  72   -556.6780869 -0.898282E+00  0.563E+00    0.03       1.0  T
  73   -556.8004348 -0.122348E+00  0.566E+00    0.06       1.0  T
  74   -557.1025472 -0.302112E+00  0.562E+00    0.05       1.0  T
  75   -558.7386919 -0.163614E+01  0.552E+00    0.00       1.0  T
  76   -557.1777733  0.156092E+01  0.554E+00    0.04       1.0  T
  77   -564.9165079 -0.773873E+01  0.532E+00    0.02       1.0  T
  78   -562.3969618  0.251955E+01  0.537E+00    0.01       1.0  T
  79   -561.3705985  0.102636E+01  0.528E+00    0.01       1.0  T
  80   -560.4900573  0.880541E+00  0.529E+00    0.01       1.0  T
  81   -559.9826933  0.507364E+00  0.527E+00    0.02       1.0  T
  82   -559.9681712  0.145221E-01  0.527E+00    0.03       1.0  T
  83   -558.6229327  0.134524E+01  0.530E+00    0.02       1.0  T
  84   -561.6272712 -0.300434E+01  0.512E+00    0.05       1.0  T
  85   -561.3378305  0.289441E+00  0.515E+00    0.03       1.0  T
  86   -561.3454732 -0.764270E-02  0.515E+00    0.04       1.0  T
  87   -566.3539927 -0.500852E+01  0.433E+00    0.02       1.0  T
  88   -567.0515703 -0.697578E+00  0.468E+00    0.03       1.0  T
  89   -567.8357642 -0.784194E+00  0.458E+00    0.03       1.0  T
  90   -569.4135308 -0.157777E+01  0.422E+00    0.00       1.0  T
  91   -569.4219660 -0.843514E-02  0.422E+00    0.02       1.0  T
  92   -569.4272980 -0.533206E-02  0.423E+00    0.02       1.0  T
  93   -569.3971373  0.301607E-01  0.413E+00    0.00       1.0  T
  94   -567.9110450  0.148609E+01  0.441E+00    0.02       1.0  T
  95   -566.1749586  0.173609E+01  0.479E+00    0.00       1.0  T
  96   -567.4600412 -0.128508E+01  0.425E+00    0.02       1.0  T
  97   -571.3189456 -0.385890E+01  0.374E+00    0.00       1.0  T
  98   -568.7859159  0.253303E+01  0.427E+00    0.02       1.0  T
  99   -567.5915810  0.119433E+01  0.440E+00    0.00       1.0  T
 100   -567.4769994  0.114582E+00  0.436E+00    0.00       1.0  T
 101   -567.8894664 -0.412467E+00  0.435E+00    0.02       1.0  T
 102   -571.2152044 -0.332574E+01  0.376E+00    0.00       1.0  T
 103   -576.3403056 -0.512510E+01  0.298E+00    0.02       1.0  T
 104   -577.0800696 -0.739764E+00  0.281E+00    0.01       1.0  T
 105   -576.8973918  0.182678E+00  0.301E+00    0.01       1.0  T
 106   -576.8244602  0.729316E-01  0.290E+00    0.04       1.0  T
 107   -578.3133965 -0.148894E+01  0.250E+00    0.04       1.0  T
 108   -578.9815236 -0.668127E+00  0.229E+00    0.02       1.0  T
 109   -581.2846080 -0.230308E+01  0.181E+00    0.02       1.0  T
 110   -581.2752304  0.937755E-02  0.176E+00    0.02       1.0  T
 111   -581.8566718 -0.581441E+00  0.174E+00    0.02       1.0  T
 112   -581.6799969  0.176675E+00  0.180E+00    0.03       1.0  T
 113   -581.8112164 -0.131219E+00  0.188E+00    0.06       1.0  T
 114   -581.3704461  0.440770E+00  0.227E+00    0.02       1.0  T
 115   -580.7062189  0.664227E+00  0.282E+00    0.02       1.0  T
 116   -580.2520783  0.454141E+00  0.298E+00    0.02       1.0  T
 117   -580.1020739  0.150004E+00  0.309E+00    0.03       1.0  T
 118   -578.4861782  0.161590E+01  0.354E+00    0.02       1.0  T
 119   -578.4316988  0.544794E-01  0.388E+00    0.03       1.0  T
 120   -578.3865589  0.451399E-01  0.390E+00    0.03       1.0  T
 121   -578.2358610  0.150698E+00  0.386E+00    0.01       1.0  T
 122   -577.9832413  0.252620E+00  0.385E+00    0.01       1.0  T
 123   -578.0726335 -0.893922E-01  0.384E+00    0.01       1.0  T
 124   -578.0834889 -0.108554E-01  0.382E+00    0.01       1.0  T
 125   -577.8482436  0.235245E+00  0.391E+00    0.00       1.0  T
 126   -577.8309427  0.173009E-01  0.391E+00    0.00       1.0  T
 127   -577.6280891  0.202854E+00  0.396E+00    0.01       1.0  T
 128   -579.0500357 -0.142195E+01  0.348E+00    0.03       1.0  T
 129   -577.5887236  0.146131E+01  0.387E+00    0.05       1.0  T
 130   -579.0822084 -0.149348E+01  0.346E+00    0.02       1.0  T
 131   -577.7317797  0.135043E+01  0.386E+00    0.03       1.0  T
 132   -577.4457806  0.285999E+00  0.394E+00    0.03       1.0  T
 133   -576.3389924  0.110679E+01  0.416E+00    0.05       1.0  T
 134   -576.0266471  0.312345E+00  0.422E+00    0.03       1.0  T
 135   -576.8356704 -0.809023E+00  0.421E+00    0.04       1.0  T
 136   -577.2068516 -0.371181E+00  0.412E+00    0.01       1.0  T
 137   -577.0800274  0.126824E+00  0.416E+00    0.00       1.0  T
 138   -577.1849054 -0.104878E+00  0.419E+00    0.01       1.0  T
 139   -577.4176548 -0.232749E+00  0.415E+00    0.05       1.0  T
 140   -577.1347181  0.282937E+00  0.422E+00    0.03       1.0  T
 141   -577.9410303 -0.806312E+00  0.400E+00    0.04       1.0  T
 142   -578.5910614 -0.650031E+00  0.379E+00    0.04       1.0  T
 143   -577.9455949  0.645466E+00  0.393E+00    0.01       1.0  T
 144   -577.3426494  0.602945E+00  0.411E+00    0.01       1.0  T
 145   -577.3437605 -0.111108E-02  0.411E+00    0.01       1.0  T
 146   -576.8975475  0.446213E+00  0.424E+00    0.01       1.0  T
 147   -576.6664501  0.231097E+00  0.429E+00    0.02       1.0  T
 148   -576.7539728 -0.875227E-01  0.426E+00    0.02       1.0  T
 149   -576.6895891  0.643837E-01  0.423E+00    0.01       1.0  T
 150   -579.8630736 -0.317348E+01  0.331E+00    0.04       1.0  T
 151   -578.5839546  0.127912E+01  0.373E+00    0.01       1.0  T
 152   -580.5233389 -0.193938E+01  0.301E+00    0.01       1.0  T
 153   -581.5959049 -0.107257E+01  0.258E+00    0.00       1.0  T
 154   -580.5784790  0.101743E+01  0.290E+00    0.05       1.0  T
 155   -581.7877680 -0.120929E+01  0.244E+00    0.02       1.0  T
 156   -581.8555661 -0.677981E-01  0.242E+00    0.02       1.0  T
 157   -582.0863781 -0.230812E+00  0.233E+00    0.03       1.0  T
 158   -582.2252784 -0.138900E+00  0.227E+00    0.03       1.0  T
 159   -582.0288219  0.196456E+00  0.235E+00    0.01       1.0  T
 160   -582.3931680 -0.364346E+00  0.218E+00    0.01       1.0  T
 161   -583.0278500 -0.634682E+00  0.205E+00    0.01       1.0  T
 162   -583.0612203 -0.333703E-01  0.204E+00    0.02       1.0  T
 163   -583.0794266 -0.182064E-01  0.201E+00    0.01       1.0  T
 164   -583.2000869 -0.120660E+00  0.194E+00    0.00       1.0  T
 165   -583.1261972  0.738897E-01  0.201E+00    0.01       1.0  T
 166   -583.1305491 -0.435191E-02  0.201E+00    0.01       1.0  T
 167   -582.8128579  0.317691E+00  0.202E+00    0.00       1.0  T
 168   -583.1184734 -0.305616E+00  0.195E+00    0.00       1.0  T
 169   -583.0540024  0.644711E-01  0.233E+00    0.02       1.0  T
 170   -583.0322597  0.217427E-01  0.235E+00    0.02       1.0  T
 171   -582.6151015  0.417158E+00  0.264E+00    0.01       1.0  T
 172   -582.5999318  0.151698E-01  0.265E+00    0.01       1.0  T
 173   -582.7390942 -0.139162E+00  0.257E+00    0.01       1.0  T
 174   -582.4906836  0.248411E+00  0.267E+00    0.01       1.0  T
 175   -582.5819785 -0.912949E-01  0.263E+00    0.01       1.0  T
 176   -582.3237193  0.258259E+00  0.268E+00    0.02       1.0  T
 177   -582.4287312 -0.105012E+00  0.259E+00    0.01       1.0  T
 178   -582.0533507  0.375381E+00  0.290E+00    0.02       1.0  T
 179   -579.8089949  0.224436E+01  0.367E+00    0.01       1.0  T
 180   -581.8245861 -0.201559E+01  0.310E+00    0.03       1.0  T
 181   -581.9768241 -0.152238E+00  0.295E+00    0.01       1.0  T
 182   -582.1755500 -0.198726E+00  0.286E+00    0.00       1.0  T
 183   -582.3342351 -0.158685E+00  0.281E+00    0.00       1.0  T
 184   -582.2663691  0.678660E-01  0.286E+00    0.00       1.0  T
 185   -582.8774521 -0.611083E+00  0.263E+00    0.00       1.0  T
 186   -583.0793863 -0.201934E+00  0.243E+00    0.01       1.0  T
 187   -583.4626215 -0.383235E+00  0.228E+00    0.02       1.0  T
 188   -583.6118512 -0.149230E+00  0.216E+00    0.03       1.0  T
 189   -583.7369423 -0.125091E+00  0.205E+00    0.01       1.0  T
 190   -583.8597296 -0.122787E+00  0.194E+00    0.01       1.0  T
 191   -583.9669135 -0.107184E+00  0.179E+00    0.01       1.0  T
 192   -584.0729289 -0.106015E+00  0.168E+00    0.01       1.0  T
 193   -583.9495527  0.123376E+00  0.183E+00    0.01       1.0  T
 194   -583.7847452  0.164808E+00  0.198E+00    0.05       1.0  T
 195   -583.8767318 -0.919866E-01  0.190E+00    0.04       1.0  T
 196   -583.8535778  0.231540E-01  0.189E+00    0.05       1.0  T
 197   -583.7655255  0.880523E-01  0.190E+00    0.05       1.0  T
 198   -583.7694192 -0.389376E-02  0.191E+00    0.05       1.0  T
 199   -583.7617850  0.763425E-02  0.190E+00    0.05       1.0  T
 200   -583.7723982 -0.106132E-01  0.188E+00    0.05       1.0  T
 201   -583.8660236 -0.936253E-01  0.181E+00    0.04       1.0  T
 202   -583.4372519  0.428772E+00  0.213E+00    0.04       1.0  T
 203   -583.7115352 -0.274283E+00  0.194E+00    0.05       1.0  T
 204   -583.3952842  0.316251E+00  0.216E+00    0.05       1.0  T
 205   -583.7930375 -0.397753E+00  0.189E+00    0.06       1.0  T
 206   -583.1931784  0.599859E+00  0.219E+00    0.02       1.0  T
 207   -583.5997565 -0.406578E+00  0.197E+00    0.01       1.0  T
 208   -583.8716934 -0.271937E+00  0.176E+00    0.00       1.0  T
 209   -584.1305397 -0.258846E+00  0.153E+00    0.00       1.0  T
 210   -584.4164016 -0.285862E+00  0.129E+00    0.01       1.0  T
 211   -584.0155110  0.400891E+00  0.159E+00    0.04       1.0  T
 212   -584.0498534 -0.343424E-01  0.157E+00    0.04       1.0  T
 213   -583.9800646  0.697888E-01  0.161E+00    0.04       1.0  T
 214   -583.9113299  0.687347E-01  0.169E+00    0.01       1.0  T
 215   -583.7752195  0.136110E+00  0.175E+00    0.03       1.0  T
 216   -583.7708119  0.440760E-02  0.175E+00    0.03       1.0  T
 217   -583.8072122 -0.364003E-01  0.172E+00    0.03       1.0  T
 218   -583.7253948  0.818175E-01  0.177E+00    0.03       1.0  T
 219   -584.0889431 -0.363548E+00  0.149E+00    0.03       1.0  T
 220   -584.3312672 -0.242324E+00  0.126E+00    0.02       1.0  T
 221   -584.1633397  0.167927E+00  0.133E+00    0.04       1.0  T
 222   -584.2631124 -0.997727E-01  0.124E+00    0.03       1.0  T
 223   -584.2571874  0.592499E-02  0.123E+00    0.03       1.0  T
 224   -584.2524346  0.475285E-02  0.124E+00    0.03       1.0  T
 225   -584.4731447 -0.220710E+00  0.108E+00    0.00       1.0  T
 226   -584.2758018  0.197343E+00  0.123E+00    0.01       1.0  T
 227   -583.9183403  0.357461E+00  0.149E+00    0.04       1.0  T
 228   -583.9176726  0.667697E-03  0.149E+00    0.04       1.0  T
 229   -584.2225196 -0.304847E+00  0.126E+00    0.04       1.0  T
 230   -584.5403062 -0.317787E+00  0.944E-01    0.00       1.0  T
 231   -584.1786655  0.361641E+00  0.124E+00    0.03       1.0  T
 232   -584.1636351  0.150304E-01  0.125E+00    0.03       1.0  T
 233   -584.1527114  0.109237E-01  0.124E+00    0.03       1.0  T
 234   -584.1612156 -0.850422E-02  0.124E+00    0.03       1.0  T
 235   -584.0706324  0.905832E-01  0.129E+00    0.03       1.0  T
 236   -584.1871582 -0.116526E+00  0.121E+00    0.04       1.0  T
 237   -584.3563107 -0.169152E+00  0.106E+00    0.04       1.0  T
 238   -584.1999093  0.156401E+00  0.119E+00    0.03       1.0  T
 239   -584.3752160 -0.175307E+00  0.105E+00    0.03       1.0  T
 240   -584.4055011 -0.302852E-01  0.102E+00    0.03       1.0  T
 241   -584.4919090 -0.864079E-01  0.953E-01    0.02       1.0  T
 242   -584.4674826  0.244265E-01  0.978E-01    0.02       1.0  T
 243   -584.4630175  0.446508E-02  0.982E-01    0.02       1.0  T
 244   -584.4598157  0.320179E-02  0.985E-01    0.02       1.0  T
 245   -584.4550685  0.474719E-02  0.993E-01    0.02       1.0  T
 246   -584.3506818  0.104387E+00  0.110E+00    0.04       1.0  T
 247   -584.3669429 -0.162611E-01  0.107E+00    0.04       1.0  T
 248   -584.3603970  0.654586E-02  0.108E+00    0.04       1.0  T
 249   -584.3599522  0.444798E-03  0.108E+00    0.04       1.0  T
 250   -584.3639243 -0.397205E-02  0.107E+00    0.04       1.0  T

   *** convergence criteria cannot be satisfied within 250 iterations ***

         #    Occupation            Energy/Eh            Energy/eV
      -------------------------------------------------------------
         1        2.0000           -0.6934883             -18.8708
       ...           ...                  ...                  ...
       531        1.9922           -0.3482596              -9.4766
       532        1.9853           -0.3476579              -9.4603
       533        1.9806           -0.3473904              -9.4530
       534        1.9496           -0.3464673              -9.4279
       535        1.8455           -0.3453512              -9.3975
       536        1.4848           -0.3440005              -9.3607
       537        1.4485           -0.3439122              -9.3583 (HOMO)
       538        0.7985           -0.3426067              -9.3228 (LUMO)
       539        0.4653           -0.3418611              -9.3025
       540        0.0385           -0.3392612              -9.2318
       541        0.0104           -0.3380057              -9.1976
       542        0.0087           -0.3378381              -9.1930
       ...           ...                  ...                  ...
      1034                          1.6157936              43.9680
      -------------------------------------------------------------
                  HL-Gap            0.0013055 Eh            0.0355 eV
             Fermi-level           -0.3429949 Eh           -9.3334 eV

 SCC (total)                   0 d,  0 h,  1 min, 35.465 sec
 SCC setup                      ...        0 min,  0.018 sec (  0.018%)
 Dispersion                     ...        0 min,  0.034 sec (  0.036%)
 classical contributions        ...        0 min,  0.003 sec (  0.003%)
 integral evaluation            ...        0 min,  0.271 sec (  0.284%)
 iterations                     ...        1 min, 34.444 sec ( 98.931%)
 molecular gradient             ...        0 min,  0.640 sec (  0.670%)
 printout                       ...        0 min,  0.055 sec (  0.057%)

########################################################################
[ERROR] Program stopped due to fatal error
-3- Single point calculation terminated
-2- xtb_calculator_singlepoint: Electronic structure method terminated
-1- scf: Self consistent charge iterator did not converge
########################################################################
