      -----------------------------------------------------------      
     |                   =====================                   |     
     |                           x T B                           |     
     |                   =====================                   |     
     |                         S. Grimme                         |     
     |          Mulliken Center for Theoretical Chemistry        |     
     |                    University of Bonn                     |     
      -----------------------------------------------------------      

   * xtb version 6.4.1 (bd6e46d) compiled by 'conda@4901f00b25ba' on 2021-06-10

   xtb is free software: you can redistribute it and/or modify it under
   the terms of the GNU Lesser General Public License as published by
   the Free Software Foundation, either version 3 of the License, or
   (at your option) any later version.
   
   xtb is distributed in the hope that it will be useful,
   but WITHOUT ANY WARRANTY; without even the implied warranty of
   MERCHANTABILITY or FITNESS FOR A PARTICULAR PURPOSE.  See the
   GNU Lesser General Public License for more details.
   
   Cite this work as:
   * C. Bannwarth, E. Caldeweyher, S. Ehlert, A. Hansen, P. Pracht,
     J. Seibert, S. Spicher, S. Grimme, WIREs Comput. Mol. Sci., 2020, 11,
     e01493. DOI: 10.1002/wcms.1493
   
   for GFN2-xTB:
   * C. Bannwarth, S. Ehlert and S. Grimme., J. Chem. Theory Comput., 2019,
     15, 1652-1671. DOI: 10.1021/acs.jctc.8b01176
   for GFN1-xTB:
   * S. Grimme, C. Bannwarth, P. Shushkov, J. Chem. Theory Comput., 2017,
     13, 1989-2009. DOI: 10.1021/acs.jctc.7b00118
   for GFN0-xTB:
   * P. Pracht, E. Caldeweyher, S. Ehlert, S. Grimme, ChemRxiv, 2019, preprint.
     DOI: 10.26434/chemrxiv.8326202.v1
   for GFN-FF:
   * S. Spicher and S. Grimme, Angew. Chem. Int. Ed., 2020, 59, 15665-15673.
     DOI: 10.1002/anie.202004239
   
   for DFT-D4:
   * E. Caldeweyher, C. Bannwarth and S. Grimme, J. Chem. Phys., 2017,
     147, 034112. DOI: 10.1063/1.4993215
   * E. Caldeweyher, S. Ehlert, A. Hansen, H. Neugebauer, S. Spicher,
     C. Bannwarth and S. Grimme, J. Chem. Phys., 2019, 150, 154122.
     DOI: 10.1063/1.5090222
   * E. Caldeweyher, J.-M. Mewes, S. Ehlert and S. Grimme, Phys. Chem. Chem. Phys.
     2020, 22, 8499-8512. DOI: 10.1039/D0CP00502A
   
   for sTDA-xTB:
   * S. Grimme and C. Bannwarth, J. Chem. Phys., 2016, 145, 054103.
     DOI: 10.1063/1.4959605
   
   in the mass-spec context:
   * V. Asgeirsson, C. Bauer and S. Grimme, Chem. Sci., 2017, 8, 4879.
     DOI: 10.1039/c7sc00601b
   * J. Koopman and S. Grimme, ACS Omega 2019, 4, 12, 15120-15133.
     DOI: 10.1021/acsomega.9b02011
   
   for metadynamics refer to:
   * S. Grimme, J. Chem. Theory Comput., 2019, 155, 2847-2862
     DOI: 10.1021/acs.jctc.9b00143
   
   for SPH calculations refer to:
   * S. Spicher and S. Grimme, J. Chem. Theory Comput., 2021, 17, 1701-1714
     DOI: 10.1021/acs.jctc.0c01306
   
   with help from (in alphabetical order)
   P. Atkinson, C. Bannwarth, F. Bohle, G. Brandenburg, E. Caldeweyher
   M. Checinski, S. Dohm, S. Ehlert, S. Ehrlich, I. Gerasimov, J. Koopman
   C. Lavigne, S. Lehtola, F. März, M. Müller, F. Musil, H. Neugebauer
   J. Pisarek, C. Plett, P. Pracht, J. Seibert, P. Shushkov, S. Spicher
   M. Stahn, M. Steiner, T. Strunk, J. Stückrath, T. Rose, and J. Unsleber
   
 * started run on 2021/11/21 at 21:09:29.200     

           -------------------------------------------------
          |                Calculation Setup                |
           -------------------------------------------------

          program call               : /home/jeff/miniconda3/bin/xtb /home/jeff/chem/final-year-proejct/Zn+2_2_3_outenergy/input_structure.xyz --gfn 2 --parallel 1 --etemp 300 --chrg 0 --uhf 0 -I det_control.in
          coordinate file            : /home/jeff/chem/final-year-proejct/Zn+2_2_3_outenergy/input_structure.xyz
          omp threads                :                     1
          number of atoms            :                   111
          number of electrons        :                   354
          charge                     :                     0
          spin                       :                   0.0
          first test random number   :      0.63659348638152

   ID    Z sym.   atoms
    1   30 Zn     1, 37, 77
    2    6 C      2-9, 11-15, 17-21, 23, 24, 38-45, 47-51, 53-57, 59, 60,
                  73-76, 78-85, 87-91, 93-97, 99, 100
    3    7 N      10, 16, 22, 25, 46, 52, 58, 61, 86, 92, 98, 101
    4    1 H      26-36, 62-72, 102-111

           -------------------------------------------------
          |                 G F N 2 - x T B                 |
           -------------------------------------------------

        Reference                      10.1021/acs.jctc.8b01176
      * Hamiltonian:
        H0-scaling (s, p, d)           1.850000    2.230000    2.230000
        zeta-weighting                 0.500000
      * Dispersion:
        s8                             2.700000
        a1                             0.520000
        a2                             5.000000
        s9                             5.000000
      * Repulsion:
        kExp                           1.500000    1.000000
        rExp                           1.000000
      * Coulomb:
        alpha                          2.000000
        third order                    shell-resolved
        anisotropic                    true
        a3                             3.000000
        a5                             4.000000
        cn-shift                       1.200000
        cn-exp                         4.000000
        max-rad                        5.000000


          ...................................................
          :                      SETUP                      :
          :.................................................:
          :  # basis functions                 348          :
          :  # atomic orbitals                 348          :
          :  # shells                          190          :
          :  # electrons                       354          :
          :  max. iterations                   250          :
          :  Hamiltonian                  GFN2-xTB          :
          :  restarted?                      false          :
          :  GBSA solvation                  false          :
          :  PC potential                    false          :
          :  electronic temp.          300.0000000     K    :
          :  accuracy                    1.0000000          :
          :  -> integral cutoff          0.2500000E+02      :
          :  -> integral neglect         0.1000000E-07      :
          :  -> SCF convergence          0.1000000E-05 Eh   :
          :  -> wf. convergence          0.1000000E-03 e    :
          :  Broyden damping             0.4000000          :
          ...................................................

 iter      E             dE          RMSdq      gap      omega  full diag
   1   -192.9297586 -0.192930E+03  0.614E+00    1.11       0.0  T
   2   -193.3387616 -0.409003E+00  0.314E+00    1.02       1.0  T
   3   -193.3444545 -0.569298E-02  0.231E+00    1.14       1.0  T
   4   -193.6677638 -0.323309E+00  0.384E-01    1.05       1.0  T
   5   -193.6696325 -0.186870E-02  0.250E-01    1.08       1.0  T
   6   -193.6731506 -0.351815E-02  0.147E-01    1.08       1.0  T
   7   -193.6755145 -0.236382E-02  0.632E-02    1.07       1.0  T
   8   -193.6758706 -0.356127E-03  0.242E-02    1.07       1.0  T
   9   -193.6759099 -0.392644E-04  0.133E-02    1.07       1.0  T
  10   -193.6759248 -0.149787E-04  0.431E-03    1.07       2.2  T
  11   -193.6759257 -0.911950E-06  0.148E-03    1.07       6.4  T
  12   -193.6759258 -0.844200E-07  0.922E-04    1.07      10.3  T
  13   -193.6759259 -0.321153E-07  0.309E-04    1.07      30.7  T

   *** convergence criteria satisfied after 13 iterations ***

         #    Occupation            Energy/Eh            Energy/eV
      -------------------------------------------------------------
         1        2.0000           -0.6669955             -18.1499
       ...           ...                  ...                  ...
       171        2.0000           -0.3854854             -10.4896
       172        2.0000           -0.3711442             -10.0993
       173        2.0000           -0.3692781             -10.0486
       174        2.0000           -0.3684453             -10.0259
       175        2.0000           -0.3684412             -10.0258
       176        2.0000           -0.3614550              -9.8357
       177        2.0000           -0.3509602              -9.5501 (HOMO)
       178                         -0.3115869              -8.4787 (LUMO)
       179                         -0.3001519              -8.1675
       180                         -0.2985232              -8.1232
       181                         -0.2977728              -8.1028
       182                         -0.2977672              -8.1027
       ...                                ...                  ...
       348                          1.4082019              38.3191
      -------------------------------------------------------------
                  HL-Gap            0.0393733 Eh            1.0714 eV
             Fermi-level           -0.3312736 Eh           -9.0144 eV

 SCC (total)                   0 d,  0 h,  0 min,  0.538 sec
 SCC setup                      ...        0 min,  0.002 sec (  0.388%)
 Dispersion                     ...        0 min,  0.005 sec (  0.838%)
 classical contributions        ...        0 min,  0.001 sec (  0.149%)
 integral evaluation            ...        0 min,  0.043 sec (  8.004%)
 iterations                     ...        0 min,  0.331 sec ( 61.511%)
 molecular gradient             ...        0 min,  0.154 sec ( 28.614%)
 printout                       ...        0 min,  0.003 sec (  0.493%)

         :::::::::::::::::::::::::::::::::::::::::::::::::::::
         ::                     SUMMARY                     ::
         :::::::::::::::::::::::::::::::::::::::::::::::::::::
         :: total energy            -190.291820366204 Eh    ::
         :: gradient norm              0.000329219870 Eh/a0 ::
         :: HOMO-LUMO gap              1.071400977788 eV    ::
         ::.................................................::
         :: SCC energy              -193.675925861506 Eh    ::
         :: -> isotropic ES            0.195081584901 Eh    ::
         :: -> anisotropic ES          0.029143908522 Eh    ::
         :: -> anisotropic XC          0.097873197801 Eh    ::
         :: -> dispersion             -0.182239558417 Eh    ::
         :: repulsion energy           3.386769314115 Eh    ::
         :: add. restraining           0.000000000000 Eh    ::
         :: total charge              -0.000000000000 e     ::
         :::::::::::::::::::::::::::::::::::::::::::::::::::::

           -------------------------------------------------
          |                Property Printout                |
           -------------------------------------------------

    * Orbital Energies and Occupations

         #    Occupation            Energy/Eh            Energy/eV
      -------------------------------------------------------------
         1        2.0000           -0.6669955             -18.1499
       ...           ...                  ...                  ...
       165        2.0000           -0.4005859             -10.9005
       166        2.0000           -0.4001540             -10.8887
       167        2.0000           -0.3999570             -10.8834
       168        2.0000           -0.3967237             -10.7954
       169        2.0000           -0.3868791             -10.5275
       170        2.0000           -0.3854894             -10.4897
       171        2.0000           -0.3854854             -10.4896
       172        2.0000           -0.3711442             -10.0993
       173        2.0000           -0.3692781             -10.0486
       174        2.0000           -0.3684453             -10.0259
       175        2.0000           -0.3684412             -10.0258
       176        2.0000           -0.3614550              -9.8357
       177        2.0000           -0.3509602              -9.5501 (HOMO)
       178                         -0.3115869              -8.4787 (LUMO)
       179                         -0.3001519              -8.1675
       180                         -0.2985232              -8.1232
       181                         -0.2977728              -8.1028
       182                         -0.2977672              -8.1027
       183                         -0.2896273              -7.8812
       184                         -0.2653191              -7.2197
       185                         -0.2570605              -6.9950
       186                         -0.2525064              -6.8711
       187                         -0.1897771              -5.1641
       188                         -0.1888420              -5.1387
       ...                                ...                  ...
       348                          1.4082019              38.3191
      -------------------------------------------------------------
                  HL-Gap            0.0393733 Eh            1.0714 eV
             Fermi-level           -0.3312736 Eh           -9.0144 eV

     #   Z          covCN         q      C6AA      α(0)
     1  30 Zn       3.042     0.244   122.302    21.603
     2   6 C        3.020    -0.052    29.270     8.875
     3   6 C        3.018    -0.051    29.231     8.869
     4   6 C        3.164     0.077    25.966     8.328
     5   6 C        2.953     0.018    27.601     8.617
     6   6 C        3.164     0.077    25.968     8.329
     7   6 C        3.018    -0.051    29.233     8.869
     8   6 C        3.020    -0.052    29.271     8.875
     9   6 C        3.148     0.076    26.055     8.350
    10   7 N        2.632    -0.176    24.825     7.400
    11   6 C        2.901    -0.050    29.242     8.866
    12   6 C        3.145     0.077    26.041     8.349
    13   6 C        3.017    -0.051    29.246     8.871
    14   6 C        3.018    -0.051    29.249     8.871
    15   6 C        3.145     0.077    26.030     8.347
    16   7 N        2.634    -0.175    24.793     7.395
    17   6 C        2.901    -0.052    29.285     8.873
    18   6 C        3.145     0.077    26.030     8.347
    19   6 C        3.018    -0.051    29.250     8.871
    20   6 C        3.017    -0.051    29.246     8.871
    21   6 C        3.145     0.077    26.041     8.349
    22   7 N        2.635    -0.175    24.789     7.395
    23   6 C        2.901    -0.050    29.242     8.866
    24   6 C        3.148     0.076    26.054     8.350
    25   7 N        2.632    -0.176    24.829     7.400
    26   1 H        0.926     0.034     2.534     2.489
    27   1 H        0.926     0.035     2.518     2.482
    28   1 H        0.926     0.035     2.516     2.480
    29   1 H        0.926     0.034     2.534     2.489
    30   1 H        0.926     0.049     2.331     2.388
    31   1 H        0.926     0.034     2.528     2.487
    32   1 H        0.926     0.034     2.530     2.487
    33   1 H        0.926     0.048     2.340     2.392
    34   1 H        0.926     0.034     2.529     2.487
    35   1 H        0.926     0.034     2.528     2.486
    36   1 H        0.925     0.049     2.332     2.388
    37  30 Zn       3.042     0.244   122.302    21.603
    38   6 C        3.020    -0.052    29.270     8.875
    39   6 C        3.018    -0.051    29.231     8.869
    40   6 C        3.163     0.077    25.968     8.329
    41   6 C        2.953     0.018    27.600     8.617
    42   6 C        3.164     0.077    25.968     8.329
    43   6 C        3.018    -0.051    29.233     8.869
    44   6 C        3.020    -0.052    29.271     8.875
    45   6 C        3.148     0.076    26.054     8.350
    46   7 N        2.632    -0.176    24.827     7.400
    47   6 C        2.901    -0.050    29.241     8.866
    48   6 C        3.145     0.077    26.041     8.349
    49   6 C        3.017    -0.051    29.246     8.871
    50   6 C        3.018    -0.051    29.250     8.871
    51   6 C        3.145     0.077    26.030     8.347
    52   7 N        2.634    -0.175    24.792     7.395
    53   6 C        2.901    -0.052    29.285     8.873
    54   6 C        3.145     0.077    26.030     8.347
    55   6 C        3.018    -0.051    29.249     8.871
    56   6 C        3.017    -0.051    29.246     8.871
    57   6 C        3.145     0.077    26.041     8.349
    58   7 N        2.635    -0.175    24.790     7.395
    59   6 C        2.901    -0.050    29.242     8.866
    60   6 C        3.148     0.076    26.054     8.350
    61   7 N        2.632    -0.176    24.828     7.400
    62   1 H        0.926     0.034     2.534     2.489
    63   1 H        0.926     0.035     2.518     2.481
    64   1 H        0.926     0.035     2.517     2.481
    65   1 H        0.926     0.034     2.534     2.489
    66   1 H        0.926     0.049     2.331     2.388
    67   1 H        0.926     0.034     2.528     2.487
    68   1 H        0.926     0.034     2.529     2.487
    69   1 H        0.926     0.048     2.340     2.392
    70   1 H        0.926     0.034     2.529     2.487
    71   1 H        0.926     0.034     2.528     2.487
    72   1 H        0.925     0.049     2.332     2.388
    73   6 C        1.994    -0.029    31.808     9.108
    74   6 C        1.994    -0.029    31.822     9.110
    75   6 C        1.994    -0.029    31.822     9.110
    76   6 C        1.994    -0.029    31.808     9.108
    77  30 Zn       3.039     0.246   122.282    21.601
    78   6 C        3.020    -0.052    29.266     8.874
    79   6 C        3.019    -0.050    29.229     8.868
    80   6 C        3.165     0.077    25.958     8.327
    81   6 C        2.953     0.018    27.598     8.617
    82   6 C        3.165     0.077    25.958     8.326
    83   6 C        3.019    -0.051    29.234     8.869
    84   6 C        3.020    -0.052    29.266     8.874
    85   6 C        3.150     0.075    26.058     8.350
    86   7 N        2.633    -0.176    24.826     7.400
    87   6 C        2.901    -0.048    29.197     8.860
    88   6 C        3.150     0.075    26.058     8.350
    89   6 C        3.020    -0.052    29.266     8.874
    90   6 C        3.019    -0.051    29.230     8.868
    91   6 C        3.165     0.077    25.958     8.327
    92   7 N        2.632    -0.177    24.829     7.401
    93   6 C        2.953     0.018    27.598     8.616
    94   6 C        3.165     0.077    25.959     8.327
    95   6 C        3.019    -0.051    29.233     8.869
    96   6 C        3.020    -0.052    29.267     8.874
    97   6 C        3.150     0.075    26.058     8.350
    98   7 N        2.633    -0.176    24.827     7.400
    99   6 C        2.901    -0.048    29.197     8.860
   100   6 C        3.150     0.075    26.058     8.350
   101   7 N        2.632    -0.177    24.830     7.401
   102   1 H        0.926     0.034     2.533     2.489
   103   1 H        0.926     0.035     2.517     2.481
   104   1 H        0.926     0.035     2.514     2.479
   105   1 H        0.926     0.034     2.532     2.488
   106   1 H        0.925     0.050     2.323     2.384
   107   1 H        0.926     0.034     2.533     2.489
   108   1 H        0.926     0.035     2.516     2.481
   109   1 H        0.926     0.035     2.515     2.480
   110   1 H        0.926     0.034     2.532     2.488
   111   1 H        0.925     0.050     2.323     2.384

 Mol. C6AA /au·bohr⁶  :     231820.397429
 Mol. C8AA /au·bohr⁸  :    6584077.428570
 Mol. α(0) /au        :        787.292322


Wiberg/Mayer (AO) data.
largest (>0.10) Wiberg bond orders for each atom

 ---------------------------------------------------------------------------
     #   Z sym  total        # sym  WBO       # sym  WBO       # sym  WBO
 ---------------------------------------------------------------------------
     1  30 Zn   2.081 --    22 N    0.492    16 N    0.492    10 N    0.489
                            25 N    0.489
     2   6 C    3.954 --     3 C    1.651    24 C    1.171    26 H    0.972
     3   6 C    3.958 --     2 C    1.651     4 C    1.178    27 H    0.969
     4   6 C    3.917 --    25 N    1.284     5 C    1.258     3 C    1.178
     5   6 C    3.941 --     4 C    1.258     6 C    1.258    73 C    1.168
     6   6 C    3.917 --    10 N    1.284     5 C    1.258     7 C    1.178
     7   6 C    3.958 --     8 C    1.651     6 C    1.178    28 H    0.968
     8   6 C    3.954 --     7 C    1.651     9 C    1.171    29 H    0.972
     9   6 C    3.925 --    11 C    1.357    10 N    1.248     8 C    1.171
    10   7 N    3.467 --     6 C    1.284     9 C    1.248     1 Zn   0.489
    11   6 C    3.932 --     9 C    1.357    12 C    1.355    30 H    0.964
    12   6 C    3.930 --    11 C    1.355    16 N    1.261    13 C    1.163
    13   6 C    3.957 --    14 C    1.666    12 C    1.163    31 H    0.972
    14   6 C    3.955 --    13 C    1.666    15 C    1.162    32 H    0.972
    15   6 C    3.932 --    17 C    1.354    16 N    1.263    14 C    1.162
    16   7 N    3.465 --    15 C    1.263    12 C    1.261     1 Zn   0.492
    17   6 C    3.927 --    18 C    1.354    15 C    1.354    33 H    0.964
    18   6 C    3.932 --    17 C    1.354    22 N    1.263    19 C    1.162
    19   6 C    3.955 --    20 C    1.666    18 C    1.162    34 H    0.972
    20   6 C    3.957 --    19 C    1.666    21 C    1.163    35 H    0.972
    21   6 C    3.930 --    23 C    1.355    22 N    1.261    20 C    1.163
    22   7 N    3.465 --    18 C    1.263    21 C    1.261     1 Zn   0.492
    23   6 C    3.932 --    24 C    1.357    21 C    1.355    36 H    0.964
    24   6 C    3.925 --    23 C    1.357    25 N    1.248     2 C    1.171
    25   7 N    3.467 --     4 C    1.284    24 C    1.248     1 Zn   0.489
    26   1 H    0.998 --     2 C    0.972
    27   1 H    0.998 --     3 C    0.969
    28   1 H    0.998 --     7 C    0.968
    29   1 H    0.998 --     8 C    0.972
    30   1 H    0.996 --    11 C    0.964
    31   1 H    0.998 --    13 C    0.972
    32   1 H    0.998 --    14 C    0.972
    33   1 H    0.996 --    17 C    0.964
    34   1 H    0.998 --    19 C    0.972
    35   1 H    0.998 --    20 C    0.972
    36   1 H    0.996 --    23 C    0.964
    37  30 Zn   2.081 --    58 N    0.492    52 N    0.492    46 N    0.489
                            61 N    0.489
    38   6 C    3.954 --    39 C    1.651    60 C    1.171    62 H    0.972
    39   6 C    3.958 --    38 C    1.651    40 C    1.178    63 H    0.968
    40   6 C    3.917 --    61 N    1.284    41 C    1.258    39 C    1.178
    41   6 C    3.941 --    40 C    1.258    42 C    1.258    76 C    1.168
    42   6 C    3.917 --    46 N    1.284    41 C    1.258    43 C    1.178
    43   6 C    3.958 --    44 C    1.651    42 C    1.178    64 H    0.968
    44   6 C    3.954 --    43 C    1.651    45 C    1.171    65 H    0.972
    45   6 C    3.925 --    47 C    1.357    46 N    1.248    44 C    1.171
    46   7 N    3.467 --    42 C    1.284    45 C    1.248    37 Zn   0.489
    47   6 C    3.932 --    45 C    1.357    48 C    1.355    66 H    0.964
    48   6 C    3.930 --    47 C    1.355    52 N    1.260    49 C    1.163
    49   6 C    3.957 --    50 C    1.666    48 C    1.163    67 H    0.972
    50   6 C    3.955 --    49 C    1.666    51 C    1.162    68 H    0.972
    51   6 C    3.932 --    53 C    1.354    52 N    1.263    50 C    1.162
    52   7 N    3.465 --    51 C    1.263    48 C    1.260    37 Zn   0.492
    53   6 C    3.927 --    54 C    1.354    51 C    1.354    69 H    0.964
    54   6 C    3.932 --    53 C    1.354    58 N    1.263    55 C    1.162
    55   6 C    3.955 --    56 C    1.666    54 C    1.162    70 H    0.972
    56   6 C    3.957 --    55 C    1.666    57 C    1.163    71 H    0.972
    57   6 C    3.930 --    59 C    1.355    58 N    1.261    56 C    1.163
    58   7 N    3.465 --    54 C    1.263    57 C    1.261    37 Zn   0.492
    59   6 C    3.932 --    60 C    1.357    57 C    1.355    72 H    0.964
    60   6 C    3.925 --    59 C    1.357    61 N    1.248    38 C    1.171
    61   7 N    3.467 --    40 C    1.284    60 C    1.248    37 Zn   0.489
    62   1 H    0.998 --    38 C    0.972
    63   1 H    0.998 --    39 C    0.968
    64   1 H    0.998 --    43 C    0.968
    65   1 H    0.998 --    44 C    0.972
    66   1 H    0.996 --    47 C    0.964
    67   1 H    0.998 --    49 C    0.972
    68   1 H    0.998 --    50 C    0.972
    69   1 H    0.996 --    53 C    0.964
    70   1 H    0.998 --    55 C    0.972
    71   1 H    0.998 --    56 C    0.972
    72   1 H    0.996 --    59 C    0.964
    73   6 C    3.924 --    74 C    2.578     5 C    1.168
    74   6 C    3.926 --    73 C    2.578    81 C    1.170
    75   6 C    3.926 --    76 C    2.578    93 C    1.170
    76   6 C    3.924 --    75 C    2.578    41 C    1.168
    77  30 Zn   2.078 --    86 N    0.489    98 N    0.489   101 N    0.489
                            92 N    0.489
    78   6 C    3.954 --    79 C    1.649   100 C    1.172   102 H    0.972
    79   6 C    3.956 --    78 C    1.649    80 C    1.179   103 H    0.969
    80   6 C    3.918 --   101 N    1.285    81 C    1.257    79 C    1.179
    81   6 C    3.931 --    80 C    1.257    82 C    1.256    74 C    1.170
    82   6 C    3.918 --    86 N    1.285    81 C    1.256    83 C    1.179
    83   6 C    3.956 --    84 C    1.649    82 C    1.179   104 H    0.968
    84   6 C    3.954 --    83 C    1.649    85 C    1.172   105 H    0.972
    85   6 C    3.924 --    87 C    1.356    86 N    1.246    84 C    1.172
    86   7 N    3.461 --    82 C    1.285    85 C    1.246    77 Zn   0.489
    87   6 C    3.926 --    85 C    1.356    88 C    1.356   106 H    0.964
    88   6 C    3.924 --    87 C    1.356    92 N    1.246    89 C    1.172
    89   6 C    3.954 --    90 C    1.649    88 C    1.172   107 H    0.972
    90   6 C    3.956 --    89 C    1.649    91 C    1.179   108 H    0.968
    91   6 C    3.918 --    92 N    1.285    93 C    1.257    90 C    1.179
    92   7 N    3.461 --    91 C    1.285    88 C    1.246    77 Zn   0.489
    93   6 C    3.931 --    91 C    1.257    94 C    1.256    75 C    1.170
    94   6 C    3.918 --    98 N    1.285    93 C    1.256    95 C    1.179
    95   6 C    3.956 --    96 C    1.649    94 C    1.179   109 H    0.968
    96   6 C    3.954 --    95 C    1.649    97 C    1.172   110 H    0.972
    97   6 C    3.924 --    99 C    1.356    98 N    1.246    96 C    1.172
    98   7 N    3.461 --    94 C    1.285    97 C    1.246    77 Zn   0.489
    99   6 C    3.926 --   100 C    1.356    97 C    1.356   111 H    0.964
   100   6 C    3.924 --    99 C    1.356   101 N    1.246    78 C    1.172
   101   7 N    3.461 --    80 C    1.285   100 C    1.246    77 Zn   0.489
   102   1 H    0.998 --    78 C    0.972
   103   1 H    0.998 --    79 C    0.969
   104   1 H    0.998 --    83 C    0.968
   105   1 H    0.998 --    84 C    0.972
   106   1 H    0.996 --    87 C    0.964
   107   1 H    0.998 --    89 C    0.972
   108   1 H    0.998 --    90 C    0.968
   109   1 H    0.998 --    95 C    0.968
   110   1 H    0.998 --    96 C    0.972
   111   1 H    0.996 --    99 C    0.964
 ---------------------------------------------------------------------------

Topologies differ in total number of bonds
Writing topology from bond orders to xtbtopo.mol

molecular dipole:
                 x           y           z       tot (Debye)
 q only:        0.000       0.002       0.003
   full:        0.000       0.003       0.006       0.017
molecular quadrupole (traceless):
                xx          xy          yy          xz          yz          zz
 q only:       21.297       0.085       1.991       0.176       0.586     -23.288
  q+dip:       47.124       0.121       9.127       0.308       1.508     -56.251
   full:       28.671       0.146       2.961       0.348       0.796     -31.633


           -------------------------------------------------
          | TOTAL ENERGY             -190.291820366204 Eh   |
          | GRADIENT NORM               0.000329219870 Eh/α |
          | HOMO-LUMO GAP               1.071400977788 eV   |
           -------------------------------------------------

------------------------------------------------------------------------
 * finished run on 2021/11/21 at 21:09:29.788     
------------------------------------------------------------------------
 total:
 * wall-time:     0 d,  0 h,  0 min,  0.588 sec
 *  cpu-time:     0 d,  0 h,  0 min,  0.588 sec
 * ratio c/w:     1.000 speedup
 SCF:
 * wall-time:     0 d,  0 h,  0 min,  0.538 sec
 *  cpu-time:     0 d,  0 h,  0 min,  0.538 sec
 * ratio c/w:     1.000 speedup

