      -----------------------------------------------------------      
     |                   =====================                   |     
     |                           x T B                           |     
     |                   =====================                   |     
     |                         S. Grimme                         |     
     |          Mulliken Center for Theoretical Chemistry        |     
     |                    University of Bonn                     |     
      -----------------------------------------------------------      

   * xtb version 6.4.1 (bd6e46d) compiled by 'conda@4901f00b25ba' on 2021-06-10

   xtb is free software: you can redistribute it and/or modify it under
   the terms of the GNU Lesser General Public License as published by
   the Free Software Foundation, either version 3 of the License, or
   (at your option) any later version.
   
   xtb is distributed in the hope that it will be useful,
   but WITHOUT ANY WARRANTY; without even the implied warranty of
   MERCHANTABILITY or FITNESS FOR A PARTICULAR PURPOSE.  See the
   GNU Lesser General Public License for more details.
   
   Cite this work as:
   * C. Bannwarth, E. Caldeweyher, S. Ehlert, A. Hansen, P. Pracht,
     J. Seibert, S. Spicher, S. Grimme, WIREs Comput. Mol. Sci., 2020, 11,
     e01493. DOI: 10.1002/wcms.1493
   
   for GFN2-xTB:
   * C. Bannwarth, S. Ehlert and S. Grimme., J. Chem. Theory Comput., 2019,
     15, 1652-1671. DOI: 10.1021/acs.jctc.8b01176
   for GFN1-xTB:
   * S. Grimme, C. Bannwarth, P. Shushkov, J. Chem. Theory Comput., 2017,
     13, 1989-2009. DOI: 10.1021/acs.jctc.7b00118
   for GFN0-xTB:
   * P. Pracht, E. Caldeweyher, S. Ehlert, S. Grimme, ChemRxiv, 2019, preprint.
     DOI: 10.26434/chemrxiv.8326202.v1
   for GFN-FF:
   * S. Spicher and S. Grimme, Angew. Chem. Int. Ed., 2020, 59, 15665-15673.
     DOI: 10.1002/anie.202004239
   
   for DFT-D4:
   * E. Caldeweyher, C. Bannwarth and S. Grimme, J. Chem. Phys., 2017,
     147, 034112. DOI: 10.1063/1.4993215
   * E. Caldeweyher, S. Ehlert, A. Hansen, H. Neugebauer, S. Spicher,
     C. Bannwarth and S. Grimme, J. Chem. Phys., 2019, 150, 154122.
     DOI: 10.1063/1.5090222
   * E. Caldeweyher, J.-M. Mewes, S. Ehlert and S. Grimme, Phys. Chem. Chem. Phys.
     2020, 22, 8499-8512. DOI: 10.1039/D0CP00502A
   
   for sTDA-xTB:
   * S. Grimme and C. Bannwarth, J. Chem. Phys., 2016, 145, 054103.
     DOI: 10.1063/1.4959605
   
   in the mass-spec context:
   * V. Asgeirsson, C. Bauer and S. Grimme, Chem. Sci., 2017, 8, 4879.
     DOI: 10.1039/c7sc00601b
   * J. Koopman and S. Grimme, ACS Omega 2019, 4, 12, 15120-15133.
     DOI: 10.1021/acsomega.9b02011
   
   for metadynamics refer to:
   * S. Grimme, J. Chem. Theory Comput., 2019, 155, 2847-2862
     DOI: 10.1021/acs.jctc.9b00143
   
   for SPH calculations refer to:
   * S. Spicher and S. Grimme, J. Chem. Theory Comput., 2021, 17, 1701-1714
     DOI: 10.1021/acs.jctc.0c01306
   
   with help from (in alphabetical order)
   P. Atkinson, C. Bannwarth, F. Bohle, G. Brandenburg, E. Caldeweyher
   M. Checinski, S. Dohm, S. Ehlert, S. Ehrlich, I. Gerasimov, J. Koopman
   C. Lavigne, S. Lehtola, F. März, M. Müller, F. Musil, H. Neugebauer
   J. Pisarek, C. Plett, P. Pracht, J. Seibert, P. Shushkov, S. Spicher
   M. Stahn, M. Steiner, T. Strunk, J. Stückrath, T. Rose, and J. Unsleber
   
 * started run on 2021/11/19 at 14:41:29.743     

           -------------------------------------------------
          |                Calculation Setup                |
           -------------------------------------------------

          program call               : /home/jeff/miniconda3/bin/xtb input_structure_1.xyz --gfn 2 --ohess normal --parallel 1 --etemp 300 --chrg 0 --uhf 0 -I det_control.in
          hostname                   : jelfscompute1
          coordinate file            : input_structure_1.xyz
          omp threads                :                     1
          number of atoms            :                   160
          number of electrons        :                   558
          charge                     :                     0
          spin                       :                   0.0
          first test random number   :      0.08257647389628

   ID    Z sym.   atoms
    1   29 Cu     1, 37, 91, 126
    2    6 C      2-9, 11-15, 17-21, 23, 24, 38-45, 47-51, 53-57, 59, 60,
                  73-90, 92-99, 101-105, 107-111, 113, 114, 127-134, 136-140,
                  142-146, 148, 149
    3    7 N      10, 16, 22, 25, 46, 52, 58, 61, 100, 106, 112, 115, 135,
                  141, 147, 150
    4    1 H      26-36, 62-72, 116-125, 151-160

molecular fragmentation (1/2 indicates fragments):
111111111111111111111111111111111111222222222222222222222222222222222222
222222222222222222222222222222222222222222222222222222222222222222222222
2222222222222222
# atoms in fragment 1/2:    36   124
 fragment masses (1/2) :      370.87     1326.80
CMA distance (Bohr)    :  61.056
constraining FC (au)   :  0.0500

           -------------------------------------------------
          |                 G F N 2 - x T B                 |
           -------------------------------------------------

        Reference                      10.1021/acs.jctc.8b01176
      * Hamiltonian:
        H0-scaling (s, p, d)           1.850000    2.230000    2.230000
        zeta-weighting                 0.500000
      * Dispersion:
        s8                             2.700000
        a1                             0.520000
        a2                             5.000000
        s9                             5.000000
      * Repulsion:
        kExp                           1.500000    1.000000
        rExp                           1.000000
      * Coulomb:
        alpha                          2.000000
        third order                    shell-resolved
        anisotropic                    true
        a3                             3.000000
        a5                             4.000000
        cn-shift                       1.200000
        cn-exp                         4.000000
        max-rad                        5.000000


          ...................................................
          :                      SETUP                      :
          :.................................................:
          :  # basis functions                 538          :
          :  # atomic orbitals                 534          :
          :  # shells                          282          :
          :  # electrons                       558          :
          :  max. iterations                   250          :
          :  Hamiltonian                  GFN2-xTB          :
          :  restarted?                      false          :
          :  GBSA solvation                  false          :
          :  PC potential                    false          :
          :  electronic temp.          300.0000000     K    :
          :  accuracy                    1.0000000          :
          :  -> integral cutoff          0.2500000E+02      :
          :  -> integral neglect         0.1000000E-07      :
          :  -> SCF convergence          0.1000000E-05 Eh   :
          :  -> wf. convergence          0.1000000E-03 e    :
          :  Broyden damping             0.4000000          :
          ...................................................

 iter      E             dE          RMSdq      gap      omega  full diag
   1   -297.2917787 -0.297292E+03  0.639E+00    0.16       0.0  T
   2   -279.4632804  0.178285E+02  0.576E+00    0.05       1.0  T
   3   -152.6429647  0.126820E+03  0.137E+01    0.06       1.0  T
   4   -246.9158869 -0.942729E+02  0.111E+01    0.08       1.0  T
   5   -285.5709410 -0.386551E+02  0.551E+00    0.18       1.0  T
   6   -275.1977828  0.103732E+02  0.485E+00    0.00       1.0  T
   7   -249.4205662  0.257772E+02  0.771E+00    0.11       1.0  T
   8   -292.1498913 -0.427293E+02  0.325E+00    0.00       1.0  T
   9   -293.6231286 -0.147324E+01  0.265E+00    0.08       1.0  T
  10   -296.6178314 -0.299470E+01  0.214E+00    0.18       1.0  T
  11   -296.5630593  0.547721E-01  0.194E+00    0.06       1.0  T
  12   -297.0718404 -0.508781E+00  0.163E+00    0.28       1.0  T
  13   -297.2875147 -0.215674E+00  0.139E+00    0.09       1.0  T
  14   -297.3223796 -0.348649E-01  0.132E+00    0.08       1.0  T
  15   -297.2594716  0.629080E-01  0.125E+00    0.14       1.0  T
  16   -297.3318647 -0.723931E-01  0.112E+00    0.12       1.0  T
  17   -297.4590730 -0.127208E+00  0.103E+00    0.06       1.0  T
  18   -297.4631533 -0.408034E-02  0.957E-01    0.06       1.0  T
  19   -297.5784041 -0.115251E+00  0.842E-01    0.11       1.0  T
  20   -297.6617797 -0.833755E-01  0.670E-01    0.04       1.0  T
  21   -297.7217263 -0.599466E-01  0.584E-01    0.02       1.0  T
  22   -297.7060424  0.156839E-01  0.583E-01    0.01       1.0  T
  23   -297.7169249 -0.108825E-01  0.566E-01    0.04       1.0  T
  24   -297.7617072 -0.447823E-01  0.447E-01    0.04       1.0  T
  25   -297.7772045 -0.154973E-01  0.376E-01    0.02       1.0  T
  26   -297.7925406 -0.153360E-01  0.338E-01    0.02       1.0  T
  27   -297.8060617 -0.135211E-01  0.255E-01    0.00       1.0  T
  28   -297.8117179 -0.565622E-02  0.206E-01    0.00       1.0  T
  29   -297.8248648 -0.131470E-01  0.149E-01    0.00       1.0  T
  30   -297.8264987 -0.163391E-02  0.159E-01    0.01       1.0  T
  31   -297.8276472 -0.114845E-02  0.122E-01    0.01       1.0  T
  32   -297.8195054  0.814181E-02  0.173E-01    0.01       1.0  T
  33   -297.8317695 -0.122641E-01  0.101E-01    0.00       1.0  T
  34   -297.8208817  0.108878E-01  0.142E-01    0.00       1.0  T
  35   -297.8307765 -0.989483E-02  0.864E-02    0.00       1.0  T
  36   -297.8328920 -0.211549E-02  0.593E-02    0.01       1.0  T
  37   -297.8318344  0.105765E-02  0.651E-02    0.00       1.0  T
  38   -297.8339760 -0.214167E-02  0.364E-02    0.00       1.0  T
  39   -297.8334835  0.492531E-03  0.400E-02    0.00       1.0  T
  40   -297.8339629 -0.479403E-03  0.269E-02    0.00       1.0  T
  41   -297.8340806 -0.117722E-03  0.202E-02    0.00       1.0  T
  42   -297.8340240  0.565964E-04  0.179E-02    0.00       1.0  T
  43   -297.8341059 -0.818971E-04  0.145E-02    0.00       1.0  T
  44   -297.8341693 -0.633618E-04  0.110E-02    0.00       1.0  T
  45   -297.8341777 -0.841530E-05  0.961E-03    0.00       1.0  T
  46   -297.8341747  0.303266E-05  0.915E-03    0.00       1.0  T
  47   -297.8341999 -0.252456E-04  0.589E-03    0.00       1.3  T
  48   -297.8342043 -0.437977E-05  0.401E-03    0.00       2.0  T
  49   -297.8342076 -0.329008E-05  0.278E-03    0.00       2.8  T
  50   -297.8342081 -0.555335E-06  0.217E-03    0.00       3.6  T
  51   -297.8342070  0.111722E-05  0.222E-03    0.00       3.6  T
  52   -297.8342074 -0.376819E-06  0.188E-03    0.00       4.2  T
  53   -297.8342092 -0.174781E-05  0.103E-03    0.00       7.7  T
  54   -297.8342096 -0.395247E-06  0.629E-04    0.00      12.6  T
  55   -297.8342097 -0.112982E-06  0.498E-04    0.00      15.9  T

   *** convergence criteria satisfied after 55 iterations ***

         #    Occupation            Energy/Eh            Energy/eV
      -------------------------------------------------------------
         1        2.0000           -0.6871024             -18.6970
       ...           ...                  ...                  ...
       273        2.0000           -0.3590514              -9.7703
       274        2.0000           -0.3578259              -9.7369
       275        2.0000           -0.3570368              -9.7155
       276        2.0000           -0.3546887              -9.6516
       277        2.0000           -0.3542272              -9.6390
       278        1.3563           -0.3388335              -9.2201
       279        1.3403           -0.3387991              -9.2192 (HOMO)
       280        1.2846           -0.3386816              -9.2160 (LUMO)
       281        0.0072           -0.3327884              -9.0556
       282        0.0067           -0.3327169              -9.0537
       283        0.0049           -0.3324131              -9.0454
       284                         -0.3217445              -8.7551
       ...                                ...                  ...
       534                          2.2598129              61.4926
      -------------------------------------------------------------
                  HL-Gap            0.0001175 Eh            0.0032 eV
             Fermi-level           -0.3381255 Eh           -9.2009 eV

 SCC (total)                   0 d,  0 h,  0 min,  3.933 sec
 SCC setup                      ...        0 min,  0.005 sec (  0.120%)
 Dispersion                     ...        0 min,  0.010 sec (  0.250%)
 classical contributions        ...        0 min,  0.001 sec (  0.028%)
 integral evaluation            ...        0 min,  0.086 sec (  2.181%)
 iterations                     ...        0 min,  3.603 sec ( 91.613%)
 molecular gradient             ...        0 min,  0.220 sec (  5.598%)
 printout                       ...        0 min,  0.008 sec (  0.210%)

         :::::::::::::::::::::::::::::::::::::::::::::::::::::
         ::                     SUMMARY                     ::
         :::::::::::::::::::::::::::::::::::::::::::::::::::::
         :: total energy            -291.879483032502 Eh    ::
         :: gradient norm              1.457001148108 Eh/a0 ::
         :: HOMO-LUMO gap              0.003197430604 eV    ::
         ::.................................................::
         :: SCC energy              -297.834209664814 Eh    ::
         :: -> isotropic ES            0.154729195507 Eh    ::
         :: -> anisotropic ES          0.038525787354 Eh    ::
         :: -> anisotropic XC          0.166107858801 Eh    ::
         :: -> dispersion             -0.244408337326 Eh    ::
         :: repulsion energy           5.954890020085 Eh    ::
         :: add. restraining           0.000000000000 Eh    ::
         :: total charge               0.000000001305 e     ::
         :::::::::::::::::::::::::::::::::::::::::::::::::::::

      ----------------------------------------------------------- 
     |                   =====================                   |
     |                        A N C O P T                        |
     |                   =====================                   |
     |               Approximate Normal Coordinate               |
     |                Rational Function Optimizer                |
      ----------------------------------------------------------- 

          ...................................................
          :                      SETUP                      :
          :.................................................:
          :   optimization level            normal          :
          :   max. optcycles                   480          :
          :   ANC micro-cycles                  20          :
          :   degrees of freedom               474          :
          :.................................................:
          :   RF solver                   davidson          :
          :   write xtbopt.log                true          :
          :   linear?                        false          :
          :   energy convergence         0.5000000E-05 Eh   :
          :   grad. convergence          0.1000000E-02 Eh/α :
          :   maximium RF displ.         1.0000000          :
          :   Hlow (freq-cutoff)         0.1000000E-01      :
          :   Hmax (freq-cutoff)         5.0000000          :
          :   S6 in model hess.         20.0000000          :
          ...................................................

generating ANC from model Hessian ...
Using Lindh-Hessian (1995)
 Shifting diagonal of input Hessian by    1.0134276708835517E-002
 Lowest  eigenvalues of input Hessian
    0.010000    0.010034    0.010100    0.010101    0.010110    0.010112
    0.010114    0.010119    0.010124    0.010127    0.010129    0.000000
    0.000000    0.000000    0.000000    0.000000    0.000000    0.010144
 Highest eigenvalues
    2.682207    2.687821    3.325869    3.327672    3.495154    3.495768


........................................................................
.............................. CYCLE    1 ..............................
........................................................................
   1   -297.8342097 -0.297834E+03  0.336E-04    0.00       0.0  T
   2   -297.8342026  0.714227E-05  0.308E-03    0.00       2.6  T
   3   -297.8342002  0.240787E-05  0.324E-03    0.00       2.4  T
   4   -297.8342081 -0.789807E-05  0.150E-03    0.00       5.3  T
   5   -297.8342096 -0.149988E-05  0.516E-04    0.00      15.3  T
   6   -297.8342092  0.331362E-06  0.819E-04    0.00       9.7  T
   7   -297.8342096 -0.315648E-06  0.505E-04    0.00      15.7  T
     SCC iter.                  ...        0 min,  0.462 sec
     gradient                   ...        0 min,  0.220 sec
 * total energy  :  -291.8794829 Eh     change        0.9960473E-07 Eh
   gradient norm :     1.4570048 Eh/α   predicted     0.0000000E+00 (-100.00%)
   displ. norm   :     0.5794564 α      lambda       -0.7610742E+00
   maximum displ.:     0.1503369 α      in ANC's #378, #379, #474, ...

........................................................................
.............................. CYCLE    2 ..............................
........................................................................
   1   -297.8363550 -0.297836E+03  0.441E-01    0.02       0.0  T
   2   -297.3047579  0.531597E+00  0.107E+00    0.00       1.0  T
   3   -297.5144373 -0.209679E+00  0.801E-01    0.16       1.0  T
   4   -297.4446382  0.697991E-01  0.877E-01    0.04       1.0  T
   5   -297.7378574 -0.293219E+00  0.446E-01    0.13       1.0  T
   6   -297.7333574  0.450005E-02  0.482E-01    0.02       1.0  T
   7   -297.5384535  0.194904E+00  0.635E-01    0.07       1.0  T
   8   -297.4661658  0.722877E-01  0.627E-01    0.02       1.0  T
   9   -297.6266300 -0.160464E+00  0.541E-01    0.09       1.0  T
  10   -297.8308107 -0.204181E+00  0.207E-01    0.01       1.0  T
  11   -297.8495056 -0.186950E-01  0.171E-01    0.03       1.0  T
  12   -297.8500947 -0.589076E-03  0.164E-01    0.02       1.0  T
  13   -297.8621514 -0.120567E-01  0.935E-02    0.02       1.0  T
  14   -297.8643453 -0.219387E-02  0.674E-02    0.00       1.0  T
  15   -297.8651630 -0.817774E-03  0.405E-02    0.01       1.0  T
  16   -297.8641609  0.100212E-02  0.424E-02    0.01       1.0  T
  17   -297.8651330 -0.972108E-03  0.248E-02    0.01       1.0  T
  18   -297.8645392  0.593811E-03  0.349E-02    0.01       1.0  T
  19   -297.8652598 -0.720564E-03  0.183E-02    0.00       1.0  T
  20   -297.8653894 -0.129670E-03  0.138E-02    0.01       1.0  T
  21   -297.8654893 -0.998616E-04  0.903E-03    0.00       1.0  T
  22   -297.8654992 -0.989257E-05  0.699E-03    0.00       1.1  T
  23   -297.8655048 -0.561333E-05  0.467E-03    0.00       1.7  T
  24   -297.8654563  0.485378E-04  0.895E-03    0.00       1.0  T
  25   -297.8654902 -0.339315E-04  0.619E-03    0.00       1.3  T
  26   -297.8655127 -0.224705E-04  0.323E-03    0.00       2.4  T
  27   -297.8655120  0.721390E-06  0.299E-03    0.00       2.6  T
  28   -297.8655106  0.139457E-05  0.314E-03    0.00       2.5  T
  29   -297.8655178 -0.728046E-05  0.792E-04    0.00      10.0  T
  30   -297.8655173  0.546014E-06  0.102E-03    0.00       7.8  T
  31   -297.8655177 -0.372285E-06  0.734E-04    0.00      10.8  T
  32   -297.8655180 -0.344125E-06  0.320E-04    0.00      24.7  T
     SCC iter.                  ...        0 min,  2.060 sec
     gradient                   ...        0 min,  0.216 sec
 * total energy  :  -292.3877189 Eh     change       -0.5082359E+00 Eh
   gradient norm :     0.5644802 Eh/α   predicted    -0.5083448E+00 (   0.02%)
   displ. norm   :     0.5960282 α      lambda       -0.2694148E+00
   maximum displ.:     0.1807225 α      in ANC's #166, #163, #164, ...

........................................................................
.............................. CYCLE    3 ..............................
........................................................................
   1   -297.8225934 -0.297823E+03  0.584E-01    0.04       0.0  T
   2   -294.0618890  0.376070E+01  0.276E+00    0.12       1.0  T
   3   -297.7039959 -0.364211E+01  0.738E-01    0.07       1.0  T
   4   -297.7755314 -0.715355E-01  0.440E-01    0.00       1.0  T
   5   -297.6549332  0.120598E+00  0.596E-01    0.06       1.0  T
   6   -297.3126676  0.342266E+00  0.812E-01    0.04       1.0  T
   7   -297.6525804 -0.339913E+00  0.609E-01    0.12       1.0  T
   8   -297.8006835 -0.148103E+00  0.462E-01    0.08       1.0  T
   9   -297.8417137 -0.410302E-01  0.347E-01    0.00       1.0  T
  10   -297.8497571 -0.804339E-02  0.269E-01    0.02       1.0  T
  11   -297.8788193 -0.290621E-01  0.191E-01    0.04       1.0  T
  12   -297.8857659 -0.694662E-02  0.157E-01    0.02       1.0  T
  13   -297.8790107  0.675520E-02  0.177E-01    0.02       1.0  T
  14   -297.8919038 -0.128931E-01  0.111E-01    0.03       1.0  T
  15   -297.8939789 -0.207506E-02  0.843E-02    0.02       1.0  T
  16   -297.8979121 -0.393322E-02  0.234E-02    0.01       1.0  T
  17   -297.8966356  0.127650E-02  0.456E-02    0.00       1.0  T
  18   -297.8976291 -0.993474E-03  0.258E-02    0.01       1.0  T
  19   -297.8979276 -0.298498E-03  0.219E-02    0.01       1.0  T
  20   -297.8980306 -0.103006E-03  0.151E-02    0.01       1.0  T
  21   -297.8978164  0.214173E-03  0.199E-02    0.01       1.0  T
  22   -297.8979339 -0.117455E-03  0.166E-02    0.02       1.0  T
  23   -297.8981084 -0.174565E-03  0.624E-03    0.01       1.3  T
  24   -297.8980998  0.865257E-05  0.649E-03    0.01       1.2  T
  25   -297.8980903  0.943191E-05  0.678E-03    0.01       1.2  T
  26   -297.8981142 -0.238410E-04  0.370E-03    0.01       2.1  T
  27   -297.8981231 -0.896420E-05  0.182E-03    0.01       4.4  T
  28   -297.8981223  0.897223E-06  0.178E-03    0.01       4.4  T
  29   -297.8981245 -0.220690E-05  0.777E-04    0.01      10.2  T
  30   -297.8981247 -0.276568E-06  0.329E-04    0.01      24.0  T
  31   -297.8981248 -0.520967E-07  0.139E-04    0.01      56.9  T
     SCC iter.                  ...        0 min,  1.990 sec
     gradient                   ...        0 min,  0.217 sec
 * total energy  :  -292.5914403 Eh     change       -0.2037214E+00 Eh
   gradient norm :     0.2628309 Eh/α   predicted    -0.1825623E+00 ( -10.39%)
   displ. norm   :     0.6865689 α      lambda       -0.1406750E+00
   maximum displ.:     0.2447849 α      in ANC's #166, #163, #164, ...

........................................................................
.............................. CYCLE    4 ..............................
........................................................................
   1   -297.7764362 -0.297776E+03  0.818E-01    0.12       0.0  T
   2   -284.5339842  0.132425E+02  0.429E+00    0.36       1.0  T
   3   -297.4701560 -0.129362E+02  0.142E+00    0.01       1.0  T
   4   -297.5074602 -0.373041E-01  0.100E+00    0.01       1.0  T
   5   -296.4267524  0.108071E+01  0.146E+00    0.01       1.0  T
   6   -297.5152102 -0.108846E+01  0.833E-01    0.01       1.0  T
   7   -297.2476336  0.267577E+00  0.911E-01    0.12       1.0  T
   8   -297.2013992  0.462344E-01  0.936E-01    0.17       1.0  T
   9   -297.8576312 -0.656232E+00  0.401E-01    0.05       1.0  T
  10   -297.8973954 -0.397642E-01  0.431E-01    0.07       1.0  T
  11   -297.8584750  0.389204E-01  0.358E-01    0.01       1.0  T
  12   -297.8492078  0.926715E-02  0.373E-01    0.02       1.0  T
  13   -297.9241925 -0.749846E-01  0.268E-01    0.01       1.0  T
  14   -297.9249713 -0.778813E-03  0.255E-01    0.01       1.0  T
  15   -297.9467030 -0.217317E-01  0.215E-01    0.01       1.0  T
  16   -297.9695140 -0.228110E-01  0.115E-01    0.02       1.0  T
  17   -297.9506109  0.189031E-01  0.182E-01    0.01       1.0  T
  18   -297.9729184 -0.223075E-01  0.844E-02    0.02       1.0  T
  19   -297.9733182 -0.399782E-03  0.829E-02    0.01       1.0  T
  20   -297.9713244  0.199380E-02  0.852E-02    0.01       1.0  T
  21   -297.9734189 -0.209446E-02  0.573E-02    0.01       1.0  T
  22   -297.9751314 -0.171258E-02  0.338E-02    0.01       1.0  T
  23   -297.9747973  0.334102E-03  0.361E-02    0.02       1.0  T
  24   -297.9752193 -0.421942E-03  0.244E-02    0.01       1.0  T
  25   -297.9754308 -0.211478E-03  0.171E-02    0.02       1.0  T
  26   -297.9752997  0.131043E-03  0.194E-02    0.02       1.0  T
  27   -297.9754448 -0.145111E-03  0.146E-02    0.02       1.0  T
  28   -297.9756155 -0.170708E-03  0.716E-03    0.02       1.1  T
  29   -297.9755978  0.177556E-04  0.798E-03    0.02       1.0  T
  30   -297.9756086 -0.108597E-04  0.703E-03    0.02       1.1  T
  31   -297.9756261 -0.174161E-04  0.447E-03    0.02       1.8  T
  32   -297.9756313 -0.521492E-05  0.236E-03    0.02       3.4  T
  33   -297.9756311  0.158055E-06  0.182E-03    0.02       4.3  T
  34   -297.9756298  0.130744E-05  0.213E-03    0.02       3.7  T
  35   -297.9756333 -0.345878E-05  0.106E-03    0.02       7.4  T
  36   -297.9756334 -0.171090E-06  0.941E-04    0.02       8.4  T
  37   -297.9756337 -0.310636E-06  0.771E-04    0.02      10.2  T
     SCC iter.                  ...        0 min,  2.379 sec
     gradient                   ...        0 min,  0.217 sec
 * total energy  :  -292.6997452 Eh     change       -0.1083049E+00 Eh
   gradient norm :     0.1216017 Eh/α   predicted    -0.1034932E+00 (  -4.44%)
   displ. norm   :     0.7494366 α      lambda       -0.8144703E-01
   maximum displ.:     0.2584582 α      in ANC's #166, #163, #126, ...

........................................................................
.............................. CYCLE    5 ..............................
........................................................................
   1   -297.8027389 -0.297803E+03  0.867E-01    0.17       0.0  T
   2   -283.3357885  0.144670E+02  0.444E+00    0.37       1.0  T
   3   -297.3228987 -0.139871E+02  0.157E+00    0.00       1.0  T
   4   -297.2171142  0.105785E+00  0.139E+00    0.12       1.0  T
   5   -297.4391064 -0.221992E+00  0.830E-01    0.05       1.0  T
   6   -297.4399872 -0.880813E-03  0.783E-01    0.08       1.0  T
   7   -297.1184424  0.321545E+00  0.101E+00    0.34       1.0  T
   8   -297.8448243 -0.726382E+00  0.487E-01    0.01       1.0  T
   9   -297.9563875 -0.111563E+00  0.425E-01    0.07       1.0  T
  10   -297.9815330 -0.251456E-01  0.284E-01    0.01       1.0  T
  11   -297.9351967  0.463363E-01  0.364E-01    0.02       1.0  T
  12   -298.0167591 -0.815624E-01  0.232E-01    0.01       1.0  T
  13   -298.0210856 -0.432647E-02  0.203E-01    0.03       1.0  T
  14   -298.0188511  0.223452E-02  0.200E-01    0.05       1.0  T
  15   -298.0223282 -0.347711E-02  0.188E-01    0.04       1.0  T
  16   -298.0319669 -0.963873E-02  0.125E-01    0.01       1.0  T
  17   -298.0349526 -0.298567E-02  0.840E-02    0.01       1.0  T
  18   -298.0354497 -0.497090E-03  0.774E-02    0.02       1.0  T
  19   -298.0333490  0.210071E-02  0.834E-02    0.01       1.0  T
  20   -298.0380484 -0.469949E-02  0.497E-02    0.01       1.0  T
  21   -298.0352346  0.281384E-02  0.669E-02    0.01       1.0  T
  22   -298.0377783 -0.254368E-02  0.432E-02    0.02       1.0  T
  23   -298.0364928  0.128548E-02  0.571E-02    0.02       1.0  T
  24   -298.0360861  0.406686E-03  0.593E-02    0.01       1.0  T
  25   -298.0379477 -0.186163E-02  0.370E-02    0.02       1.0  T
  26   -298.0387797 -0.831981E-03  0.192E-02    0.02       1.0  T
  27   -298.0389243 -0.144586E-03  0.837E-03    0.02       1.0  T
  28   -298.0387579  0.166430E-03  0.136E-02    0.02       1.0  T
  29   -298.0389506 -0.192690E-03  0.385E-03    0.02       2.1  T
  30   -298.0389501  0.434133E-06  0.379E-03    0.02       2.1  T
  31   -298.0389497  0.391365E-06  0.409E-03    0.02       1.9  T
  32   -298.0389430  0.677780E-05  0.380E-03    0.02       2.1  T
  33   -298.0389458 -0.278878E-05  0.302E-03    0.02       2.6  T
  34   -298.0389444  0.133378E-05  0.307E-03    0.02       2.6  T
  35   -298.0389514 -0.695450E-05  0.175E-03    0.02       4.5  T
  36   -298.0389532 -0.184627E-05  0.105E-03    0.02       7.6  T
  37   -298.0389538 -0.619799E-06  0.788E-04    0.02      10.0  T
  38   -298.0389539 -0.924987E-07  0.676E-04    0.02      11.7  T
     SCC iter.                  ...        0 min,  2.441 sec
     gradient                   ...        0 min,  0.217 sec
 * total energy  :  -292.7670474 Eh     change       -0.6730215E-01 Eh
   gradient norm :     0.0865590 Eh/α   predicted    -0.6359609E-01 (  -5.51%)
   displ. norm   :     0.7839552 α      lambda       -0.5789478E-01
   maximum displ.:     0.2477874 α      in ANC's #89, #166, #163, ...

........................................................................
.............................. CYCLE    6 ..............................
........................................................................
   1   -297.8672995 -0.297867E+03  0.828E-01    0.19       0.0  T
   2   -282.9388042  0.149285E+02  0.448E+00    0.32       1.0  T
   3   -297.0415016 -0.141027E+02  0.168E+00    0.09       1.0  T
   4   -297.0204247  0.210769E-01  0.157E+00    0.15       1.0  T
   5   -297.9067616 -0.886337E+00  0.483E-01    0.03       1.0  T
   6   -297.1264576  0.780304E+00  0.100E+00    0.16       1.0  T
   7   -297.1300913 -0.363367E-02  0.102E+00    0.39       1.0  T
   8   -297.9265873 -0.796496E+00  0.517E-01    0.07       1.0  T
   9   -297.8930516  0.335357E-01  0.466E-01    0.02       1.0  T
  10   -298.0585286 -0.165477E+00  0.270E-01    0.03       1.0  T
  11   -298.0402637  0.182649E-01  0.295E-01    0.03       1.0  T
  12   -298.0590779 -0.188142E-01  0.256E-01    0.01       1.0  T
  13   -298.0754614 -0.163835E-01  0.181E-01    0.02       1.0  T
  14   -298.0755612 -0.997379E-04  0.179E-01    0.02       1.0  T
  15   -298.0803955 -0.483436E-02  0.152E-01    0.01       1.0  T
  16   -298.0774175  0.297804E-02  0.147E-01    0.00       1.0  T
  17   -298.0812498 -0.383230E-02  0.114E-01    0.04       1.0  T
  18   -298.0832505 -0.200073E-02  0.106E-01    0.00       1.0  T
  19   -298.0889938 -0.574331E-02  0.500E-02    0.02       1.0  T
  20   -298.0875553  0.143848E-02  0.544E-02    0.02       1.0  T
  21   -298.0889283 -0.137293E-02  0.359E-02    0.02       1.0  T
  22   -298.0897122 -0.783922E-03  0.280E-02    0.02       1.0  T
  23   -298.0898496 -0.137395E-03  0.216E-02    0.02       1.0  T
  24   -298.0897796  0.699683E-04  0.223E-02    0.02       1.0  T
  25   -298.0897161  0.635111E-04  0.182E-02    0.02       1.0  T
  26   -298.0898630 -0.146939E-03  0.133E-02    0.02       1.0  T
  27   -298.0898828 -0.197313E-04  0.118E-02    0.02       1.0  T
  28   -298.0899629 -0.801129E-04  0.450E-03    0.02       1.8  T
  29   -298.0899720 -0.910403E-05  0.133E-03    0.02       6.0  T
  30   -298.0899586  0.134437E-04  0.372E-03    0.02       2.1  T
  31   -298.0899706 -0.120581E-04  0.160E-03    0.02       4.9  T
  32   -298.0899720 -0.143510E-05  0.116E-03    0.02       6.8  T
  33   -298.0899726 -0.535055E-06  0.728E-04    0.02      10.9  T
  34   -298.0899721  0.510873E-06  0.921E-04    0.02       8.6  T
     SCC iter.                  ...        0 min,  2.182 sec
     gradient                   ...        0 min,  0.217 sec
 * total energy  :  -292.8157875 Eh     change       -0.4874018E-01 Eh
   gradient norm :     0.0679530 Eh/α   predicted    -0.4673806E-01 (  -4.11%)
   displ. norm   :     0.7907127 α      lambda       -0.4172998E-01
   maximum displ.:     0.2772513 α      in ANC's #89, #88, #122, ...

........................................................................
.............................. CYCLE    7 ..............................
........................................................................
   1   -297.9471533 -0.297947E+03  0.738E-01    0.18       0.0  T
   2   -282.9887984  0.149584E+02  0.447E+00    0.24       1.0  T
   3   -296.8789496 -0.138902E+02  0.173E+00    0.19       1.0  T
   4   -297.1978331 -0.318883E+00  0.144E+00    0.14       1.0  T
   5   -297.9459383 -0.748105E+00  0.508E-01    0.03       1.0  T
   6   -297.2172186  0.728720E+00  0.987E-01    0.17       1.0  T
   7   -297.1626710  0.545475E-01  0.995E-01    0.37       1.0  T
   8   -297.9790483 -0.816377E+00  0.530E-01    0.07       1.0  T
   9   -297.8936779  0.853704E-01  0.488E-01    0.01       1.0  T
  10   -298.0448881 -0.151210E+00  0.409E-01    0.08       1.0  T
  11   -298.0781571 -0.332690E-01  0.331E-01    0.06       1.0  T
  12   -298.1168074 -0.386502E-01  0.188E-01    0.02       1.0  T
  13   -298.1051274  0.116799E-01  0.238E-01    0.04       1.0  T
  14   -298.1038570  0.127041E-02  0.221E-01    0.04       1.0  T
  15   -298.1205493 -0.166923E-01  0.147E-01    0.03       1.0  T
  16   -298.1199060  0.643293E-03  0.136E-01    0.01       1.0  T
  17   -298.1284838 -0.857779E-02  0.944E-02    0.02       1.0  T
  18   -298.1304689 -0.198510E-02  0.662E-02    0.02       1.0  T
  19   -298.1314887 -0.101972E-02  0.414E-02    0.02       1.0  T
  20   -298.1267481  0.474053E-02  0.884E-02    0.01       1.0  T
  21   -298.1315272 -0.477905E-02  0.361E-02    0.02       1.0  T
  22   -298.1321151 -0.587883E-03  0.185E-02    0.02       1.0  T
  23   -298.1318732  0.241842E-03  0.245E-02    0.03       1.0  T
  24   -298.1318667  0.649451E-05  0.235E-02    0.03       1.0  T
  25   -298.1319806 -0.113875E-03  0.192E-02    0.03       1.0  T
  26   -298.1321394 -0.158808E-03  0.104E-02    0.02       1.0  T
  27   -298.1320221  0.117349E-03  0.134E-02    0.03       1.0  T
  28   -298.1321541 -0.132092E-03  0.611E-03    0.02       1.3  T
  29   -298.1321728 -0.186393E-04  0.343E-03    0.02       2.3  T
  30   -298.1321732 -0.452023E-06  0.278E-03    0.02       2.8  T
  31   -298.1321797 -0.641138E-05  0.134E-03    0.02       5.9  T
  32   -298.1321796  0.885126E-08  0.117E-03    0.02       6.8  T
  33   -298.1321794  0.231489E-06  0.124E-03    0.02       6.4  T
  34   -298.1321806 -0.122527E-05  0.241E-04    0.02      32.8  T
  35   -298.1321805  0.951367E-07  0.411E-04    0.02      19.3  T
  36   -298.1321806 -0.941669E-07  0.228E-04    0.02      34.7  T
     SCC iter.                  ...        0 min,  2.313 sec
     gradient                   ...        0 min,  0.218 sec
 * total energy  :  -292.8508703 Eh     change       -0.3508272E-01 Eh
   gradient norm :     0.0491862 Eh/α   predicted    -0.3391035E-01 (  -3.34%)
   displ. norm   :     0.7816005 α      lambda       -0.2907105E-01
   maximum displ.:     0.2777494 α      in ANC's #32, #89, #88, ...

........................................................................
.............................. CYCLE    8 ..............................
........................................................................
   1   -298.0252312 -0.298025E+03  0.628E-01    0.15       0.0  T
   2   -283.5071287  0.145181E+02  0.441E+00    0.16       1.0  T
   3   -296.8677636 -0.133606E+02  0.171E+00    0.26       1.0  T
   4   -297.5092683 -0.641505E+00  0.117E+00    0.08       1.0  T
   5   -297.7291600 -0.219892E+00  0.736E-01    0.02       1.0  T
   6   -298.0316039 -0.302444E+00  0.464E-01    0.08       1.0  T
   7   -297.0847350  0.946869E+00  0.106E+00    0.22       1.0  T
   8   -298.0138020 -0.929067E+00  0.465E-01    0.02       1.0  T
   9   -298.0526839 -0.388819E-01  0.410E-01    0.06       1.0  T
  10   -298.1124158 -0.597319E-01  0.305E-01    0.06       1.0  T
  11   -298.1424481 -0.300323E-01  0.220E-01    0.04       1.0  T
  12   -298.1464950 -0.404699E-02  0.186E-01    0.03       1.0  T
  13   -298.1539016 -0.740653E-02  0.157E-01    0.03       1.0  T
  14   -298.1565165 -0.261489E-02  0.138E-01    0.03       1.0  T
  15   -298.1575728 -0.105631E-02  0.119E-01    0.03       1.0  T
  16   -298.1619449 -0.437208E-02  0.773E-02    0.02       1.0  T
  17   -298.1626322 -0.687389E-03  0.671E-02    0.02       1.0  T
  18   -298.1610239  0.160835E-02  0.836E-02    0.02       1.0  T
  19   -298.1640645 -0.304061E-02  0.510E-02    0.02       1.0  T
  20   -298.1629243  0.114021E-02  0.581E-02    0.02       1.0  T
  21   -298.1640632 -0.113887E-02  0.470E-02    0.02       1.0  T
  22   -298.1644811 -0.417923E-03  0.394E-02    0.02       1.0  T
  23   -298.1646128 -0.131715E-03  0.302E-02    0.02       1.0  T
  24   -298.1650994 -0.486632E-03  0.132E-02    0.03       1.0  T
  25   -298.1650907  0.876585E-05  0.127E-02    0.03       1.0  T
  26   -298.1652071 -0.116393E-03  0.425E-03    0.03       1.9  T
  27   -298.1652098 -0.272612E-05  0.348E-03    0.03       2.3  T
  28   -298.1652111 -0.137245E-05  0.286E-03    0.03       2.8  T
  29   -298.1652142 -0.304929E-05  0.266E-03    0.03       3.0  T
  30   -298.1652157 -0.145774E-05  0.199E-03    0.03       4.0  T
  31   -298.1652129  0.279513E-05  0.259E-03    0.03       3.1  T
  32   -298.1652175 -0.462826E-05  0.840E-04    0.03       9.4  T
  33   -298.1652175 -0.300732E-07  0.682E-04    0.03      11.6  T
  34   -298.1652178 -0.239391E-06  0.395E-04    0.03      20.0  T
     SCC iter.                  ...        0 min,  2.185 sec
     gradient                   ...        0 min,  0.218 sec
 * total energy  :  -292.8749903 Eh     change       -0.2412003E-01 Eh
   gradient norm :     0.0345911 Eh/α   predicted    -0.2341529E-01 (  -2.92%)
   displ. norm   :     0.7663317 α      lambda       -0.1931443E-01
   maximum displ.:     0.3732419 α      in ANC's #32, #89, #88, ...

........................................................................
.............................. CYCLE    9 ..............................
........................................................................
   1   -298.1057899 -0.298106E+03  0.493E-01    0.10       0.0  T
   2   -285.8313684  0.122744E+02  0.407E+00    0.02       1.0  T
   3   -297.1364236 -0.113051E+02  0.149E+00    0.11       1.0  T
   4   -297.6731734 -0.536750E+00  0.100E+00    0.05       1.0  T
   5   -297.6908415 -0.176681E-01  0.809E-01    0.01       1.0  T
   6   -298.0105239 -0.319682E+00  0.498E-01    0.02       1.0  T
   7   -297.1861939  0.824330E+00  0.102E+00    0.22       1.0  T
   8   -297.7479915 -0.561798E+00  0.771E-01    0.02       1.0  T
   9   -298.1226772 -0.374686E+00  0.374E-01    0.04       1.0  T
  10   -297.9929893  0.129688E+00  0.509E-01    0.03       1.0  T
  11   -298.1457317 -0.152742E+00  0.302E-01    0.06       1.0  T
  12   -298.1477377 -0.200603E-02  0.290E-01    0.07       1.0  T
  13   -298.1720303 -0.242926E-01  0.205E-01    0.05       1.0  T
  14   -298.1810873 -0.905695E-02  0.157E-01    0.04       1.0  T
  15   -298.1816826 -0.595350E-03  0.140E-01    0.03       1.0  T
  16   -298.1820412 -0.358606E-03  0.114E-01    0.02       1.0  T
  17   -298.1880283 -0.598706E-02  0.761E-02    0.04       1.0  T
  18   -298.1896923 -0.166406E-02  0.528E-02    0.03       1.0  T
  19   -298.1904337 -0.741328E-03  0.411E-02    0.03       1.0  T
  20   -298.1905644 -0.130737E-03  0.408E-02    0.02       1.0  T
  21   -298.1905391  0.252624E-04  0.401E-02    0.02       1.0  T
  22   -298.1906616 -0.122488E-03  0.367E-02    0.03       1.0  T
  23   -298.1909162 -0.254536E-03  0.314E-02    0.03       1.0  T
  24   -298.1911265 -0.210302E-03  0.224E-02    0.03       1.0  T
  25   -298.1910607  0.657976E-04  0.224E-02    0.02       1.0  T
  26   -298.1912310 -0.170303E-03  0.167E-02    0.03       1.0  T
  27   -298.1913206 -0.895976E-04  0.117E-02    0.03       1.0  T
  28   -298.1913773 -0.567719E-04  0.643E-03    0.03       1.2  T
  29   -298.1913987 -0.213480E-04  0.305E-03    0.03       2.6  T
  30   -298.1914018 -0.307977E-05  0.160E-03    0.03       5.0  T
  31   -298.1914013  0.485346E-06  0.162E-03    0.03       4.9  T
  32   -298.1914020 -0.718762E-06  0.118E-03    0.03       6.7  T
  33   -298.1914024 -0.406147E-06  0.908E-04    0.03       8.7  T
  34   -298.1914026 -0.223434E-06  0.770E-04    0.03      10.3  T
     SCC iter.                  ...        0 min,  2.183 sec
     gradient                   ...        0 min,  0.249 sec
 * total energy  :  -292.8909205 Eh     change       -0.1593018E-01 Eh
   gradient norm :     0.0267917 Eh/α   predicted    -0.1532858E-01 (  -3.78%)
   displ. norm   :     0.7705257 α      lambda       -0.1318771E-01
   maximum displ.:     0.4844579 α      in ANC's #32, #30, #89, ...

........................................................................
.............................. CYCLE   10 ..............................
........................................................................
   1   -298.1925256 -0.298193E+03  0.303E-01    0.05       0.0  T
   2   -293.9996034  0.419292E+01  0.248E+00    0.02       1.0  T
   3   -297.6560488 -0.365645E+01  0.775E-01    0.02       1.0  T
   4   -297.5868546  0.691942E-01  0.939E-01    0.01       1.0  T
   5   -297.8283618 -0.241507E+00  0.735E-01    0.08       1.0  T
   6   -297.7000656  0.128296E+00  0.833E-01    0.02       1.0  T
   7   -298.1431471 -0.443082E+00  0.325E-01    0.00       1.0  T
   8   -297.7633978  0.379749E+00  0.676E-01    0.04       1.0  T
   9   -297.5022568  0.261141E+00  0.104E+00    0.16       1.0  T
  10   -298.1031256 -0.600869E+00  0.390E-01    0.01       1.0  T
  11   -298.0384533  0.646723E-01  0.430E-01    0.03       1.0  T
  12   -298.1756110 -0.137158E+00  0.247E-01    0.05       1.0  T
  13   -298.2068655 -0.312545E-01  0.122E-01    0.03       1.0  T
  14   -298.1991370  0.772858E-02  0.167E-01    0.03       1.0  T
  15   -298.1982386  0.898404E-03  0.156E-01    0.02       1.0  T
  16   -298.2052182 -0.697965E-02  0.126E-01    0.03       1.0  T
  17   -298.2078749 -0.265667E-02  0.892E-02    0.02       1.0  T
  18   -298.2117221 -0.384724E-02  0.565E-02    0.03       1.0  T
  19   -298.2135039 -0.178174E-02  0.273E-02    0.02       1.0  T
  20   -298.2132997  0.204137E-03  0.319E-02    0.03       1.0  T
  21   -298.2136273 -0.327532E-03  0.168E-02    0.03       1.0  T
  22   -298.2132155  0.411798E-03  0.328E-02    0.03       1.0  T
  23   -298.2136896 -0.474150E-03  0.167E-02    0.03       1.0  T
  24   -298.2137560 -0.663427E-04  0.135E-02    0.03       1.0  T
  25   -298.2137717 -0.156860E-04  0.114E-02    0.03       1.0  T
  26   -298.2138100 -0.383453E-04  0.686E-03    0.03       1.2  T
  27   -298.2138017  0.826365E-05  0.723E-03    0.03       1.1  T
  28   -298.2138345 -0.327232E-04  0.257E-03    0.03       3.1  T
  29   -298.2138347 -0.211549E-06  0.240E-03    0.03       3.3  T
  30   -298.2138358 -0.112596E-05  0.188E-03    0.03       4.2  T
  31   -298.2138360 -0.207982E-06  0.154E-03    0.03       5.1  T
  32   -298.2138369 -0.860241E-06  0.896E-04    0.03       8.8  T
  33   -298.2138374 -0.494294E-06  0.354E-04    0.03      22.4  T
     SCC iter.                  ...        0 min,  2.118 sec
     gradient                   ...        0 min,  0.218 sec
 * total energy  :  -292.9021307 Eh     change       -0.1121023E-01 Eh
   gradient norm :     0.0243081 Eh/α   predicted    -0.1050869E-01 (  -6.26%)
   displ. norm   :     0.8164355 α      lambda       -0.1067367E-01
   maximum displ.:     0.5884065 α      in ANC's #32, #30, #16, ...

........................................................................
.............................. CYCLE   11 ..............................
........................................................................
   1   -298.1953343 -0.298195E+03  0.283E-01    0.02       0.0  T
   2   -296.8956942  0.129964E+01  0.131E+00    0.24       1.0  T
   3   -297.8517456 -0.956051E+00  0.792E-01    0.11       1.0  T
   4   -297.6195147  0.232231E+00  0.897E-01    0.02       1.0  T
   5   -297.7654538 -0.145939E+00  0.749E-01    0.01       1.0  T
   6   -298.0578040 -0.292350E+00  0.526E-01    0.04       1.0  T
   7   -297.6918518  0.365952E+00  0.784E-01    0.12       1.0  T
   8   -297.4455858  0.246266E+00  0.977E-01    0.10       1.0  T
   9   -297.8990736 -0.453488E+00  0.581E-01    0.06       1.0  T
  10   -298.1998953 -0.300822E+00  0.252E-01    0.02       1.0  T
  11   -298.1865665  0.133289E-01  0.255E-01    0.01       1.0  T
  12   -298.2073466 -0.207801E-01  0.219E-01    0.01       1.0  T
  13   -298.1966172  0.107294E-01  0.263E-01    0.05       1.0  T
  14   -298.2006593 -0.404210E-02  0.246E-01    0.05       1.0  T
  15   -298.2140110 -0.133517E-01  0.189E-01    0.04       1.0  T
  16   -298.2244274 -0.104164E-01  0.109E-01    0.02       1.0  T
  17   -298.2287691 -0.434174E-02  0.628E-02    0.02       1.0  T
  18   -298.2307218 -0.195263E-02  0.509E-02    0.02       1.0  T
  19   -298.2304533  0.268479E-03  0.536E-02    0.01       1.0  T
  20   -298.2315479 -0.109458E-02  0.433E-02    0.02       1.0  T
  21   -298.2328186 -0.127073E-02  0.138E-02    0.02       1.0  T
  22   -298.2326706  0.147970E-03  0.164E-02    0.02       1.0  T
  23   -298.2328440 -0.173394E-03  0.978E-03    0.02       1.0  T
  24   -298.2329093 -0.652328E-04  0.502E-03    0.02       1.6  T
  25   -298.2328670  0.422178E-04  0.863E-03    0.02       1.0  T
  26   -298.2329099 -0.428140E-04  0.497E-03    0.02       1.6  T
  27   -298.2329270 -0.171359E-04  0.155E-03    0.02       5.1  T
  28   -298.2329257  0.129401E-05  0.235E-03    0.02       3.4  T
  29   -298.2329243  0.142213E-05  0.254E-03    0.02       3.1  T
  30   -298.2329268 -0.255731E-05  0.149E-03    0.02       5.3  T
  31   -298.2329286 -0.180298E-05  0.381E-04    0.02      20.8  T
  32   -298.2329287 -0.593681E-07  0.242E-04    0.02      32.7  T
  33   -298.2329287 -0.303502E-07  0.134E-04    0.02      59.1  T
     SCC iter.                  ...        0 min,  2.119 sec
     gradient                   ...        0 min,  0.218 sec
 * total energy  :  -292.9117718 Eh     change       -0.9641110E-02 Eh
   gradient norm :     0.0253267 Eh/α   predicted    -0.8894193E-02 (  -7.75%)
   displ. norm   :     0.8762907 α      lambda       -0.1060703E-01
   maximum displ.:     0.6454003 α      in ANC's #32, #30, #16, ...

........................................................................
.............................. CYCLE   12 ..............................
........................................................................
   1   -298.0639636 -0.298064E+03  0.577E-01    0.01       0.0  T
   2   -296.4842470  0.157972E+01  0.200E+00    0.10       1.0  T
   3   -297.7262345 -0.124199E+01  0.955E-01    0.26       1.0  T
   4   -298.0535838 -0.327349E+00  0.504E-01    0.06       1.0  T
   5   -298.1539075 -0.100324E+00  0.353E-01    0.01       1.0  T
   6   -297.6666183  0.487289E+00  0.855E-01    0.07       1.0  T
   7   -297.7513655 -0.847472E-01  0.727E-01    0.01       1.0  T
   8   -298.0338544 -0.282489E+00  0.502E-01    0.01       1.0  T
   9   -298.1804982 -0.146644E+00  0.340E-01    0.04       1.0  T
  10   -298.1566755  0.238227E-01  0.356E-01    0.06       1.0  T
  11   -298.2120549 -0.553794E-01  0.233E-01    0.01       1.0  T
  12   -298.2088531  0.320178E-02  0.223E-01    0.03       1.0  T
  13   -298.2057066  0.314650E-02  0.255E-01    0.06       1.0  T
  14   -298.2285475 -0.228409E-01  0.179E-01    0.03       1.0  T
  15   -298.2410273 -0.124797E-01  0.909E-02    0.01       1.0  T
  16   -298.2350002  0.602710E-02  0.120E-01    0.01       1.0  T
  17   -298.2453518 -0.103516E-01  0.640E-02    0.02       1.0  T
  18   -298.2470798 -0.172800E-02  0.517E-02    0.01       1.0  T
  19   -298.2486310 -0.155122E-02  0.256E-02    0.01       1.0  T
  20   -298.2481134  0.517612E-03  0.335E-02    0.01       1.0  T
  21   -298.2485257 -0.412297E-03  0.257E-02    0.01       1.0  T
  22   -298.2490534 -0.527778E-03  0.101E-02    0.01       1.0  T
  23   -298.2491316 -0.781007E-04  0.307E-03    0.02       2.6  T
  24   -298.2491371 -0.553288E-05  0.154E-03    0.02       5.1  T
  25   -298.2491386 -0.147360E-05  0.106E-03    0.02       7.5  T
  26   -298.2491371  0.146574E-05  0.150E-03    0.02       5.3  T
  27   -298.2491390 -0.195243E-05  0.560E-04    0.02      14.1  T
  28   -298.2491389  0.110012E-06  0.722E-04    0.02      10.9  T
  29   -298.2491392 -0.291345E-06  0.382E-04    0.02      20.7  T
     SCC iter.                  ...        0 min,  1.862 sec
     gradient                   ...        0 min,  0.218 sec
 * total energy  :  -292.9215398 Eh     change       -0.9768027E-02 Eh
   gradient norm :     0.0275738 Eh/α   predicted    -0.9376030E-02 (  -4.01%)
   displ. norm   :     0.9106342 α      lambda       -0.1173928E-01
   maximum displ.:     0.6825861 α      in ANC's #32, #30, #16, ...

........................................................................
.............................. CYCLE   13 ..............................
........................................................................
   1   -298.0003659 -0.298000E+03  0.713E-01    0.01       0.0  T
   2   -293.8083100  0.419206E+01  0.335E+00    0.06       1.0  T
   3   -297.1916725 -0.338336E+01  0.146E+00    0.80       1.0  T
   4   -297.2196873 -0.280148E-01  0.105E+00    0.30       1.0  T
   5   -297.5611494 -0.341462E+00  0.104E+00    0.23       1.0  T
   6   -298.1035910 -0.542442E+00  0.532E-01    0.01       1.0  T
   7   -297.6953128  0.408278E+00  0.752E-01    0.03       1.0  T
   8   -297.6791124  0.162004E-01  0.835E-01    0.22       1.0  T
   9   -298.0879753 -0.408863E+00  0.534E-01    0.08       1.0  T
  10   -298.2240569 -0.136082E+00  0.256E-01    0.00       1.0  T
  11   -298.0883882  0.135669E+00  0.477E-01    0.02       1.0  T
  12   -298.1579689 -0.695808E-01  0.429E-01    0.04       1.0  T
  13   -298.2432151 -0.852462E-01  0.218E-01    0.01       1.0  T
  14   -298.1824463  0.607688E-01  0.316E-01    0.03       1.0  T
  15   -298.2389534 -0.565071E-01  0.202E-01    0.02       1.0  T
  16   -298.2504487 -0.114953E-01  0.153E-01    0.01       1.0  T
  17   -298.2607592 -0.103105E-01  0.107E-01    0.01       1.0  T
  18   -298.2665680 -0.580880E-02  0.530E-02    0.01       1.0  T
  19   -298.2680805 -0.151250E-02  0.297E-02    0.00       1.0  T
  20   -298.2685289 -0.448329E-03  0.224E-02    0.01       1.0  T
  21   -298.2688245 -0.295627E-03  0.124E-02    0.00       1.0  T
  22   -298.2689282 -0.103742E-03  0.449E-03    0.01       1.8  T
  23   -298.2688953  0.328944E-04  0.730E-03    0.01       1.1  T
  24   -298.2689408 -0.455090E-04  0.204E-03    0.01       3.9  T
  25   -298.2689405  0.348187E-06  0.260E-03    0.01       3.0  T
  26   -298.2689411 -0.566992E-06  0.234E-03    0.01       3.4  T
  27   -298.2689452 -0.416488E-05  0.365E-04    0.01      21.6  T
  28   -298.2689433  0.190244E-05  0.129E-03    0.01       6.1  T
  29   -298.2689450 -0.166583E-05  0.572E-04    0.01      13.8  T
  30   -298.2689451 -0.107469E-06  0.452E-04    0.01      17.5  T
  31   -298.2689453 -0.195766E-06  0.106E-04    0.01      74.6  T
     SCC iter.                  ...        0 min,  1.992 sec
     gradient                   ...        0 min,  0.218 sec
 * total energy  :  -292.9331681 Eh     change       -0.1162828E-01 Eh
   gradient norm :     0.0282604 Eh/α   predicted    -0.1073708E-01 (  -7.66%)
   displ. norm   :     0.9504787 α      lambda       -0.1369291E-01
   maximum displ.:     0.7131668 α      in ANC's #32, #30, #16, ...

........................................................................
.............................. CYCLE   14 ..............................
........................................................................
   1   -298.0594537 -0.298059E+03  0.696E-01    0.01       0.0  T
   2   -294.4407370  0.361872E+01  0.361E+00    0.01       1.0  T
   3   -297.2511493 -0.281041E+01  0.139E+00    0.44       1.0  T
   4   -297.7555159 -0.504367E+00  0.876E-01    0.04       1.0  T
   5   -297.9245200 -0.169004E+00  0.710E-01    0.03       1.0  T
   6   -297.7512998  0.173220E+00  0.866E-01    0.11       1.0  T
   7   -297.4593687  0.291931E+00  0.885E-01    0.10       1.0  T
   8   -297.7651981 -0.305829E+00  0.804E-01    0.11       1.0  T
   9   -298.0779658 -0.312768E+00  0.507E-01    0.03       1.0  T
  10   -297.7320382  0.345928E+00  0.692E-01    0.05       1.0  T
  11   -298.1744901 -0.442452E+00  0.336E-01    0.03       1.0  T
  12   -298.1195900  0.549001E-01  0.391E-01    0.02       1.0  T
  13   -298.1591870 -0.395970E-01  0.420E-01    0.03       1.0  T
  14   -298.2238576 -0.646705E-01  0.290E-01    0.02       1.0  T
  15   -298.2524950 -0.286374E-01  0.226E-01    0.03       1.0  T
  16   -298.2586129 -0.611786E-02  0.207E-01    0.01       1.0  T
  17   -298.2808073 -0.221944E-01  0.107E-01    0.00       1.0  T
  18   -298.2743202  0.648710E-02  0.116E-01    0.01       1.0  T
  19   -298.2837692 -0.944902E-02  0.592E-02    0.00       1.0  T
  20   -298.2803186  0.345066E-02  0.831E-02    0.00       1.0  T
  21   -298.2842113 -0.389276E-02  0.575E-02    0.00       1.0  T
  22   -298.2868513 -0.263994E-02  0.248E-02    0.00       1.0  T
  23   -298.2871504 -0.299138E-03  0.118E-02    0.01       1.0  T
  24   -298.2871760 -0.256271E-04  0.874E-03    0.01       1.0  T
  25   -298.2870810  0.950929E-04  0.119E-02    0.01       1.0  T
  26   -298.2871955 -0.114561E-03  0.754E-03    0.01       1.0  T
  27   -298.2872561 -0.606293E-04  0.294E-03    0.01       2.7  T
  28   -298.2872585 -0.233710E-05  0.212E-03    0.01       3.7  T
  29   -298.2872596 -0.112442E-05  0.144E-03    0.01       5.5  T
  30   -298.2872585  0.107057E-05  0.145E-03    0.01       5.4  T
  31   -298.2872575  0.100868E-05  0.160E-03    0.01       4.9  T
  32   -298.2872590 -0.146886E-05  0.118E-03    0.01       6.7  T
  33   -298.2872606 -0.164186E-05  0.462E-04    0.01      17.1  T
  34   -298.2872603  0.340970E-06  0.636E-04    0.01      12.4  T
  35   -298.2872605 -0.221689E-06  0.526E-04    0.01      15.0  T
     SCC iter.                  ...        0 min,  2.247 sec
     gradient                   ...        0 min,  0.217 sec
 * total energy  :  -292.9468861 Eh     change       -0.1371795E-01 Eh
   gradient norm :     0.0420301 Eh/α   predicted    -0.1303162E-01 (  -5.00%)
   displ. norm   :     0.9612612 α      lambda       -0.1453919E-01
   maximum displ.:     0.7009391 α      in ANC's #32, #30, #16, ...

........................................................................
.............................. CYCLE   15 ..............................
........................................................................
   1   -298.1367409 -0.298137E+03  0.561E-01    0.02       0.0  T
   2   -295.8814102  0.225533E+01  0.245E+00    0.01       1.0  T
   3   -297.4581523 -0.157674E+01  0.111E+00    0.34       1.0  T
   4   -297.6626549 -0.204503E+00  0.985E-01    0.06       1.0  T
   5   -297.2330505  0.429604E+00  0.100E+00    0.48       1.0  T
   6   -297.8562321 -0.623182E+00  0.710E-01    0.06       1.0  T
   7   -297.9010747 -0.448426E-01  0.668E-01    0.05       1.0  T
   8   -298.0532572 -0.152183E+00  0.606E-01    0.02       1.0  T
   9   -297.5961718  0.457085E+00  0.775E-01    0.10       1.0  T
  10   -298.1176245 -0.521453E+00  0.431E-01    0.02       1.0  T
  11   -298.0455425  0.720820E-01  0.522E-01    0.06       1.0  T
  12   -298.2536637 -0.208121E+00  0.190E-01    0.02       1.0  T
  13   -298.2000115  0.536522E-01  0.289E-01    0.01       1.0  T
  14   -298.2538097 -0.537982E-01  0.228E-01    0.02       1.0  T
  15   -298.2208876  0.329222E-01  0.267E-01    0.01       1.0  T
  16   -298.2765160 -0.556285E-01  0.114E-01    0.00       1.0  T
  17   -298.2778543 -0.133823E-02  0.947E-02    0.00       1.0  T
  18   -298.2796822 -0.182791E-02  0.732E-02    0.01       1.0  T
  19   -298.2812957 -0.161352E-02  0.659E-02    0.01       1.0  T
  20   -298.2853249 -0.402915E-02  0.309E-02    0.01       1.0  T
  21   -298.2849209  0.404002E-03  0.368E-02    0.01       1.0  T
  22   -298.2861634 -0.124253E-02  0.153E-02    0.00       1.0  T
  23   -298.2861610  0.238897E-05  0.146E-02    0.00       1.0  T
  24   -298.2862426 -0.815861E-04  0.873E-03    0.00       1.0  T
  25   -298.2862351  0.751804E-05  0.694E-03    0.00       1.1  T
  26   -298.2862775 -0.424237E-04  0.314E-03    0.00       2.5  T
  27   -298.2862833 -0.577572E-05  0.241E-03    0.00       3.3  T
  28   -298.2862675  0.157689E-04  0.427E-03    0.00       1.9  T
  29   -298.2862881 -0.205825E-04  0.112E-03    0.00       7.1  T
  30   -298.2862886 -0.517239E-06  0.719E-04    0.00      11.0  T
  31   -298.2862886  0.355242E-07  0.603E-04    0.00      13.1  T
     SCC iter.                  ...        0 min,  1.993 sec
     gradient                   ...        0 min,  0.217 sec
 * total energy  :  -292.9624938 Eh     change       -0.1560769E-01 Eh
   gradient norm :     0.0621648 Eh/α   predicted    -0.1398688E-01 ( -10.38%)
   displ. norm   :     0.9230169 α      lambda       -0.1788869E-01
   maximum displ.:     0.6678077 α      in ANC's #32, #30, #16, ...

........................................................................
.............................. CYCLE   16 ..............................
........................................................................
   1   -298.1888095 -0.298189E+03  0.490E-01    0.01       0.0  T
   2   -291.6160481  0.657276E+01  0.433E+00    0.03       1.0  T
   3   -297.3139615 -0.569791E+01  0.132E+00    0.16       1.0  T
   4   -297.7993604 -0.485399E+00  0.896E-01    0.11       1.0  T
   5   -297.9069703 -0.107610E+00  0.792E-01    0.01       1.0  T
   6   -297.8292208  0.777495E-01  0.834E-01    0.10       1.0  T
   7   -297.8975629 -0.683421E-01  0.678E-01    0.07       1.0  T
   8   -297.5832065  0.314356E+00  0.822E-01    0.06       1.0  T
   9   -297.7308332 -0.147627E+00  0.703E-01    0.02       1.0  T
  10   -298.2376967 -0.506863E+00  0.340E-01    0.00       1.0  T
  11   -298.2573183 -0.196215E-01  0.253E-01    0.01       1.0  T
  12   -298.2733325 -0.160142E-01  0.208E-01    0.00       1.0  T
  13   -298.2665008  0.683163E-02  0.208E-01    0.01       1.0  T
  14   -298.2580590  0.844185E-02  0.252E-01    0.01       1.0  T
  15   -298.2387641  0.192949E-01  0.270E-01    0.02       1.0  T
  16   -298.3006249 -0.618608E-01  0.424E-02    0.01       1.0  T
  17   -298.2984898  0.213509E-02  0.623E-02    0.01       1.0  T
  18   -298.3015168 -0.302699E-02  0.163E-02    0.02       1.0  T
  19   -298.3013062  0.210631E-03  0.202E-02    0.01       1.0  T
  20   -298.3008297  0.476493E-03  0.297E-02    0.01       1.0  T
  21   -298.3013557 -0.526020E-03  0.197E-02    0.01       1.0  T
  22   -298.3016406 -0.284969E-03  0.896E-03    0.02       1.0  T
  23   -298.3016378  0.288112E-05  0.730E-03    0.02       1.1  T
  24   -298.3016075  0.303123E-04  0.845E-03    0.01       1.0  T
  25   -298.3016556 -0.481796E-04  0.543E-03    0.02       1.5  T
  26   -298.3016306  0.250174E-04  0.693E-03    0.01       1.1  T
  27   -298.3016415 -0.108707E-04  0.583E-03    0.01       1.4  T
  28   -298.3016617 -0.202532E-04  0.418E-03    0.02       1.9  T
  29   -298.3016615  0.276981E-06  0.380E-03    0.02       2.1  T
  30   -298.3016587  0.275863E-05  0.396E-03    0.01       2.0  T
  31   -298.3016616 -0.286608E-05  0.370E-03    0.02       2.1  T
  32   -298.3016666 -0.498414E-05  0.283E-03    0.02       2.8  T
  33   -298.3016667 -0.178710E-06  0.249E-03    0.02       3.2  T
  34   -298.3016681 -0.133113E-05  0.165E-03    0.02       4.8  T
  35   -298.3016688 -0.726917E-06  0.602E-04    0.02      13.1  T
  36   -298.3016691 -0.288425E-06  0.321E-04    0.02      24.6  T
     SCC iter.                  ...        0 min,  2.319 sec
     gradient                   ...        0 min,  0.217 sec
 * total energy  :  -292.9832826 Eh     change       -0.2078881E-01 Eh
   gradient norm :     0.0937309 Eh/α   predicted    -0.1656457E-01 ( -20.32%)
   displ. norm   :     0.8674919 α      lambda       -0.2628584E-01
   maximum displ.:     0.5611641 α      in ANC's #32, #16, #30, ...

........................................................................
.............................. CYCLE   17 ..............................
........................................................................
   1   -298.1695999 -0.298170E+03  0.453E-01    0.02       0.0  T
   2   -267.6051032  0.305645E+02  0.746E+00    0.04       1.0  T
   3   -297.3025120 -0.296974E+02  0.126E+00    0.13       1.0  T
   4   -297.8412649 -0.538753E+00  0.792E-01    0.06       1.0  T
   5   -297.7887953  0.524696E-01  0.792E-01    0.13       1.0  T
   6   -297.6336691  0.155126E+00  0.822E-01    0.07       1.0  T
   7   -297.8360782 -0.202409E+00  0.717E-01    0.14       1.0  T
   8   -297.8540906 -0.180124E-01  0.764E-01    0.13       1.0  T
   9   -297.8723209 -0.182303E-01  0.672E-01    0.00       1.0  T
  10   -298.1364850 -0.264164E+00  0.458E-01    0.02       1.0  T
  11   -298.1280001  0.848491E-02  0.471E-01    0.00       1.0  T
  12   -298.2797921 -0.151792E+00  0.165E-01    0.00       1.0  T
  13   -298.2922938 -0.125017E-01  0.102E-01    0.01       1.0  T
  14   -298.2871822  0.511158E-02  0.121E-01    0.00       1.0  T
  15   -298.2464496  0.407327E-01  0.246E-01    0.02       1.0  T
  16   -298.2796091 -0.331596E-01  0.135E-01    0.01       1.0  T
  17   -298.2978155 -0.182064E-01  0.359E-02    0.01       1.0  T
  18   -298.2970718  0.743701E-03  0.420E-02    0.01       1.0  T
  19   -298.2978598 -0.787936E-03  0.296E-02    0.01       1.0  T
  20   -298.2985611 -0.701362E-03  0.163E-02    0.02       1.0  T
  21   -298.2985999 -0.387245E-04  0.136E-02    0.02       1.0  T
  22   -298.2987447 -0.144812E-03  0.418E-03    0.02       1.9  T
  23   -298.2987494 -0.475797E-05  0.331E-03    0.01       2.4  T
  24   -298.2987474  0.206285E-05  0.332E-03    0.01       2.4  T
  25   -298.2987572 -0.982716E-05  0.119E-03    0.01       6.7  T
  26   -298.2987578 -0.611258E-06  0.105E-03    0.01       7.5  T
  27   -298.2987572  0.603189E-06  0.116E-03    0.01       6.8  T
  28   -298.2987566  0.596147E-06  0.131E-03    0.01       6.0  T
  29   -298.2987572 -0.586272E-06  0.109E-03    0.01       7.2  T
  30   -298.2987578 -0.585601E-06  0.830E-04    0.01       9.5  T
  31   -298.2987583 -0.476086E-06  0.517E-04    0.01      15.3  T
     SCC iter.                  ...        0 min,  1.994 sec
     gradient                   ...        0 min,  0.217 sec
 * total energy  :  -293.0121392 Eh     change       -0.2885664E-01 Eh
   gradient norm :     0.1191428 Eh/α   predicted    -0.2303355E-01 ( -20.18%)
   displ. norm   :     0.8337596 α      lambda       -0.3173350E-01
   maximum displ.:     0.5279189 α      in ANC's #32, #16, #30, ...

........................................................................
.............................. CYCLE   18 ..............................
........................................................................
   1   -298.2615544 -0.298262E+03  0.337E-01    0.00       0.0  T
   2   -297.0640762  0.119748E+01  0.149E+00    0.17       1.0  T
   3   -297.7689211 -0.704845E+00  0.854E-01    0.15       1.0  T
   4   -297.7638774  0.504363E-02  0.852E-01    0.03       1.0  T
   5   -298.0086778 -0.244800E+00  0.666E-01    0.04       1.0  T
   6   -298.1570031 -0.148325E+00  0.509E-01    0.03       1.0  T
   7   -297.7944600  0.362543E+00  0.763E-01    0.22       1.0  T
   8   -298.1110948 -0.316635E+00  0.521E-01    0.02       1.0  T
   9   -298.2505130 -0.139418E+00  0.309E-01    0.02       1.0  T
  10   -298.1966019  0.539112E-01  0.375E-01    0.00       1.0  T
  11   -298.1700900  0.265118E-01  0.403E-01    0.01       1.0  T
  12   -298.3017604 -0.131670E+00  0.124E-01    0.00       1.0  T
  13   -298.2886933  0.130671E-01  0.174E-01    0.01       1.0  T
  14   -298.3075525 -0.188592E-01  0.768E-02    0.01       1.0  T
  15   -298.3126144 -0.506197E-02  0.246E-02    0.01       1.0  T
  16   -298.3130185 -0.404089E-03  0.807E-03    0.01       1.0  T
  17   -298.3129812  0.372996E-04  0.913E-03    0.01       1.0  T
  18   -298.3130366 -0.554109E-04  0.475E-03    0.01       1.7  T
  19   -298.3130523 -0.156376E-04  0.118E-03    0.01       6.7  T
  20   -298.3130374  0.148261E-04  0.433E-03    0.01       1.8  T
  21   -298.3130532 -0.157552E-04  0.543E-04    0.01      14.6  T
  22   -298.3130519  0.132485E-05  0.127E-03    0.01       6.2  T
  23   -298.3130532 -0.133974E-05  0.469E-04    0.01      16.8  T
  24   -298.3130527  0.473747E-06  0.922E-04    0.01       8.6  T
  25   -298.3130533 -0.515430E-06  0.409E-04    0.01      19.3  T
     SCC iter.                  ...        0 min,  1.604 sec
     gradient                   ...        0 min,  0.217 sec
 * total energy  :  -293.0450607 Eh     change       -0.3292152E-01 Eh
   gradient norm :     0.1381787 Eh/α   predicted    -0.2689660E-01 ( -18.30%)
   displ. norm   :     0.8268767 α      lambda       -0.3401067E-01
   maximum displ.:     0.5185322 α      in ANC's #32, #16, #30, ...

........................................................................
.............................. CYCLE   19 ..............................
........................................................................
   1   -298.2835249 -0.298284E+03  0.260E-01    0.01       0.0  T
   2   -297.1978256  0.108570E+01  0.136E+00    0.27       1.0  T
   3   -297.5884699 -0.390644E+00  0.842E-01    0.06       1.0  T
   4   -298.1423194 -0.553850E+00  0.484E-01    0.05       1.0  T
   5   -298.0741231  0.681963E-01  0.577E-01    0.02       1.0  T
   6   -298.1762575 -0.102134E+00  0.440E-01    0.00       1.0  T
   7   -297.9152925  0.260965E+00  0.745E-01    0.07       1.0  T
   8   -298.1507828 -0.235490E+00  0.455E-01    0.00       1.0  T
   9   -298.2100273 -0.592445E-01  0.335E-01    0.02       1.0  T
  10   -298.2957117 -0.856844E-01  0.131E-01    0.01       1.0  T
  11   -298.2332945  0.624172E-01  0.295E-01    0.01       1.0  T
  12   -298.3026383 -0.693439E-01  0.915E-02    0.01       1.0  T
  13   -298.3068102 -0.417191E-02  0.569E-02    0.02       1.0  T
  14   -298.3079815 -0.117130E-02  0.387E-02    0.01       1.0  T
  15   -298.3087402 -0.758640E-03  0.268E-02    0.00       1.0  T
  16   -298.3092434 -0.503239E-03  0.150E-02    0.01       1.0  T
  17   -298.3093540 -0.110556E-03  0.944E-03    0.01       1.0  T
  18   -298.3094169 -0.629547E-04  0.298E-03    0.01       2.7  T
  19   -298.3094169  0.219018E-09  0.276E-03    0.01       2.9  T
  20   -298.3094198 -0.285402E-05  0.162E-03    0.01       4.9  T
  21   -298.3094221 -0.228267E-05  0.691E-04    0.01      11.4  T
  22   -298.3094218  0.315521E-06  0.978E-04    0.01       8.1  T
  23   -298.3094222 -0.470575E-06  0.540E-04    0.01      14.6  T
     SCC iter.                  ...        0 min,  1.476 sec
     gradient                   ...        0 min,  0.217 sec
 * total energy  :  -293.0759544 Eh     change       -0.3089365E-01 Eh
   gradient norm :     0.1363155 Eh/α   predicted    -0.2863233E-01 (  -7.32%)
   displ. norm   :     0.6966578 α      lambda       -0.4117175E-01
   maximum displ.:     0.3398628 α      in ANC's #32, #16, #56, ...

........................................................................
.............................. CYCLE   20 ..............................
........................................................................
   1   -298.2288033 -0.298229E+03  0.412E-01    0.02       0.0  T
   2   -290.2972431  0.793156E+01  0.462E+00    0.09       1.0  T
   3   -297.7933085 -0.749607E+01  0.834E-01    0.02       1.0  T
   4   -297.8630685 -0.697600E-01  0.791E-01    0.07       1.0  T
   5   -297.8447399  0.183286E-01  0.766E-01    0.09       1.0  T
   6   -297.9686064 -0.123867E+00  0.669E-01    0.03       1.0  T
   7   -297.7815826  0.187024E+00  0.766E-01    0.12       1.0  T
   8   -298.1357349 -0.354152E+00  0.473E-01    0.01       1.0  T
   9   -298.2316137 -0.958788E-01  0.266E-01    0.02       1.0  T
  10   -298.0943899  0.137224E+00  0.483E-01    0.04       1.0  T
  11   -298.2777459 -0.183356E+00  0.158E-01    0.00       1.0  T
  12   -298.2680776  0.966830E-02  0.194E-01    0.02       1.0  T
  13   -298.2254791  0.425985E-01  0.277E-01    0.03       1.0  T
  14   -298.2907994 -0.653204E-01  0.670E-02    0.01       1.0  T
  15   -298.2780005  0.127990E-01  0.146E-01    0.01       1.0  T
  16   -298.2887647 -0.107643E-01  0.875E-02    0.01       1.0  T
  17   -298.2947995 -0.603478E-02  0.146E-02    0.00       1.0  T
  18   -298.2942218  0.577689E-03  0.288E-02    0.00       1.0  T
  19   -298.2945074 -0.285579E-03  0.229E-02    0.00       1.0  T
  20   -298.2947160 -0.208656E-03  0.148E-02    0.00       1.0  T
  21   -298.2948247 -0.108641E-03  0.117E-02    0.00       1.0  T
  22   -298.2948578 -0.330875E-04  0.840E-03    0.00       1.0  T
  23   -298.2948595 -0.172238E-05  0.822E-03    0.00       1.0  T
  24   -298.2948569  0.261276E-05  0.771E-03    0.00       1.0  T
  25   -298.2948526  0.431096E-05  0.759E-03    0.00       1.0  T
  26   -298.2948644 -0.118372E-04  0.645E-03    0.00       1.2  T
  27   -298.2948540  0.103597E-04  0.659E-03    0.00       1.2  T
  28   -298.2948634 -0.936907E-05  0.565E-03    0.00       1.4  T
  29   -298.2948638 -0.356019E-06  0.535E-03    0.00       1.5  T
  30   -298.2948661 -0.229050E-05  0.478E-03    0.00       1.7  T
  31   -298.2948671 -0.104561E-05  0.362E-03    0.00       2.2  T
  32   -298.2948689 -0.179058E-05  0.213E-03    0.00       3.7  T
  33   -298.2948692 -0.272940E-06  0.134E-03    0.00       5.9  T
  34   -298.2948695 -0.304533E-06  0.678E-04    0.00      11.7  T
  35   -298.2948694  0.808774E-07  0.440E-04    0.00      18.0  T
     SCC iter.                  ...        0 min,  2.250 sec
     gradient                   ...        0 min,  0.217 sec
 * total energy  :  -293.0988942 Eh     change       -0.2293986E-01 Eh
   gradient norm :     0.1489892 Eh/α   predicted    -0.3057689E-01 (  33.29%)
   displ. norm   :     0.5983353 α      lambda       -0.3963928E-01
   maximum displ.:     0.3378015 α      in ANC's #32, #16, #30, ...
 * RMSD in coord.:     0.9638718 α      energy gain  -0.1219411E+01 Eh

generating ANC from model Hessian ...
Using Lindh-Hessian (1995)
 Shifting diagonal of input Hessian by    1.0024840536753300E-002
 Lowest  eigenvalues of input Hessian
    0.010000    0.010006    0.010014    0.010016    0.010019    0.010019
    0.010022    0.010024    0.000000    0.000000    0.000000    0.000000
    0.000000    0.000000    0.010033    0.010037    0.010045    0.010062
 Highest eigenvalues
    2.365532    2.371313    2.642817    2.696556    2.730224    3.032271


........................................................................
.............................. CYCLE   21 ..............................
........................................................................
   1   -298.2432439 -0.298243E+03  0.222E-01    0.00       0.0  T
   2   -297.6841057  0.559138E+00  0.923E-01    0.18       1.0  T
   3   -297.7404652 -0.563594E-01  0.816E-01    0.20       1.0  T
   4   -297.8647206 -0.124255E+00  0.700E-01    0.11       1.0  T
   5   -297.9006400 -0.359194E-01  0.710E-01    0.11       1.0  T
   6   -297.9291283 -0.284883E-01  0.672E-01    0.06       1.0  T
   7   -298.0095705 -0.804422E-01  0.540E-01    0.05       1.0  T
   8   -298.2244986 -0.214928E+00  0.201E-01    0.01       1.0  T
   9   -298.1616212  0.628774E-01  0.342E-01    0.02       1.0  T
  10   -298.2360428 -0.744216E-01  0.157E-01    0.00       1.0  T
  11   -298.2427467 -0.670393E-02  0.123E-01    0.02       1.0  T
  12   -298.2508992 -0.815241E-02  0.746E-02    0.00       1.0  T
  13   -298.2539894 -0.309026E-02  0.406E-02    0.00       1.0  T
  14   -298.2548106 -0.821143E-03  0.213E-02    0.00       1.0  T
  15   -298.2551338 -0.323278E-03  0.743E-03    0.00       1.1  T
  16   -298.2551490 -0.151848E-04  0.631E-03    0.00       1.3  T
  17   -298.2551748 -0.257606E-04  0.251E-03    0.00       3.1  T
  18   -298.2551750 -0.264933E-06  0.232E-03    0.00       3.4  T
  19   -298.2551779 -0.287618E-05  0.133E-03    0.00       5.9  T
  20   -298.2551784 -0.494369E-06  0.105E-03    0.00       7.5  T
  21   -298.2551781  0.332604E-06  0.120E-03    0.00       6.6  T
  22   -298.2551790 -0.891562E-06  0.574E-04    0.00      13.8  T
  23   -298.2551791 -0.161376E-06  0.359E-04    0.00      22.0  T
     SCC iter.                  ...        0 min,  1.479 sec
     gradient                   ...        0 min,  0.217 sec
 * total energy  :  -293.1335558 Eh     change       -0.3466152E-01 Eh
   gradient norm :     0.1071754 Eh/α   predicted     0.0000000E+00 (-100.00%)
   displ. norm   :     0.6955134 α      lambda       -0.4205615E-01
   maximum displ.:     0.3389665 α      in ANC's #41, #86, #64, ...

........................................................................
.............................. CYCLE   22 ..............................
........................................................................
   1   -298.2490679 -0.298249E+03  0.251E-01    0.00       0.0  T
   2   -297.6796328  0.569435E+00  0.941E-01    0.08       1.0  T
   3   -297.7615591 -0.819263E-01  0.815E-01    0.19       1.0  T
   4   -298.0416117 -0.280053E+00  0.567E-01    0.02       1.0  T
   5   -298.1548814 -0.113270E+00  0.416E-01    0.02       1.0  T
   6   -297.8417939  0.313087E+00  0.761E-01    0.14       1.0  T
   7   -298.1442999 -0.302506E+00  0.415E-01    0.03       1.0  T
   8   -298.2053044 -0.610045E-01  0.282E-01    0.00       1.0  T
   9   -298.0890420  0.116262E+00  0.475E-01    0.01       1.0  T
  10   -298.1841000 -0.950580E-01  0.334E-01    0.02       1.0  T
  11   -298.2626654 -0.785655E-01  0.106E-01    0.00       1.0  T
  12   -298.2623199  0.345558E-03  0.104E-01    0.01       1.0  T
  13   -298.2712404 -0.892051E-02  0.200E-02    0.00       1.0  T
  14   -298.2688679  0.237253E-02  0.586E-02    0.00       1.0  T
  15   -298.2708276 -0.195970E-02  0.292E-02    0.00       1.0  T
  16   -298.2709795 -0.151919E-03  0.255E-02    0.00       1.0  T
  17   -298.2713967 -0.417180E-03  0.107E-02    0.00       1.0  T
  18   -298.2714846 -0.878947E-04  0.246E-03    0.00       3.2  T
  19   -298.2714671  0.174590E-04  0.514E-03    0.00       1.5  T
  20   -298.2714838 -0.166574E-04  0.261E-03    0.00       3.0  T
  21   -298.2714844 -0.620208E-06  0.250E-03    0.00       3.2  T
  22   -298.2714876 -0.324814E-05  0.145E-03    0.00       5.5  T
  23   -298.2714885 -0.890077E-06  0.102E-03    0.00       7.8  T
  24   -298.2714891 -0.546302E-06  0.569E-04    0.00      13.9  T
  25   -298.2714891 -0.258735E-07  0.549E-04    0.00      14.4  T
     SCC iter.                  ...        0 min,  1.606 sec
     gradient                   ...        0 min,  0.217 sec
 * total energy  :  -293.1737595 Eh     change       -0.4020372E-01 Eh
   gradient norm :     0.0856895 Eh/α   predicted    -0.3120017E-01 ( -22.39%)
   displ. norm   :     0.9230363 α      lambda       -0.5795597E-01
   maximum displ.:     0.3755535 α      in ANC's #41, #86, #85, ...

........................................................................
.............................. CYCLE   23 ..............................
........................................................................
   1   -298.1765301 -0.298177E+03  0.427E-01    0.00       0.0  T
   2   -273.9055326  0.242710E+02  0.725E+00    0.13       1.0  T
   3   -297.6845181 -0.237790E+02  0.943E-01    0.13       1.0  T
   4   -297.7014990 -0.169809E-01  0.892E-01    0.25       1.0  T
   5   -297.8028287 -0.101330E+00  0.825E-01    0.17       1.0  T
   6   -298.0267949 -0.223966E+00  0.593E-01    0.03       1.0  T
   7   -297.8629988  0.163796E+00  0.742E-01    0.12       1.0  T
   8   -298.0624964 -0.199498E+00  0.506E-01    0.04       1.0  T
   9   -297.9470102  0.115486E+00  0.634E-01    0.09       1.0  T
  10   -298.1403753 -0.193365E+00  0.417E-01    0.04       1.0  T
  11   -298.2193779 -0.790026E-01  0.266E-01    0.01       1.0  T
  12   -298.2222119 -0.283402E-02  0.251E-01    0.04       1.0  T
  13   -298.2256055 -0.339354E-02  0.238E-01    0.03       1.0  T
  14   -298.2576521 -0.320466E-01  0.145E-01    0.00       1.0  T
  15   -298.2566306  0.102149E-02  0.151E-01    0.01       1.0  T
  16   -298.2724698 -0.158392E-01  0.362E-02    0.01       1.0  T
  17   -298.2724704 -0.667043E-06  0.342E-02    0.00       1.0  T
  18   -298.2727212 -0.250780E-03  0.266E-02    0.00       1.0  T
  19   -298.2730479 -0.326672E-03  0.176E-02    0.00       1.0  T
  20   -298.2732347 -0.186762E-03  0.118E-02    0.00       1.0  T
  21   -298.2731765  0.581514E-04  0.143E-02    0.00       1.0  T
  22   -298.2731414  0.350559E-04  0.144E-02    0.00       1.0  T
  23   -298.2732537 -0.112248E-03  0.908E-03    0.00       1.0  T
  24   -298.2732106  0.430759E-04  0.107E-02    0.00       1.0  T
  25   -298.2732541 -0.435077E-04  0.827E-03    0.00       1.0  T
  26   -298.2732516  0.249022E-05  0.813E-03    0.00       1.0  T
  27   -298.2732575 -0.586685E-05  0.723E-03    0.00       1.1  T
  28   -298.2732814 -0.238794E-04  0.453E-03    0.00       1.7  T
  29   -298.2732776  0.382786E-05  0.454E-03    0.00       1.7  T
  30   -298.2732883 -0.107264E-04  0.247E-03    0.00       3.2  T
  31   -298.2732899 -0.159789E-05  0.186E-03    0.00       4.2  T
  32   -298.2732899 -0.426992E-07  0.175E-03    0.00       4.5  T
  33   -298.2732918 -0.186909E-05  0.950E-04    0.00       8.3  T
  34   -298.2732922 -0.430995E-06  0.549E-04    0.00      14.4  T
  35   -298.2732924 -0.153906E-06  0.336E-04    0.00      23.5  T
     SCC iter.                  ...        0 min,  2.248 sec
     gradient                   ...        0 min,  0.217 sec
 * total energy  :  -293.2250584 Eh     change       -0.5129888E-01 Eh
   gradient norm :     0.0666448 Eh/α   predicted    -0.5366719E-01 (   4.62%)
   displ. norm   :     0.8978574 α      lambda       -0.4068428E-01
   maximum displ.:     0.4343283 α      in ANC's #41, #86, #19, ...

........................................................................
.............................. CYCLE   24 ..............................
........................................................................
   1   -298.2286473 -0.298229E+03  0.350E-01    0.02       0.0  T
   2   -282.2523018  0.159763E+02  0.625E+00    0.04       1.0  T
   3   -297.6624189 -0.154101E+02  0.964E-01    0.43       1.0  T
   4   -297.7824684 -0.120049E+00  0.848E-01    0.16       1.0  T
   5   -297.9350707 -0.152602E+00  0.729E-01    0.09       1.0  T
   6   -297.8563098  0.787609E-01  0.754E-01    0.14       1.0  T
   7   -297.9444861 -0.881763E-01  0.642E-01    0.03       1.0  T
   8   -298.1672993 -0.222813E+00  0.405E-01    0.01       1.0  T
   9   -298.0511319  0.116167E+00  0.563E-01    0.05       1.0  T
  10   -298.0942718 -0.431399E-01  0.491E-01    0.05       1.0  T
  11   -298.2855661 -0.191294E+00  0.999E-02    0.02       1.0  T
  12   -298.2865046 -0.938472E-03  0.861E-02    0.00       1.0  T
  13   -298.2512464  0.352582E-01  0.237E-01    0.02       1.0  T
  14   -298.2820870 -0.308406E-01  0.115E-01    0.02       1.0  T
  15   -298.2843477 -0.226071E-02  0.100E-01    0.00       1.0  T
  16   -298.2916073 -0.725958E-02  0.281E-02    0.00       1.0  T
  17   -298.2920470 -0.439737E-03  0.180E-02    0.00       1.0  T
  18   -298.2915215  0.525577E-03  0.326E-02    0.00       1.0  T
  19   -298.2919964 -0.474903E-03  0.195E-02    0.00       1.0  T
  20   -298.2920698 -0.734602E-04  0.161E-02    0.00       1.0  T
  21   -298.2921040 -0.342008E-04  0.149E-02    0.00       1.0  T
  22   -298.2920435  0.605072E-04  0.180E-02    0.00       1.0  T
  23   -298.2920987 -0.551732E-04  0.148E-02    0.00       1.0  T
  24   -298.2921202 -0.214780E-04  0.126E-02    0.00       1.0  T
  25   -298.2921158  0.436344E-05  0.126E-02    0.00       1.0  T
  26   -298.2921246 -0.883762E-05  0.118E-02    0.00       1.0  T
[...]
 185:759.29 186:  3.07 187: 14.98 188: 13.01 189:105.64 190:  0.98 191: 13.15 192: 20.02
 193: 26.96 194:  0.70 195:  0.42 196:  1.34 197:****** 198: 10.30 199:****** 200:  6.50
 201:  5.27 202:  8.31 203: 46.30 204:  3.62 205:  5.07 206: 20.89 207: 11.98 208:  5.43
 209:148.10 210:  1.12 211:424.69 212:  4.21 213:****** 214: 27.17 215:118.40 216: 22.78
 217:981.08 218: 25.14 219: 92.61 220:  4.01 221: 55.88 222:  1.32 223: 23.80 224: 28.42
 225: 14.03 226: 24.18 227:  0.33 228: 58.19 229:218.62 230:  8.53 231: 27.27 232:  0.36
 233:  6.17 234:  7.11 235:  0.06 236:  0.07 237: 31.37 238:  2.11 239:  0.26 240: 35.51
 241:  3.33 242:  3.45 243:347.63 244:  0.57 245:  1.32 246:  0.07 247:  0.23 248:104.61
 249: 67.22 250:105.27 251:  7.83 252:  5.09 253:  0.00 254:  0.14 255:  0.97 256:264.17
 257:  1.70 258:  4.43 259:  3.70 260:  5.63 261: 35.58 262: 10.92 263:  0.67 264:  6.58
 265:  2.33 266:  4.52 267:****** 268:  3.59 269:****** 270:  7.25 271:****** 272:  0.04
 273:****** 274: 95.45 275: 91.34 276:****** 277:259.97 278:166.52 279:****** 280:  1.44
 281:288.40 282:485.85 283:  1.49 284: 15.99 285: 37.03 286:109.13 287: 56.53 288:432.27
 289: 32.27 290:801.46 291:462.61 292: 11.72 293:108.43 294: 35.75 295: 68.04 296: 23.83
 297:  2.26 298: 50.52 299:  4.71 300: 33.87 301: 78.44 302: 15.97 303:  2.86 304:  0.05
 305:  0.77 306: 13.53 307: 68.50 308: 46.56 309:  8.83 310: 58.68 311: 34.77 312:******
 313:****** 314:****** 315:****** 316: 18.96 317:316.93 318: 76.78 319:****** 320: 39.18
 321:  4.08 322: 72.69 323:  0.11 324: 10.23 325: 94.53 326: 25.02 327:600.94 328:  5.49
 329:234.25 330:134.11 331:****** 332:  0.28 333:119.04 334:****** 335: 25.50 336: 59.34
 337:334.30 338: 11.68 339:****** 340:  3.09 341:  0.69 342: 55.48 343:191.09 344:447.72
 345:155.66 346:124.24 347:  3.44 348:132.99 349:155.25 350:494.16 351:146.43 352: 15.54
 353: 18.99 354:  9.14 355:  2.47 356:  7.03 357: 12.18 358: 91.07 359:  0.02 360:******
 361: 18.85 362:  4.97 363:918.76 364:244.44 365: 43.96 366: 27.18 367:****** 368:205.39
 369: 28.57 370:146.01 371:130.06 372:  0.49 373:100.28 374:252.92 375: 24.84 376:  5.71
 377:470.10 378: 30.35 379: 37.85 380:  2.91 381:288.21 382:  4.33 383: 10.43 384: 15.06
 385: 92.88 386: 19.15 387:****** 388: 56.02 389:607.30 390:102.35 391:896.84 392:430.42
 393:****** 394:****** 395: 92.60 396: 37.43 397:  0.31 398:  0.27 399:303.00 400:  7.91
 401: 45.74 402:  1.13 403:  0.03 404:  0.35 405: 51.66 406: 59.98 407:  8.44 408: 60.28
 409:  5.34 410: 33.00 411: 24.46 412:105.21 413:348.02 414:  9.02 415: 37.39 416:  2.01
 417:294.52 418:****** 419:  2.14 420:  3.98 421:  8.01 422: 62.06 423: 19.89 424:  8.66
 425: 11.51 426:  0.02 427:  0.43 428:  9.13 429:  3.32 430: 19.87 431:****** 432:255.82
 433:  0.25 434: 27.89 435:148.25 436: 43.40 437: 58.93 438:992.04 439:156.39 440:551.23
 441:  0.31 442: 50.07 443:****** 444:****** 445:378.45 446:****** 447:****** 448:******
 449:  8.88 450:  8.64 451: 18.15 452: 40.13 453:112.07 454: 10.91 455:174.07 456:250.91
 457:280.33 458:305.58 459: 86.82 460: 44.93 461:207.69 462:****** 463:****** 464:******
 465:356.61 466: 42.38 467:****** 468:****** 469:250.54 470:130.09 471:****** 472:292.81
 473:466.21 474:****** 475: 28.97 476:636.03 477:****** 478:467.10 479:320.93 480: 24.19
 Raman intensities (amu)
   1:  0.00   2:  0.00   3:  0.00   4:  0.00   5:  0.00   6:  0.00   7:  0.00   8:  0.00
   9:  0.00  10:  0.00  11:  0.00  12:  0.00  13:  0.00  14:  0.00  15:  0.00  16:  0.00
  17:  0.00  18:  0.00  19:  0.00  20:  0.00  21:  0.00  22:  0.00  23:  0.00  24:  0.00
  25:  0.00  26:  0.00  27:  0.00  28:  0.00  29:  0.00  30:  0.00  31:  0.00  32:  0.00
  33:  0.00  34:  0.00  35:  0.00  36:  0.00  37:  0.00  38:  0.00  39:  0.00  40:  0.00
  41:  0.00  42:  0.00  43:  0.00  44:  0.00  45:  0.00  46:  0.00  47:  0.00  48:  0.00
  49:  0.00  50:  0.00  51:  0.00  52:  0.00  53:  0.00  54:  0.00  55:  0.00  56:  0.00
  57:  0.00  58:  0.00  59:  0.00  60:  0.00  61:  0.00  62:  0.00  63:  0.00  64:  0.00
  65:  0.00  66:  0.00  67:  0.00  68:  0.00  69:  0.00  70:  0.00  71:  0.00  72:  0.00
  73:  0.00  74:  0.00  75:  0.00  76:  0.00  77:  0.00  78:  0.00  79:  0.00  80:  0.00
  81:  0.00  82:  0.00  83:  0.00  84:  0.00  85:  0.00  86:  0.00  87:  0.00  88:  0.00
  89:  0.00  90:  0.00  91:  0.00  92:  0.00  93:  0.00  94:  0.00  95:  0.00  96:  0.00
  97:  0.00  98:  0.00  99:  0.00 100:  0.00 101:  0.00 102:  0.00 103:  0.00 104:  0.00
 105:  0.00 106:  0.00 107:  0.00 108:  0.00 109:  0.00 110:  0.00 111:  0.00 112:  0.00
 113:  0.00 114:  0.00 115:  0.00 116:  0.00 117:  0.00 118:  0.00 119:  0.00 120:  0.00
 121:  0.00 122:  0.00 123:  0.00 124:  0.00 125:  0.00 126:  0.00 127:  0.00 128:  0.00
 129:  0.00 130:  0.00 131:  0.00 132:  0.00 133:  0.00 134:  0.00 135:  0.00 136:  0.00
 137:  0.00 138:  0.00 139:  0.00 140:  0.00 141:  0.00 142:  0.00 143:  0.00 144:  0.00
 145:  0.00 146:  0.00 147:  0.00 148:  0.00 149:  0.00 150:  0.00 151:  0.00 152:  0.00
 153:  0.00 154:  0.00 155:  0.00 156:  0.00 157:  0.00 158:  0.00 159:  0.00 160:  0.00
 161:  0.00 162:  0.00 163:  0.00 164:  0.00 165:  0.00 166:  0.00 167:  0.00 168:  0.00
 169:  0.00 170:  0.00 171:  0.00 172:  0.00 173:  0.00 174:  0.00 175:  0.00 176:  0.00
 177:  0.00 178:  0.00 179:  0.00 180:  0.00 181:  0.00 182:  0.00 183:  0.00 184:  0.00
 185:  0.00 186:  0.00 187:  0.00 188:  0.00 189:  0.00 190:  0.00 191:  0.00 192:  0.00
 193:  0.00 194:  0.00 195:  0.00 196:  0.00 197:  0.00 198:  0.00 199:  0.00 200:  0.00
 201:  0.00 202:  0.00 203:  0.00 204:  0.00 205:  0.00 206:  0.00 207:  0.00 208:  0.00
 209:  0.00 210:  0.00 211:  0.00 212:  0.00 213:  0.00 214:  0.00 215:  0.00 216:  0.00
 217:  0.00 218:  0.00 219:  0.00 220:  0.00 221:  0.00 222:  0.00 223:  0.00 224:  0.00
 225:  0.00 226:  0.00 227:  0.00 228:  0.00 229:  0.00 230:  0.00 231:  0.00 232:  0.00
 233:  0.00 234:  0.00 235:  0.00 236:  0.00 237:  0.00 238:  0.00 239:  0.00 240:  0.00
 241:  0.00 242:  0.00 243:  0.00 244:  0.00 245:  0.00 246:  0.00 247:  0.00 248:  0.00
 249:  0.00 250:  0.00 251:  0.00 252:  0.00 253:  0.00 254:  0.00 255:  0.00 256:  0.00
 257:  0.00 258:  0.00 259:  0.00 260:  0.00 261:  0.00 262:  0.00 263:  0.00 264:  0.00
 265:  0.00 266:  0.00 267:  0.00 268:  0.00 269:  0.00 270:  0.00 271:  0.00 272:  0.00
 273:  0.00 274:  0.00 275:  0.00 276:  0.00 277:  0.00 278:  0.00 279:  0.00 280:  0.00
 281:  0.00 282:  0.00 283:  0.00 284:  0.00 285:  0.00 286:  0.00 287:  0.00 288:  0.00
 289:  0.00 290:  0.00 291:  0.00 292:  0.00 293:  0.00 294:  0.00 295:  0.00 296:  0.00
 297:  0.00 298:  0.00 299:  0.00 300:  0.00 301:  0.00 302:  0.00 303:  0.00 304:  0.00
 305:  0.00 306:  0.00 307:  0.00 308:  0.00 309:  0.00 310:  0.00 311:  0.00 312:  0.00
 313:  0.00 314:  0.00 315:  0.00 316:  0.00 317:  0.00 318:  0.00 319:  0.00 320:  0.00
 321:  0.00 322:  0.00 323:  0.00 324:  0.00 325:  0.00 326:  0.00 327:  0.00 328:  0.00
 329:  0.00 330:  0.00 331:  0.00 332:  0.00 333:  0.00 334:  0.00 335:  0.00 336:  0.00
 337:  0.00 338:  0.00 339:  0.00 340:  0.00 341:  0.00 342:  0.00 343:  0.00 344:  0.00
 345:  0.00 346:  0.00 347:  0.00 348:  0.00 349:  0.00 350:  0.00 351:  0.00 352:  0.00
Refinement of some symmetry elements was terminated before convergence was reached.
Some symmetry elements may remain unidentified.
Molecule has no symmetry elements
It seems to be the C1 point group
 353:  0.00 354:  0.00 355:  0.00 356:  0.00 357:  0.00 358:  0.00 359:  0.00 360:  0.00
 361:  0.00 362:  0.00 363:  0.00 364:  0.00 365:  0.00 366:  0.00 367:  0.00 368:  0.00
 369:  0.00 370:  0.00 371:  0.00 372:  0.00 373:  0.00 374:  0.00 375:  0.00 376:  0.00
 377:  0.00 378:  0.00 379:  0.00 380:  0.00 381:  0.00 382:  0.00 383:  0.00 384:  0.00
 385:  0.00 386:  0.00 387:  0.00 388:  0.00 389:  0.00 390:  0.00 391:  0.00 392:  0.00
 393:  0.00 394:  0.00 395:  0.00 396:  0.00 397:  0.00 398:  0.00 399:  0.00 400:  0.00
 401:  0.00 402:  0.00 403:  0.00 404:  0.00 405:  0.00 406:  0.00 407:  0.00 408:  0.00
 409:  0.00 410:  0.00 411:  0.00 412:  0.00 413:  0.00 414:  0.00 415:  0.00 416:  0.00
 417:  0.00 418:  0.00 419:  0.00 420:  0.00 421:  0.00 422:  0.00 423:  0.00 424:  0.00
 425:  0.00 426:  0.00 427:  0.00 428:  0.00 429:  0.00 430:  0.00 431:  0.00 432:  0.00
 433:  0.00 434:  0.00 435:  0.00 436:  0.00 437:  0.00 438:  0.00 439:  0.00 440:  0.00
 441:  0.00 442:  0.00 443:  0.00 444:  0.00 445:  0.00 446:  0.00 447:  0.00 448:  0.00
 449:  0.00 450:  0.00 451:  0.00 452:  0.00 453:  0.00 454:  0.00 455:  0.00 456:  0.00
 457:  0.00 458:  0.00 459:  0.00 460:  0.00 461:  0.00 462:  0.00 463:  0.00 464:  0.00
 465:  0.00 466:  0.00 467:  0.00 468:  0.00 469:  0.00 470:  0.00 471:  0.00 472:  0.00
 473:  0.00 474:  0.00 475:  0.00 476:  0.00 477:  0.00 478:  0.00 479:  0.00 480:  0.00
 output can be read by thermo (or use thermo option).
 writing <g98.out> molden fake output.
 recommended (thermochemical) frequency scaling factor: 1.0
           -------------------------------------------------
          |             Thermodynamic Functions             |
           -------------------------------------------------

c1  symmetry found (for desy threshold:  0.10E+00) used in thermo
 inverting freq            1   5.1667322302476038     
 inverting freq            2   1.9084809992523148     

          ...................................................
          :                      SETUP                      :
          :.................................................:
          :  # frequencies                         473      :
          :  # imaginary freq.                       0      :
          :  linear?                             false      :
          :  only rotor calc.                    false      :
          :  symmetry                               c1      :
          :  rotational number                       1      :
          :  scaling factor                  1.0000000      :
          :  rotor cutoff                   50.0000000 cm⁻¹ :
          :  imag. cutoff                  -20.0000000 cm⁻¹ :
          :.................................................:

    mode    ω/cm⁻¹     T·S(HO)/kcal·mol⁻¹    T·S(FR)/kcal·mol⁻¹   T·S(vib)
   ------------------------------------------------------------------------
       1      5.17    -2.77969 (  0.01%)    -1.72895 ( 99.99%)    -1.72907
       2      1.91    -3.36975 (  0.00%)    -2.02399 (100.00%)    -2.02399
       3      1.54    -3.49781 (  0.00%)    -2.08801 (100.00%)    -2.08801
       4      1.99    -3.34395 (  0.00%)    -2.01108 (100.00%)    -2.01109
       5      2.43    -3.22569 (  0.00%)    -1.95196 (100.00%)    -1.95196
       6      3.12    -3.07924 (  0.00%)    -1.87873 (100.00%)    -1.87875
       7      6.94    -2.60518 (  0.04%)    -1.64169 ( 99.96%)    -1.64205
       8      7.17    -2.58542 (  0.04%)    -1.63181 ( 99.96%)    -1.63222
       9      9.19    -2.43826 (  0.11%)    -1.55822 ( 99.89%)    -1.55923
      10     14.21    -2.18048 (  0.65%)    -1.42930 ( 99.35%)    -1.43416
      11     16.16    -2.10424 (  1.08%)    -1.39116 ( 98.92%)    -1.39886
      12     20.33    -1.96834 (  2.66%)    -1.32317 ( 97.34%)    -1.34033
      13     22.42    -1.91042 (  3.88%)    -1.29418 ( 96.12%)    -1.31812
      14     27.06    -1.79900 (  7.90%)    -1.23841 ( 92.10%)    -1.28271
      15     28.12    -1.77629 (  9.10%)    -1.22703 ( 90.90%)    -1.27700
      16     30.20    -1.73411 ( 11.75%)    -1.20591 ( 88.25%)    -1.26795
      17     35.56    -1.63757 ( 20.37%)    -1.15754 ( 79.63%)    -1.25530
      18     37.11    -1.61233 ( 23.28%)    -1.14489 ( 76.72%)    -1.25369
      19     37.42    -1.60737 ( 23.88%)    -1.14240 ( 76.12%)    -1.25344
      20     38.50    -1.59055 ( 26.01%)    -1.13396 ( 73.99%)    -1.25274
      21     38.67    -1.58795 ( 26.35%)    -1.13266 ( 73.65%)    -1.25264
      22     44.22    -1.50871 ( 37.97%)    -1.09291 ( 62.03%)    -1.25078
      23     52.96    -1.40238 ( 55.73%)    -1.03950 ( 44.27%)    -1.24173
      24     62.45    -1.30537 ( 70.88%)    -0.99068 ( 29.12%)    -1.21372
      25     65.53    -1.27711 ( 74.68%)    -0.97644 ( 25.32%)    -1.20098
      26     74.36    -1.20285 ( 83.03%)    -0.93896 ( 16.97%)    -1.15807
      27     78.32    -1.17248 ( 85.76%)    -0.92360 ( 14.24%)    -1.13703
      28     84.19    -1.13019 ( 88.94%)    -0.90218 ( 11.06%)    -1.10497
      29     84.49    -1.12814 ( 89.07%)    -0.90114 ( 10.93%)    -1.10334
      30     86.28    -1.11591 ( 89.86%)    -0.89494 ( 10.14%)    -1.09351
      31     87.41    -1.10829 ( 90.33%)    -0.89107 (  9.67%)    -1.08728
      32     89.99    -1.09133 ( 91.30%)    -0.88247 (  8.70%)    -1.07316
      33     93.56    -1.06866 ( 92.46%)    -0.87094 (  7.54%)    -1.05374
      34     95.22    -1.05838 ( 92.93%)    -0.86572 (  7.07%)    -1.04477
      35     95.57    -1.05628 ( 93.03%)    -0.86464 (  6.97%)    -1.04292
      36    108.63    -0.98186 ( 95.71%)    -0.82668 (  4.29%)    -0.97519
      37    116.14    -0.94322 ( 96.68%)    -0.80688 (  3.32%)    -0.93869
      38    116.31    -0.94241 ( 96.70%)    -0.80646 (  3.30%)    -0.93792
      39    118.49    -0.93167 ( 96.93%)    -0.80095 (  3.07%)    -0.92765
      40    120.77    -0.92071 ( 97.15%)    -0.79531 (  2.85%)    -0.91713
      41    120.91    -0.92002 ( 97.16%)    -0.79496 (  2.84%)    -0.91647
      42    126.91    -0.89215 ( 97.65%)    -0.78061 (  2.35%)    -0.88953
      43    131.00    -0.87395 ( 97.92%)    -0.77121 (  2.08%)    -0.87182
      44    132.93    -0.86560 ( 98.04%)    -0.76689 (  1.96%)    -0.86366
      45    160.48    -0.75853 ( 99.07%)    -0.71109 (  0.93%)    -0.75808
      46    160.76    -0.75755 ( 99.07%)    -0.71057 (  0.93%)    -0.75711
      47    161.19    -0.75603 ( 99.08%)    -0.70978 (  0.92%)    -0.75561
      48    161.63    -0.75451 ( 99.09%)    -0.70897 (  0.91%)    -0.75409
      49    164.50    -0.74460 ( 99.15%)    -0.70376 (  0.85%)    -0.74426
      50    164.54    -0.74445 ( 99.15%)    -0.70368 (  0.85%)    -0.74411
      51    165.09    -0.74257 ( 99.17%)    -0.70269 (  0.83%)    -0.74224
      52    165.54    -0.74105 ( 99.17%)    -0.70189 (  0.83%)    -0.74073
      53    178.78    -0.69801 ( 99.39%)    -0.67910 (  0.61%)    -0.69789
      54    182.23    -0.68736 ( 99.44%)    -0.67343 (  0.56%)    -0.68728
      55    184.07    -0.68178 ( 99.46%)    -0.67046 (  0.54%)    -0.68172
      56    184.44    -0.68066 ( 99.46%)    -0.66986 (  0.54%)    -0.68060
      57    184.88    -0.67935 ( 99.47%)    -0.66916 (  0.53%)    -0.67929
      58    185.08    -0.67874 ( 99.47%)    -0.66883 (  0.53%)    -0.67868
      59    185.98    -0.67606 ( 99.48%)    -0.66740 (  0.52%)    -0.67602
      60    191.35    -0.66032 ( 99.54%)    -0.65897 (  0.46%)    -0.66031
      61    196.73    -0.64504 ( 99.58%)    -0.65076 (  0.42%)    -0.64507
      62    197.82    -0.64201 ( 99.59%)    -0.64913 (  0.41%)    -0.64204
      63    203.69    -0.62597 ( 99.64%)    -0.64046 (  0.36%)    -0.62602
      64    204.61    -0.62350 ( 99.64%)    -0.63912 (  0.36%)    -0.62355
      65    204.64    -0.62342 ( 99.64%)    -0.63908 (  0.36%)    -0.62348
      66    208.03    -0.61445 ( 99.67%)    -0.63421 (  0.33%)    -0.61451
      67    208.17    -0.61408 ( 99.67%)    -0.63401 (  0.33%)    -0.61415
      68    209.28    -0.61119 ( 99.68%)    -0.63244 (  0.32%)    -0.61126
      69    209.57    -0.61044 ( 99.68%)    -0.63203 (  0.32%)    -0.61051
      70    213.71    -0.59980 ( 99.70%)    -0.62623 (  0.30%)    -0.59988
      71    214.08    -0.59887 ( 99.70%)    -0.62572 (  0.30%)    -0.59895
      72    216.43    -0.59296 ( 99.72%)    -0.62249 (  0.28%)    -0.59304
      73    216.64    -0.59241 ( 99.72%)    -0.62219 (  0.28%)    -0.59250
      74    217.36    -0.59062 ( 99.72%)    -0.62121 (  0.28%)    -0.59070
      75    218.93    -0.58674 ( 99.73%)    -0.61909 (  0.27%)    -0.58683
      76    220.87    -0.58198 ( 99.74%)    -0.61647 (  0.26%)    -0.58207
      77    221.13    -0.58134 ( 99.74%)    -0.61612 (  0.26%)    -0.58143
      78    222.17    -0.57882 ( 99.74%)    -0.61473 (  0.26%)    -0.57891
      79    226.74    -0.56785 ( 99.76%)    -0.60869 (  0.24%)    -0.56795
      80    228.87    -0.56284 ( 99.77%)    -0.60592 (  0.23%)    -0.56293
      81    237.19    -0.54378 ( 99.80%)    -0.59535 (  0.20%)    -0.54388
      82    259.06    -0.49735 ( 99.86%)    -0.56922 (  0.14%)    -0.49745
      83    259.25    -0.49695 ( 99.86%)    -0.56900 (  0.14%)    -0.49705
      84    259.53    -0.49639 ( 99.86%)    -0.56868 (  0.14%)    -0.49649
      85    259.55    -0.49636 ( 99.86%)    -0.56866 (  0.14%)    -0.49646
      86    272.70    -0.47079 ( 99.89%)    -0.55402 (  0.11%)    -0.47088
      87    280.76    -0.45588 ( 99.90%)    -0.54539 (  0.10%)    -0.45597
      88    291.30    -0.43721 ( 99.91%)    -0.53448 (  0.09%)    -0.43729
      89    292.36    -0.43538 ( 99.91%)    -0.53340 (  0.09%)    -0.43546
      90    299.34    -0.42356 ( 99.92%)    -0.52641 (  0.08%)    -0.42364
   ------------------------------------------------------------------------

   temp. (K)  partition function   enthalpy   heat capacity  entropy
                                   cal/mol     cal/K/mol   cal/K/mol   J/K/mol
 298.15  VIB  0.475E+53            59569.568    375.852    383.206
         ROT  0.345E+10              888.752      2.981     46.626
         INT  0.164E+63            60458.321    378.833    429.832
         TR   0.677E+29             1481.254      4.968     48.137
         TOT                       61939.5745   383.8008   477.9695  1999.8242

       T/K    H(0)-H(T)+PV         H(T)/Eh          T*S/Eh         G(T)/Eh
   ------------------------------------------------------------------------
    298.15    0.987070E-01    0.118134E+01    0.227099E+00    0.954241E+00
   ------------------------------------------------------------------------

         :::::::::::::::::::::::::::::::::::::::::::::::::::::
         ::                  THERMODYNAMIC                  ::
         :::::::::::::::::::::::::::::::::::::::::::::::::::::
         :: total free energy        -292.484107331072 Eh   ::
         ::.................................................::
         :: total energy             -293.438348208559 Eh   ::
         :: zero point energy           1.082632598886 Eh   ::
         :: G(RRHO) w/o ZPVE           -0.128391721400 Eh   ::
         :: G(RRHO) contrib.            0.954240877486 Eh   ::
         :::::::::::::::::::::::::::::::::::::::::::::::::::::
imag cut-off (cm-1) :    5.00
 found            1  significant imaginary frequency
 writing imag mode distorted coords to xtbhess.xyz
 for further optimization.

optimized geometry written to: xtbopt.xyz


           -------------------------------------------------
          | TOTAL ENERGY             -293.438348208559 Eh   |
          | TOTAL ENTHALPY           -292.257008614748 Eh   |
          | TOTAL FREE ENERGY        -292.484107331072 Eh   |
          | GRADIENT NORM               0.000628725487 Eh/α |
          | HOMO-LUMO GAP               0.001320908927 eV   |
           -------------------------------------------------

------------------------------------------------------------------------
 * finished run on 2021/11/19 at 14:58:30.495     
------------------------------------------------------------------------
 total:
 * wall-time:     0 d,  0 h, 17 min,  0.751 sec
 *  cpu-time:     0 d,  0 h, 17 min,  0.759 sec
 * ratio c/w:     1.000 speedup
 SCF:
 * wall-time:     0 d,  0 h,  0 min,  3.934 sec
 *  cpu-time:     0 d,  0 h,  0 min,  3.934 sec
 * ratio c/w:     1.000 speedup
 ANC optimizer:
 * wall-time:     0 d,  0 h,  1 min, 56.161 sec
 *  cpu-time:     0 d,  0 h,  1 min, 56.152 sec
 * ratio c/w:     1.000 speedup
 analytical hessian:
 * wall-time:     0 d,  0 h, 15 min,  0.309 sec
 *  cpu-time:     0 d,  0 h, 15 min,  0.326 sec
 * ratio c/w:     1.000 speedup

