160
 energy: -291.879482932897 gnorm: 1.457004777097 xtb: 6.4.1 (bd6e46d)
Cu       16.63705400000000    0.03435800000000   -0.01039200000000
C        18.96604500000000   -3.11243500000000    1.31229700000000
C        19.88215200000000   -2.16822700000000    1.26201500000000
C        19.47097200000000   -1.11432300000000    0.34072300000000
C        20.08984300000000    0.01002300000000   -0.00568700000000
C        19.38580100000000    1.22997100000000   -0.36979200000000
C        19.71391100000000    2.19002600000000   -1.21726600000000
C        18.67913100000000    3.20631100000000   -1.23416400000000
C        17.74286300000000    2.82984900000000   -0.38727200000000
N        18.14485400000000    1.59683800000000    0.17654500000000
C        16.48178900000000    3.47484800000000   -0.00812000000000
C        15.38657200000000    2.84006600000000    0.34264000000000
C        14.31294600000000    3.15802200000000    1.31166800000000
C        13.47538300000000    2.16126800000000    1.23450200000000
C        13.91368100000000    1.15758500000000    0.25405000000000
N        15.01861900000000    1.59643800000000   -0.23024200000000
C        13.30284600000000   -0.09568600000000   -0.15949800000000
C        13.96700700000000   -1.20019200000000   -0.41392300000000
C        13.59315800000000   -2.26313400000000   -1.37145000000000
C        14.54190500000000   -3.15689000000000   -1.28243100000000
C        15.52762900000000   -2.71944000000000   -0.29955300000000
N        15.17458300000000   -1.57363500000000    0.19724400000000
C        16.75851700000000   -3.37551000000000    0.14616800000000
C        17.88155800000000   -2.72964900000000    0.41328900000000
N        18.21015800000000   -1.48220800000000   -0.18511500000000
H        19.02630600000000   -4.02221600000000    1.92984300000000
H        20.79847900000000   -2.20817700000000    1.84006300000000
H        20.64127600000000    2.20682100000000   -1.81840900000000
H        18.69603000000000    4.11100000000000   -1.84678500000000
H        16.43406600000000    4.56965100000000   -0.01189800000000
H        14.26012500000000    4.03674700000000    1.93666000000000
H        12.56375300000000    2.12559800000000    1.85182600000000
H        12.20459600000000   -0.09277500000000   -0.25876900000000
H        12.72430200000000   -2.31559900000000   -2.02040000000000
H        14.53905900000000   -4.07319800000000   -1.88119000000000
H        16.72303500000000   -4.47131200000000    0.25809300000000
Cu       67.11619399999999   -0.01301800000000   -0.01482500000000
C        64.78720300000001    2.83377400000000    1.86868000000000
C        63.87109600000000    1.91528500000000    1.64410600000000
C        64.28227500000000    1.05058800000000    0.54329200000000
C        63.66340500000000    0.01002300000000   -0.00568700000000
C        64.36744700000000   -1.12120200000000   -0.58979000000000
C        64.03933600000001   -1.90737400000000   -1.60065700000000
C        65.07411600000000   -2.90288300000000   -1.80579700000000
C        66.01038400000000   -2.69006700000000   -0.90376700000000
N        65.60839400000000   -1.58305500000000   -0.12099500000000
C        67.27145899999999   -3.39420800000000   -0.65085300000000
C        68.36667600000001   -2.83551500000000   -0.18842000000000
C        69.44030100000001   -3.32772000000000    0.70480200000000
C        70.27786399999999   -2.33395300000000    0.81388700000000
C        69.83956700000000   -1.16580500000000    0.03665200000000
N        68.73462900000000   -1.50719700000000   -0.52064700000000
C        70.45040200000000    0.14243100000000   -0.13721800000000
C        69.78624100000000    1.27496400000000   -0.18232400000000
C        70.16009000000000    2.49709000000000   -0.92603900000000
C        69.21134200000000    3.35881700000000   -0.67276100000000
C        68.22561899999999    2.74662200000000    0.21190300000000
N        68.57866400000000    1.52854400000000    0.48751300000000
C        66.99473100000000    3.30861700000000    0.77159700000000
C        65.87168900000000    2.62441200000000    0.91426500000000
N        65.54308899999999    1.50963700000000    0.09483000000000
H        64.72694100000000    3.61319900000000    2.64428400000000
H        62.95476800000001    1.84730400000000    2.21953200000000
H        63.11197100000000   -1.81235700000000   -2.19448100000000
H        65.05721699999999   -3.67821800000000   -2.57561700000000
H        67.31918100000000   -4.46930600000000   -0.85766700000000
H        69.49312300000000   -4.30713700000000    1.15592900000000
H        71.18949500000001   -2.41342500000000    1.42711300000000
H        71.54865200000000    0.15798600000000   -0.23530500000000
H        71.02894499999999    2.66903300000000   -1.55399200000000
H        69.21418799999999    4.37029800000000   -1.09113800000000
H        67.03021300000000    4.36463300000000    1.08486600000000
C        23.06185400000000    0.02115400000000   -0.00164500000000
C        24.27738700000000   -0.00419000000000   -0.01212500000000
C        25.69890400000000   -0.02561300000000   -0.01630100000000
C        26.90746600000000   -0.02782400000000   -0.01619600000000
C        28.32854100000000   -0.00886400000000   -0.01682300000000
C        29.53968300000000    0.02115400000000   -0.00164500000000
C        38.63703000000000    0.02115400000000   -0.00164500000000
C        39.85256300000000   -0.00419000000000   -0.01212500000000
C        41.27408000000000   -0.02561300000000   -0.01630100000000
C        42.48264100000001   -0.02782400000000   -0.01619600000000
C        43.90371700000000   -0.00886400000000   -0.01682300000000
C        45.11485900000001    0.02115400000000   -0.00164500000000
C        54.21220500000000    0.02115400000000   -0.00164500000000
C        55.42773800000001   -0.00419000000000   -0.01212500000000
C        56.84925500000000   -0.02561300000000   -0.01630100000000
C        58.05781700000001   -0.02782400000000   -0.01619600000000
C        59.47889200000000   -0.00886400000000   -0.01682300000000
C        60.69003400000000    0.02115400000000   -0.00164500000000
Cu       34.12827300000000    0.03277100000000    0.00318300000000
C        31.84846300000000   -3.22867600000000   -0.90648300000000
C        30.89225300000000   -2.32932600000000   -1.00851000000000
C        31.28462800000000   -1.16702100000000   -0.20599400000000
C        30.64951100000000   -0.01574900000000    0.00627300000000
C        31.33496800000000    1.25885100000000    0.23250200000000
C        30.99967800000000    2.33745100000000    0.93674200000000
C        32.02421900000000    3.35676800000000    0.84616100000000
C        32.97481700000000    2.85984300000000    0.07279600000000
N        32.59782200000000    1.54323800000000   -0.34334700000000
C        34.22195600000000    3.47154500000000   -0.34407000000000
C        35.32350800000000    2.80428800000000   -0.67584100000000
C        36.31705400000000    3.05627200000000   -1.71001100000000
C        37.21093700000000    2.09541300000000   -1.60852700000000
C        36.83123900000000    1.18352900000000   -0.50455000000000
N        35.73632400000000    1.63284800000000    0.00281700000000
C        37.48844600000000   -0.01574900000000    0.00627300000000
C        36.86503500000000   -1.08493100000000    0.46778900000000
C        37.24374700000000   -2.01704600000000    1.54326500000000
C        36.30307900000000   -2.93119200000000    1.62913100000000
C        35.29477700000001   -2.63541300000000    0.63170400000000
N        35.63255200000000   -1.58203600000000   -0.01759100000000
C        34.04238400000000   -3.34242000000000    0.30051100000000
C        32.92850800000000   -2.74572400000000   -0.04683100000000
N        32.54639500000000   -1.46296700000000    0.37085200000000
H        31.84880700000000   -4.21975000000000   -1.39771800000000
H        29.98371900000000   -2.45102000000000   -1.58965800000000
H        30.07482600000000    2.45580200000000    1.51366800000000
H        32.05151400000000    4.34593200000000    1.30281100000000
H        34.30789600000000    4.56892200000000   -0.40609300000000
H        36.34972700000000    3.86248800000000   -2.43683500000000
H        38.10399900000000    1.98244500000000   -2.24230100000000
H        38.15849800000000   -1.94264000000000    2.15343500000000
H        36.32212500000000   -3.74480000000000    2.33739800000000
H        34.08086900000000   -4.44238000000000    0.35954700000000
Cu       49.70344900000000    0.03277100000000    0.00318300000000
C        47.42363800000000   -3.22867600000000   -0.90648300000000
C        46.46742900000000   -2.32932600000000   -1.00851000000000
C        46.85980300000000   -1.16702100000000   -0.20599400000000
C        46.22468700000000   -0.01574900000000    0.00627300000000
C        46.91014400000000    1.25885100000000    0.23250200000000
C        46.57485300000000    2.33745100000000    0.93674200000000
C        47.59939500000000    3.35676800000000    0.84616100000000
C        48.54999200000000    2.85984300000000    0.07279600000000
N        48.17299800000000    1.54323800000000   -0.34334700000000
C        49.79713200000000    3.47154500000000   -0.34407000000000
C        50.89868300000000    2.80428800000000   -0.67584100000000
C        51.89223000000000    3.05627200000000   -1.71001100000000
C        52.78611300000000    2.09541300000000   -1.60852700000000
C        52.40641500000000    1.18352900000000   -0.50455000000000
N        51.31150000000001    1.63284800000000    0.00281700000000
C        53.06362200000000   -0.01574900000000    0.00627300000000
C        52.44021000000000   -1.08493100000000    0.46778900000000
C        52.81892300000000   -2.01704600000000    1.54326500000000
C        51.87825400000001   -2.93119200000000    1.62913100000000
C        50.86995300000001   -2.63541300000000    0.63170400000000
N        51.20772800000000   -1.58203600000000   -0.01759100000000
C        49.61756000000000   -3.34242000000000    0.30051100000000
C        48.50368300000001   -2.74572400000000   -0.04683100000000
N        48.12157100000000   -1.46296700000000    0.37085200000000
H        47.42398300000001   -4.21975000000000   -1.39771800000000
H        45.55889500000000   -2.45102000000000   -1.58965800000000
H        45.65000100000000    2.45580200000000    1.51366800000000
H        47.62669000000001    4.34593200000000    1.30281100000000
H        49.88307200000000    4.56892200000000   -0.40609300000000
H        51.92490200000001    3.86248800000000   -2.43683500000000
H        53.67917400000000    1.98244500000000   -2.24230100000000
H        53.73367300000001   -1.94264000000000    2.15343500000000
H        51.89730100000000   -3.74480000000000    2.33739800000000
H        49.65604400000000   -4.44238000000000    0.35954700000000
160
 energy: -292.387718882835 gnorm: 0.564480183266 xtb: 6.4.1 (bd6e46d)
Cu       16.64324751206079    0.03424798565265   -0.00937191062006
C        18.96488330801887   -3.12019573353361    1.30737081231549
C        19.89151511546887   -2.16624218366730    1.26150615065628
C        19.46408525180149   -1.11687205199374    0.34562416945608
C        20.07546072589506    0.02443747617767   -0.01072235596644
C        19.37621802692568    1.22456631169371   -0.36027750821294
C        19.72274518297782    2.21201567571971   -1.23225256732203
C        18.70262735972389    3.20751804629785   -1.24663377001918
C        17.73578096544596    2.81225652617347   -0.37937121675632
N        18.12667531167926    1.58401321171872    0.17919748467942
C        16.49591141617443    3.47592075688504   -0.00907676580733
C        15.37637171897738    2.82872452382964    0.34368295041366
C        14.31637610813088    3.16501846046329    1.30093604458567
C        13.45718563463123    2.15368658662555    1.23886406921181
C        13.90862697466333    1.15935712196431    0.26480496654432
N        15.04225508466296    1.58426068079793   -0.22220047578500
C        13.29377036298215   -0.07958190151475   -0.15532850701927
C        13.96987716148375   -1.20543388598046   -0.41725299224594
C        13.58581606404377   -2.26084941066658   -1.36274719098843
C        14.54876093595665   -3.17180674645018   -1.28251811969094
C        15.53454994083738   -2.72701789984661   -0.30440670674253
N        15.18210114037995   -1.55718834143238    0.18277781494619
C        16.74411377108932   -3.38171338912109    0.14106087385389
C        17.88903462089525   -2.71830490981112    0.41268765157667
N        18.20673843268558   -1.48055179476775   -0.16719539648754
H        19.02164542516293   -4.01847896675912    1.92496132766545
H        20.80054786572321   -2.20269911226782    1.83817794853111
H        20.63847117013088    2.21105037054329   -1.81891098392444
H        18.69950322969087    4.10857662993433   -1.84704114189048
H        16.44246088663116    4.56749489546681   -0.00799185412671
H        14.26390687637409    4.03584623548851    1.93359121635520
H        12.56235970523186    2.12041778269680    1.85050957703554
H        12.20641453629803   -0.08868587235708   -0.26241141823916
H        12.72556612205376   -2.31022469362736   -2.01619502614914
H        14.54512357354475   -4.07450259369897   -1.87879820118352
H        16.72029189706612   -4.46832100014650    0.25965632598888
Cu       67.11000548278382   -0.01311911148773   -0.01378687426267
C        64.78839456737190    2.84228470675740    1.86531217863911
C        63.86169399040212    1.91346378550988    1.64319147836622
C        64.28904802795090    1.05235767571465    0.54849439346651
C        63.67726795188491   -0.00322027010917   -0.01312641774412
C        64.37699338235130   -1.11758954324294   -0.57952642912137
C        64.03052066167885   -1.92618247164622   -1.61942751688496
C        65.05065705900073   -2.90180085643412   -1.81824369227172
C        66.01745096632804   -2.67430599828124   -0.89274586281582
N        65.62649489188739   -1.57086584055477   -0.11609450789062
C        67.25731750944358   -3.39508766121239   -0.65201261013006
C        68.37688245905387   -2.82453817312194   -0.18528476721706
C        69.43685830641429   -3.33258242188592    0.69297720077870
C        70.29609205967586   -2.32731938934177    0.81954111358807
C        69.84464417396484   -1.16952033546222    0.04688460918903
N        68.71096369830919   -1.49676110254438   -0.51046459900666
C        70.45947759103812    0.12579235093486   -0.13608262646092
C        69.78333571726596    1.28075268513582   -0.18462525684044
C        70.16740104291065    2.49321808526043   -0.91793642797187
C        69.20449082200335    3.37351620368125   -0.67004766697562
C        68.21870211916087    2.75499459093360    0.20855600714534
N        68.57119139441319    1.51504280759704    0.47023864647028
C        67.00915240281581    3.31565036528259    0.76770122340389
C        65.86422448728825    2.61330053095550    0.91164720985970
N        65.54651949031252    1.50466633203213    0.11214368711619
H        64.73160758354751    3.61042605541730    2.63879328003552
H        62.95269375691649    1.84228355751479    2.21667415668769
H        63.11477044121318   -1.81642956154853   -2.19576452751343
H        65.05374911644543   -3.67579332814113   -2.57542373766725
H        67.31079223465288   -4.46790992945342   -0.85345507347627
H        69.48933956143439   -4.30567934811047    1.15308098921386
H        71.19089049474300   -2.40808809995263    1.42678042311477
H        71.54683447555182    0.15464035841964   -0.23961216548023
H        71.02767512219538    2.66297056813287   -1.55085681921533
H        69.20812044193777    4.37114005929803   -1.08854415224051
H        67.03293606957297    4.36141942064150    1.08578352083661
C        23.06049537503537    0.02092992415952   -0.00118405334943
C        24.28899000233513   -0.00455380019712   -0.01202823031090
C        25.68245204680680   -0.02504043438314   -0.01638700754296
C        26.90931541714894   -0.02714354784134   -0.01625786107680
C        28.26506568710759   -0.00889291301089   -0.01635758908936
C        29.45981741127896    0.03127098838045   -0.00329131300190
C        38.70790262268375    0.02885413230487   -0.00119433558134
C        39.90688096221589   -0.00445007856154   -0.01143129728978
C        41.26498920486897   -0.02487637596845   -0.01712667561461
C        42.48853204898716   -0.02708758736136   -0.01628362097315
C        43.84097236572325   -0.00887910374053   -0.01638989014521
C        45.03543173744331    0.03116258992969   -0.00373116904998
C        54.28406500463802    0.02897316022280   -0.00080851392878
C        55.48231237086291   -0.00421455114755   -0.01118389486794
C        56.84617652342843   -0.02484908348024   -0.01714746611946
C        58.07193324874460   -0.02726572109002   -0.01654520172455
C        59.46762833908640   -0.00938420365910   -0.01646768178487
C        60.69219643997597    0.02066934018363   -0.00124445387853
Cu       34.12345280506533    0.03415138266671    0.00122428145351
C        31.85141353234523   -3.24397653032795   -0.90327211902912
C        30.88944523407095   -2.32649972534250   -1.00471174798679
C        31.32776122683879   -1.19000914705767   -0.20902475541405
C        30.72165127069480   -0.00248756789763    0.00714587845169
C        31.37257274414128    1.26623403322384    0.22946073476056
C        30.99415012585962    2.35816220958987    0.94651831251248
C        32.00537609877159    3.35888967262368    0.85347190987313
C        32.98459435070054    2.84554287737064    0.06688926875868
N        32.61866732009084    1.53713099712109   -0.33695790748995
C        34.21105737797314    3.47352099071355   -0.34431150322804
C        35.33073130175489    2.79692667556268   -0.67660308656524
C        36.31916868642835    3.06337943899920   -1.70274494487109
C        37.22458769132270    2.08518283861123   -1.60866736611877
C        36.81860149791092    1.19006667982833   -0.51782301986479
N        35.70871949056432    1.62605934862392   -0.00504845273025
C        37.43978930267468   -0.00334909851767   -0.00045094142147
C        36.83233696612269   -1.10505790970030    0.47769453210879
C        37.25140815879293   -2.01241105077465    1.53752291735510
C        36.29815341715880   -2.94474296178651    1.62951010613991
C        35.28563057120400   -2.64629678619164    0.63889934222643
N        35.61962690650710   -1.55989761357833   -0.01314772753363
C        34.05941489803936   -3.34947338361419    0.30823792717698
C        32.91710159143053   -2.73713435086291   -0.05211195390652
N        32.55710196504599   -1.45866683220459    0.35369218267320
H        31.85148871764186   -4.21697034100701   -1.39526581690306
H        29.98473858865076   -2.44451372573039   -1.58671727350491
H        30.07545494697553    2.45702788675241    1.51371991732689
H        32.04557917407947    4.34227929607545    1.30399099601164
H        34.29850693532552    4.56550568394861   -0.40939423285892
H        36.34553821648511    3.86155345148972   -2.43249628714620
H        38.10294235542598    1.97863632005772   -2.23959166188832
H        38.15416057911701   -1.93914957899174    2.14792655267510
H        36.31798548863703   -3.74835011493039    2.33784653815704
H        34.08379228026519   -4.44057479794575    0.35807840011740
Cu       49.69829721681728    0.03418555815318    0.00130505925554
C        47.42592301704146   -3.24424410058266   -0.90299699088086
C        46.46482256106815   -2.32697702754311   -1.00472142698916
C        46.90302283923268   -1.18981284385237   -0.20783915768749
C        46.29689194463650   -0.00300191094454    0.00697377701588
C        46.94805780958841    1.26674929835784    0.22909444973165
C        46.56962810135742    2.35791797418995    0.94662114033338
C        47.58066813600007    3.35916478023413    0.85321718264334
C        48.56000842327403    2.84598609961760    0.06695860345387
N        48.19337443100293    1.53701130521617   -0.33703628837343
C        49.78602188783862    3.47353186496293   -0.34400841627208
C        50.90617531713410    2.79687401159651   -0.67645818935470
C        51.89419356288471    3.06326188393137   -1.70280388856553
C        52.79983481610361    2.08514351354008   -1.60870064311416
C        52.39363714470104    1.18935333403722   -0.51871700707603
N        51.28373394994794    1.62592153577725   -0.00508801618441
C        53.01472702011203   -0.00374530986358   -0.00024010739497
C        52.40825503669927   -1.10425168502520    0.47830306906250
C        52.82721903679852   -2.01251828173989    1.53703297797539
C        51.87289894630246   -2.94391918509846    1.63001216426835
C        50.86163408777467   -2.64535407420462    0.63918351164981
N        51.19410035498905   -1.56059234013851   -0.01295178615291
C        49.63344385505324   -3.34975229522888    0.30726068155998
C        48.49301724428928   -2.73767537743964   -0.05173903363369
N        48.13214074818109   -1.45820200648742    0.35364416327234
H        47.42660281847804   -4.21702600510775   -1.39531718556208
H        45.55996586037163   -2.44453839774425   -1.58677450292382
H        45.65060490359988    2.45701227555584    1.51361722680403
H        47.62078169147799    4.34235490746046    1.30400350099937
H        49.87367603012031    4.56551911329134   -0.40932503609071
H        51.92070473721368    3.86153698369468   -2.43248339791038
H        53.67812634703364    1.97864481690151   -2.23959464023204
H        53.72945585519899   -1.93919855082553    2.14789701547699
H        51.89313870817972   -3.74824879935981    2.33779028896433
H        49.65897796759252   -4.44067355404346    0.35734049658101
160
 energy: -292.591440295202 gnorm: 0.262830879795 xtb: 6.4.1 (bd6e46d)
Cu       16.65278618313635    0.03284969949136   -0.00736586529413
C        18.96614017975880   -3.12764033299863    1.29463566125195
C        19.90267037764019   -2.16416270295743    1.25745311528703
C        19.45075240618583   -1.11445752504307    0.35786064874204
C        20.04345804424364    0.04679807068597   -0.01741893406843
C        19.35853953518064    1.22269330881940   -0.35445226817002
C        19.72999171544742    2.23851329078909   -1.24252546081982
C        18.73128136233318    3.20510704672099   -1.25313787062619
C        17.73074779695924    2.78690779571932   -0.37380838853709
N        18.09794583618300    1.56373885361578    0.17112284813814
C        16.51597942941830    3.46828472131796   -0.00824911201711
C        15.37287448656677    2.80973096516505    0.34692094674640
C        14.31770253026007    3.16917115416247    1.27852799593298
C        13.43676623138472    2.14826495979643    1.23819055571081
C        13.90601582301882    1.15964678997045    0.28287244473017
N        15.07883263100915    1.55798663167951   -0.19416058944969
C        13.28659262279240   -0.06049672546893   -0.14945077887915
C        13.97428447099910   -1.20396902364537   -0.42501382226341
C        13.57987865886093   -2.26170562812158   -1.34405334108201
C        14.55353327851894   -3.18876919508761   -1.27625706661429
C        15.54415607375785   -2.73186294414232   -0.31508369187522
N        15.19947052371315   -1.52786277520611    0.14655580907676
C        16.72950646133322   -3.38450678239844    0.13401385014827
C        17.89225875749697   -2.70481769003345    0.41361108673032
N        18.19596403351466   -1.47461621577508   -0.13209894890207
H        19.01242662711812   -4.01371096033300    1.91389839742393
H        20.80695628931726   -2.19111918522703    1.83340399399189
H        20.63610055217797    2.21910316805710   -1.81999582075226
H        18.70564840146399    4.10393942770228   -1.84592637331091
H        16.46118389326652    4.55836134312137   -0.00261856626811
H        14.27150341083198    4.03227678728742    1.92280696065561
H        12.55601399659233    2.11023029077511    1.84827669467797
H        12.20841895983041   -0.08008614509049   -0.26773711440511
H        12.72826554582252   -2.30034656119943   -2.00490115806784
H        14.55718978836854   -4.08021938479821   -1.87351462749954
H        16.71606508214197   -4.46300242970526    0.26129147703221
Cu       67.10049457880395   -0.01217942832998   -0.01150306840091
C        64.78720203269046    2.85188351951145    1.85425996972701
C        63.85042625412259    1.91227116865712    1.63873223414557
C        64.30204881004462    1.04795454012391    0.55988411688921
C        63.70837758975230   -0.02392257067902   -0.02360845699447
C        64.39446778356208   -1.11667927514150   -0.57351188768727
C        64.02321857881904   -1.95031367210631   -1.63439306111007
C        65.02199273818812   -2.89828125538715   -1.82412155774071
C        66.02243556565026   -2.65045167934224   -0.88253601965940
N        65.65505683509716   -1.54921547435772   -0.12042060869745
C        67.23720216708050   -3.38771130828754   -0.64978936733971
C        68.38036660087423   -2.80641689846370   -0.17854287618574
C        69.43550442513367   -3.33245325560427    0.67025339749004
C        70.31659572899849   -2.32189574133629    0.81978006741052
C        69.84729754830364   -1.17312385854875    0.06456341500329
N        68.67431484414871   -1.47619141738629   -0.47796383082479
C        70.46664177189980    0.10587888555060   -0.13378034714619
C        69.77885501146406    1.28076410044882   -0.19254615966310
C        70.17325661320648    2.49055357884850   -0.89948615555490
C        69.19973628780073    3.38907296342633   -0.66066878307875
C        68.20911081919414    2.76177615581198    0.19900009703211
N        68.55389223591629    1.49290383436285    0.42918236086883
C        67.02377190309713    3.31964289006564    0.76123152904706
C        65.86102465941855    2.59969427771470    0.91018499987068
N        65.55718700234475    1.49221892109060    0.14554873579206
H        64.74085519177957    3.60777439467034    2.62704690909652
H        62.94625195211518    1.83185046913805    2.20985116367850
H        63.11712526634165   -1.82418733610075   -2.19835770694411
H        65.04760064776221   -3.67145523489004   -2.57345245403824
H        67.29207997843973   -4.45990024209423   -0.84654952874242
H        69.48173733119030   -4.30014814873243    1.14316707753170
H        71.19725063519061   -2.39765596361130    1.42647426000909
H        71.54482733992742    0.14717174216439   -0.24631628227506
H        71.02494774120207    2.65115774151903   -1.54160105143425
H        69.19604748784346    4.37579075428550   -1.08228697353557
H        67.03709423603858    4.35590432596594    1.08621112956517
C        23.06387613437198    0.02050632078812   -0.00048648307160
C        24.30075301347305   -0.00488917780475   -0.01178445820821
C        25.65975159023346   -0.02388451382693   -0.01656814408026
C        26.89513563101006   -0.02626209763216   -0.01662258754628
C        28.21458806167376   -0.01034059469185   -0.01456270795823
C        29.43596400311161    0.04405103985035   -0.00541288391337
C        38.73955534816191    0.03533333642467    0.00120508029248
C        39.95402918237524   -0.00653328215832   -0.00964086757728
C        41.26416918777507   -0.02386890050833   -0.01820082361642
C        42.48959925309934   -0.02609579267972   -0.01677673889341
C        43.79947360470394   -0.01016915655528   -0.01479994774700
C        45.01619145827872    0.04406073528105   -0.00690915374314
C        54.32047463307443    0.03572998624441    0.00192559444202
C        55.53825807695408   -0.00599885430035   -0.00899477418759
C        56.86136232886974   -0.02359565172509   -0.01810095164252
C        58.09397556629153   -0.02597685995125   -0.01707065718228
C        59.45720594710831   -0.01033312652882   -0.01589804761162
C        60.68999136549366    0.01921248519387   -0.00073348469012
Cu       34.11774246678237    0.03655028442922   -0.00280124519486
C        31.85492533344523   -3.26183299129571   -0.89332505621849
C        30.88961184848388   -2.32464448062307   -0.99529765989891
C        31.35898467238126   -1.20217154388542   -0.21382520341280
C        30.74995043513003    0.02116773699445    0.00593860051741
C        31.41121940837283    1.27300208606899    0.22689700464140
C        30.99054654316811    2.38377799025327    0.95345156086062
C        31.98227753449240    3.35877836767419    0.85511908365417
C        32.99588432400471    2.82817579209950    0.06423177632810
N        32.65362456203731    1.52484149669954   -0.31034587560636
C        34.19427051486200    3.47249869209354   -0.34694790360729
C        35.33213982646135    2.78538044758793   -0.68048210458798
C        36.32550636617179    3.06959263505695   -1.68614083925416
C        37.23952987137585    2.07492547061575   -1.60341149869784
C        36.80831670391564    1.19043618107823   -0.53681208809194
N        35.66303774554455    1.60592305819081   -0.03244622802931
C        37.42127308192295    0.01275381058480   -0.01021455575940
C        36.80634434066043   -1.11613592063180    0.48669787524233
C        37.25472454918786   -2.01113740011318    1.52500933128879
C        36.29445174477522   -2.96173621771970    1.62262221737766
C        35.27163689278497   -2.65507356828447    0.65028553669092
N        35.59351208546314   -1.52252750603789    0.01182072284616
C        34.07694988127605   -3.35531722829965    0.31798990143718
C        32.91371620943497   -2.73122234930413   -0.06158026919368
N        32.57856843673188   -1.44967361900188    0.31281031866724
H        31.85731352589669   -4.21694652479214   -1.38964118416212
H        29.98790709991125   -2.43153395182100   -1.57819987849465
H        30.07553288018644    2.45990240414376    1.51309483937383
H        32.03374272676215    4.33594568279219    1.30485265082235
H        34.27739543845924    4.55877620631014   -0.41368935222374
H        36.33812836620348    3.86006758030365   -2.42056348486397
H        38.10408138999637    1.97011299451915   -2.23400933813267
H        38.14564150148985   -1.93316718929143    2.13551708595334
H        36.30955677675087   -3.75722175475253    2.33661885168109