160
 energy: -293.438348215782 gnorm: 0.000628828697 xtb: 6.4.1 (bd6e46d)
Cu       17.87513032386910   -0.00240685754427   -0.00922098175779
C        20.40234103785897   -3.42814024553082    0.04512197517781
C        21.35462713611156   -2.46527612894125    0.04363575987911
C        20.66523688470519   -1.20715534730693    0.02147286876112
C        21.31199674746376    0.03763746122724    0.00825010251529
C        20.63656208338167    1.26702949123652   -0.00665604260853
C        21.29662240301135    2.54114236373809   -0.01505375126815
C        20.32207706207789    3.48147856152382   -0.02121352289470
C        19.07018618140739    2.77981771952105   -0.01710199061084
N        19.29511259192350    1.43754609358260   -0.00919845332893
C        17.83399240119009    3.40062422632491   -0.01868356825279
C        16.61380331949756    2.74860223389603   -0.01888011053488
C        15.34078476147942    3.41682504664379   -0.02149339535698
C        14.39406906857594    2.45086287909397   -0.02811049207042
C        15.08756312675080    1.19124800636248   -0.02904496049594
N        16.42764185519949    1.40429325585462   -0.02176695680644
C        14.46072918005841   -0.04251302415852   -0.03935292847021
C        15.11631445752452   -1.26128657696784   -0.03623513900843
C        14.45258414473048   -2.53680416383175   -0.04571575552102
C        15.42158251016358   -3.48032420296973   -0.03064584209693
C        16.67843860917695   -2.78244720615595   -0.01253548926211
N        16.46089681936176   -1.44287094247309   -0.01816528626611
C        17.91336065925469   -3.40565819932592    0.01050384898384
C        19.13454210285880   -2.75600764355102    0.02360022244426
N        19.32816891873761   -1.40890606741875    0.01182034259196
H        20.52773938292772   -4.49351427081927    0.05890624349038
H        22.42172896588158   -2.57484846843166    0.05591147386454
H        22.36097694464624    2.67552805988594   -0.01546210841000
H        20.42260883251763    4.54951563235690   -0.02821412208488
H        17.82165672741372    4.48105803614013   -0.02092164366813
H        15.21305287023723    4.48220409840196   -0.01883375416570
H        13.32636085041854    2.55733071971610   -0.03167137696616
H        13.38057968565641   -0.05515492439864   -0.04954699876839
H        13.38777984986689   -2.66831023247085   -0.06162935131566
H        15.31892429933517   -4.54841337558905   -0.03152726419168
H        17.92633549395214   -4.48606262551199    0.01745735656898
Cu       65.90096808547254    0.02822041946323   -0.00787544651093
C        63.38034720117858    3.39550088510626    0.65060194973042
C        62.42608863949335    2.45166020681465    0.47036550421966
C        63.11303770826527    1.21526747573075    0.22868739109268
C        62.46379609836439   -0.00669369758308   -0.00210109120291
C        63.13658848810147   -1.21627489278093   -0.22969151900769
C        62.47417138120826   -2.46790287773461   -0.46105401622190
C        63.44692506165601   -3.39355905222601   -0.63699554732992
C        64.70016405258097   -2.70523386759577   -0.51346065499109
N        64.47779679834704   -1.38558445787685   -0.26603926615826
C        65.93516869430589   -3.31677903486185   -0.63381076740271
C        67.15665718033148   -2.67683568072751   -0.52244467373391
C        68.42828924238923   -3.33466851114028   -0.65418872308460
C        69.37697138571936   -2.38546208053994   -0.48565671030624
C        68.68609911987673   -1.14659553891174   -0.25009593262777
N        67.34562824884421   -1.35529442370343   -0.27820113704970
C        69.31550763268447    0.06595747954968   -0.02929518936734
C        68.66245332092959    1.26387177107257    0.20250926684741
C        69.32881392786331    2.51677830236367    0.43437576707417
C        68.36167121296700    3.44357741329356    0.62176224755908
C        67.10330999449745    2.75828750918365    0.50359059535585
N        67.31819143136110    1.44250717680147    0.24992332291739
C        65.86947326741775    3.37072044208509    0.63241834529171
C        64.64688516804377    2.73383484458023    0.51735386082250
N        64.45060086075797    1.41145208944016    0.26240587781685
H        63.25706215477027    4.44154294529218    0.85438769702242
H        61.35915159355187    2.56069754323412    0.49534688739213
H        61.40958989409273   -2.59881364645097   -0.48170844358395
H        63.34434307626630   -4.44335247854787   -0.83264836544973
H        65.94537624895676   -4.37895577636696   -0.83169860907587
H        68.55390438128956   -4.38225616140618   -0.84953409738363
H        70.44444946747033   -2.49077297127358   -0.51337259044178
H        70.39568043970023    0.07800025318348   -0.03699749396899
H        70.39396788452849    2.64587559312013    0.44767680315685
H        68.46659135882656    4.49270943131550    0.82101224913586
H        65.85858209153179    4.43155909998012    0.83728797613826
C        22.70836191706366    0.05271841149035    0.01060061516665
C        23.92822909828048    0.06022666328184    0.00964430535487
C        25.26403889931096    0.06730847764428    0.00560995447782
C        26.48836488614723    0.06721823785558    0.00520389311318
C        27.82397495976358    0.06666242589303    0.00038423157893
C        29.04407681587235    0.06578433918270   -0.00674235850002
C        38.71985589433813    0.03834829363295   -0.02053824121447
C        39.94005739902754    0.03762388327657   -0.02021696460951
C        41.27535433718803    0.03658038267855   -0.01928621316291
C        42.49986894405581    0.03665333731371   -0.01934774064013
C        43.83510624145370    0.03536287296338   -0.01940168661518
C        45.05532106779535    0.03337754323196   -0.01938233716142
C        54.73131269656107   -0.01091825269948   -0.01862851293234
C        55.95138117167374   -0.01778194407176   -0.01414922269429
C        57.28713502101584   -0.02066758486432   -0.01304956327521
C        58.51142326597043   -0.02702455338920   -0.01056340984885
C        59.84734348461154   -0.02438806780093   -0.00759316329499
C        61.06719842235304   -0.01825958635684   -0.00405902454952
Cu       33.88213828682831    0.05129403160427   -0.01715718751072
C        31.38441012059575   -3.37394257418647    0.37655188640143
C        30.42196394750875   -2.42677291934833    0.27147788535081
C        31.09854661773318   -1.16984798277691    0.12689152366645
C        30.43973645975358    0.06163791641457   -0.01066243460560
C        31.10541902841334    1.28890644070925   -0.15190190827749
C        30.43572870593022    2.54968720930674   -0.29469021402682
C        31.40330829329847    3.49109078797303   -0.40435938569088
C        32.65983031415242    2.80259395582374   -0.32810800833415
N        32.44497947911805    1.46741061325625   -0.17495709578587
C        33.89141543259205    3.42738832331385   -0.40304032474836
C        35.11967011504642    2.79512089537506   -0.33473702898601
C        36.38002475298256    3.47587713151886   -0.41804758190675
C        37.34243429938153    2.52882377033418   -0.31148566566510
C        36.66570177858228    1.27245287115455   -0.16317917934146
N        35.32711219257071    1.45886937579179   -0.18089231396312
C        37.32451369848435    0.04148389393025   -0.02041963498940
C        36.65906508481259   -1.18590406212622    0.12225190061727
C        37.32886402791809   -2.44640025272838    0.26754985622827
C        36.36118794615534   -3.38799302937322    0.37507521883292
C        35.10462356674978   -2.69987852508772    0.29525176624008
N        35.31945115580521   -1.36468421255271    0.14224466132639
C        33.87284541728190   -3.32494435978422    0.36658892650196
C        32.64469679474310   -2.69283095652640    0.29622275572120
N        32.43711992255722   -1.35632269501345    0.14477469251755
H        31.27038948577158   -4.43379615129786    0.49723989038125
H        29.35603249840293   -2.54632790714507    0.28796720569818
H        29.37043779561228    2.67542629927175   -0.30750299801690
H        31.29510861519815    4.55155629895427   -0.52559844518761
H        33.89434804428134    4.50105077903327   -0.52597173868398
H        36.49430145470443    4.53544145374277   -0.54135199023860
H        38.40848690889140    2.64811458073808   -0.32942639960713
H        38.39422147085840   -2.57184572859458    0.28308796920393
H        36.46952352906324   -4.44829752632787    0.49705060984656
H        33.86979626878642   -4.39869379484110    0.48881221505865
Cu       49.89299305229120    0.01144348275997   -0.01906786909572
C        47.38852919371956   -3.40733648191855    0.38986977886255
C        46.42793064746905   -2.45916905703326    0.27702390313243
C        47.10709098531488   -1.20421132486698    0.12731782689614
C        46.45067926698075    0.02762196315253   -0.01927933304462
C        47.11845861560496    1.25323525112055   -0.16588796794818
C        46.45114798724503    2.51440494251135   -0.31626298619977
C        47.42064065752999    3.45348571728078   -0.42923675864246
C        48.67589601270072    2.76319067621044   -0.34724599127002
N        48.45842955574063    1.42921194713303   -0.18771706292044
C        49.90891661428474    3.38557968745573   -0.42064407369583
C        51.13583310501341    2.75185769431492   -0.34316486991647
C        52.39747229881669    3.43088546545765   -0.42061692736272
C        53.35807879770294    2.48282233555391   -0.30717040424586
C        52.67907680332198    1.22736600758520   -0.16100173212809
N        51.34080601426633    1.41572112552869   -0.18523343296763
C        53.33549941843231   -0.00479451622773   -0.01894391594383
C        52.66763457231546   -1.23079348661525    0.12296817722244
C        53.33481296080766   -2.49251554387220    0.26978829657091
C        52.36532295182167   -3.43144994916320    0.38363063750380
C        51.11014274947173   -2.74063242093712    0.30555052870412
N        51.32766948975856   -1.40655686116321    0.14705816263724
C        49.87726938926156   -3.36275743921382    0.38251930304413
C        48.65021523930768   -2.72878079054376    0.30857882126028
N        48.44531620351911   -1.39273905808715    0.14947292707629
H        47.27226013339967   -4.46634407125759    0.51600474194738
H        45.36166141890595   -2.57689358247512    0.29091806862787
H        45.38601513109500    2.64205026919009   -0.33051723466178
H        47.31437436499159    4.51346086631404   -0.55599551827612
H        49.91408814932719    4.45865352046738   -0.54855266110105
H        52.51358327135218    4.49011267922299   -0.54507289132670
H        54.42428144660418    2.60076585710153   -0.31898860631287
H        54.39984033856296   -2.62049651617725    0.28185301974813
H        52.47138699887756   -4.49165211647301    0.50884290072175
H        49.87223872668346   -4.43582564958340    0.51046588642488
