 Entering Gaussian System
 *********************************************
 Gaussian 98:
 frequency output generated by the xtb code
 *********************************************
                         Standard orientation:
 --------------------------------------------------------------------
  Center     Atomic     Atomic              Coordinates (Angstroms)
  Number     Number      Type              X           Y           Z
 --------------------------------------------------------------------
    1         26             0       23.463244   -0.001055   -0.009685
    2          6             0       25.973549   -3.381251    0.019707
    3          6             0       26.962805   -2.457107    0.022000
    4          6             0       26.318282   -1.179815    0.013293
    5          6             0       26.990767    0.046517    0.012658
    6          6             0       26.285813    1.254321    0.006618
    7          6             0       26.895644    2.548589    0.009785
    8          6             0       25.881802    3.445702    0.002772
    9          6             0       24.660233    2.693612   -0.005179
   10          7             0       24.928477    1.349807   -0.002050
   11          6             0       23.416168    3.293609   -0.016159
   12          6             0       22.190313    2.657905   -0.026330
   13          6             0       20.944676    3.373908   -0.039899
   14          6             0       19.960135    2.447464   -0.047697
   15          6             0       20.607159    1.167545   -0.038401
   16          7             0       21.964431    1.309338   -0.025746
   17          6             0       19.953417   -0.048495   -0.040901
   18          6             0       20.639576   -1.246500   -0.030241
   19          6             0       20.027245   -2.543411   -0.030415
   20          6             0       21.036387   -3.442942   -0.017562
   21          6             0       22.262268   -2.693552   -0.009919
   22          7             0       22.000172   -1.351583   -0.017649
   23          6             0       23.504808   -3.295888    0.002538
   24          6             0       24.732154   -2.662433    0.009089
   25          7             0       24.964056   -1.311858    0.005567
   26          1             0       26.056951   -4.450884    0.024296
   27          1             0       28.025362   -2.604114    0.028947
   28          1             0       27.953855    2.724141    0.016795
   29          1             0       25.936291    4.517196    0.002545
   30          1             0       23.401705    4.374390   -0.017789
   31          1             0       20.859479    4.443606   -0.043072
   32          1             0       18.897325    2.593547   -0.058509
   33          1             0       18.874605   -0.063021   -0.050966
   34          1             0       18.968769   -2.718166   -0.039147
   35          1             0       20.980103   -4.514550   -0.013602
   36          1             0       23.519592   -4.376652    0.006863
   37         26             0       88.232191    0.028888   -0.008425
   38          6             0       85.728064    3.351592    0.637787
   39          6             0       84.737120    2.445276    0.466756
   40          6             0       85.379378    1.189977    0.223946
   41          6             0       84.704565   -0.014182   -0.001390
   42          6             0       85.407158   -1.202430   -0.225013
   43          6             0       84.794992   -2.474170   -0.459495
   44          6             0       85.807229   -3.357062   -0.628573
   45          6             0       87.030200   -2.618762   -0.497118
   46          7             0       86.764392   -1.297557   -0.249068
   47          6             0       88.273182   -3.209359   -0.615542
   48          6             0       89.500244   -2.585008   -0.508472
   49          6             0       90.744579   -3.289055   -0.651420
   50          6             0       91.730823   -2.378524   -0.490355
   51          6             0       91.086149   -1.120379   -0.248724
   52          7             0       89.728597   -1.259489   -0.262480
   53          6             0       91.742124    0.074555   -0.029683
   54          6             0       91.058145    1.251690    0.199807
   55          6             0       91.672888    2.525482    0.437490
   56          6             0       90.665410    3.409116    0.616000
   57          6             0       89.438136    2.673313    0.486171
   58          7             0       89.697734    1.355160    0.231823
   59          6             0       88.196709    3.265490    0.609078
   60          6             0       86.968188    2.644257    0.497230
   61          7             0       86.733854    1.318054    0.243964
   62          1             0       85.646613    4.402082    0.840069
   63          1             0       83.674815    2.590834    0.498635
   64          1             0       83.736443   -2.645761   -0.486615
   65          1             0       85.750838   -4.410372   -0.824731
   66          1             0       88.285647   -4.271780   -0.814074
   67          1             0       90.827852   -4.340526   -0.848925
   68          1             0       92.793370   -2.522289   -0.527101
   69          1             0       92.820962    0.088701   -0.037015
   70          1             0       92.731691    2.696998    0.460458
   71          1             0       90.723681    4.461640    0.816799
   72          1             0       88.183924    4.326932    0.812673
   73          6             0       28.386564    0.063216    0.016817
   74          6             0       29.606259    0.071048    0.016853
   75          6             0       30.943246    0.076367    0.015894
   76          6             0       32.167357    0.079278    0.009869
   77          6             0       33.504202    0.077597    0.005689
   78          6             0       34.724087    0.074102   -0.000486
   79          6             0       44.580749    0.034004   -0.020015
   80          6             0       45.800796    0.031181   -0.017085
   81          6             0       47.137469    0.030371   -0.018320
   82          6             0       48.361838    0.028319   -0.015161
   83          6             0       49.698520    0.030487   -0.016478
   84          6             0       50.918581    0.032734   -0.017970
   85          6             0       60.776432    0.043511   -0.022299
   86          6             0       61.996489    0.044982   -0.021513
   87          6             0       63.333184    0.046407   -0.021495
   88          6             0       64.557550    0.046967   -0.020511
   89          6             0       65.894236    0.045505   -0.020038
   90          6             0       67.114285    0.044658   -0.019677
   91          6             0       76.971015   -0.014472   -0.017459
   92          6             0       78.190844   -0.023411   -0.014555
   93          6             0       79.527775   -0.030060   -0.012606
   94          6             0       80.751862   -0.034176   -0.008890
   95          6             0       82.088948   -0.033442   -0.006461
   96          6             0       83.308618   -0.027532   -0.002926
   97         26             0       39.652227    0.052598   -0.019151
   98          6             0       37.172011   -3.327893    0.376277
   99          6             0       36.173093   -2.419384    0.276957
  100          6             0       36.804483   -1.144100    0.129010
  101          6             0       36.119294    0.068103   -0.006572
  102          6             0       36.814063    1.273925   -0.149490
  103          6             0       36.192709    2.554196   -0.296675
  104          6             0       37.198715    3.453471   -0.407834
  105          6             0       38.426409    2.716291   -0.327175
  106          7             0       38.169859    1.379375   -0.168554
  107          6             0       39.665197    3.321703   -0.404086
  108          6             0       40.899171    2.705699   -0.334834
  109          6             0       42.132639    3.432246   -0.423186
  110          6             0       43.131513    2.524561   -0.316028
  111          6             0       42.500156    1.249890   -0.163408
  112          7             0       41.145261    1.366823   -0.175955
  113          6             0       43.185605    0.038544   -0.020580
  114          6             0       42.490841   -1.167771    0.119662
  115          6             0       43.112112   -2.448191    0.266375
  116          6             0       42.106003   -3.348356    0.369410
  117          6             0       40.878342   -2.611533    0.285349
  118          7             0       41.135024   -1.274005    0.132048
  119          6             0       39.639462   -3.217515    0.356200
  120          6             0       38.405483   -2.601191    0.288947
  121          7             0       38.159408   -1.261518    0.137101
  122          1             0       37.099682   -4.391420    0.497616
  123          1             0       35.112095   -2.575704    0.299048
  124          1             0       35.132955    2.719718   -0.310881
  125          1             0       37.134748    4.517135   -0.532714
  126          1             0       39.669399    4.395132   -0.531314
  127          1             0       42.205080    4.495163   -0.549974
  128          1             0       44.192551    2.681125   -0.335879
  129          1             0       44.171862   -2.613259    0.285265
  130          1             0       42.169935   -4.412320    0.491259
  131          1             0       39.635084   -4.291493    0.478737
  132         26             0       55.847513    0.038060   -0.021424
  133          6             0       53.384302   -3.356053    0.363131
  134          6             0       52.380689   -2.453468    0.257704
  135          6             0       53.005374   -1.174233    0.115410
  136          6             0       52.313757    0.034566   -0.019280
  137          6             0       53.002677    1.244684   -0.155218
  138          6             0       52.375320    2.522563   -0.297211
  139          6             0       53.377008    3.427082   -0.404526
  140          6             0       54.608189    2.695367   -0.327249
  141          7             0       54.357983    1.356672   -0.172859
  142          6             0       55.843979    3.306454   -0.406729
  143          6             0       57.081066    2.696236   -0.342055
  144          6             0       58.310708    3.428464   -0.437135
  145          6             0       59.314301    2.525956   -0.330836
  146          6             0       58.689638    1.248786   -0.171640
  147          7             0       57.334102    1.358902   -0.180710
  148          6             0       59.381260    0.041782   -0.022232
  149          6             0       58.692349   -1.166837    0.126978
  150          6             0       59.319746   -2.442870    0.285186
  151          6             0       58.318041   -3.347471    0.391606
  152          6             0       57.086861   -2.617727    0.297454
  153          7             0       57.337052   -1.279792    0.136540
  154          6             0       55.851047   -3.230471    0.362843
  155          6             0       54.613936   -2.621820    0.284834
  156          7             0       54.360907   -1.283542    0.131400
  157          1             0       53.318010   -4.420123    0.483039
  158          1             0       51.320484   -2.616156    0.272128
  159          1             0       51.314752    2.683115   -0.310651
  160          1             0       53.308458    4.490984   -0.525177
  161          1             0       55.842867    4.379970   -0.533340
  162          1             0       58.377036    4.491357   -0.567455
  163          1             0       60.374530    2.687464   -0.355125
  164          1             0       60.380286   -2.602239    0.308930
  165          1             0       58.386551   -4.410237    0.521563
  166          1             0       55.852161   -4.304039    0.489015
  167         26             0       72.042782    0.015712   -0.020019
  168          6             0       69.555088   -3.358492    0.384382
  169          6             0       68.558136   -2.448541    0.278595
  170          6             0       69.192237   -1.175288    0.125062
  171          6             0       68.509425    0.037367   -0.019582
  172          6             0       69.206811    1.241576   -0.164276
  173          6             0       68.588334    2.522496   -0.317592
  174          6             0       69.596354    3.420115   -0.424106
  175          6             0       70.822447    2.681248   -0.334961
  176          7             0       70.562858    1.344941   -0.176150
  177          6             0       72.062643    3.284729   -0.404142
  178          6             0       73.295285    2.666669   -0.328886
  179          6             0       74.530362    3.391354   -0.410640
  180          6             0       75.527305    2.481647   -0.302971
  181          6             0       74.893156    1.207534   -0.156518
  182          7             0       73.538437    1.326989   -0.172508
  183          6             0       75.575685   -0.005842   -0.018945
  184          6             0       74.878326   -1.210919    0.117433
  185          6             0       75.496884   -2.492747    0.263212
  186          6             0       74.488894   -3.390359    0.369537
  187          6             0       73.262804   -2.650601    0.287886
  188          7             0       73.522285   -1.313868    0.132503
  189          6             0       72.022708   -3.253529    0.363013
  190          6             0       70.790078   -2.634742    0.294723
  191          7             0       70.546881   -1.295277    0.136356
  192          1             0       69.480412   -4.421199    0.511190
  193          1             0       67.496798   -2.602693    0.299732
  194          1             0       67.528918    2.689627   -0.338129
  195          1             0       69.534666    4.483658   -0.551037
  196          1             0       72.069323    4.358240   -0.530646
  197          1             0       74.604998    4.454491   -0.534187
  198          1             0       76.588668    2.636334   -0.319087
  199          1             0       76.556275   -2.660340    0.279753
  200          1             0       74.550501   -4.454417    0.492208
  201          1             0       72.016191   -4.327101    0.488948
 --------------------------------------------------------------------
     1 basis functions        1 primitive gaussians
     1 alpha electrons        1 beta electrons

 Harmonic frequencies (cm**-1), IR intensities (km*mol⁻¹),
 Raman scattering activities (A**4/amu), Raman depolarization ratios,
 reduced masses (AMU), force constants (mDyne/A) and normal coordinates:
                      1                      2                      3
                        a                      a                      a 
 Frequencies --     0.4712                 1.1096                 2.1476
 Red. masses --    17.7902                17.6336                17.4674
 Frc consts  --     0.0000                 0.0000                 0.0000
 IR Inten    --   401.8279                27.9185                98.8814
 Raman Activ --     0.0000                 0.0000                 0.0000
 Depolar     --     0.0000                 0.0000                 0.0000
 Atom AN      X      Y      Z        X      Y      Z        X      Y      Z
   1  26    -0.00   0.09  -0.17    -0.00   0.18   0.09    -0.00   0.02   0.14
   2   6    -0.02   0.03  -0.07    -0.03   0.06   0.03    -0.01   0.00   0.03
   3   6    -0.01   0.03  -0.06    -0.02   0.05   0.03    -0.00   0.00   0.02
   4   6    -0.01   0.03  -0.06    -0.01   0.06   0.03    -0.00   0.00   0.02
   5   6    -0.00   0.03  -0.05     0.00   0.05   0.03     0.00   0.00   0.02
   6   6     0.01   0.03  -0.06     0.01   0.06   0.03     0.00   0.00   0.02
   7   6     0.01   0.03  -0.05     0.02   0.05   0.03     0.00   0.00   0.02
   8   6     0.02   0.03  -0.06     0.03   0.06   0.03     0.01   0.00   0.03
   9   6     0.01   0.04  -0.07     0.02   0.07   0.04     0.00   0.01   0.05
  10   7     0.01   0.04  -0.07     0.01   0.08   0.04     0.00   0.01   0.05
  11   6     0.01   0.04  -0.08     0.03   0.08   0.04     0.01   0.01   0.06
  12   6     0.01   0.05  -0.09     0.02   0.09   0.05     0.00   0.01   0.08
  13   6     0.02   0.05  -0.09     0.03   0.11   0.05     0.01   0.01   0.10
  14   6     0.01   0.06  -0.10     0.02   0.11   0.05     0.00   0.02   0.11
  15   6     0.01   0.06  -0.10     0.01   0.11   0.05     0.00   0.01   0.10
  16   7     0.01   0.05  -0.10     0.01   0.10   0.05     0.00   0.01   0.09
  17   6    -0.00   0.06  -0.11    -0.00   0.11   0.05    -0.00   0.02   0.12
  18   6    -0.01   0.06  -0.10    -0.01   0.11   0.05    -0.00   0.01   0.10
  19   6    -0.01   0.06  -0.11    -0.02   0.11   0.05    -0.01   0.02   0.11
  20   6    -0.02   0.05  -0.10    -0.03   0.11   0.05    -0.01   0.01   0.10
  21   6    -0.01   0.05  -0.09    -0.02   0.09   0.04    -0.01   0.01   0.08
  22   7    -0.01   0.05  -0.10    -0.01   0.10   0.05    -0.00   0.01   0.09
  23   6    -0.02   0.04  -0.08    -0.03   0.08   0.04    -0.01   0.01   0.06
  24   6    -0.01   0.04  -0.07    -0.02   0.07   0.03    -0.01   0.01   0.05
  25   7    -0.01   0.04  -0.08    -0.01   0.08   0.04    -0.00   0.01   0.05
  26   1    -0.01   0.01  -0.02    -0.01   0.02   0.01    -0.00   0.00   0.01
  27   1    -0.00   0.01  -0.01    -0.01   0.01   0.01    -0.00   0.00   0.00
  28   1     0.00   0.01  -0.01     0.01   0.01   0.01     0.00   0.00   0.00
  29   1     0.01   0.01  -0.02     0.01   0.02   0.01     0.00   0.00   0.01
  30   1     0.01   0.01  -0.02     0.01   0.02   0.01     0.00   0.00   0.02
  31   1     0.01   0.02  -0.03     0.01   0.03   0.01     0.00   0.00   0.03
  32   1     0.00   0.02  -0.03     0.01   0.04   0.02     0.00   0.01   0.04
  33   1    -0.00   0.02  -0.03    -0.00   0.04   0.02    -0.00   0.01   0.04
  34   1    -0.00   0.02  -0.03    -0.01   0.04   0.02    -0.00   0.00   0.04
  35   1    -0.01   0.02  -0.03    -0.01   0.03   0.01    -0.00   0.00   0.03
  36   1    -0.01   0.01  -0.02    -0.01   0.02   0.01    -0.00   0.00   0.02
  37  26    -0.00   0.09  -0.19    -0.00   0.17   0.10     0.00  -0.01  -0.11
  38   6    -0.01   0.03  -0.06    -0.03   0.06   0.03     0.01  -0.00  -0.01
  39   6    -0.01   0.03  -0.05    -0.02   0.05   0.03     0.01  -0.00   0.00
  40   6    -0.00   0.03  -0.06    -0.01   0.06   0.03     0.00  -0.00  -0.01
  41   6     0.00   0.03  -0.05     0.00   0.05   0.03     0.00   0.00   0.00
  42   6     0.00   0.03  -0.06     0.01   0.06   0.03    -0.00  -0.00  -0.01
  43   6     0.01   0.03  -0.05     0.02   0.05   0.03    -0.01  -0.00   0.00
  44   6     0.01   0.03  -0.05     0.03   0.06   0.03    -0.01  -0.00  -0.01
  45   6     0.01   0.04  -0.07     0.02   0.07   0.04    -0.01  -0.00  -0.03
  46   7     0.00   0.04  -0.07     0.01   0.07   0.04    -0.01  -0.00  -0.03
  47   6     0.01   0.04  -0.08     0.03   0.08   0.05    -0.01  -0.00  -0.05
  48   6     0.01   0.05  -0.10     0.02   0.09   0.05    -0.01  -0.01  -0.07
  49   6     0.01   0.06  -0.11     0.03   0.10   0.06    -0.01  -0.01  -0.09
  50   6     0.01   0.06  -0.12     0.02   0.11   0.07    -0.01  -0.01  -0.11
  51   6     0.00   0.06  -0.12     0.01   0.10   0.07    -0.00  -0.01  -0.10
  52   7     0.00   0.06  -0.11     0.01   0.10   0.06    -0.01  -0.01  -0.08
  53   6    -0.00   0.06  -0.13    -0.00   0.11   0.07    -0.00  -0.01  -0.11
  54   6    -0.00   0.06  -0.12    -0.01   0.10   0.07     0.00  -0.01  -0.10
  55   6    -0.01   0.06  -0.13    -0.02   0.11   0.07     0.01  -0.01  -0.11
  56   6    -0.01   0.06  -0.12    -0.03   0.10   0.06     0.01  -0.01  -0.09
  57   6    -0.01   0.05  -0.10    -0.02   0.09   0.05     0.01  -0.00  -0.07
  58   7    -0.01   0.06  -0.11    -0.01   0.10   0.06     0.01  -0.01  -0.08
  59   6    -0.01   0.04  -0.09    -0.03   0.08   0.05     0.01  -0.00  -0.05
  60   6    -0.01   0.04  -0.08    -0.02   0.07   0.04     0.01  -0.00  -0.03
  61   7    -0.00   0.04  -0.08    -0.01   0.07   0.04     0.01  -0.00  -0.03
  62   1    -0.00   0.01  -0.02    -0.01   0.02   0.01     0.01  -0.00  -0.00
  63   1    -0.00   0.01  -0.01    -0.01   0.01   0.01     0.00   0.00   0.01
  64   1     0.00   0.01  -0.01     0.01   0.01   0.01    -0.00   0.00   0.01
  65   1     0.00   0.01  -0.01     0.01   0.02   0.01    -0.00  -0.00  -0.00
  66   1     0.00   0.01  -0.02     0.01   0.02   0.01    -0.00  -0.00  -0.01
  67   1     0.00   0.02  -0.03     0.01   0.03   0.02    -0.00  -0.00  -0.03
  68   1     0.00   0.02  -0.04     0.01   0.03   0.02    -0.00  -0.00  -0.04
  69   1    -0.00   0.02  -0.04    -0.00   0.03   0.02    -0.00  -0.00  -0.04
  70   1    -0.00   0.02  -0.04    -0.01   0.03   0.02     0.00  -0.00  -0.04
  71   1    -0.00   0.02  -0.03    -0.01   0.03   0.02     0.01  -0.00  -0.03
  72   1    -0.00   0.01  -0.03    -0.01   0.02   0.01     0.00  -0.00  -0.01
  73   6    -0.00   0.02  -0.04     0.00   0.04   0.02     0.00  -0.00  -0.00
  74   6     0.00   0.01  -0.04     0.00   0.03   0.02     0.00  -0.00  -0.02
  75   6     0.00   0.01  -0.03     0.00   0.02   0.01     0.00  -0.00  -0.03
  76   6     0.00   0.00  -0.02     0.00   0.01   0.01     0.00  -0.01  -0.05
  77   6     0.00   0.00  -0.01     0.00   0.00   0.01     0.00  -0.01  -0.06
  78   6     0.00  -0.00   0.00     0.00  -0.01   0.00     0.00  -0.01  -0.07
  79   6     0.00  -0.03   0.05     0.00  -0.06  -0.02     0.00  -0.01  -0.10
  80   6     0.00  -0.03   0.06     0.00  -0.07  -0.03    -0.00  -0.01  -0.09
  81   6     0.00  -0.04   0.06     0.00  -0.07  -0.03     0.00  -0.01  -0.09
  82   6     0.00  -0.04   0.07     0.00  -0.07  -0.03    -0.00  -0.01  -0.08
  83   6     0.00  -0.04   0.07     0.00  -0.08  -0.03    -0.00  -0.01  -0.07
  84   6     0.00  -0.04   0.07     0.00  -0.08  -0.04    -0.00  -0.01  -0.06
  85   6    -0.00  -0.04   0.08     0.00  -0.08  -0.04     0.00   0.00   0.04
  86   6    -0.00  -0.04   0.07     0.00  -0.07  -0.04     0.00   0.00   0.05
  87   6    -0.00  -0.04   0.07     0.00  -0.07  -0.04     0.00   0.01   0.06
  88   6    -0.00  -0.04   0.07     0.00  -0.07  -0.04     0.00   0.01   0.07
  89   6     0.00  -0.03   0.07     0.00  -0.06  -0.04     0.00   0.01   0.08
  90   6     0.00  -0.03   0.06     0.00  -0.06  -0.03     0.00   0.01   0.09
  91   6     0.00  -0.01   0.01     0.00  -0.00  -0.01     0.00   0.01   0.08
  92   6     0.00  -0.00   0.00     0.00   0.00  -0.00     0.00   0.01   0.07
  93   6     0.00   0.00  -0.01     0.00   0.01   0.00     0.00   0.01   0.06
  94   6     0.00   0.01  -0.02     0.00   0.02   0.01     0.00   0.01   0.05
  95   6     0.00   0.01  -0.03     0.00   0.03   0.01     0.00   0.00   0.03
  96   6     0.00   0.02  -0.04     0.00   0.04   0.02     0.00   0.00   0.02
  97  26     0.00  -0.04   0.07     0.00  -0.08  -0.03    -0.00  -0.03  -0.21
  98   6    -0.01  -0.01   0.02    -0.02  -0.02  -0.01    -0.00  -0.01  -0.09
  99   6    -0.01  -0.01   0.01    -0.01  -0.02  -0.00    -0.00  -0.01  -0.09
 100   6    -0.00  -0.01   0.01    -0.01  -0.02  -0.00    -0.00  -0.01  -0.09
 101   6     0.00  -0.01   0.01     0.00  -0.02  -0.00    -0.00  -0.01  -0.08
 102   6     0.00  -0.01   0.01     0.01  -0.02  -0.00     0.00  -0.01  -0.09
 103   6     0.01  -0.01   0.01     0.01  -0.02  -0.00     0.00  -0.01  -0.09
 104   6     0.01  -0.01   0.02     0.02  -0.02  -0.00     0.00  -0.01  -0.09
 105   6     0.01  -0.01   0.03     0.01  -0.03  -0.01    -0.00  -0.01  -0.10
 106   7     0.00  -0.01   0.03     0.01  -0.03  -0.01    -0.00  -0.01  -0.10
 107   6     0.01  -0.02   0.03     0.02  -0.03  -0.01    -0.00  -0.01  -0.10
 108   6     0.01  -0.02   0.04     0.01  -0.04  -0.02    -0.00  -0.01  -0.11
 109   6     0.01  -0.02   0.05     0.02  -0.05  -0.02    -0.00  -0.01  -0.11
 110   6     0.01  -0.03   0.05     0.01  -0.05  -0.02    -0.00  -0.01  -0.11
 111   6     0.00  -0.02   0.05     0.01  -0.05  -0.02    -0.00  -0.01  -0.10
 112   7     0.00  -0.02   0.04     0.01  -0.05  -0.02     0.00  -0.01  -0.11
 113   6     0.00  -0.03   0.05     0.00  -0.05  -0.02     0.00  -0.01  -0.10
 114   6    -0.00  -0.02   0.04    -0.01  -0.05  -0.02     0.00  -0.01  -0.10
 115   6    -0.01  -0.03   0.05    -0.01  -0.05  -0.02     0.00  -0.01  -0.11
 116   6    -0.01  -0.02   0.04    -0.02  -0.05  -0.02     0.00  -0.01  -0.11
 117   6    -0.01  -0.02   0.04    -0.01  -0.04  -0.02     0.00  -0.01  -0.11
 118   7    -0.00  -0.02   0.04    -0.01  -0.05  -0.02     0.00  -0.01  -0.11
 119   6    -0.01  -0.02   0.03    -0.02  -0.03  -0.01    -0.00  -0.01  -0.10
 120   6    -0.01  -0.01   0.02    -0.01  -0.03  -0.01    -0.00  -0.01  -0.10
 121   7    -0.00  -0.01   0.02    -0.01  -0.03  -0.01    -0.00  -0.01  -0.10
 122   1    -0.00  -0.00   0.00    -0.01  -0.01  -0.00    -0.00  -0.00  -0.03
 123   1    -0.00  -0.00   0.00    -0.00  -0.00   0.00    -0.00  -0.00  -0.02
 124   1     0.00  -0.00   0.00     0.00  -0.00   0.00     0.00  -0.00  -0.02
 125   1     0.00  -0.00   0.01     0.01  -0.01  -0.00     0.00  -0.00  -0.03
 126   1     0.00  -0.00   0.01     0.01  -0.01  -0.00    -0.00  -0.00  -0.03
 127   1     0.00  -0.01   0.01     0.01  -0.01  -0.01    -0.00  -0.00  -0.03
 128   1     0.00  -0.01   0.02     0.00  -0.02  -0.01    -0.00  -0.00  -0.03
 129   1    -0.00  -0.01   0.02    -0.00  -0.02  -0.01     0.00  -0.00  -0.03
 130   1    -0.00  -0.01   0.01    -0.01  -0.01  -0.01     0.00  -0.00  -0.03
 131   1    -0.00  -0.00   0.01    -0.01  -0.01  -0.00    -0.00  -0.00  -0.03
 132  26     0.00  -0.09   0.17     0.00  -0.17  -0.09     0.00  -0.01  -0.03
 133   6    -0.00  -0.04   0.08     0.00  -0.08  -0.04    -0.00  -0.01  -0.04
 134   6    -0.00  -0.04   0.08     0.00  -0.08  -0.04    -0.00  -0.01  -0.05
 135   6    -0.00  -0.04   0.08     0.00  -0.08  -0.04    -0.00  -0.01  -0.04
 136   6     0.00  -0.04   0.07     0.00  -0.08  -0.04     0.00  -0.01  -0.05
 137   6     0.00  -0.04   0.07    -0.00  -0.08  -0.04     0.00  -0.01  -0.04
 138   6     0.00  -0.04   0.07    -0.00  -0.08  -0.04     0.00  -0.01  -0.04
 139   6     0.00  -0.04   0.07    -0.00  -0.08  -0.04     0.00  -0.01  -0.03
 140   6     0.00  -0.04   0.07    -0.00  -0.08  -0.04     0.00  -0.00  -0.02
 141   7     0.00  -0.04   0.08    -0.00  -0.08  -0.04     0.00  -0.00  -0.03
 142   6     0.00  -0.04   0.07    -0.00  -0.08  -0.04     0.00  -0.00  -0.01
 143   6     0.00  -0.04   0.08    -0.00  -0.08  -0.04     0.00  -0.00   0.00
 144   6     0.00  -0.04   0.08    -0.00  -0.08  -0.04     0.00   0.00   0.01
 145   6     0.00  -0.04   0.08    -0.00  -0.08  -0.04     0.00   0.00   0.02
 146   6     0.00  -0.04   0.08    -0.00  -0.08  -0.04     0.00   0.00   0.02
 147   7     0.00  -0.04   0.08    -0.00  -0.08  -0.04     0.00  -0.00   0.00
 148   6    -0.00  -0.04   0.08     0.00  -0.08  -0.04     0.00   0.00   0.02
 149   6    -0.00  -0.04   0.08     0.00  -0.08  -0.04    -0.00   0.00   0.01
 150   6    -0.00  -0.04   0.08     0.00  -0.08  -0.04    -0.00   0.00   0.02
 151   6    -0.00  -0.04   0.08     0.00  -0.08  -0.04    -0.00  -0.00   0.01
 152   6    -0.00  -0.04   0.08     0.00  -0.08  -0.04    -0.00  -0.00  -0.00
 153   7    -0.00  -0.04   0.08     0.00  -0.08  -0.04    -0.00  -0.00   0.00
 154   6    -0.00  -0.04   0.08     0.00  -0.08  -0.04    -0.00  -0.00  -0.02
 155   6    -0.00  -0.04   0.08     0.00  -0.08  -0.04    -0.00  -0.00  -0.03
 156   7    -0.00  -0.04   0.08     0.00  -0.08  -0.04    -0.00  -0.00  -0.03
 157   1    -0.00  -0.01   0.02     0.00  -0.02  -0.01    -0.00  -0.00  -0.01
 158   1    -0.00  -0.01   0.02     0.00  -0.02  -0.01     0.00  -0.00  -0.02
 159   1     0.00  -0.01   0.02    -0.00  -0.02  -0.01    -0.00  -0.00  -0.02
 160   1     0.00  -0.01   0.02    -0.00  -0.02  -0.01     0.00  -0.00  -0.01
 161   1     0.00  -0.01   0.02    -0.00  -0.02  -0.01     0.00  -0.00  -0.00
 162   1     0.00  -0.01   0.02    -0.00  -0.02  -0.01     0.00   0.00   0.00
 163   1     0.00  -0.01   0.02    -0.00  -0.02  -0.01     0.00   0.00   0.01
 164   1    -0.00  -0.01   0.02     0.00  -0.02  -0.01    -0.00   0.00   0.01
 165   1    -0.00  -0.01   0.02     0.00  -0.02  -0.01    -0.00  -0.00   0.00
 166   1    -0.00  -0.01   0.02     0.00  -0.02  -0.01    -0.00  -0.00  -0.00
 167  26     0.00  -0.04   0.09     0.00  -0.07  -0.05     0.00   0.02   0.22
 168   6     0.01  -0.02   0.06     0.02  -0.04  -0.03     0.00   0.01   0.10
 169   6     0.01  -0.03   0.06     0.01  -0.05  -0.03     0.00   0.01   0.10
 170   6     0.00  -0.03   0.06     0.01  -0.05  -0.03     0.00   0.01   0.10
 171   6     0.00  -0.03   0.06     0.00  -0.05  -0.03     0.00   0.01   0.09
 172   6    -0.00  -0.03   0.06    -0.01  -0.05  -0.03    -0.00   0.01   0.10
 173   6    -0.01  -0.03   0.06    -0.01  -0.05  -0.03    -0.00   0.01   0.10
 174   6    -0.01  -0.02   0.05    -0.02  -0.04  -0.03    -0.00   0.01   0.11
 175   6    -0.01  -0.02   0.05    -0.01  -0.04  -0.03    -0.00   0.01   0.11
 176   7    -0.00  -0.02   0.05    -0.01  -0.04  -0.03     0.00   0.01   0.11
 177   6    -0.01  -0.02   0.04    -0.02  -0.03  -0.03     0.00   0.01   0.11
 178   6    -0.01  -0.01   0.04    -0.01  -0.02  -0.02     0.00   0.01   0.11
 179   6    -0.01  -0.01   0.03    -0.02  -0.02  -0.02     0.00   0.01   0.10
 180   6    -0.01  -0.01   0.02    -0.01  -0.01  -0.01     0.00   0.01   0.10
 181   6    -0.00  -0.01   0.03    -0.01  -0.01  -0.02     0.00   0.01   0.10
 182   7    -0.00  -0.02   0.04    -0.01  -0.02  -0.02     0.00   0.01   0.11
 183   6     0.00  -0.01   0.02     0.00  -0.01  -0.01     0.00   0.01   0.09
 184   6     0.00  -0.01   0.03     0.01  -0.01  -0.02    -0.00   0.01   0.09
 185   6     0.01  -0.01   0.02     0.01  -0.01  -0.01     0.00   0.01   0.09
 186   6     0.01  -0.01   0.03     0.02  -0.02  -0.02     0.00   0.01   0.10
 187   6     0.01  -0.01   0.04     0.01  -0.02  -0.02     0.00   0.01   0.10
 188   7     0.00  -0.02   0.04     0.01  -0.02  -0.02     0.00   0.01   0.11
 189   6     0.01  -0.02   0.04     0.02  -0.03  -0.03     0.00   0.01   0.10
 190   6     0.01  -0.02   0.05     0.01  -0.04  -0.03     0.00   0.01   0.10
 191   7     0.00  -0.02   0.05     0.01  -0.04  -0.03     0.00   0.01   0.11
 192   1     0.00  -0.01   0.02     0.01  -0.01  -0.01     0.00   0.00   0.03
 193   1     0.00  -0.01   0.02     0.00  -0.02  -0.01     0.00   0.00   0.03
 194   1    -0.00  -0.01   0.02    -0.00  -0.02  -0.01     0.00   0.00   0.03
 195   1    -0.00  -0.01   0.02    -0.01  -0.01  -0.01    -0.00   0.00   0.03
 196   1    -0.00  -0.01   0.01    -0.01  -0.01  -0.01     0.00   0.00   0.03
 197   1    -0.00  -0.00   0.01    -0.01  -0.00  -0.01     0.00   0.00   0.03
 198   1    -0.00  -0.00   0.01    -0.00  -0.00  -0.00     0.00   0.00   0.03
 199   1     0.00  -0.00   0.00     0.00  -0.00  -0.00     0.00   0.00   0.03
 200   1     0.00  -0.00   0.01     0.01  -0.00  -0.01     0.00   0.00   0.03
 201   1     0.00  -0.01   0.01     0.01  -0.01  -0.01     0.00   0.00   0.03
                      4                      5                      6
                        a                      a                      a 
 Frequencies --     2.7603                 3.9245                 5.2424
 Red. masses --    16.4829                17.4249                14.5677
 Frc consts  --     0.0000                 0.0000                 0.0000
 IR Inten    --    73.5898                23.9251                48.2282
 Raman Activ --     0.0000                 0.0000                 0.0000
 Depolar     --     0.0000                 0.0000                 0.0000
 Atom AN      X      Y      Z        X      Y      Z        X      Y      Z
   1  26    -0.00   0.11  -0.02     0.00  -0.01  -0.06     0.00  -0.04   0.00
   2   6    -0.06   0.01  -0.01     0.01   0.00   0.01     0.07   0.04   0.00
   3   6    -0.04  -0.01  -0.00     0.00   0.00   0.02     0.05   0.06  -0.00
   4   6    -0.02   0.01  -0.00     0.00   0.00   0.01     0.03   0.04  -0.00
   5   6    -0.00  -0.01  -0.00    -0.00   0.00   0.02     0.00   0.06  -0.01
   6   6     0.02   0.01  -0.00    -0.00   0.00   0.02    -0.03   0.04  -0.01
   7   6     0.04  -0.00  -0.00    -0.00   0.00   0.03    -0.05   0.06  -0.01
   8   6     0.06   0.01  -0.00    -0.01   0.00   0.01    -0.07   0.03  -0.01
   9   6     0.04   0.03  -0.01    -0.00  -0.00  -0.01    -0.06   0.01  -0.01
  10   7     0.02   0.03  -0.01    -0.00  -0.00  -0.00    -0.03   0.02  -0.00
  11   6     0.05   0.05  -0.01    -0.01  -0.00  -0.02    -0.07  -0.02  -0.01
  12   6     0.04   0.07  -0.01    -0.00  -0.01  -0.04    -0.06  -0.05  -0.00
  13   6     0.06   0.09  -0.01    -0.01  -0.01  -0.06    -0.07  -0.07   0.00
  14   6     0.04   0.11  -0.01    -0.00  -0.01  -0.08    -0.05  -0.09   0.00
  15   6     0.02   0.10  -0.01    -0.00  -0.01  -0.07    -0.02  -0.08   0.01
  16   7     0.02   0.08  -0.01    -0.00  -0.01  -0.05    -0.03  -0.05   0.00
  17   6    -0.00   0.11  -0.02     0.00  -0.01  -0.08     0.00  -0.09   0.01
  18   6    -0.02   0.10  -0.01     0.00  -0.01  -0.07     0.03  -0.08   0.01
  19   6    -0.04   0.11  -0.02     0.01  -0.01  -0.08     0.06  -0.09   0.02
  20   6    -0.06   0.09  -0.01     0.01  -0.01  -0.07     0.08  -0.07   0.02
  21   6    -0.05   0.07  -0.01     0.01  -0.01  -0.05     0.06  -0.04   0.01
  22   7    -0.02   0.08  -0.01     0.00  -0.01  -0.06     0.03  -0.05   0.01
  23   6    -0.06   0.05  -0.01     0.01  -0.00  -0.03     0.07  -0.02   0.01
  24   6    -0.04   0.03  -0.01     0.01  -0.00  -0.01     0.06   0.01   0.01
  25   7    -0.02   0.03  -0.01     0.00  -0.00  -0.01     0.03   0.02   0.00
  26   1    -0.02   0.00  -0.00     0.00   0.00   0.00     0.03   0.01   0.00
  27   1    -0.01  -0.01  -0.00     0.00   0.00   0.01     0.02   0.02  -0.00
  28   1     0.01  -0.01   0.00    -0.00   0.00   0.01    -0.02   0.02  -0.00
  29   1     0.02   0.00  -0.00    -0.00   0.00   0.00    -0.03   0.01  -0.00
  30   1     0.02   0.02  -0.00    -0.00  -0.00  -0.01    -0.03  -0.01  -0.00
  31   1     0.02   0.03  -0.00    -0.00  -0.00  -0.02    -0.03  -0.02  -0.00
  32   1     0.01   0.04  -0.00    -0.00  -0.00  -0.03    -0.02  -0.03   0.00
  33   1    -0.00   0.04  -0.01     0.00  -0.00  -0.03     0.00  -0.03   0.00
  34   1    -0.01   0.04  -0.01     0.00  -0.00  -0.03     0.02  -0.03   0.01
  35   1    -0.02   0.03  -0.00     0.00  -0.00  -0.02     0.03  -0.02   0.01
  36   1    -0.02   0.01  -0.00     0.00  -0.00  -0.01     0.03  -0.00   0.00
  37  26     0.00  -0.12   0.01    -0.00  -0.01  -0.04     0.00  -0.05   0.00
  38   6     0.05  -0.02  -0.00     0.01   0.00   0.02     0.07   0.03  -0.00
  39   6     0.04  -0.00  -0.00     0.01   0.00   0.03     0.05   0.05  -0.01
  40   6     0.02  -0.01  -0.00     0.01   0.00   0.02     0.03   0.04  -0.01
  41   6    -0.00  -0.00  -0.00     0.00   0.00   0.03     0.00   0.05  -0.01
  42   6    -0.02  -0.01  -0.00    -0.01   0.00   0.02    -0.02   0.04  -0.01
  43   6    -0.04  -0.00  -0.00    -0.01   0.00   0.03    -0.05   0.05  -0.01
  44   6    -0.05  -0.02   0.00    -0.01  -0.00   0.02    -0.07   0.03  -0.01
  45   6    -0.04  -0.04   0.00    -0.01  -0.00   0.00    -0.05   0.01  -0.01
  46   7    -0.02  -0.04   0.00    -0.01  -0.00   0.00    -0.03   0.01  -0.01
  47   6    -0.05  -0.06   0.01    -0.01  -0.00  -0.02    -0.07  -0.02  -0.00
  48   6    -0.04  -0.08   0.01    -0.01  -0.01  -0.04    -0.05  -0.05   0.00
  49   6    -0.05  -0.09   0.01    -0.01  -0.01  -0.06    -0.07  -0.07   0.01
  50   6    -0.04  -0.11   0.01    -0.01  -0.01  -0.08    -0.05  -0.10   0.01
  51   6    -0.02  -0.10   0.01    -0.01  -0.01  -0.07    -0.02  -0.08   0.01
  52   7    -0.02  -0.09   0.01    -0.01  -0.01  -0.05    -0.03  -0.06   0.01
  53   6     0.00  -0.11   0.01    -0.00  -0.01  -0.08     0.00  -0.10   0.02
  54   6     0.02  -0.10   0.01     0.00  -0.01  -0.07     0.03  -0.08   0.02
  55   6     0.04  -0.11   0.01     0.01  -0.01  -0.08     0.05  -0.10   0.02
  56   6     0.05  -0.09   0.01     0.01  -0.01  -0.06     0.07  -0.07   0.02
  57   6     0.04  -0.07   0.01     0.01  -0.01  -0.04     0.06  -0.05   0.01
  58   7     0.02  -0.08   0.01     0.01  -0.01  -0.05     0.03  -0.06   0.01
  59   6     0.05  -0.05   0.00     0.01  -0.00  -0.02     0.07  -0.02   0.01
  60   6     0.04  -0.04   0.00     0.01  -0.00   0.00     0.06   0.01   0.00
  61   7     0.02  -0.03   0.00     0.01  -0.00   0.00     0.03   0.01  -0.00
  62   1     0.02  -0.00  -0.00     0.01   0.00   0.01     0.03   0.01  -0.00
  63   1     0.01   0.00  -0.00     0.00   0.00   0.01     0.02   0.02  -0.00
  64   1    -0.01   0.00  -0.00    -0.00   0.00   0.01    -0.02   0.02  -0.01
  65   1    -0.02  -0.00   0.00    -0.01  -0.00   0.01    -0.03   0.01  -0.00
  66   1    -0.02  -0.02   0.00    -0.01  -0.00  -0.00    -0.03  -0.01  -0.00
  67   1    -0.02  -0.03   0.00    -0.01  -0.00  -0.02    -0.03  -0.02   0.00
  68   1    -0.01  -0.04   0.00    -0.00  -0.00  -0.03    -0.01  -0.03   0.00
  69   1     0.00  -0.04   0.00    -0.00  -0.00  -0.03     0.00  -0.03   0.01
  70   1     0.01  -0.04   0.00     0.00  -0.00  -0.03     0.02  -0.03   0.01
  71   1     0.02  -0.03   0.00     0.01  -0.00  -0.02     0.03  -0.02   0.01
  72   1     0.02  -0.02   0.00     0.01  -0.00  -0.00     0.03  -0.01   0.00
  73   6     0.00  -0.03  -0.00    -0.00   0.01   0.04    -0.00   0.09  -0.01
  74   6     0.00  -0.05   0.00    -0.00   0.01   0.06    -0.00   0.10  -0.01
  75   6     0.00  -0.06   0.00    -0.00   0.01   0.07    -0.00   0.12  -0.01
  76   6     0.00  -0.07   0.01    -0.00   0.01   0.08    -0.00   0.12  -0.01
  77   6     0.00  -0.08   0.01    -0.00   0.01   0.09    -0.00   0.12  -0.01
  78   6     0.00  -0.09   0.01     0.00   0.01   0.09    -0.00   0.11  -0.01
  79   6     0.00  -0.09   0.01    -0.00   0.00   0.02    -0.00  -0.02   0.00
  80   6     0.00  -0.09   0.01    -0.00  -0.00   0.00    -0.00  -0.04   0.00
  81   6     0.00  -0.08   0.01    -0.00  -0.00  -0.02    -0.00  -0.06   0.01
  82   6     0.00  -0.07   0.01    -0.00  -0.01  -0.04    -0.00  -0.07   0.01
  83   6     0.00  -0.06   0.01    -0.00  -0.01  -0.06    -0.00  -0.08   0.01
  84   6     0.00  -0.05   0.01    -0.00  -0.01  -0.08    -0.00  -0.09   0.01
  85   6     0.00   0.06  -0.00    -0.00  -0.01  -0.09    -0.00  -0.08   0.01
  86   6    -0.00   0.07  -0.01    -0.00  -0.01  -0.07    -0.00  -0.07   0.01
  87   6    -0.00   0.08  -0.01    -0.00  -0.00  -0.05    -0.00  -0.06   0.01
  88   6    -0.00   0.09  -0.01    -0.00  -0.00  -0.04    -0.00  -0.04   0.01
  89   6    -0.00   0.09  -0.01    -0.00   0.00  -0.01    -0.00  -0.03   0.00
  90   6    -0.00   0.10  -0.01    -0.00   0.00   0.00    -0.00  -0.01   0.00
  91   6    -0.00   0.08  -0.01    -0.00   0.01   0.09    -0.00   0.11  -0.02
  92   6    -0.00   0.07  -0.01    -0.00   0.01   0.09    -0.00   0.12  -0.02
  93   6    -0.00   0.06  -0.01    -0.00   0.01   0.08    -0.00   0.12  -0.02
  94   6    -0.00   0.05  -0.01    -0.00   0.01   0.07    -0.00   0.11  -0.01
  95   6    -0.00   0.04  -0.01    -0.00   0.01   0.06    -0.00   0.10  -0.01
  96   6    -0.00   0.02  -0.00    -0.00   0.01   0.05    -0.00   0.08  -0.01
  97  26     0.00  -0.20   0.02    -0.00   0.02   0.18    -0.00   0.10  -0.02
  98   6    -0.00  -0.09   0.01    -0.00   0.01   0.10    -0.05   0.08  -0.01
  99   6    -0.00  -0.09   0.01    -0.00   0.01   0.10    -0.04   0.10  -0.01
 100   6    -0.00  -0.09   0.01    -0.00   0.01   0.10    -0.02   0.09  -0.01
 101   6     0.00  -0.09   0.01     0.00   0.01   0.10    -0.00   0.10  -0.01
 102   6     0.00  -0.09   0.01     0.00   0.01   0.10     0.02   0.09  -0.01
 103   6     0.00  -0.09   0.01     0.00   0.01   0.10     0.03   0.10  -0.01
 104   6     0.00  -0.09   0.01     0.00   0.01   0.11     0.05   0.08  -0.01
 105   6     0.00  -0.09   0.01     0.00   0.01   0.10     0.04   0.07  -0.01
 106   7     0.00  -0.10   0.01     0.00   0.01   0.10     0.02   0.07  -0.01
 107   6     0.00  -0.09   0.01     0.00   0.01   0.09     0.05   0.05  -0.01
 108   6     0.00  -0.09   0.01     0.00   0.01   0.08     0.04   0.03  -0.01
 109   6     0.00  -0.09   0.01     0.00   0.01   0.07     0.05   0.01  -0.00
 110   6     0.00  -0.09   0.01     0.00   0.00   0.05     0.03  -0.00  -0.00
 111   6     0.00  -0.09   0.01     0.00   0.01   0.05     0.02   0.01  -0.00
 112   7     0.00  -0.10   0.01     0.00   0.01   0.08     0.02   0.03  -0.01
 113   6     0.00  -0.09   0.01    -0.00   0.00   0.04    -0.00  -0.00  -0.00
 114   6    -0.00  -0.09   0.01    -0.00   0.01   0.05    -0.02   0.01  -0.00
 115   6    -0.00  -0.09   0.01    -0.00   0.00   0.05    -0.04  -0.00  -0.00
 116   6    -0.00  -0.09   0.01    -0.00   0.01   0.07    -0.05   0.01  -0.01
 117   6    -0.00  -0.09   0.01    -0.00   0.01   0.08    -0.04   0.03  -0.01
 118   7    -0.00  -0.10   0.01    -0.00   0.01   0.08    -0.02   0.03  -0.01
 119   6    -0.00  -0.09   0.01    -0.00   0.01   0.09    -0.05   0.05  -0.01
 120   6    -0.00  -0.09   0.01    -0.00   0.01   0.10    -0.04   0.07  -0.01
 121   7    -0.00  -0.10   0.01    -0.00   0.01   0.10    -0.02   0.07  -0.01
 122   1    -0.00  -0.03   0.00    -0.00   0.00   0.03    -0.02   0.02  -0.00
 123   1    -0.00  -0.03   0.00    -0.00   0.00   0.03    -0.01   0.03  -0.00
 124   1     0.00  -0.03   0.00     0.00   0.00   0.03     0.01   0.03  -0.00
 125   1     0.00  -0.03   0.00     0.00   0.00   0.03     0.02   0.02  -0.00
 126   1     0.00  -0.03   0.00     0.00   0.00   0.03     0.02   0.01  -0.00
 127   1     0.00  -0.03   0.00     0.00   0.00   0.02     0.02   0.00  -0.00
 128   1     0.00  -0.03   0.00     0.00   0.00   0.01     0.01  -0.00  -0.00
 129   1    -0.00  -0.03   0.00    -0.00   0.00   0.01    -0.01  -0.00  -0.00
 130   1    -0.00  -0.03   0.00    -0.00   0.00   0.02    -0.02   0.00  -0.00
 131   1    -0.00  -0.03   0.00    -0.00   0.00   0.03    -0.02   0.01  -0.00
 132  26     0.00   0.01   0.01    -0.00  -0.03  -0.25    -0.00  -0.19   0.03
 133   6     0.04  -0.02   0.01     0.00  -0.02  -0.12     0.00  -0.09   0.01
 134   6     0.03  -0.03   0.01     0.00  -0.01  -0.11     0.00  -0.09   0.01
 135   6     0.01  -0.03   0.01     0.00  -0.01  -0.10     0.00  -0.09   0.01
 136   6     0.00  -0.03   0.01    -0.00  -0.01  -0.10    -0.00  -0.09   0.01
 137   6    -0.01  -0.03   0.01    -0.00  -0.01  -0.11    -0.00  -0.09   0.01
 138   6    -0.03  -0.03   0.01    -0.00  -0.01  -0.11    -0.00  -0.09   0.01
 139   6    -0.04  -0.02   0.01    -0.00  -0.02  -0.12    -0.00  -0.09   0.02
 140   6    -0.03  -0.01   0.01    -0.00  -0.02  -0.12    -0.00  -0.09   0.02
 141   7    -0.02  -0.01   0.01    -0.00  -0.02  -0.12    -0.00  -0.09   0.02
 142   6    -0.04   0.00   0.00    -0.00  -0.02  -0.13    -0.00  -0.09   0.02
 143   6    -0.03   0.02   0.00    -0.00  -0.02  -0.13    -0.00  -0.08   0.02
 144   6    -0.04   0.03   0.00    -0.00  -0.02  -0.13    -0.00  -0.08   0.02
 145   6    -0.03   0.04  -0.00    -0.00  -0.01  -0.11    -0.00  -0.08   0.01
 146   6    -0.01   0.04  -0.00    -0.00  -0.01  -0.11    -0.00  -0.08   0.01
 147   7    -0.02   0.02   0.00    -0.00  -0.02  -0.13    -0.00  -0.09   0.02
 148   6     0.00   0.04  -0.00    -0.00  -0.01  -0.10    -0.00  -0.08   0.01
 149   6     0.01   0.04  -0.00     0.00  -0.01  -0.11     0.00  -0.08   0.01
 150   6     0.03   0.04  -0.00     0.00  -0.01  -0.11     0.00  -0.08   0.01
 151   6     0.04   0.03  -0.00     0.00  -0.01  -0.12     0.00  -0.08   0.01
 152   6     0.03   0.02   0.00     0.00  -0.02  -0.12     0.00  -0.08   0.01
 153   7     0.02   0.02   0.00     0.00  -0.02  -0.13     0.00  -0.09   0.01
 154   6     0.04   0.00   0.00     0.00  -0.02  -0.13     0.00  -0.09   0.01
 155   6     0.03  -0.01   0.00     0.00  -0.02  -0.12     0.00  -0.09   0.01
 156   7     0.02  -0.01   0.01     0.00  -0.02  -0.12     0.00  -0.09   0.01
 157   1     0.01  -0.01   0.00     0.00  -0.00  -0.04     0.00  -0.03   0.00
 158   1     0.01  -0.01   0.00     0.00  -0.00  -0.03     0.00  -0.03   0.00
 159   1    -0.01  -0.01   0.00    -0.00  -0.00  -0.03    -0.00  -0.03   0.00
 160   1    -0.01  -0.01   0.00    -0.00  -0.00  -0.04    -0.00  -0.03   0.00
 161   1    -0.01   0.00   0.00    -0.00  -0.00  -0.04    -0.00  -0.02   0.00
 162   1    -0.01   0.01   0.00    -0.00  -0.00  -0.04    -0.00  -0.02   0.00
 163   1    -0.01   0.02  -0.00    -0.00  -0.00  -0.03    -0.00  -0.02   0.00
 164   1     0.01   0.02  -0.00     0.00  -0.00  -0.03     0.00  -0.02   0.00
 165   1     0.01   0.01  -0.00     0.00  -0.00  -0.04     0.00  -0.02   0.00
 166   1     0.01   0.00   0.00     0.00  -0.00  -0.04     0.00  -0.02   0.00
 167  26    -0.00   0.19  -0.02    -0.00   0.02   0.15    -0.00   0.12  -0.02
 168   6    -0.01   0.09  -0.01    -0.00   0.01   0.05     0.04   0.02  -0.00
 169   6    -0.00   0.10  -0.01    -0.00   0.01   0.03     0.03   0.01  -0.00
 170   6    -0.00   0.09  -0.01    -0.00   0.01   0.04     0.01   0.02  -0.00
 171   6    -0.00   0.10  -0.01    -0.00   0.01   0.03    -0.00   0.01  -0.00
 172   6     0.00   0.09  -0.01    -0.00   0.01   0.04    -0.02   0.02  -0.00
 173   6     0.00   0.10  -0.01     0.00   0.01   0.03    -0.03   0.01  -0.00
 174   6     0.01   0.09  -0.01     0.00   0.01   0.05    -0.04   0.02  -0.00
 175   6     0.00   0.09  -0.01     0.00   0.01   0.06    -0.03   0.04  -0.00
 176   7     0.00   0.10  -0.01    -0.00   0.01   0.06    -0.02   0.04  -0.00
 177   6     0.00   0.09  -0.01     0.00   0.01   0.08    -0.04   0.05  -0.01
 178   6     0.00   0.09  -0.01     0.00   0.01   0.08    -0.03   0.07  -0.01
 179   6     0.01   0.09  -0.01     0.00   0.01   0.09    -0.04   0.09  -0.01
 180   6     0.00   0.08  -0.01     0.00   0.01   0.09    -0.03   0.10  -0.01
 181   6     0.00   0.09  -0.01     0.00   0.01   0.09    -0.02   0.09  -0.01
 182   7     0.00   0.09  -0.01    -0.00   0.01   0.09    -0.02   0.08  -0.01
 183   6    -0.00   0.08  -0.01    -0.00   0.01   0.09    -0.00   0.10  -0.01
 184   6    -0.00   0.09  -0.01    -0.00   0.01   0.09     0.02   0.09  -0.01
 185   6    -0.00   0.08  -0.01    -0.00   0.01   0.10     0.03   0.10  -0.01
 186   6    -0.01   0.09  -0.01    -0.00   0.01   0.09     0.04   0.09  -0.01
 187   6    -0.00   0.09  -0.01    -0.00   0.01   0.09     0.03   0.07  -0.01
 188   7    -0.00   0.09  -0.01    -0.00   0.01   0.09     0.02   0.08  -0.01
 189   6    -0.01   0.09  -0.01    -0.00   0.01   0.08     0.04   0.05  -0.01
 190   6    -0.00   0.09  -0.01    -0.00   0.01   0.06     0.03   0.04  -0.01
 191   7    -0.00   0.10  -0.01    -0.00   0.01   0.06     0.02   0.04  -0.01
 192   1    -0.00   0.03  -0.00    -0.00   0.00   0.02     0.02   0.01  -0.00
 193   1    -0.00   0.03  -0.00    -0.00   0.00   0.01     0.01  -0.00   0.00
 194   1     0.00   0.03  -0.00     0.00   0.00   0.01    -0.01  -0.00   0.00
 195   1     0.00   0.03  -0.00     0.00   0.00   0.01    -0.02   0.01  -0.00
 196   1     0.00   0.03  -0.00     0.00   0.00   0.02    -0.02   0.02  -0.00
 197   1     0.00   0.02  -0.00     0.00   0.00   0.03    -0.02   0.03  -0.00
 198   1     0.00   0.02  -0.00     0.00   0.00   0.03    -0.01   0.03  -0.00
 199   1    -0.00   0.02  -0.00    -0.00   0.00   0.03     0.01   0.03  -0.00
 200   1    -0.00   0.02  -0.00    -0.00   0.00   0.03     0.02   0.03  -0.00
 201   1    -0.00   0.03  -0.00    -0.00   0.00   0.02     0.02   0.02  -0.00
                      7                      8                      9
                        a                      a                      a 
 Frequencies --     8.0199                 8.4512                 8.5201
 Red. masses --    11.6458                11.2945                11.7183
 Frc consts  --     0.0000                 0.0000                 0.0000
 IR Inten    --    20.1358              1647.8876               246.5612
 Raman Activ --     0.0000                 0.0000                 0.0000
 Depolar     --     0.0000                 0.0000                 0.0000
 Atom AN      X      Y      Z        X      Y      Z        X      Y      Z
   1  26     0.01   0.01   0.00     0.00   0.01  -0.00     0.00  -0.00  -0.00
   2   6     0.07   0.05   0.02    -0.01  -0.00   0.26     0.01   0.00  -0.02
   3   6     0.05   0.07   0.01    -0.01  -0.00   0.21     0.01   0.01   0.02
   4   6     0.03   0.06   0.01    -0.00  -0.00   0.11     0.00   0.00   0.03
   5   6     0.00   0.07  -0.00    -0.00  -0.00   0.04     0.00   0.01   0.08
   6   6    -0.02   0.06  -0.01     0.00  -0.00  -0.04    -0.00   0.00   0.10
   7   6    -0.05   0.07  -0.01     0.00  -0.00  -0.11    -0.00   0.01   0.15
   8   6    -0.07   0.05  -0.02     0.01  -0.00  -0.18    -0.01   0.00   0.16
   9   6    -0.05   0.03  -0.01     0.01   0.00  -0.15    -0.00   0.00   0.11
  10   7    -0.03   0.03  -0.01     0.00   0.00  -0.07    -0.00   0.00   0.08
  11   6    -0.06   0.00  -0.02     0.01   0.00  -0.21    -0.01  -0.00   0.10
  12   6    -0.05  -0.02  -0.01     0.01   0.00  -0.19    -0.00  -0.00   0.04
  13   6    -0.07  -0.05  -0.02     0.01   0.01  -0.26    -0.01  -0.00   0.03
  14   6    -0.05  -0.07  -0.01     0.01   0.01  -0.22    -0.00  -0.01  -0.03
  15   6    -0.02  -0.06  -0.00     0.00   0.01  -0.13    -0.00  -0.01  -0.05
  16   7    -0.03  -0.03  -0.01     0.00   0.00  -0.12    -0.00  -0.00  -0.01
  17   6     0.00  -0.07   0.00     0.00   0.01  -0.06     0.00  -0.01  -0.11
  18   6     0.03  -0.06   0.01    -0.00   0.01   0.03     0.00  -0.01  -0.12
  19   6     0.05  -0.07   0.01    -0.00   0.01   0.10     0.01  -0.01  -0.17
  20   6     0.07  -0.05   0.02    -0.01   0.01   0.18     0.01  -0.01  -0.16
  21   6     0.06  -0.02   0.01    -0.00   0.00   0.15     0.01  -0.00  -0.10
  22   7     0.03  -0.03   0.01    -0.00   0.01   0.06     0.00  -0.00  -0.09
  23   6     0.07   0.00   0.02    -0.01   0.00   0.21     0.01  -0.00  -0.08
  24   6     0.06   0.03   0.01    -0.01   0.00   0.19     0.01   0.00  -0.03
  25   7     0.03   0.04   0.01    -0.00   0.00   0.11     0.00   0.00   0.00
  26   1     0.03   0.02   0.01    -0.00   0.00   0.09     0.00   0.00  -0.01
  27   1     0.02   0.03   0.00    -0.00  -0.00   0.07     0.00   0.00   0.01
  28   1    -0.02   0.03  -0.00     0.00  -0.00  -0.03    -0.00   0.00   0.05
  29   1    -0.03   0.02  -0.01     0.00  -0.00  -0.07    -0.00   0.00   0.06
  30   1    -0.02   0.00  -0.01     0.00   0.00  -0.08    -0.00  -0.00   0.04
  31   1    -0.03  -0.01  -0.01     0.00   0.00  -0.09    -0.00  -0.00   0.02
  32   1    -0.01  -0.03  -0.00     0.00   0.00  -0.07    -0.00  -0.00  -0.02
  33   1     0.00  -0.03   0.00     0.00   0.00  -0.02     0.00  -0.00  -0.04
  34   1     0.02  -0.03   0.00    -0.00   0.00   0.03     0.00  -0.00  -0.06
  35   1     0.03  -0.01   0.01    -0.00   0.00   0.07     0.00  -0.00  -0.05
  36   1     0.03   0.00   0.01    -0.00   0.00   0.08     0.00  -0.00  -0.03
  37  26    -0.01  -0.00  -0.00     0.00   0.00  -0.01    -0.00  -0.00  -0.01
  38   6    -0.07  -0.06   0.02    -0.00  -0.01   0.07    -0.02   0.01  -0.14
  39   6    -0.05  -0.08   0.02    -0.00  -0.01   0.03    -0.02   0.00  -0.15
  40   6    -0.03  -0.06   0.01    -0.00  -0.00   0.00    -0.01  -0.00  -0.11
  41   6    -0.00  -0.08   0.01     0.00   0.00  -0.04    -0.00  -0.01  -0.11
  42   6     0.02  -0.06   0.00     0.00   0.01  -0.07     0.01  -0.01  -0.09
  43   6     0.05  -0.07   0.00     0.00   0.02  -0.12     0.02  -0.01  -0.10
  44   6     0.07  -0.05  -0.00     0.00   0.02  -0.14     0.02  -0.01  -0.07
  45   6     0.05  -0.02  -0.00     0.00   0.02  -0.10     0.02  -0.00  -0.03
  46   7     0.03  -0.03  -0.00     0.00   0.01  -0.07     0.01  -0.00  -0.05
  47   6     0.07   0.00  -0.01     0.00   0.02  -0.11     0.02  -0.00   0.02
  48   6     0.05   0.03  -0.01     0.00   0.02  -0.07     0.02  -0.01   0.06
  49   6     0.07   0.06  -0.02     0.01   0.02  -0.07     0.02  -0.01   0.12
  50   6     0.05   0.08  -0.02     0.00   0.01  -0.03     0.02  -0.01   0.16
  51   6     0.02   0.06  -0.02     0.00   0.01   0.00     0.01  -0.01   0.13
  52   7     0.03   0.04  -0.01     0.00   0.01  -0.02     0.01  -0.00   0.07
  53   6    -0.00   0.08  -0.02     0.00  -0.00   0.05     0.00  -0.01   0.15
  54   6    -0.03   0.06  -0.01     0.00  -0.01   0.07    -0.01  -0.00   0.10
  55   6    -0.06   0.07  -0.00    -0.00  -0.02   0.12    -0.02   0.00   0.11
  56   6    -0.07   0.05   0.01    -0.00  -0.02   0.13    -0.02   0.01   0.05
  57   6    -0.06   0.02   0.01    -0.00  -0.01   0.09    -0.02   0.00   0.01
  58   7    -0.03   0.03  -0.00     0.00  -0.01   0.06    -0.01   0.00   0.04
  59   6    -0.07  -0.00   0.02    -0.00  -0.02   0.09    -0.02   0.01  -0.05
  60   6    -0.06  -0.03   0.02    -0.00  -0.01   0.06    -0.02   0.01  -0.09
  61   7    -0.03  -0.04   0.01    -0.00  -0.00   0.02    -0.01   0.00  -0.08
  62   1    -0.03  -0.02   0.01    -0.00  -0.01   0.03    -0.01   0.00  -0.05
  63   1    -0.02  -0.03   0.01    -0.00  -0.00   0.01    -0.01   0.00  -0.05
  64   1     0.02  -0.03   0.00     0.00   0.01  -0.04     0.01  -0.00  -0.04
  65   1     0.03  -0.01  -0.00     0.00   0.01  -0.05     0.01  -0.00  -0.02
  66   1     0.03   0.00  -0.00     0.00   0.01  -0.04     0.01  -0.00   0.01
  67   1     0.03   0.02  -0.01     0.00   0.01  -0.03     0.01  -0.00   0.04
  68   1     0.01   0.03  -0.01     0.00   0.00  -0.01     0.01  -0.00   0.06
  69   1    -0.00   0.03  -0.01     0.00  -0.00   0.02     0.00  -0.00   0.06
  70   1    -0.02   0.03  -0.00    -0.00  -0.01   0.04    -0.01  -0.00   0.04
  71   1    -0.03   0.01   0.00    -0.00  -0.01   0.05    -0.01   0.00   0.01
  72   1    -0.03  -0.00   0.01    -0.00  -0.01   0.04    -0.01   0.00  -0.02
  73   6     0.00   0.10  -0.00    -0.00  -0.00   0.05     0.00   0.01   0.10
  74   6     0.00   0.11  -0.00    -0.00  -0.01   0.05     0.00   0.01   0.11
  75   6     0.00   0.12  -0.00    -0.00  -0.01   0.06     0.00   0.01   0.11
  76   6     0.00   0.11  -0.00    -0.00  -0.01   0.05     0.00   0.01   0.11
  77   6     0.00   0.10  -0.00    -0.00  -0.01   0.05     0.00   0.01   0.10
  78   6     0.00   0.08  -0.00    -0.00  -0.01   0.04     0.00   0.01   0.08
  79   6     0.00  -0.11   0.01    -0.00   0.00  -0.04    -0.00  -0.01  -0.09
  80   6     0.00  -0.13   0.01    -0.00   0.01  -0.04    -0.00  -0.01  -0.10
  81   6     0.00  -0.13   0.01    -0.00   0.01  -0.04    -0.00  -0.01  -0.10
  82   6     0.00  -0.13   0.01    -0.00   0.01  -0.04    -0.00  -0.01  -0.10
  83   6     0.00  -0.12   0.01    -0.00   0.01  -0.04    -0.00  -0.01  -0.10
  84   6     0.00  -0.10   0.01    -0.00   0.01  -0.03    -0.00  -0.01  -0.09
  85   6     0.00   0.11  -0.01    -0.00  -0.00   0.04    -0.00   0.01   0.08
  86   6    -0.00   0.12  -0.01    -0.00  -0.01   0.04    -0.00   0.01   0.10
  87   6    -0.00   0.13  -0.01    -0.00  -0.01   0.04    -0.00   0.01   0.11
  88   6    -0.00   0.13  -0.01    -0.00  -0.01   0.05    -0.00   0.01   0.12
  89   6    -0.00   0.13  -0.01    -0.00  -0.01   0.04    -0.00   0.01   0.12
  90   6    -0.00   0.11  -0.01    -0.00  -0.01   0.04    -0.00   0.01   0.11
  91   6    -0.00  -0.09   0.01     0.00   0.00  -0.04    -0.00  -0.01  -0.10
  92   6    -0.00  -0.11   0.01     0.00   0.00  -0.04    -0.00  -0.01  -0.12
  93   6    -0.00  -0.12   0.01     0.00   0.00  -0.05    -0.00  -0.01  -0.14
  94   6    -0.00  -0.12   0.01     0.00   0.00  -0.05    -0.00  -0.01  -0.15
  95   6    -0.00  -0.12   0.01     0.00   0.00  -0.05    -0.00  -0.01  -0.14
  96   6    -0.00  -0.10   0.01     0.00   0.00  -0.05    -0.00  -0.01  -0.14
  97  26     0.00  -0.04  -0.00    -0.00  -0.01  -0.01    -0.00  -0.00  -0.02
  98   6    -0.07   0.03  -0.01     0.01  -0.00   0.03     0.00   0.00   0.04
  99   6    -0.05   0.05  -0.00     0.01  -0.00   0.04     0.00   0.01   0.06
 100   6    -0.02   0.04  -0.00     0.00  -0.00   0.03     0.00   0.00   0.05
 101   6     0.00   0.06  -0.00    -0.00  -0.01   0.03     0.00   0.01   0.06
 102   6     0.03   0.04  -0.00    -0.00  -0.01   0.01    -0.00   0.00   0.05
 103   6     0.05   0.05  -0.00    -0.01  -0.01   0.01    -0.00   0.01   0.06
 104   6     0.07   0.03  -0.00    -0.01  -0.01  -0.00    -0.00   0.00   0.04
 105   6     0.05   0.01  -0.00    -0.01  -0.01  -0.01    -0.00   0.00   0.01
 106   7     0.03   0.01  -0.00    -0.00  -0.01   0.00    -0.00   0.00   0.02
 107   6     0.07  -0.02   0.00    -0.01  -0.00  -0.02    -0.00  -0.00  -0.01
 108   6     0.05  -0.04   0.00    -0.01  -0.00  -0.03    -0.00  -0.00  -0.04
 109   6     0.07  -0.07   0.00    -0.01  -0.00  -0.04    -0.00  -0.01  -0.06
 110   6     0.05  -0.09   0.00    -0.01   0.00  -0.04    -0.00  -0.01  -0.08
 111   6     0.02  -0.07   0.00    -0.00   0.00  -0.03    -0.00  -0.01  -0.06
 112   7     0.03  -0.05   0.00    -0.00  -0.00  -0.02    -0.00  -0.00  -0.04
 113   6     0.00  -0.09   0.00    -0.00   0.00  -0.03    -0.00  -0.01  -0.07
 114   6    -0.02  -0.07   0.00     0.00   0.00  -0.02     0.00  -0.01  -0.06
 115   6    -0.05  -0.09   0.00     0.00   0.00  -0.02     0.00  -0.01  -0.07
 116   6    -0.07  -0.07  -0.00     0.01   0.00  -0.01     0.00  -0.00  -0.05
 117   6    -0.05  -0.04  -0.00     0.01   0.00  -0.01     0.00  -0.00  -0.03
 118   7    -0.03  -0.05  -0.00     0.00  -0.00  -0.01     0.00  -0.00  -0.04
 119   6    -0.07  -0.02  -0.00     0.01  -0.00   0.01     0.00  -0.00  -0.01
 120   6    -0.05   0.01  -0.00     0.01  -0.00   0.02     0.00   0.00   0.02
 121   7    -0.03   0.01  -0.00     0.00  -0.00   0.02     0.00   0.00   0.02
 122   1    -0.03   0.01  -0.00     0.00  -0.00   0.01     0.00   0.00   0.01
 123   1    -0.02   0.02  -0.00     0.00  -0.00   0.02     0.00   0.00   0.02
 124   1     0.02   0.02  -0.00    -0.00  -0.00   0.01    -0.00   0.00   0.02
 125   1     0.03   0.01  -0.00    -0.00  -0.00  -0.00    -0.00   0.00   0.01
 126   1     0.03  -0.00   0.00    -0.00  -0.00  -0.01    -0.00  -0.00  -0.00
 127   1     0.03  -0.02   0.00    -0.00  -0.00  -0.01    -0.00  -0.00  -0.02
 128   1     0.02  -0.03   0.00    -0.00   0.00  -0.01    -0.00  -0.00  -0.03
 129   1    -0.02  -0.03   0.00     0.00   0.00  -0.01     0.00  -0.00  -0.02
 130   1    -0.03  -0.02  -0.00     0.00   0.00  -0.00     0.00  -0.00  -0.02
 131   1    -0.03  -0.00  -0.00     0.00  -0.00   0.00     0.00  -0.00  -0.00
 132  26     0.00   0.01   0.00    -0.00   0.00  -0.00    -0.00  -0.00  -0.02
 133   6     0.07  -0.05  -0.00    -0.01  -0.00  -0.08    -0.00  -0.00  -0.02
 134   6     0.05  -0.07   0.00    -0.00   0.00  -0.07    -0.00  -0.00  -0.05
 135   6     0.03  -0.06   0.00    -0.00   0.00  -0.04    -0.00  -0.00  -0.05
 136   6     0.00  -0.07   0.00    -0.00   0.01  -0.03    -0.00  -0.01  -0.07
 137   6    -0.03  -0.06   0.01     0.00   0.01  -0.00     0.00  -0.01  -0.07
 138   6    -0.05  -0.07   0.01     0.00   0.01   0.02     0.00  -0.01  -0.10
 139   6    -0.07  -0.05   0.01     0.01   0.01   0.04     0.00  -0.01  -0.09
 140   6    -0.06  -0.02   0.01     0.01   0.01   0.04     0.00  -0.01  -0.06
 141   7    -0.03  -0.03   0.00     0.00   0.01   0.01     0.00  -0.01  -0.05
 142   6    -0.07   0.00   0.01     0.01   0.01   0.06     0.00  -0.00  -0.04
 143   6    -0.06   0.03   0.00     0.00   0.01   0.06     0.00  -0.00  -0.01
 144   6    -0.07   0.06   0.00     0.01   0.01   0.08     0.00  -0.00   0.01
 145   6    -0.05   0.08   0.00     0.00   0.00   0.07     0.00   0.00   0.04
 146   6    -0.03   0.06  -0.00     0.00   0.00   0.04     0.00   0.00   0.04
 147   7    -0.03   0.04   0.00     0.00   0.00   0.04     0.00   0.00   0.01
 148   6     0.00   0.08  -0.00    -0.00  -0.00   0.03    -0.00   0.01   0.06
 149   6     0.03   0.06  -0.01    -0.00  -0.00  -0.00    -0.00   0.01   0.06
 150   6     0.05   0.08  -0.01    -0.01  -0.01  -0.02    -0.00   0.01   0.08
 151   6     0.07   0.06  -0.01    -0.01  -0.01  -0.04    -0.00   0.01   0.07
 152   6     0.06   0.03  -0.01    -0.01  -0.01  -0.04    -0.00   0.00   0.04
 153   7     0.03   0.04  -0.00    -0.00  -0.00  -0.01    -0.00   0.00   0.04
 154   6     0.07   0.00  -0.00    -0.01  -0.01  -0.06    -0.00   0.00   0.02
 155   6     0.06  -0.02  -0.00    -0.01  -0.00  -0.06    -0.00  -0.00  -0.01
 156   7     0.03  -0.03   0.00    -0.00   0.00  -0.04    -0.00  -0.00  -0.03
 157   1     0.03  -0.02  -0.00    -0.00  -0.00  -0.03    -0.00  -0.00  -0.00
 158   1     0.02  -0.03   0.00    -0.00   0.00  -0.02    -0.00  -0.00  -0.02
 159   1    -0.02  -0.03   0.00     0.00   0.00   0.00     0.00  -0.00  -0.03
 160   1    -0.03  -0.01   0.00     0.00   0.00   0.02     0.00  -0.00  -0.03
 161   1    -0.03   0.00   0.00     0.00   0.00   0.02     0.00  -0.00  -0.02
 162   1    -0.03   0.02   0.00     0.00   0.00   0.03     0.00  -0.00  -0.00
 163   1    -0.02   0.03  -0.00     0.00   0.00   0.02     0.00   0.00   0.02
 164   1     0.02   0.03  -0.00    -0.00  -0.00  -0.00    -0.00   0.00   0.03
 165   1     0.03   0.02  -0.00    -0.00  -0.00  -0.02    -0.00   0.00   0.02
 166   1     0.03   0.00  -0.00    -0.00  -0.00  -0.02    -0.00   0.00   0.01
 167  26    -0.00   0.03  -0.00    -0.00  -0.00   0.02    -0.00   0.01   0.05
 168   6    -0.07   0.06  -0.00     0.01  -0.01  -0.03     0.00   0.01   0.11
 169   6    -0.05   0.08  -0.00     0.00  -0.01  -0.01     0.00   0.01   0.12
 170   6    -0.03   0.07  -0.00     0.00  -0.01   0.01     0.00   0.01   0.09
 171   6    -0.00   0.09  -0.00    -0.00  -0.00   0.04    -0.00   0.01   0.09
 172   6     0.03   0.07  -0.00    -0.00  -0.00   0.05    -0.00   0.01   0.07
 173   6     0.05   0.08  -0.01    -0.00   0.00   0.08    -0.00   0.01   0.08
 174   6     0.07   0.06  -0.01    -0.01   0.00   0.09    -0.00   0.01   0.06
 175   6     0.06   0.04  -0.00    -0.00   0.00   0.07    -0.00   0.00   0.04
 176   7     0.03   0.05  -0.00    -0.00  -0.00   0.05    -0.00   0.01   0.05
 177   6     0.07   0.01  -0.00    -0.01   0.01   0.07    -0.00   0.00   0.01
 178   6     0.05  -0.01  -0.00    -0.00   0.00   0.05    -0.00  -0.00  -0.02
 179   6     0.07  -0.04  -0.00    -0.01   0.01   0.05    -0.00  -0.00  -0.05
 180   6     0.05  -0.06   0.00    -0.00   0.01   0.02    -0.00  -0.01  -0.07
 181   6     0.02  -0.05   0.00    -0.00   0.00   0.01    -0.00  -0.00  -0.05
 182   7     0.03  -0.02  -0.00    -0.00   0.00   0.02    -0.00  -0.00  -0.02
 183   6    -0.00  -0.06   0.00    -0.00  -0.00  -0.02    -0.00  -0.01  -0.06
 184   6    -0.03  -0.05   0.00     0.00  -0.00  -0.04    -0.00  -0.00  -0.04
 185   6    -0.05  -0.06   0.01     0.00  -0.01  -0.07     0.00  -0.00  -0.04
 186   6    -0.07  -0.04   0.01     0.01  -0.01  -0.07     0.00   0.00  -0.01
 187   6    -0.06  -0.01   0.00     0.00  -0.01  -0.05     0.00   0.00   0.02
 188   7    -0.03  -0.02   0.00     0.00  -0.00  -0.03     0.00   0.00  -0.00
 189   6    -0.07   0.01   0.00     0.01  -0.01  -0.05     0.00   0.01   0.06
 190   6    -0.06   0.04   0.00     0.00  -0.01  -0.03     0.00   0.01   0.08
 191   7    -0.03   0.05  -0.00     0.00  -0.01  -0.00     0.00   0.01   0.07
 192   1    -0.03   0.02   0.00     0.00  -0.00  -0.01     0.00   0.00   0.04
 193   1    -0.02   0.03  -0.00     0.00  -0.00  -0.00     0.00   0.00   0.04
 194   1     0.02   0.03  -0.00    -0.00   0.00   0.03    -0.00   0.00   0.03
 195   1     0.03   0.02  -0.00    -0.00   0.00   0.03    -0.00   0.00   0.02
 196   1     0.03   0.00  -0.00    -0.00   0.00   0.03    -0.00   0.00   0.00
 197   1     0.03  -0.01  -0.00    -0.00   0.00   0.02    -0.00  -0.00  -0.02
 198   1     0.02  -0.02   0.00    -0.00   0.00   0.01    -0.00  -0.00  -0.03
 199   1    -0.02  -0.02   0.00     0.00  -0.00  -0.02     0.00  -0.00  -0.02
 200   1    -0.03  -0.01   0.00     0.00  -0.00  -0.03     0.00   0.00   0.00
 201   1    -0.03   0.00   0.00     0.00  -0.00  -0.02     0.00   0.00   0.02
                     10                     11                     12
                        a                      a                      a 
 Frequencies --     9.2967                 9.4351                 9.6353
 Red. masses --    11.2260                11.2813                12.2272
 Frc consts  --     0.0000                 0.0000                 0.0000
 IR Inten    --   117.0548                71.9258               260.9416
 Raman Activ --     0.0000                 0.0000                 0.0000
 Depolar     --     0.0000                 0.0000                 0.0000
 Atom AN      X      Y      Z        X      Y      Z        X      Y      Z
   1  26     0.00   0.00   0.00     0.00   0.00   0.00    -0.00  -0.00  -0.01
   2   6     0.00   0.00  -0.05    -0.00  -0.00   0.05    -0.01  -0.01  -0.07
   3   6     0.00   0.00  -0.03    -0.00  -0.00   0.05    -0.01  -0.01  -0.09
   4   6     0.00   0.00  -0.01    -0.00  -0.00   0.03    -0.00  -0.01  -0.08
   5   6     0.00   0.00   0.01     0.00  -0.00   0.03    -0.00  -0.01  -0.10
   6   6     0.00   0.00   0.03     0.00   0.00   0.02     0.00  -0.01  -0.11
   7   6     0.00   0.00   0.06     0.00   0.00   0.02     0.00  -0.01  -0.14
   8   6     0.00   0.00   0.07     0.00   0.00   0.01     0.01  -0.01  -0.13
   9   6     0.00   0.00   0.06     0.00   0.00   0.00     0.00  -0.00  -0.09
  10   7     0.00   0.00   0.03     0.00   0.00   0.01     0.00  -0.00  -0.08
  11   6     0.00   0.00   0.06     0.00   0.00  -0.01     0.01  -0.00  -0.06
  12   6     0.00   0.00   0.05     0.00   0.00  -0.03     0.00   0.00   0.00
  13   6     0.00   0.00   0.06     0.00   0.00  -0.05     0.00   0.00   0.04
  14   6     0.00   0.00   0.03     0.00   0.00  -0.05     0.00   0.01   0.10
  15   6     0.00   0.00   0.01     0.00   0.00  -0.04    -0.00   0.00   0.10
  16   7     0.00   0.00   0.02     0.00   0.00  -0.02     0.00   0.00   0.04
  17   6     0.00   0.00  -0.02     0.00   0.00  -0.04    -0.00   0.01   0.14
  18   6     0.00   0.00  -0.03    -0.00   0.00  -0.02    -0.01   0.00   0.12
  19   6     0.00   0.00  -0.06    -0.00   0.00  -0.02    -0.01   0.01   0.16
  20   6     0.00   0.00  -0.07    -0.00   0.00   0.00    -0.01   0.00   0.12
  21   6     0.00   0.00  -0.05    -0.00   0.00   0.01    -0.01   0.00   0.06
  22   7     0.00   0.00  -0.03    -0.00   0.00  -0.00    -0.01   0.00   0.07
  23   6     0.00   0.00  -0.06    -0.00   0.00   0.03    -0.01  -0.00   0.01
  24   6     0.00   0.00  -0.04    -0.00   0.00   0.03    -0.01  -0.00  -0.03
  25   7     0.00   0.00  -0.02    -0.00  -0.00   0.03    -0.00  -0.00  -0.05
  26   1     0.00   0.00  -0.02    -0.00  -0.00   0.02    -0.00  -0.00  -0.02
  27   1     0.00   0.00  -0.01    -0.00  -0.00   0.02    -0.00  -0.00  -0.04
  28   1     0.00   0.00   0.02     0.00  -0.00   0.01     0.00  -0.00  -0.05
  29   1    -0.00   0.00   0.03     0.00   0.00   0.00     0.00  -0.00  -0.05
  30   1    -0.00   0.00   0.02     0.00   0.00  -0.01     0.00  -0.00  -0.02
  31   1    -0.00   0.00   0.02     0.00   0.00  -0.01     0.00   0.00   0.01
  32   1     0.00   0.00   0.01     0.00   0.00  -0.02     0.00   0.00   0.04
  33   1     0.00   0.00  -0.01     0.00   0.00  -0.02    -0.00   0.00   0.05
  34   1     0.00   0.00  -0.02    -0.00   0.00  -0.01    -0.00   0.00   0.06
  35   1     0.00  -0.00  -0.03    -0.00   0.00   0.00    -0.00   0.00   0.04
  36   1     0.00   0.00  -0.02    -0.00   0.00   0.01    -0.00  -0.00   0.00
  37  26    -0.00   0.00   0.00    -0.00   0.00   0.00     0.00  -0.00  -0.02
  38   6     0.00  -0.03   0.19     0.01  -0.02   0.13    -0.02  -0.00  -0.07
  39   6     0.00  -0.02   0.15     0.01  -0.01   0.10    -0.01  -0.01  -0.09
  40   6     0.00  -0.01   0.08     0.00  -0.00   0.06    -0.01  -0.01  -0.07
  41   6    -0.00   0.00   0.02    -0.00   0.00   0.02     0.00  -0.01  -0.09
  42   6    -0.00   0.01  -0.05    -0.00   0.01  -0.02     0.01  -0.00  -0.08
  43   6    -0.00   0.02  -0.11    -0.01   0.02  -0.05     0.01  -0.00  -0.11
  44   6    -0.00   0.03  -0.16    -0.01   0.02  -0.09     0.02   0.00  -0.10
  45   6    -0.00   0.02  -0.13    -0.01   0.02  -0.07     0.01   0.00  -0.06
  46   7    -0.00   0.01  -0.06    -0.00   0.01  -0.03     0.01  -0.00  -0.06
  47   6    -0.00   0.03  -0.16    -0.01   0.02  -0.10     0.02   0.00  -0.03
  48   6    -0.00   0.03  -0.14    -0.01   0.01  -0.09     0.01   0.00   0.01
  49   6    -0.00   0.03  -0.19    -0.01   0.02  -0.13     0.02   0.00   0.05
  50   6    -0.00   0.03  -0.15    -0.01   0.01  -0.11     0.01   0.00   0.09
  51   6    -0.00   0.01  -0.08    -0.00   0.01  -0.06     0.01  -0.00   0.08
  52   7    -0.00   0.01  -0.08    -0.00   0.01  -0.06     0.01   0.00   0.03
  53   6    -0.00   0.00  -0.03    -0.00  -0.00  -0.03     0.00  -0.00   0.11
  54   6     0.00  -0.01   0.04     0.00  -0.01   0.02    -0.01  -0.00   0.09
  55   6     0.00  -0.02   0.11     0.01  -0.02   0.06    -0.01  -0.00   0.11
  56   6     0.00  -0.03   0.16     0.01  -0.02   0.10    -0.02  -0.00   0.07
  57   6     0.00  -0.03   0.13     0.01  -0.02   0.08    -0.01  -0.00   0.03
  58   7     0.00  -0.01   0.06     0.00  -0.01   0.04    -0.01  -0.00   0.04
  59   6     0.00  -0.03   0.17     0.01  -0.02   0.11    -0.02  -0.00  -0.01
  60   6     0.00  -0.03   0.15     0.01  -0.02   0.10    -0.01  -0.00  -0.04
  61   7     0.00  -0.01   0.08     0.00  -0.01   0.06    -0.01  -0.00  -0.05
  62   1     0.00  -0.01   0.07     0.00  -0.01   0.05    -0.01  -0.00  -0.02
  63   1     0.00  -0.01   0.05     0.00  -0.00   0.03    -0.00  -0.00  -0.03
  64   1    -0.00   0.01  -0.03    -0.00   0.01  -0.02     0.00  -0.00  -0.04
  65   1    -0.00   0.01  -0.06    -0.00   0.01  -0.03     0.01   0.00  -0.03
  66   1    -0.00   0.01  -0.06    -0.00   0.01  -0.04     0.01   0.00  -0.01
  67   1    -0.00   0.01  -0.07    -0.00   0.01  -0.05     0.01   0.00   0.01
  68   1    -0.00   0.01  -0.05    -0.00   0.00  -0.04     0.00  -0.00   0.04
  69   1    -0.00   0.00  -0.01    -0.00  -0.00  -0.01     0.00  -0.00   0.04
  70   1     0.00  -0.01   0.03     0.00  -0.01   0.02    -0.00  -0.00   0.04
  71   1     0.00  -0.01   0.06     0.00  -0.01   0.04    -0.01  -0.00   0.02
  72   1     0.00  -0.01   0.07     0.00  -0.01   0.04    -0.01  -0.00  -0.00
  73   6     0.00   0.00   0.01     0.00  -0.00   0.04    -0.00  -0.01  -0.12
  74   6     0.00   0.00   0.01     0.00  -0.00   0.04    -0.00  -0.01  -0.13
  75   6     0.00   0.00   0.01     0.00  -0.00   0.03    -0.00  -0.01  -0.13
  76   6     0.00   0.00   0.01     0.00  -0.00   0.03    -0.00  -0.01  -0.12
  77   6     0.00   0.00   0.01     0.00  -0.00   0.03    -0.00  -0.01  -0.10
  78   6     0.00   0.00   0.01     0.00  -0.00   0.02    -0.00  -0.01  -0.07
  79   6     0.00  -0.00  -0.01     0.00   0.00  -0.02     0.00   0.01   0.07
  80   6     0.00  -0.00  -0.00     0.00   0.00  -0.02     0.00   0.01   0.07
  81   6     0.00   0.00  -0.00     0.00   0.00  -0.02     0.00   0.00   0.06
  82   6     0.00   0.00  -0.00     0.00   0.00  -0.01     0.00   0.00   0.04
  83   6     0.00   0.00   0.00     0.00   0.00  -0.01     0.00   0.00   0.03
  84   6     0.00   0.00   0.00     0.00   0.00  -0.00     0.00  -0.00   0.01
  85   6    -0.00  -0.00  -0.00     0.00  -0.00   0.01     0.00   0.00  -0.01
  86   6    -0.00  -0.00  -0.00     0.00  -0.00   0.00     0.00   0.00   0.00
  87   6    -0.00  -0.00  -0.01     0.00  -0.00  -0.00     0.00   0.01   0.02
  88   6    -0.00  -0.00  -0.01     0.00  -0.01  -0.00     0.00   0.01   0.03
  89   6    -0.00  -0.00  -0.01     0.00  -0.01  -0.01     0.00   0.01   0.04
  90   6    -0.00  -0.00  -0.01     0.00  -0.01  -0.01     0.00   0.01   0.05
  91   6    -0.00   0.00   0.01    -0.00   0.00   0.01     0.00  -0.01  -0.05
  92   6    -0.00   0.00   0.01    -0.00   0.01   0.02     0.00  -0.01  -0.07
  93   6    -0.00   0.00   0.02    -0.00   0.01   0.02     0.00  -0.01  -0.08
  94   6    -0.00   0.00   0.02    -0.00   0.01   0.02     0.00  -0.01  -0.10
  95   6    -0.00   0.00   0.02    -0.00   0.01   0.02     0.00  -0.01  -0.10
  96   6    -0.00   0.00   0.02    -0.00   0.01   0.02     0.00  -0.01  -0.10
  97  26     0.00  -0.00  -0.01     0.00  -0.00  -0.02     0.00   0.01   0.07
  98   6     0.00   0.02   0.14     0.00  -0.02  -0.16    -0.00  -0.01  -0.09
  99   6     0.00   0.01   0.10     0.00  -0.02  -0.11    -0.00  -0.01  -0.10
 100   6     0.00   0.01   0.05     0.00  -0.01  -0.05    -0.00  -0.00  -0.05
 101   6     0.00  -0.00   0.00    -0.00  -0.00   0.01    -0.00  -0.00  -0.04
 102   6     0.00  -0.01  -0.05    -0.00   0.00   0.06     0.00   0.00   0.01
 103   6     0.00  -0.01  -0.10    -0.00   0.01   0.12     0.00   0.01   0.03
 104   6    -0.00  -0.02  -0.14    -0.00   0.01   0.16     0.00   0.01   0.09
 105   6     0.00  -0.01  -0.11    -0.00   0.01   0.12     0.00   0.01   0.09
 106   7     0.00  -0.01  -0.06    -0.00   0.00   0.06     0.00   0.01   0.04
 107   6    -0.00  -0.02  -0.14    -0.00   0.01   0.14     0.00   0.02   0.13
 108   6    -0.00  -0.01  -0.12    -0.00   0.01   0.10     0.00   0.02   0.13
 109   6    -0.00  -0.02  -0.15    -0.00   0.02   0.13     0.00   0.02   0.17
 110   6    -0.00  -0.01  -0.11    -0.00   0.01   0.09     0.00   0.02   0.15
 111   6    -0.00  -0.01  -0.06    -0.00   0.01   0.04     0.00   0.01   0.10
 112   7    -0.00  -0.01  -0.07    -0.00   0.01   0.05     0.00   0.01   0.10
 113   6     0.00  -0.00  -0.01     0.00   0.00  -0.02     0.00   0.01   0.07
 114   6     0.00   0.00   0.04     0.00  -0.01  -0.08    -0.00   0.00   0.04
 115   6     0.00   0.01   0.10     0.00  -0.01  -0.14    -0.00   0.00   0.02
 116   6     0.00   0.02   0.13     0.00  -0.02  -0.18    -0.00  -0.00  -0.01
 117   6     0.00   0.01   0.10     0.00  -0.01  -0.14    -0.00  -0.00  -0.00
 118   7     0.00   0.01   0.05     0.00  -0.01  -0.08    -0.00   0.00   0.03
 119   6     0.00   0.01   0.13     0.00  -0.02  -0.16    -0.00  -0.00  -0.03
 120   6     0.00   0.01   0.11     0.00  -0.02  -0.13    -0.00  -0.00  -0.05
 121   7     0.00   0.01   0.06     0.00  -0.01  -0.07    -0.00  -0.00  -0.03
 122   1     0.00   0.01   0.05     0.00  -0.01  -0.06    -0.00  -0.00  -0.03
 123   1     0.00   0.00   0.03     0.00  -0.01  -0.03    -0.00  -0.00  -0.04
 124   1     0.00  -0.00  -0.03    -0.00   0.00   0.04     0.00   0.00   0.00
 125   1    -0.00  -0.01  -0.05    -0.00   0.01   0.06     0.00   0.00   0.03
 126   1    -0.00  -0.01  -0.05    -0.00   0.01   0.05     0.00   0.01   0.05
 127   1    -0.00  -0.01  -0.06    -0.00   0.01   0.05     0.00   0.01   0.06
 128   1    -0.00  -0.00  -0.04    -0.00   0.00   0.03     0.00   0.01   0.05
 129   1     0.00   0.00   0.03     0.00  -0.00  -0.04    -0.00   0.00   0.01
 130   1     0.00   0.01   0.05     0.00  -0.01  -0.07    -0.00  -0.00  -0.01
 131   1     0.00   0.01   0.05     0.00  -0.01  -0.06    -0.00  -0.00  -0.02
 132  26    -0.00   0.00   0.01     0.00   0.00   0.02     0.00  -0.01  -0.07
 133   6    -0.00   0.02   0.15    -0.00   0.01   0.07     0.00   0.01   0.09
 134   6    -0.00   0.01   0.11    -0.00   0.01   0.05     0.00   0.01   0.07
 135   6    -0.00   0.01   0.06    -0.00   0.01   0.03     0.00   0.00   0.03
 136   6     0.00   0.00   0.00     0.00   0.00   0.00     0.00  -0.00  -0.01
 137   6     0.00  -0.00  -0.05     0.00   0.00  -0.02    -0.00  -0.01  -0.06
 138   6     0.00  -0.01  -0.10     0.00  -0.00  -0.04    -0.00  -0.01  -0.11
 139   6     0.00  -0.01  -0.13     0.00  -0.00  -0.06    -0.00  -0.02  -0.15
 140   6     0.00  -0.01  -0.10     0.00  -0.00  -0.04    -0.00  -0.02  -0.13
 141   7     0.00  -0.01  -0.05     0.00  -0.00  -0.02    -0.00  -0.01  -0.08
 142   6     0.00  -0.01  -0.13     0.00  -0.01  -0.05    -0.00  -0.02  -0.17
 143   6     0.00  -0.01  -0.10     0.00  -0.01  -0.04    -0.00  -0.02  -0.14
 144   6     0.00  -0.02  -0.13     0.00  -0.01  -0.06    -0.00  -0.02  -0.17
 145   6    -0.00  -0.01  -0.10     0.00  -0.01  -0.04    -0.00  -0.01  -0.12
 146   6    -0.00  -0.01  -0.05     0.00  -0.00  -0.02    -0.00  -0.01  -0.07
 147   7    -0.00  -0.01  -0.05     0.00  -0.00  -0.02    -0.00  -0.01  -0.09
 148   6    -0.00  -0.00   0.00     0.00  -0.00   0.01     0.00  -0.00  -0.02
 149   6    -0.00   0.01   0.05    -0.00   0.00   0.04     0.00   0.00   0.01
 150   6    -0.00   0.01   0.10    -0.00   0.01   0.06     0.00   0.01   0.05
 151   6    -0.00   0.02   0.14    -0.00   0.01   0.08     0.00   0.01   0.08
 152   6    -0.00   0.01   0.11    -0.00   0.01   0.07     0.00   0.01   0.05
 153   7    -0.00   0.01   0.06    -0.00   0.00   0.04     0.00   0.00   0.01
 154   6    -0.00   0.02   0.14    -0.00   0.01   0.08     0.00   0.01   0.07
 155   6    -0.00   0.01   0.12    -0.00   0.01   0.06     0.00   0.00   0.06
 156   7    -0.00   0.01   0.07    -0.00   0.01   0.03     0.00   0.00   0.02
 157   1    -0.00   0.01   0.06    -0.00   0.00   0.03     0.00   0.00   0.03
 158   1    -0.00   0.00   0.03    -0.00   0.00   0.01     0.00   0.00   0.03
 159   1     0.00  -0.00  -0.03     0.00  -0.00  -0.01    -0.00  -0.00  -0.03
 160   1     0.00  -0.01  -0.05     0.00  -0.00  -0.02    -0.00  -0.01  -0.06
 161   1     0.00  -0.01  -0.05     0.00  -0.00  -0.02    -0.00  -0.01  -0.06
 162   1     0.00  -0.01  -0.05     0.00  -0.00  -0.02    -0.00  -0.01  -0.06
 163   1    -0.00  -0.00  -0.03     0.00  -0.00  -0.01    -0.00  -0.00  -0.04
 164   1    -0.00   0.00   0.03    -0.00   0.00   0.02     0.00   0.00   0.02
 165   1    -0.00   0.01   0.05    -0.00   0.00   0.03     0.00   0.00   0.03
 166   1    -0.00   0.01   0.05    -0.00   0.00   0.03     0.00   0.00   0.03
 167  26    -0.00  -0.00  -0.01    -0.00  -0.00  -0.02     0.00   0.01   0.08
 168   6     0.00  -0.01  -0.05     0.00   0.02   0.16    -0.00   0.00   0.01
 169   6     0.00  -0.01  -0.04     0.00   0.01   0.12    -0.00   0.01   0.02
 170   6    -0.00  -0.00  -0.02     0.00   0.00   0.05    -0.00   0.01   0.04
 171   6    -0.00  -0.00  -0.01     0.00  -0.00  -0.01     0.00   0.01   0.05
 172   6    -0.00  -0.00   0.00    -0.00  -0.01  -0.08     0.00   0.01   0.07
 173   6    -0.00   0.00   0.02    -0.00  -0.02  -0.15     0.00   0.02   0.11
 174   6    -0.00   0.00   0.03    -0.00  -0.03  -0.20     0.00   0.02   0.12
 175   6    -0.00   0.00   0.02    -0.00  -0.02  -0.15     0.00   0.01   0.10
 176   7    -0.00  -0.00   0.01    -0.00  -0.01  -0.09     0.00   0.01   0.08
 177   6    -0.00   0.00   0.03    -0.00  -0.02  -0.18     0.00   0.01   0.10
 178   6    -0.00   0.00   0.03    -0.00  -0.02  -0.15     0.00   0.01   0.07
 179   6    -0.00   0.01   0.04    -0.00  -0.02  -0.18     0.00   0.01   0.07
 180   6    -0.00   0.00   0.04    -0.00  -0.01  -0.13     0.00   0.00   0.03
 181   6    -0.00   0.00   0.02    -0.00  -0.01  -0.06     0.00   0.00   0.01
 182   7    -0.00   0.00   0.02    -0.00  -0.01  -0.08     0.00   0.00   0.04
 183   6    -0.00   0.00   0.01    -0.00   0.00   0.00     0.00  -0.00  -0.02
 184   6    -0.00  -0.00  -0.01     0.00   0.01   0.06    -0.00  -0.00  -0.03
 185   6    -0.00  -0.00  -0.03     0.00   0.02   0.13    -0.00  -0.01  -0.05
 186   6    -0.00  -0.00  -0.04     0.00   0.02   0.17    -0.00  -0.01  -0.05
 187   6    -0.00  -0.00  -0.04     0.00   0.02   0.13    -0.00  -0.00  -0.02
 188   7    -0.00  -0.00  -0.02     0.00   0.01   0.07    -0.00  -0.00  -0.01
 189   6     0.00  -0.01  -0.05     0.00   0.02   0.16    -0.00   0.00  -0.01
 190   6     0.00  -0.00  -0.04     0.00   0.01   0.13    -0.00   0.00   0.01
 191   7     0.00  -0.00  -0.03     0.00   0.01   0.06    -0.00   0.01   0.03
 192   1     0.00  -0.00  -0.02     0.00   0.01   0.06    -0.00   0.00   0.00
 193   1     0.00  -0.00  -0.01     0.00   0.00   0.04    -0.00   0.00   0.01
 194   1    -0.00   0.00   0.00    -0.00  -0.01  -0.05     0.00   0.00   0.03
[...]
 156   7    -0.00  -0.00   0.00    -0.00  -0.00   0.00     0.00   0.00  -0.00
 157   1    -0.00  -0.08   0.01    -0.00  -0.04   0.00     0.02   0.31  -0.03
 158   1    -0.12  -0.02   0.00    -0.06  -0.01   0.00     0.47   0.07  -0.01
 159   1    -0.11   0.02  -0.00    -0.00   0.00  -0.00     0.16  -0.03   0.00
 160   1    -0.00   0.07  -0.01    -0.00   0.00  -0.00     0.01  -0.10   0.01
 161   1    -0.00   0.00  -0.00    -0.00   0.00  -0.00    -0.00  -0.00   0.00
 162   1     0.00   0.07  -0.01     0.00   0.04  -0.01     0.00   0.01  -0.00
 163   1     0.10   0.02  -0.00     0.07   0.01  -0.00     0.01   0.00  -0.00
 164   1     0.05  -0.01   0.00     0.09  -0.01   0.00    -0.14   0.02  -0.00
 165   1     0.00  -0.03   0.00     0.00  -0.05   0.01    -0.01   0.09  -0.01
 166   1     0.00  -0.00   0.00     0.00  -0.00   0.00    -0.00   0.01  -0.00
 167  26    -0.00   0.00  -0.00    -0.00   0.00  -0.00    -0.00   0.00  -0.00
 168   6    -0.00  -0.02   0.00    -0.00  -0.04   0.00    -0.00  -0.01   0.00
 169   6    -0.03  -0.00   0.00    -0.06  -0.01   0.00    -0.01  -0.00   0.00
 170   6    -0.00   0.00  -0.00    -0.00   0.00  -0.00    -0.00   0.00  -0.00
 171   6    -0.00  -0.00   0.00    -0.00  -0.00   0.00     0.00  -0.00   0.00
 172   6     0.00   0.00  -0.00     0.00   0.00  -0.00     0.00   0.00  -0.00
 173   6     0.07  -0.01   0.00     0.01  -0.00   0.00     0.02  -0.00   0.00
 174   6     0.00  -0.05   0.01     0.00  -0.01   0.00     0.00  -0.02   0.00
 175   6    -0.00  -0.00   0.00    -0.00  -0.00   0.00    -0.00  -0.00   0.00
 176   7    -0.00   0.00  -0.00    -0.00   0.00   0.00    -0.00   0.00  -0.00
 177   6     0.00  -0.00   0.00     0.00  -0.00   0.00     0.00  -0.00   0.00
 178   6     0.00  -0.00   0.00    -0.00   0.00  -0.00     0.00   0.00  -0.00
 179   6    -0.00  -0.03   0.00     0.00   0.02  -0.00    -0.00  -0.00   0.00
 180   6    -0.05  -0.01   0.00     0.03   0.00  -0.00    -0.00  -0.00   0.00
 181   6    -0.00   0.00  -0.00     0.00  -0.00   0.00    -0.00   0.00  -0.00
 182   7     0.00   0.00  -0.00    -0.00  -0.00   0.00    -0.00  -0.00  -0.00
 183   6     0.00  -0.00   0.00     0.00  -0.00   0.00     0.00  -0.00   0.00
 184   6     0.00   0.00  -0.00     0.00   0.00  -0.00     0.00   0.00  -0.00
 185   6     0.14  -0.02   0.00     0.12  -0.02   0.00     0.04  -0.01   0.00
 186   6     0.00  -0.09   0.01     0.00  -0.08   0.01     0.00  -0.03   0.00
 187   6    -0.00  -0.00   0.00    -0.00  -0.00   0.00    -0.00  -0.00   0.00
 188   7    -0.00   0.00  -0.00    -0.00   0.00  -0.00    -0.00   0.00  -0.00
 189   6     0.00  -0.00   0.00     0.00  -0.00   0.00     0.00  -0.00   0.00
 190   6     0.00  -0.00  -0.00     0.00  -0.00   0.00     0.00   0.00  -0.00
 191   7     0.00   0.00  -0.00     0.00   0.00  -0.00     0.00   0.00  -0.00
 192   1     0.01   0.07  -0.01     0.01   0.13  -0.02     0.00   0.02  -0.00
 193   1     0.11   0.02  -0.00     0.19   0.03  -0.00     0.03   0.00  -0.00
 194   1    -0.23   0.04  -0.00    -0.04   0.01  -0.00    -0.08   0.01  -0.00
 195   1    -0.01   0.15  -0.02    -0.00   0.03  -0.00    -0.00   0.05  -0.01
 196   1     0.00   0.01  -0.00     0.00   0.00  -0.00     0.00   0.00  -0.00
 197   1     0.01   0.11  -0.01    -0.00  -0.05   0.01     0.00   0.00  -0.00
 198   1     0.16   0.02  -0.00    -0.09  -0.01   0.00     0.00   0.00  -0.00
 199   1    -0.45   0.07  -0.01    -0.40   0.06  -0.01    -0.14   0.02  -0.00
 200   1    -0.02   0.28  -0.03    -0.01   0.25  -0.03    -0.00   0.09  -0.01
 201   1     0.00   0.01  -0.00     0.00   0.01  -0.00     0.00   0.00  -0.00
                    595                    596                    597
                        a                      a                      a 
 Frequencies --  3165.9569              3166.2407              3166.4331
 Red. masses --     1.9660                 1.9666                 1.9671
 Frc consts  --     0.0000                 0.0000                 0.0000
 IR Inten    --  3771.8621             21804.5986            146773.5349
 Raman Activ --     0.0000                 0.0000                 0.0000
 Depolar     --     0.0000                 0.0000                 0.0000
 Atom AN      X      Y      Z        X      Y      Z        X      Y      Z
   1  26    -0.00   0.00   0.00     0.00  -0.00  -0.00    -0.00   0.00  -0.00
   2   6     0.00  -0.01   0.00    -0.00   0.08  -0.00    -0.00   0.00  -0.00
   3   6     0.01  -0.00   0.00    -0.11   0.01  -0.00    -0.00   0.00  -0.00
   4   6     0.00   0.00  -0.00    -0.00  -0.00   0.00    -0.00  -0.00   0.00
   5   6     0.00  -0.00   0.00    -0.00   0.00  -0.00     0.00  -0.00   0.00
   6   6     0.00  -0.00   0.00    -0.00   0.00  -0.00    -0.00   0.00  -0.00
   7   6     0.01   0.00   0.00    -0.10  -0.01  -0.00    -0.00  -0.00  -0.00
   8   6    -0.00   0.01  -0.00     0.00  -0.07   0.00     0.00  -0.00   0.00
   9   6    -0.00   0.00  -0.00     0.00  -0.00   0.00     0.00  -0.00   0.00
  10   7    -0.00  -0.00   0.00     0.00   0.00  -0.00    -0.00  -0.00  -0.00
  11   6     0.00   0.00   0.00    -0.00  -0.00   0.00     0.00  -0.00   0.00
  12   6    -0.00  -0.00  -0.00    -0.00   0.00   0.00     0.00  -0.00   0.00
  13   6     0.00  -0.00   0.00     0.00  -0.00   0.00    -0.00   0.00  -0.00
  14   6     0.00  -0.00   0.00     0.00  -0.00   0.00    -0.00   0.00  -0.00
  15   6     0.00   0.00   0.00     0.00   0.00  -0.00     0.00  -0.00  -0.00
  16   7     0.00  -0.00  -0.00     0.00  -0.00   0.00     0.00  -0.00   0.00
  17   6     0.00  -0.00   0.00     0.00   0.00   0.00     0.00   0.00   0.00
  18   6     0.00  -0.00   0.00     0.00  -0.00   0.00     0.00   0.00  -0.00
  19   6     0.00   0.00   0.00     0.00   0.00   0.00    -0.00  -0.00  -0.00
  20   6    -0.00   0.00  -0.00     0.00   0.01  -0.00     0.00  -0.00  -0.00
  21   6    -0.00   0.00  -0.00    -0.00  -0.00  -0.00     0.00   0.00  -0.00
  22   7     0.00   0.00  -0.00     0.00  -0.00   0.00     0.00   0.00   0.00
  23   6     0.00  -0.00   0.00    -0.00   0.00  -0.00     0.00   0.00  -0.00
  24   6    -0.00  -0.00  -0.00     0.00   0.00   0.00     0.00   0.00  -0.00
  25   7    -0.00   0.00  -0.00     0.00  -0.00   0.00    -0.00   0.00   0.00
  26   1    -0.00   0.02  -0.00     0.02  -0.24   0.00     0.00  -0.00   0.00
  27   1    -0.04   0.00  -0.00     0.37  -0.05   0.00     0.01  -0.00   0.00
  28   1    -0.03  -0.00  -0.00     0.34   0.06   0.00     0.01   0.00   0.00
  29   1    -0.00  -0.02   0.00     0.01   0.22  -0.00     0.00   0.01  -0.00
  30   1     0.00  -0.00  -0.00    -0.00   0.01  -0.00    -0.00   0.00   0.00
  31   1    -0.00   0.00  -0.00    -0.00   0.01  -0.00     0.00  -0.00   0.00
  32   1    -0.00   0.00  -0.00    -0.01   0.00  -0.00     0.00  -0.00   0.00
  33   1    -0.00  -0.00  -0.00    -0.00  -0.00  -0.00    -0.00  -0.00  -0.00
  34   1    -0.00  -0.00  -0.00    -0.01  -0.00  -0.00     0.00   0.00   0.00
  35   1    -0.00  -0.00   0.00    -0.00  -0.02   0.00     0.00   0.00  -0.00
  36   1     0.00   0.00  -0.00    -0.00  -0.01   0.00    -0.00  -0.00  -0.00
  37  26    -0.00   0.00   0.00     0.00  -0.00   0.00     0.00  -0.00   0.00
  38   6     0.00  -0.03  -0.01    -0.00   0.03   0.00    -0.00   0.07   0.01
  39   6     0.05  -0.00  -0.00    -0.04   0.00   0.00    -0.11   0.01   0.00
  40   6     0.00   0.00   0.00    -0.00  -0.00  -0.00    -0.00  -0.00  -0.00
  41   6     0.00  -0.00  -0.00    -0.00   0.00   0.00    -0.00   0.00   0.00
  42   6     0.00  -0.00  -0.00    -0.00   0.00   0.00    -0.00   0.00   0.00
  43   6     0.02   0.00   0.00    -0.03  -0.00  -0.00    -0.10  -0.01  -0.00
  44   6    -0.00   0.01   0.00     0.00  -0.02  -0.00     0.00  -0.06  -0.01
  45   6    -0.00   0.00   0.00     0.00  -0.00  -0.00     0.00  -0.00  -0.00
  46   7    -0.00  -0.00  -0.00     0.00   0.00   0.00     0.00   0.00   0.00
  47   6     0.00   0.00   0.00    -0.00  -0.00  -0.00    -0.00  -0.00  -0.00
  48   6    -0.00  -0.00  -0.00     0.00   0.00   0.00    -0.00  -0.00  -0.00
  49   6     0.00  -0.00  -0.00     0.00  -0.00  -0.00     0.00  -0.01  -0.00
  50   6     0.00  -0.00  -0.00    -0.00   0.00   0.00     0.01  -0.00  -0.00
  51   6     0.00   0.00   0.00     0.00  -0.00  -0.00     0.00   0.00   0.00
  52   7     0.00  -0.00  -0.00     0.00  -0.00  -0.00     0.00  -0.00  -0.00
  53   6     0.00  -0.00  -0.00     0.00   0.00   0.00     0.00   0.00  -0.00
  54   6     0.00  -0.00  -0.00     0.00   0.00   0.00     0.00  -0.00  -0.00
  55   6     0.00   0.00   0.00    -0.00  -0.00  -0.00     0.01   0.00   0.00
  56   6    -0.00   0.00   0.00     0.00   0.00   0.00     0.00   0.01   0.00
  57   6    -0.00   0.00   0.00    -0.00   0.00   0.00    -0.00   0.00   0.00
  58   7     0.00   0.00   0.00     0.00   0.00   0.00     0.00   0.00   0.00
  59   6     0.00  -0.00  -0.00    -0.00   0.00   0.00    -0.00   0.00   0.00
  60   6    -0.00  -0.00  -0.00     0.00   0.00   0.00     0.00   0.00   0.00
  61   7    -0.00   0.00   0.00     0.00  -0.00  -0.00     0.00  -0.00  -0.00
  62   1    -0.01   0.10   0.02     0.01  -0.08  -0.02     0.02  -0.23  -0.04
  63   1    -0.15   0.02   0.00     0.13  -0.02  -0.00     0.37  -0.05  -0.01
  64   1    -0.07  -0.01  -0.00     0.10   0.02   0.00     0.31   0.05   0.01
  65   1    -0.00  -0.04  -0.01     0.00   0.06   0.01     0.01   0.20   0.04
  66   1     0.00  -0.00  -0.00    -0.00   0.00   0.00    -0.00   0.01   0.00
  67   1    -0.00   0.00   0.00    -0.00   0.00   0.00    -0.00   0.03   0.01
  68   1    -0.01   0.00   0.00     0.00  -0.00  -0.00    -0.03   0.00   0.00
  69   1    -0.00  -0.00   0.00    -0.00  -0.00   0.00    -0.00  -0.00   0.00
  70   1    -0.00  -0.00  -0.00     0.00   0.00   0.00    -0.03  -0.01  -0.00
  71   1    -0.00  -0.00  -0.00    -0.00  -0.00  -0.00    -0.00  -0.03  -0.01
  72   1     0.00   0.00   0.00    -0.00  -0.00  -0.00    -0.00  -0.01  -0.00
  73   6    -0.00  -0.00   0.00    -0.00   0.00  -0.00    -0.00  -0.00  -0.00
  74   6     0.00   0.00  -0.00    -0.00  -0.00   0.00     0.00   0.00   0.00
  75   6    -0.00   0.00   0.00     0.00  -0.00  -0.00    -0.00  -0.00  -0.00
  76   6    -0.00   0.00  -0.00    -0.00  -0.00   0.00     0.00   0.00  -0.00
  77   6     0.00   0.00  -0.00     0.00  -0.00   0.00    -0.00   0.00  -0.00
  78   6     0.00  -0.00   0.00     0.00   0.00  -0.00    -0.00  -0.00   0.00
  79   6     0.00  -0.00   0.00    -0.00   0.00  -0.00     0.00  -0.00   0.00
  80   6     0.00   0.00  -0.00    -0.00  -0.00   0.00     0.00   0.00  -0.00
  81   6     0.00   0.00  -0.00     0.00  -0.00   0.00    -0.00   0.00   0.00
  82   6    -0.00  -0.00  -0.00    -0.00   0.00   0.00     0.00   0.00  -0.00
  83   6     0.00  -0.00   0.00     0.00  -0.00  -0.00    -0.00   0.00  -0.00
  84   6     0.00   0.00  -0.00     0.00   0.00  -0.00    -0.00  -0.00   0.00
  85   6     0.00  -0.00   0.00     0.00  -0.00   0.00     0.00  -0.00   0.00
  86   6     0.00   0.00  -0.00     0.00   0.00  -0.00     0.00   0.00  -0.00
  87   6    -0.00  -0.00  -0.00    -0.00  -0.00   0.00    -0.00   0.00   0.00
  88   6     0.00   0.00  -0.00     0.00   0.00  -0.00     0.00   0.00  -0.00
  89   6    -0.00   0.00  -0.00    -0.00   0.00  -0.00    -0.00   0.00  -0.00
  90   6    -0.00  -0.00   0.00    -0.00  -0.00   0.00    -0.00  -0.00   0.00
  91   6    -0.00  -0.00   0.00     0.00  -0.00   0.00     0.00  -0.00   0.00
  92   6    -0.00   0.00  -0.00     0.00   0.00  -0.00     0.00   0.00  -0.00
  93   6     0.00   0.00  -0.00    -0.00   0.00   0.00    -0.00   0.00   0.00
  94   6    -0.00   0.00   0.00     0.00  -0.00  -0.00     0.00  -0.00  -0.00
  95   6     0.00   0.00   0.00    -0.00  -0.00  -0.00    -0.00  -0.00  -0.00
  96   6    -0.00  -0.00  -0.00    -0.00   0.00   0.00    -0.00   0.00   0.00
  97  26    -0.00   0.00  -0.00     0.00  -0.00   0.00     0.00   0.00   0.00
  98   6     0.00   0.01  -0.00     0.00   0.07  -0.01    -0.00  -0.04   0.00
  99   6     0.01   0.00  -0.00     0.10   0.01  -0.00    -0.06  -0.01   0.00
 100   6     0.00  -0.00   0.00     0.00  -0.00   0.00    -0.00   0.00  -0.00
 101   6     0.00  -0.00   0.00     0.00   0.00  -0.00    -0.00  -0.00   0.00
 102   6     0.00   0.00  -0.00     0.00   0.00  -0.00    -0.00  -0.00   0.00
 103   6     0.01  -0.00   0.00     0.07  -0.01   0.00    -0.05   0.01  -0.00
 104   6     0.00  -0.01   0.00     0.00  -0.05   0.01    -0.00   0.03  -0.00
 105   6    -0.00  -0.00   0.00    -0.00  -0.00   0.00     0.00   0.00  -0.00
 106   7    -0.00   0.00  -0.00    -0.00   0.00  -0.00     0.00  -0.00   0.00
 107   6     0.00  -0.00   0.00     0.00  -0.00   0.00    -0.00   0.00  -0.00
 108   6    -0.00   0.00  -0.00     0.00  -0.00   0.00    -0.00   0.00  -0.00
 109   6     0.00   0.01  -0.00    -0.00  -0.05   0.01     0.00   0.02  -0.00
 110   6     0.01   0.00  -0.00    -0.07  -0.01   0.00     0.03   0.00  -0.00
 111   6     0.00  -0.00   0.00    -0.00   0.00  -0.00     0.00  -0.00   0.00
 112   7    -0.00  -0.00   0.00     0.00   0.00  -0.00    -0.00  -0.00   0.00
 113   6     0.00  -0.00   0.00    -0.00   0.00  -0.00     0.00  -0.00   0.00
 114   6     0.00   0.00  -0.00    -0.00  -0.00   0.00     0.00   0.00  -0.00
 115   6     0.02  -0.00   0.00    -0.10   0.01  -0.00     0.04  -0.00   0.00
 116   6     0.00  -0.01   0.00    -0.00   0.07  -0.01     0.00  -0.03   0.00
 117   6    -0.00  -0.00   0.00     0.00   0.00  -0.00    -0.00  -0.00   0.00
 118   7    -0.00   0.00  -0.00     0.00  -0.00   0.00    -0.00   0.00  -0.00
 119   6     0.00  -0.00   0.00    -0.00   0.00  -0.00    -0.00  -0.00   0.00
 120   6    -0.00   0.00  -0.00    -0.00   0.00  -0.00     0.00  -0.00   0.00
 121   7    -0.00  -0.00   0.00    -0.00  -0.00   0.00     0.00   0.00  -0.00
 122   1    -0.00  -0.02   0.00    -0.01  -0.21   0.02     0.01   0.13  -0.01
 123   1    -0.04  -0.01   0.00    -0.32  -0.05   0.01     0.20   0.03  -0.00
 124   1    -0.04   0.01  -0.00    -0.23   0.04  -0.00     0.16  -0.03   0.00
 125   1    -0.00   0.02  -0.00    -0.01   0.15  -0.02     0.01  -0.10   0.01
 126   1     0.00   0.00  -0.00     0.00   0.01  -0.00    -0.00  -0.00   0.00
 127   1    -0.00  -0.02   0.00     0.01   0.15  -0.02    -0.00  -0.06   0.01
 128   1    -0.03  -0.00   0.00     0.23   0.03  -0.00    -0.09  -0.01   0.00
 129   1    -0.06   0.01  -0.00     0.33  -0.05   0.01    -0.13   0.02  -0.00
 130   1    -0.00   0.03  -0.00     0.01  -0.22   0.03    -0.01   0.09  -0.01
 131   1     0.00   0.00  -0.00    -0.00  -0.01   0.00    -0.00   0.01  -0.00
 132  26    -0.00   0.00  -0.00    -0.00   0.00   0.00    -0.00   0.00  -0.00
 133   6     0.00   0.01  -0.00     0.00   0.00  -0.00    -0.00  -0.03   0.00
 134   6     0.02   0.00  -0.00     0.00   0.00  -0.00    -0.04  -0.00   0.00
 135   6     0.00  -0.00   0.00    -0.00  -0.00   0.00    -0.00   0.00  -0.00
 136   6     0.00   0.00  -0.00     0.00   0.00  -0.00    -0.00  -0.00   0.00
 137   6     0.00   0.00  -0.00    -0.00  -0.00   0.00    -0.00  -0.00   0.00
 138   6     0.02  -0.00   0.00    -0.00   0.00  -0.00    -0.02   0.00  -0.00
 139   6     0.00  -0.01   0.00     0.00   0.00  -0.00    -0.00   0.02  -0.00
 140   6    -0.00  -0.00   0.00     0.00  -0.00  -0.00     0.00   0.00  -0.00
 141   7    -0.00   0.00  -0.00    -0.00   0.00  -0.00     0.00  -0.00   0.00
 142   6     0.00  -0.00   0.00     0.00   0.00  -0.00     0.00   0.00  -0.00
 143   6     0.00   0.00  -0.00    -0.00   0.00  -0.00    -0.00   0.00  -0.00
 144   6    -0.00  -0.00   0.00     0.00   0.01  -0.00     0.00   0.02  -0.00
 145   6    -0.00  -0.00   0.00     0.01   0.00  -0.00     0.03   0.00  -0.00
 146   6    -0.00   0.00   0.00     0.00  -0.00   0.00     0.00  -0.00   0.00
 147   7    -0.00  -0.00   0.00    -0.00  -0.00   0.00    -0.00  -0.00   0.00
 148   6     0.00  -0.00   0.00     0.00  -0.00   0.00     0.00  -0.00   0.00
 149   6     0.00   0.00  -0.00     0.00   0.00  -0.00     0.00   0.00  -0.00
 150   6     0.02  -0.00   0.00     0.01  -0.00   0.00     0.04  -0.00   0.00
 151   6     0.00  -0.01   0.00     0.00  -0.01   0.00     0.00  -0.03   0.00
 152   6    -0.00  -0.00   0.00    -0.00  -0.00   0.00    -0.00  -0.00   0.00
 153   7    -0.00   0.00  -0.00    -0.00   0.00  -0.00    -0.00   0.00  -0.00
 154   6     0.00   0.00   0.00     0.00  -0.00   0.00     0.00  -0.00   0.00
 155   6    -0.00   0.00  -0.00    -0.00   0.00   0.00     0.00  -0.00   0.00
 156   7    -0.00  -0.00   0.00    -0.00  -0.00   0.00     0.00   0.00  -0.00
 157   1    -0.00  -0.04   0.00    -0.00  -0.00   0.00     0.00   0.08  -0.01
 158   1    -0.07  -0.01   0.00    -0.00  -0.00   0.00     0.12   0.02  -0.00
 159   1    -0.06   0.01  -0.00     0.01  -0.00   0.00     0.08  -0.01   0.00
 160   1    -0.00   0.04  -0.00     0.00  -0.00   0.00     0.00  -0.05   0.01
 161   1     0.00   0.00  -0.00     0.00  -0.00   0.00    -0.00  -0.00   0.00
 162   1     0.00   0.00  -0.00    -0.00  -0.02   0.00    -0.00  -0.06   0.01
 163   1     0.00   0.00  -0.00    -0.04  -0.01   0.00    -0.09  -0.01   0.00
 164   1    -0.06   0.01  -0.00    -0.05   0.01  -0.00    -0.13   0.02  -0.00
 165   1    -0.00   0.04  -0.01    -0.00   0.03  -0.00    -0.01   0.09  -0.01
 166   1     0.00  -0.00   0.00     0.00   0.00   0.00    -0.00   0.00  -0.00
 167  26     0.00   0.00  -0.00     0.00   0.00  -0.00     0.00   0.00  -0.00
 168   6    -0.00  -0.12   0.01    -0.00  -0.02   0.00    -0.00  -0.06   0.01
 169   6    -0.18  -0.02   0.00    -0.03  -0.00   0.00    -0.10  -0.01   0.00
 170   6    -0.00   0.01  -0.00    -0.00   0.00  -0.00    -0.00   0.00  -0.00
 171   6    -0.00  -0.00   0.00    -0.00  -0.00   0.00    -0.00  -0.00   0.00
 172   6    -0.00  -0.00   0.00    -0.00  -0.00   0.00    -0.00  -0.00   0.00
 173   6    -0.07   0.01  -0.00    -0.02   0.00  -0.00    -0.06   0.01  -0.00
 174   6    -0.00   0.05  -0.01    -0.00   0.01  -0.00    -0.00   0.04  -0.01
 175   6     0.00   0.00  -0.00     0.00   0.00  -0.00     0.00   0.00  -0.00
 176   7     0.00  -0.00   0.00     0.00  -0.00   0.00     0.00  -0.00   0.00
 177   6    -0.00  -0.00   0.00    -0.00   0.00  -0.00     0.00   0.00  -0.00
 178   6     0.00  -0.00   0.00    -0.00   0.00  -0.00    -0.00   0.00  -0.00
 179   6    -0.00  -0.07   0.01     0.00   0.01  -0.00     0.00   0.05  -0.01
 180   6    -0.11  -0.01   0.00     0.01   0.00  -0.00     0.07   0.01  -0.00
 181   6    -0.00   0.00  -0.00     0.00  -0.00   0.00     0.00  -0.00   0.00
 182   7     0.00   0.00  -0.00    -0.00  -0.00  -0.00    -0.00  -0.00   0.00
 183   6    -0.00  -0.00   0.00     0.00  -0.00   0.00     0.00  -0.00   0.00
 184   6    -0.00  -0.00   0.00     0.00   0.00  -0.00     0.00   0.00  -0.00
 185   6    -0.08   0.01  -0.00     0.02  -0.00   0.00     0.08  -0.01   0.00
 186   6     0.00   0.05  -0.01     0.00  -0.01   0.00     0.00  -0.05   0.01
 187   6     0.00   0.00  -0.00    -0.00  -0.00   0.00    -0.00  -0.00   0.00
 188   7     0.00  -0.00   0.00    -0.00   0.00   0.00    -0.00   0.00  -0.00
 189   6    -0.00  -0.00   0.00    -0.00  -0.00   0.00    -0.00  -0.00   0.00
 190   6     0.00  -0.00   0.00     0.00  -0.00   0.00     0.00  -0.00   0.00
 191   7     0.00   0.00  -0.00     0.00   0.00  -0.00     0.00   0.00  -0.00
 192   1     0.03   0.37  -0.04     0.00   0.07  -0.01     0.01   0.20  -0.02
 193   1     0.59   0.09  -0.01     0.11   0.02  -0.00     0.31   0.05  -0.01
 194   1     0.23  -0.04   0.00     0.07  -0.01   0.00     0.21  -0.03   0.00
 195   1     0.01  -0.14   0.02     0.00  -0.05   0.01     0.01  -0.14   0.02
 196   1    -0.00   0.00  -0.00    -0.00  -0.00   0.00    -0.00  -0.01   0.00
 197   1     0.02   0.22  -0.03    -0.00  -0.03   0.00    -0.01  -0.14   0.02
 198   1     0.37   0.05  -0.01    -0.04  -0.01   0.00    -0.22  -0.03   0.00
 199   1     0.25  -0.04   0.00    -0.05   0.01  -0.00    -0.26   0.04  -0.00
 200   1     0.01  -0.15   0.02    -0.00   0.03  -0.00    -0.01   0.17  -0.02
 201   1    -0.00   0.00  -0.00    -0.00   0.00  -0.00     0.00   0.01  -0.00
