      -----------------------------------------------------------      
     |                   =====================                   |     
     |                           x T B                           |     
     |                   =====================                   |     
     |                         S. Grimme                         |     
     |          Mulliken Center for Theoretical Chemistry        |     
     |                    University of Bonn                     |     
      -----------------------------------------------------------      

   * xtb version 6.4.1 (bd6e46d) compiled by 'conda@4901f00b25ba' on 2021-06-10

   xtb is free software: you can redistribute it and/or modify it under
   the terms of the GNU Lesser General Public License as published by
   the Free Software Foundation, either version 3 of the License, or
   (at your option) any later version.
   
   xtb is distributed in the hope that it will be useful,
   but WITHOUT ANY WARRANTY; without even the implied warranty of
   MERCHANTABILITY or FITNESS FOR A PARTICULAR PURPOSE.  See the
   GNU Lesser General Public License for more details.
   
   Cite this work as:
   * C. Bannwarth, E. Caldeweyher, S. Ehlert, A. Hansen, P. Pracht,
     J. Seibert, S. Spicher, S. Grimme, WIREs Comput. Mol. Sci., 2020, 11,
     e01493. DOI: 10.1002/wcms.1493
   
   for GFN2-xTB:
   * C. Bannwarth, S. Ehlert and S. Grimme., J. Chem. Theory Comput., 2019,
     15, 1652-1671. DOI: 10.1021/acs.jctc.8b01176
   for GFN1-xTB:
   * S. Grimme, C. Bannwarth, P. Shushkov, J. Chem. Theory Comput., 2017,
     13, 1989-2009. DOI: 10.1021/acs.jctc.7b00118
   for GFN0-xTB:
   * P. Pracht, E. Caldeweyher, S. Ehlert, S. Grimme, ChemRxiv, 2019, preprint.
     DOI: 10.26434/chemrxiv.8326202.v1
   for GFN-FF:
   * S. Spicher and S. Grimme, Angew. Chem. Int. Ed., 2020, 59, 15665-15673.
     DOI: 10.1002/anie.202004239
   
   for DFT-D4:
   * E. Caldeweyher, C. Bannwarth and S. Grimme, J. Chem. Phys., 2017,
     147, 034112. DOI: 10.1063/1.4993215
   * E. Caldeweyher, S. Ehlert, A. Hansen, H. Neugebauer, S. Spicher,
     C. Bannwarth and S. Grimme, J. Chem. Phys., 2019, 150, 154122.
     DOI: 10.1063/1.5090222
   * E. Caldeweyher, J.-M. Mewes, S. Ehlert and S. Grimme, Phys. Chem. Chem. Phys.
     2020, 22, 8499-8512. DOI: 10.1039/D0CP00502A
   
   for sTDA-xTB:
   * S. Grimme and C. Bannwarth, J. Chem. Phys., 2016, 145, 054103.
     DOI: 10.1063/1.4959605
   
   in the mass-spec context:
   * V. Asgeirsson, C. Bauer and S. Grimme, Chem. Sci., 2017, 8, 4879.
     DOI: 10.1039/c7sc00601b
   * J. Koopman and S. Grimme, ACS Omega 2019, 4, 12, 15120-15133.
     DOI: 10.1021/acsomega.9b02011
   
   for metadynamics refer to:
   * S. Grimme, J. Chem. Theory Comput., 2019, 155, 2847-2862
     DOI: 10.1021/acs.jctc.9b00143
   
   for SPH calculations refer to:
   * S. Spicher and S. Grimme, J. Chem. Theory Comput., 2021, 17, 1701-1714
     DOI: 10.1021/acs.jctc.0c01306
   
   with help from (in alphabetical order)
   P. Atkinson, C. Bannwarth, F. Bohle, G. Brandenburg, E. Caldeweyher
   M. Checinski, S. Dohm, S. Ehlert, S. Ehrlich, I. Gerasimov, J. Koopman
   C. Lavigne, S. Lehtola, F. März, M. Müller, F. Musil, H. Neugebauer
   J. Pisarek, C. Plett, P. Pracht, J. Seibert, P. Shushkov, S. Spicher
   M. Stahn, M. Steiner, T. Strunk, J. Stückrath, T. Rose, and J. Unsleber
   
 * started run on 2021/11/19 at 19:12:00.352     

           -------------------------------------------------
          |                Calculation Setup                |
           -------------------------------------------------

          program call               : /home/jeff/miniconda3/bin/xtb input_structure_1.xyz --gfn 2 --ohess normal --parallel 1 --etemp 300 --chrg 0 --uhf 0 -I det_control.in
          hostname                   : jelfscompute1
          coordinate file            : input_structure_1.xyz
          omp threads                :                     1
          number of atoms            :                   201
          number of electrons        :                   688
          charge                     :                     0
          spin                       :                   0.0
          first test random number   :      0.05304891781719

   ID    Z sym.   atoms
    1   26 Fe     1, 37, 97, 132, 167
    2    6 C      2-9, 11-15, 17-21, 23, 24, 38-45, 47-51, 53-57, 59, 60,
                  73-96, 98-105, 107-111, 113-117, 119, 120, 133-140,
                  142-146, 148-152, 154, 155, 168-175, 177-181, 183-187, 189,
                  190
    3    7 N      10, 16, 22, 25, 46, 52, 58, 61, 106, 112, 118, 121, 141,
                  147, 153, 156, 176, 182, 188, 191
    4    1 H      26-36, 62-72, 122-131, 157-166, 192-201

molecular fragmentation (1/2 indicates fragments):
111111111111111111111111111111111111222222222222222222222222222222222222
222222222222222222222222222222222222222222222222222222222222222222222222
222222222222222222222222222222222222222222222222222222222
# atoms in fragment 1/2:    36   165
 fragment masses (1/2) :      363.17     1737.93
CMA distance (Bohr)    :  75.485
constraining FC (au)   :  0.0500

           -------------------------------------------------
          |                 G F N 2 - x T B                 |
           -------------------------------------------------

        Reference                      10.1021/acs.jctc.8b01176
      * Hamiltonian:
        H0-scaling (s, p, d)           1.850000    2.230000    2.230000
        zeta-weighting                 0.500000
      * Dispersion:
        s8                             2.700000
        a1                             0.520000
        a2                             5.000000
        s9                             5.000000
      * Repulsion:
        kExp                           1.500000    1.000000
        rExp                           1.000000
      * Coulomb:
        alpha                          2.000000
        third order                    shell-resolved
        anisotropic                    true
        a3                             3.000000
        a5                             4.000000
        cn-shift                       1.200000
        cn-exp                         4.000000
        max-rad                        5.000000


          ...................................................
          :                      SETUP                      :
          :.................................................:
          :  # basis functions                 678          :
          :  # atomic orbitals                 673          :
          :  # shells                          355          :
          :  # electrons                       688          :
          :  max. iterations                   250          :
          :  Hamiltonian                  GFN2-xTB          :
          :  restarted?                      false          :
          :  GBSA solvation                  false          :
          :  PC potential                    false          :
          :  electronic temp.          300.0000000     K    :
          :  accuracy                    1.0000000          :
          :  -> integral cutoff          0.2500000E+02      :
          :  -> integral neglect         0.1000000E-07      :
          :  -> SCF convergence          0.1000000E-05 Eh   :
          :  -> wf. convergence          0.1000000E-03 e    :
          :  Broyden damping             0.4000000          :
          ...................................................

 iter      E             dE          RMSdq      gap      omega  full diag
   1   -366.9008099 -0.366901E+03  0.876E+00    0.06       0.0  T
   2   -342.1385227  0.247623E+02  0.117E+01    0.12       1.0  T
   3   -343.5377409 -0.139922E+01  0.874E+00    0.09       1.0  T
   4   -344.5600367 -0.102230E+01  0.697E+00    0.02       1.0  T
   5   -276.0501842  0.685099E+02  0.928E+00    0.02       1.0  T
   6   -341.1602913 -0.651101E+02  0.730E+00    0.11       1.0  T
   7   -337.0709338  0.408936E+01  0.782E+00    0.06       1.0  T
   8   -349.1319791 -0.120610E+02  0.549E+00    0.03       1.0  T
   9   -349.3310754 -0.199096E+00  0.644E+00    0.07       1.0  T
  10   -365.8192606 -0.164882E+02  0.468E+00    0.01       1.0  T
  11   -359.4048410  0.641442E+01  0.600E+00    0.11       1.0  T
  12   -350.5490924  0.885575E+01  0.630E+00    0.09       1.0  T
  13   -364.3683514 -0.138193E+02  0.449E+00    0.00       1.0  T
  14   -367.5396533 -0.317130E+01  0.470E+00    0.09       1.0  T
  15   -368.0549874 -0.515334E+00  0.461E+00    0.05       1.0  T
  16   -367.1281338  0.926854E+00  0.436E+00    0.05       1.0  T
  17   -367.5240238 -0.395890E+00  0.421E+00    0.02       1.0  T
  18   -367.4701163  0.539075E-01  0.431E+00    0.04       1.0  T
  19   -367.9801241 -0.510008E+00  0.412E+00    0.06       1.0  T
  20   -367.6491862  0.330938E+00  0.395E+00    0.01       1.0  T
  21   -367.4172553  0.231931E+00  0.461E+00    0.01       1.0  T
  22   -358.7065388  0.871072E+01  0.601E+00    0.04       1.0  T
  23   -363.1188659 -0.441233E+01  0.601E+00    0.02       1.0  T
  24   -360.2022669  0.291660E+01  0.643E+00    0.06       1.0  T
  25   -361.3330564 -0.113079E+01  0.626E+00    0.01       1.0  T
  26   -361.2778798  0.551765E-01  0.636E+00    0.12       1.0  T
  27   -362.4810823 -0.120320E+01  0.638E+00    0.04       1.0  T
  28   -363.4284971 -0.947415E+00  0.599E+00    0.05       1.0  T
  29   -363.3923703  0.361267E-01  0.589E+00    0.00       1.0  T
  30   -364.3654315 -0.973061E+00  0.530E+00    0.02       1.0  T
  31   -365.8839176 -0.151849E+01  0.495E+00    0.03       1.0  T
  32   -366.9792633 -0.109535E+01  0.390E+00    0.01       1.0  T
  33   -365.1120123  0.186725E+01  0.488E+00    0.02       1.0  T
  34   -366.2756751 -0.116366E+01  0.454E+00    0.01       1.0  T
  35   -366.7039318 -0.428257E+00  0.435E+00    0.02       1.0  T
  36   -366.3959256  0.308006E+00  0.446E+00    0.01       1.0  T
  37   -364.5232285  0.187270E+01  0.510E+00    0.02       1.0  T
  38   -366.8266139 -0.230339E+01  0.448E+00    0.01       1.0  T
  39   -366.4933547  0.333259E+00  0.457E+00    0.01       1.0  T
  40   -364.2780646  0.221529E+01  0.526E+00    0.04       1.0  T
  41   -365.3587743 -0.108071E+01  0.483E+00    0.01       1.0  T
  42   -367.1032135 -0.174444E+01  0.417E+00    0.02       1.0  T
  43   -368.2432954 -0.114008E+01  0.360E+00    0.02       1.0  T
  44   -368.2037536  0.395418E-01  0.357E+00    0.01       1.0  T
  45   -368.0496176  0.154136E+00  0.374E+00    0.00       1.0  T
  46   -367.8279342  0.221683E+00  0.394E+00    0.00       1.0  T
  47   -368.9888271 -0.116089E+01  0.335E+00    0.02       1.0  T
  48   -367.7054920  0.128334E+01  0.441E+00    0.02       1.0  T
  49   -368.6205243 -0.915032E+00  0.361E+00    0.01       1.0  T
  50   -368.0921679  0.528356E+00  0.356E+00    0.01       1.0  T
  51   -367.5898718  0.502296E+00  0.365E+00    0.00       1.0  T
  52   -367.7522893 -0.162418E+00  0.354E+00    0.01       1.0  T
  53   -368.2464909 -0.494202E+00  0.344E+00    0.03       1.0  T
  54   -366.3896545  0.185684E+01  0.471E+00    0.00       1.0  T
  55   -368.1652828 -0.177563E+01  0.345E+00    0.01       1.0  T
  56   -368.6008505 -0.435568E+00  0.325E+00    0.01       1.0  T
  57   -368.9308087 -0.329958E+00  0.319E+00    0.02       1.0  T
  58   -368.9997596 -0.689510E-01  0.317E+00    0.01       1.0  T
  59   -367.0992162  0.190054E+01  0.403E+00    0.00       1.0  T
  60   -366.6434442  0.455772E+00  0.416E+00    0.00       1.0  T
  61   -366.1386816  0.504763E+00  0.445E+00    0.00       1.0  T
  62   -366.0171041  0.121578E+00  0.465E+00    0.01       1.0  T
  63   -366.1166975 -0.995934E-01  0.460E+00    0.00       1.0  T
  64   -366.8614130 -0.744715E+00  0.431E+00    0.03       1.0  T
  65   -368.3594885 -0.149808E+01  0.344E+00    0.00       1.0  T
  66   -367.6893995  0.670089E+00  0.381E+00    0.00       1.0  T
  67   -367.6518125  0.375870E-01  0.371E+00    0.01       1.0  T
  68   -367.8598088 -0.207996E+00  0.366E+00    0.01       1.0  T
  69   -367.5216757  0.338133E+00  0.375E+00    0.01       1.0  T
  70   -369.3029152 -0.178124E+01  0.322E+00    0.01       1.0  T
  71   -368.8409483  0.461967E+00  0.302E+00    0.02       1.0  T
  72   -368.0841920  0.756756E+00  0.319E+00    0.01       1.0  T
  73   -368.2774991 -0.193307E+00  0.315E+00    0.00       1.0  T
  74   -367.6304943  0.647005E+00  0.358E+00    0.01       1.0  T
  75   -367.1993496  0.431145E+00  0.375E+00    0.02       1.0  T
  76   -367.6426502 -0.443301E+00  0.356E+00    0.01       1.0  T
  77   -368.9470472 -0.130440E+01  0.331E+00    0.02       1.0  T
  78   -369.1257523 -0.178705E+00  0.316E+00    0.02       1.0  T
  79   -370.1122322 -0.986480E+00  0.276E+00    0.01       1.0  T
  80   -370.5640044 -0.451772E+00  0.250E+00    0.00       1.0  T
  81   -370.2273664  0.336638E+00  0.268E+00    0.01       1.0  T
  82   -370.6141383 -0.386772E+00  0.243E+00    0.00       1.0  T
  83   -370.2099531  0.404185E+00  0.249E+00    0.02       1.0  T
  84   -370.3919996 -0.182047E+00  0.232E+00    0.00       1.0  T
  85   -370.6961792 -0.304180E+00  0.210E+00    0.00       1.0  T
  86   -370.9100078 -0.213829E+00  0.182E+00    0.00       1.0  T
  87   -370.9247439 -0.147361E-01  0.179E+00    0.01       1.0  T
  88   -371.0556439 -0.130900E+00  0.151E+00    0.00       1.0  T
  89   -371.2550406 -0.199397E+00  0.135E+00    0.00       1.0  T
  90   -371.3694250 -0.114384E+00  0.132E+00    0.01       1.0  T
  91   -371.0697088  0.299716E+00  0.163E+00    0.01       1.0  T
  92   -371.1377821 -0.680733E-01  0.159E+00    0.01       1.0  T
  93   -370.9705886  0.167194E+00  0.174E+00    0.00       1.0  T
  94   -370.7808240  0.189765E+00  0.190E+00    0.00       1.0  T
  95   -370.9008896 -0.120066E+00  0.178E+00    0.00       1.0  T
  96   -371.1736957 -0.272806E+00  0.149E+00    0.00       1.0  T
  97   -370.8890732  0.284622E+00  0.170E+00    0.01       1.0  T
  98   -371.1000292 -0.210956E+00  0.153E+00    0.00       1.0  T
  99   -371.2446612 -0.144632E+00  0.143E+00    0.00       1.0  T
 100   -371.3930473 -0.148386E+00  0.128E+00    0.00       1.0  T
 101   -371.3556934  0.373540E-01  0.127E+00    0.00       1.0  T
 102   -371.5268058 -0.171112E+00  0.108E+00    0.00       1.0  T
 103   -371.4956937  0.311121E-01  0.110E+00    0.01       1.0  T
 104   -371.5824273 -0.867336E-01  0.938E-01    0.00       1.0  T
 105   -371.5254309  0.569964E-01  0.960E-01    0.00       1.0  T
 106   -371.6390068 -0.113576E+00  0.601E-01    0.00       1.0  T
 107   -371.6183371  0.206698E-01  0.590E-01    0.00       1.0  T
 108   -371.6660448 -0.477077E-01  0.378E-01    0.00       1.0  T
 109   -371.6190394  0.470054E-01  0.492E-01    0.00       1.0  T
 110   -371.6212350 -0.219558E-02  0.553E-01    0.01       1.0  T
 111   -371.6714508 -0.502158E-01  0.311E-01    0.00       1.0  T
 112   -371.6584175  0.130333E-01  0.346E-01    0.00       1.0  T
 113   -371.6803573 -0.219398E-01  0.182E-01    0.00       1.0  T
 114   -371.6744516  0.590573E-02  0.194E-01    0.00       1.0  T
 115   -371.6785838 -0.413226E-02  0.147E-01    0.00       1.0  T
 116   -371.6821076 -0.352376E-02  0.110E-01    0.00       1.0  T
 117   -371.6833438 -0.123618E-02  0.929E-02    0.00       1.0  T
 118   -371.6842725 -0.928733E-03  0.658E-02    0.00       1.0  T
 119   -371.6833987  0.873803E-03  0.807E-02    0.00       1.0  T
 120   -371.6852777 -0.187896E-02  0.436E-02    0.00       1.0  T
 121   -371.6847565  0.521201E-03  0.549E-02    0.00       1.0  T
 122   -371.6853692 -0.612756E-03  0.363E-02    0.00       1.0  T
 123   -371.6853657  0.349781E-05  0.354E-02    0.00       1.0  T
 124   -371.6854392 -0.735029E-04  0.310E-02    0.00       1.0  T
 125   -371.6854664 -0.271836E-04  0.298E-02    0.00       1.0  T
 126   -371.6855308 -0.644245E-04  0.209E-02    0.00       1.0  T
 127   -371.6856057 -0.748507E-04  0.117E-02    0.00       1.0  T
 128   -371.6855366  0.690735E-04  0.181E-02    0.00       1.0  T
 129   -371.6855904 -0.537523E-04  0.136E-02    0.00       1.0  T
 130   -371.6856132 -0.228601E-04  0.102E-02    0.00       1.0  T
 131   -371.6856121  0.117125E-05  0.101E-02    0.00       1.0  T
 132   -371.6856247 -0.126839E-04  0.631E-03    0.00       1.1  T
 133   -371.6856252 -0.439044E-06  0.497E-03    0.00       1.4  T
 134   -371.6856264 -0.122593E-05  0.359E-03    0.00       2.0  T
 135   -371.6856281 -0.172400E-05  0.248E-03    0.00       2.8  T
 136   -371.6856289 -0.776307E-06  0.178E-03    0.00       4.0  T
 137   -371.6856286  0.291090E-06  0.205E-03    0.00       3.4  T
 138   -371.6856292 -0.561990E-06  0.150E-03    0.00       4.7  T
 139   -371.6856292 -0.615570E-07  0.147E-03    0.00       4.8  T
 140   -371.6856294 -0.113454E-06  0.124E-03    0.00       5.7  T
 141   -371.6856295 -0.133864E-06  0.984E-04    0.00       7.2  T
 142   -371.6856295 -0.542002E-07  0.807E-04    0.00       8.7  T

   *** convergence criteria satisfied after 142 iterations ***

         #    Occupation            Energy/Eh            Energy/eV
      -------------------------------------------------------------
         1        2.0000           -0.6837676             -18.6063
       ...           ...                  ...                  ...
       338        1.8810           -0.3389968              -9.2246
       339        1.8804           -0.3389920              -9.2244
       340        1.4673           -0.3373373              -9.1794
       341        1.4622           -0.3373248              -9.1791
       342        1.1436           -0.3366493              -9.1607
       343        1.1052           -0.3365752              -9.1587
       344        1.0147           -0.3364025              -9.1540 (HOMO)
       345        0.9587           -0.3362961              -9.1511 (LUMO)
       346        0.9549           -0.3362888              -9.1509
       347        0.9417           -0.3362638              -9.1502
       348        0.8858           -0.3361567              -9.1473
       349        0.7171           -0.3358219              -9.1382
       ...           ...                  ...                  ...
       673                          2.2708739              61.7936
      -------------------------------------------------------------
                  HL-Gap            0.0001065 Eh            0.0029 eV
             Fermi-level           -0.3363746 Eh           -9.1532 eV

 SCC (total)                   0 d,  0 h,  0 min, 17.852 sec
 SCC setup                      ...        0 min,  0.007 sec (  0.042%)
 Dispersion                     ...        0 min,  0.016 sec (  0.089%)
 classical contributions        ...        0 min,  0.001 sec (  0.008%)
 integral evaluation            ...        0 min,  0.129 sec (  0.723%)
 iterations                     ...        0 min, 17.361 sec ( 97.250%)
 molecular gradient             ...        0 min,  0.322 sec (  1.803%)
 printout                       ...        0 min,  0.015 sec (  0.085%)

         :::::::::::::::::::::::::::::::::::::::::::::::::::::
         ::                     SUMMARY                     ::
         :::::::::::::::::::::::::::::::::::::::::::::::::::::
         :: total energy            -363.992980076449 Eh    ::
         :: gradient norm              1.759682089951 Eh/a0 ::
         :: HOMO-LUMO gap              0.002897174884 eV    ::
         ::.................................................::
         :: SCC energy              -371.685629542257 Eh    ::
         :: -> isotropic ES            0.019265541253 Eh    ::
         :: -> anisotropic ES          0.046079117871 Eh    ::
         :: -> anisotropic XC          0.255588166278 Eh    ::
         :: -> dispersion             -0.271307354003 Eh    ::
         :: repulsion energy           7.692837385297 Eh    ::
         :: add. restraining           0.000000000000 Eh    ::
         :: total charge               0.000000001213 e     ::
         :::::::::::::::::::::::::::::::::::::::::::::::::::::

      ----------------------------------------------------------- 
     |                   =====================                   |
     |                        A N C O P T                        |
     |                   =====================                   |
     |               Approximate Normal Coordinate               |
     |                Rational Function Optimizer                |
      ----------------------------------------------------------- 

          ...................................................
          :                      SETUP                      :
          :.................................................:
          :   optimization level            normal          :
          :   max. optcycles                   603          :
          :   ANC micro-cycles                  20          :
          :   degrees of freedom               597          :
          :.................................................:
          :   RF solver                   davidson          :
          :   write xtbopt.log                true          :
          :   linear?                        false          :
          :   energy convergence         0.5000000E-05 Eh   :
          :   grad. convergence          0.1000000E-02 Eh/α :
          :   maximium RF displ.         1.0000000          :
          :   Hlow (freq-cutoff)         0.1000000E-01      :
          :   Hmax (freq-cutoff)         5.0000000          :
          :   S6 in model hess.         20.0000000          :
          ...................................................

generating ANC from model Hessian ...
Using Lindh-Hessian (1995)
 Shifting diagonal of input Hessian by    1.0134331402636367E-002
 Lowest  eigenvalues of input Hessian
    0.010000    0.010034    0.010100    0.010100    0.010101    0.010108
    0.010111    0.010116    0.010117    0.010120    0.010125    0.010127
    0.010128    0.010131    0.000000    0.000000    0.000000    0.000000
 Highest eigenvalues
    3.325869    3.325872    3.327668    3.495154    3.495768    3.495769


........................................................................
.............................. CYCLE    1 ..............................
........................................................................
   1   -371.6856296 -0.371686E+03  0.499E-04    0.00       0.0  T
   2   -371.6843047  0.132490E-02  0.625E-02    0.00       1.0  T
   3   -371.6856206 -0.131590E-02  0.541E-03    0.00       1.3  T
   4   -371.6850796  0.541011E-03  0.389E-02    0.00       1.0  T
   5   -371.6855977 -0.518051E-03  0.940E-03    0.00       1.0  T
   6   -371.6851557  0.442027E-03  0.382E-02    0.00       1.0  T
   7   -371.6854990 -0.343322E-03  0.188E-02    0.00       1.0  T
   8   -371.6850598  0.439189E-03  0.428E-02    0.00       1.0  T
   9   -371.6856132 -0.553434E-03  0.706E-03    0.00       1.0  T
  10   -371.6855331  0.800993E-04  0.171E-02    0.00       1.0  T
  11   -371.6856136 -0.804841E-04  0.658E-03    0.00       1.1  T
  12   -371.6856255 -0.118750E-04  0.359E-03    0.00       2.0  T
  13   -371.6856296 -0.413751E-05  0.542E-04    0.00      13.0  T
  14   -371.6856294  0.198512E-06  0.907E-04    0.00       7.8  T
  15   -371.6856296 -0.204575E-06  0.474E-04    0.00      14.9  T
     SCC iter.                  ...        0 min,  1.824 sec
     gradient                   ...        0 min,  0.321 sec
 * total energy  :  -363.9929802 Eh     change       -0.8553889E-07 Eh
   gradient norm :     1.7596814 Eh/α   predicted     0.0000000E+00 (-100.00%)
   displ. norm   :     0.6075127 α      lambda       -0.9896734E+00
   maximum displ.:     0.1986468 α      in ANC's #475, #586, #596, ...

........................................................................
.............................. CYCLE    2 ..............................
........................................................................
   1   -371.6883082 -0.371688E+03  0.550E-01    0.01       0.0  T
   2   -364.4827630  0.720555E+01  0.490E+00    0.01       1.0  T
   3   -362.5084422  0.197432E+01  0.570E+00    0.11       1.0  T
   4   -367.3660574 -0.485762E+01  0.355E+00    0.02       1.0  T
   5   -364.9914040  0.237465E+01  0.501E+00    0.04       1.0  T
   6   -365.1424601 -0.151056E+00  0.487E+00    0.03       1.0  T
   7   -369.5236952 -0.438124E+01  0.277E+00    0.00       1.0  T
   8   -365.4833500  0.404035E+01  0.456E+00    0.02       1.0  T
   9   -369.5421345 -0.405878E+01  0.254E+00    0.01       1.0  T
  10   -370.4435105 -0.901376E+00  0.201E+00    0.02       1.0  T
  11   -370.2053700  0.238141E+00  0.203E+00    0.02       1.0  T
  12   -370.6011992 -0.395829E+00  0.189E+00    0.00       1.0  T
  13   -369.1040992  0.149710E+01  0.286E+00    0.00       1.0  T
  14   -368.5728646  0.531235E+00  0.331E+00    0.03       1.0  T
  15   -370.7219840 -0.214912E+01  0.180E+00    0.00       1.0  T
  16   -369.0254856  0.169650E+01  0.304E+00    0.02       1.0  T
  17   -369.9001687 -0.874683E+00  0.241E+00    0.02       1.0  T
  18   -369.9145018 -0.143331E-01  0.249E+00    0.00       1.0  T
  19   -369.2036614  0.710840E+00  0.293E+00    0.01       1.0  T
  20   -369.5356104 -0.331949E+00  0.269E+00    0.02       1.0  T
  21   -371.1788572 -0.164325E+01  0.162E+00    0.00       1.0  T
  22   -371.1458557  0.330014E-01  0.162E+00    0.00       1.0  T
  23   -371.3713117 -0.225456E+00  0.112E+00    0.01       1.0  T
  24   -371.2486921  0.122620E+00  0.125E+00    0.01       1.0  T
  25   -371.1635909  0.851012E-01  0.138E+00    0.00       1.0  T
  26   -371.3743963 -0.210805E+00  0.114E+00    0.01       1.0  T
  27   -371.5139556 -0.139559E+00  0.905E-01    0.01       1.0  T
  28   -371.5372411 -0.232855E-01  0.812E-01    0.00       1.0  T
  29   -371.6491541 -0.111913E+00  0.518E-01    0.01       1.0  T
  30   -371.6132837  0.358705E-01  0.661E-01    0.00       1.0  T
  31   -371.5651742  0.481095E-01  0.751E-01    0.00       1.0  T
  32   -371.6756177 -0.110444E+00  0.471E-01    0.00       1.0  T
  33   -371.6862644 -0.106467E-01  0.437E-01    0.00       1.0  T
  34   -371.6946900 -0.842557E-02  0.403E-01    0.00       1.0  T
  35   -371.6997477 -0.505771E-02  0.386E-01    0.00       1.0  T
  36   -371.7261077 -0.263600E-01  0.230E-01    0.00       1.0  T
  37   -371.7333875 -0.727981E-02  0.161E-01    0.00       1.0  T
  38   -371.7340942 -0.706681E-03  0.148E-01    0.00       1.0  T
  39   -371.7373405 -0.324629E-02  0.106E-01    0.00       1.0  T
  40   -371.7323961  0.494436E-02  0.150E-01    0.00       1.0  T
  41   -371.7376800 -0.528387E-02  0.798E-02    0.00       1.0  T
  42   -371.7366402  0.103976E-02  0.966E-02    0.00       1.0  T
  43   -371.7363549  0.285278E-03  0.919E-02    0.00       1.0  T
  44   -371.7386734 -0.231848E-02  0.413E-02    0.00       1.0  T
  45   -371.7390083 -0.334844E-03  0.224E-02    0.00       1.0  T
  46   -371.7389407  0.675368E-04  0.263E-02    0.00       1.0  T
  47   -371.7390888 -0.148043E-03  0.156E-02    0.00       1.0  T
  48   -371.7391544 -0.656516E-04  0.535E-03    0.00       1.3  T
  49   -371.7391191  0.353163E-04  0.118E-02    0.00       1.0  T
  50   -371.7391403 -0.212323E-04  0.844E-03    0.00       1.0  T
  51   -371.7391411 -0.804539E-06  0.850E-03    0.00       1.0  T
  52   -371.7391611 -0.200149E-04  0.188E-03    0.00       3.7  T
  53   -371.7391605  0.646285E-06  0.220E-03    0.00       3.2  T
  54   -371.7391606 -0.113569E-06  0.204E-03    0.00       3.5  T
  55   -371.7391612 -0.624068E-06  0.157E-03    0.00       4.5  T
  56   -371.7391616 -0.365778E-06  0.110E-03    0.00       6.4  T
  57   -371.7391617 -0.958681E-07  0.991E-04    0.00       7.1  T
  58   -371.7391620 -0.266074E-06  0.539E-04    0.00      13.1  T
     SCC iter.                  ...        0 min,  7.140 sec
     gradient                   ...        0 min,  0.321 sec
 * total energy  :  -364.6610157 Eh     change       -0.6680355E+00 Eh
   gradient norm :     0.7063272 Eh/α   predicted    -0.6774702E+00 (   1.41%)
   displ. norm   :     0.5868183 α      lambda       -0.3505189E+00
   maximum displ.:     0.1646376 α      in ANC's #209, #475, #206, ...

........................................................................
.............................. CYCLE    3 ..............................
........................................................................
   1   -371.7203947 -0.371720E+03  0.817E-01    0.01       0.0  T
   2   -362.7275490  0.899285E+01  0.444E+00    0.04       1.0  T
   3   -366.4431948 -0.371565E+01  0.377E+00    0.01       1.0  T
   4   -358.9041981  0.753900E+01  0.711E+00    0.21       1.0  T
   5   -365.1062283 -0.620203E+01  0.488E+00    0.00       1.0  T
   6   -363.2278876  0.187834E+01  0.536E+00    0.03       1.0  T
   7   -367.1837466 -0.395586E+01  0.396E+00    0.01       1.0  T
   8   -367.0626472  0.121099E+00  0.416E+00    0.03       1.0  T
   9   -366.3240920  0.738555E+00  0.456E+00    0.08       1.0  T
  10   -366.6415735 -0.317481E+00  0.445E+00    0.00       1.0  T
  11   -367.0922576 -0.450684E+00  0.428E+00    0.00       1.0  T
  12   -365.3153720  0.177689E+01  0.473E+00    0.03       1.0  T
  13   -368.6042517 -0.328888E+01  0.343E+00    0.00       1.0  T
  14   -369.7628196 -0.115857E+01  0.257E+00    0.03       1.0  T
  15   -368.8712976  0.891522E+00  0.321E+00    0.00       1.0  T
  16   -369.7230205 -0.851723E+00  0.270E+00    0.00       1.0  T
  17   -368.4292733  0.129375E+01  0.288E+00    0.04       1.0  T
  18   -367.9090954  0.520178E+00  0.349E+00    0.02       1.0  T
  19   -367.8299522  0.791433E-01  0.352E+00    0.03       1.0  T
  20   -368.0502986 -0.220346E+00  0.356E+00    0.03       1.0  T
  21   -368.7968905 -0.746592E+00  0.317E+00    0.00       1.0  T
  22   -370.2993918 -0.150250E+01  0.220E+00    0.01       1.0  T
  23   -371.0157612 -0.716369E+00  0.191E+00    0.00       1.0  T
  24   -370.9773372  0.384240E-01  0.191E+00    0.01       1.0  T
  25   -371.3979710 -0.420634E+00  0.144E+00    0.00       1.0  T
  26   -371.0955972  0.302374E+00  0.175E+00    0.00       1.0  T
  27   -371.1315582 -0.359610E-01  0.169E+00    0.01       1.0  T
  28   -371.1158498  0.157084E-01  0.171E+00    0.01       1.0  T
  29   -371.0487778  0.670720E-01  0.176E+00    0.01       1.0  T
  30   -370.5165300  0.532248E+00  0.197E+00    0.00       1.0  T
  31   -370.9598621 -0.443332E+00  0.159E+00    0.01       1.0  T
  32   -371.5283036 -0.568442E+00  0.877E-01    0.01       1.0  T
  33   -371.3728324  0.155471E+00  0.117E+00    0.01       1.0  T
  34   -371.3621030  0.107295E-01  0.122E+00    0.00       1.0  T
  35   -371.2591010  0.103002E+00  0.146E+00    0.01       1.0  T
  36   -371.3885416 -0.129441E+00  0.129E+00    0.01       1.0  T
  37   -371.3753931  0.131485E-01  0.131E+00    0.01       1.0  T
  38   -371.4254945 -0.501013E-01  0.116E+00    0.00       1.0  T
  39   -371.4405500 -0.150556E-01  0.117E+00    0.00       1.0  T
  40   -371.3359100  0.104640E+00  0.117E+00    0.00       1.0  T
  41   -371.3530255 -0.171156E-01  0.117E+00    0.00       1.0  T
  42   -371.6746315 -0.321606E+00  0.516E-01    0.01       1.0  T
  43   -371.7470883 -0.724569E-01  0.224E-01    0.00       1.0  T
  44   -371.7396424  0.744597E-02  0.273E-01    0.00       1.0  T
  45   -371.7263536  0.132887E-01  0.351E-01    0.00       1.0  T
  46   -371.7471709 -0.208172E-01  0.220E-01    0.00       1.0  T
  47   -371.7456300  0.154085E-02  0.223E-01    0.00       1.0  T
  48   -371.7501688 -0.453877E-02  0.179E-01    0.00       1.0  T
  49   -371.7537679 -0.359916E-02  0.128E-01    0.00       1.0  T
  50   -371.7535126  0.255336E-03  0.130E-01    0.00       1.0  T
  51   -371.7525832  0.929367E-03  0.138E-01    0.00       1.0  T
  52   -371.7537702 -0.118699E-02  0.118E-01    0.00       1.0  T
  53   -371.7556828 -0.191259E-02  0.864E-02    0.00       1.0  T
  54   -371.7564052 -0.722386E-03  0.641E-02    0.01       1.0  T
  55   -371.7562410  0.164223E-03  0.693E-02    0.01       1.0  T
  56   -371.7567723 -0.531361E-03  0.503E-02    0.01       1.0  T
  57   -371.7569481 -0.175787E-03  0.431E-02    0.01       1.0  T
  58   -371.7572010 -0.252857E-03  0.267E-02    0.01       1.0  T
  59   -371.7571906  0.103819E-04  0.256E-02    0.01       1.0  T
  60   -371.7572841 -0.934670E-04  0.168E-02    0.01       1.0  T
  61   -371.7572762  0.786823E-05  0.168E-02    0.01       1.0  T
  62   -371.7573065 -0.302550E-04  0.121E-02    0.01       1.0  T
  63   -371.7573121 -0.568214E-05  0.981E-03    0.01       1.0  T
  64   -371.7573261 -0.140079E-04  0.588E-03    0.01       1.2  T
  65   -371.7573303 -0.418387E-05  0.328E-03    0.01       2.1  T
  66   -371.7573301  0.232007E-06  0.295E-03    0.01       2.4  T
  67   -371.7573300  0.974558E-07  0.243E-03    0.01       2.9  T
  68   -371.7573305 -0.520057E-06  0.165E-03    0.01       4.3  T
  69   -371.7573310 -0.442266E-06  0.109E-03    0.01       6.5  T
  70   -371.7573312 -0.233025E-06  0.575E-04    0.01      12.3  T
  71   -371.7573312  0.123255E-07  0.484E-04    0.01      14.6  T
     SCC iter.                  ...        0 min,  8.641 sec
     gradient                   ...        0 min,  0.322 sec
 * total energy  :  -364.9255049 Eh     change       -0.2644892E+00 Eh
   gradient norm :     0.3403266 Eh/α   predicted    -0.2356112E+00 ( -10.92%)
   displ. norm   :     0.6693209 α      lambda       -0.1793397E+00
   maximum displ.:     0.2500620 α      in ANC's #209, #206, #205, ...

........................................................................
.............................. CYCLE    4 ..............................
........................................................................
   1   -371.7787529 -0.371779E+03  0.146E+00    0.03       0.0  T
   2   -360.6446681  0.111341E+02  0.508E+00    0.01       1.0  T
   3   -363.6163831 -0.297172E+01  0.554E+00    0.00       1.0  T
   4   -358.6783563  0.493803E+01  0.729E+00    0.15       1.0  T
   5   -363.6165841 -0.493823E+01  0.549E+00    0.02       1.0  T
   6   -366.6682608 -0.305168E+01  0.407E+00    0.03       1.0  T
   7   -364.0383652  0.262990E+01  0.515E+00    0.00       1.0  T
   8   -367.0998255 -0.306146E+01  0.448E+00    0.02       1.0  T
   9   -368.9577303 -0.185790E+01  0.324E+00    0.06       1.0  T
  10   -365.9751294  0.298260E+01  0.469E+00    0.01       1.0  T
  11   -368.5552336 -0.258010E+01  0.331E+00    0.03       1.0  T
  12   -370.7721431 -0.221691E+01  0.228E+00    0.00       1.0  T
  13   -370.4635418  0.308601E+00  0.246E+00    0.01       1.0  T
  14   -370.0500706  0.413471E+00  0.241E+00    0.01       1.0  T
  15   -369.2727973  0.777273E+00  0.306E+00    0.03       1.0  T
  16   -371.3122338 -0.203944E+01  0.167E+00    0.01       1.0  T
  17   -369.6793874  0.163285E+01  0.278E+00    0.00       1.0  T
  18   -370.4237016 -0.744314E+00  0.242E+00    0.01       1.0  T
  19   -370.3361604  0.875413E-01  0.235E+00    0.01       1.0  T
  20   -370.9387799 -0.602619E+00  0.170E+00    0.01       1.0  T
  21   -371.7002517 -0.761472E+00  0.745E-01    0.00       1.0  T
  22   -370.7442632  0.955988E+00  0.178E+00    0.00       1.0  T
  23   -370.9960105 -0.251747E+00  0.176E+00    0.00       1.0  T
  24   -370.7839537  0.212057E+00  0.197E+00    0.02       1.0  T
  25   -370.6909250  0.930287E-01  0.205E+00    0.02       1.0  T
  26   -371.5483864 -0.857461E+00  0.100E+00    0.00       1.0  T
  27   -371.0426258  0.505761E+00  0.165E+00    0.00       1.0  T
  28   -371.5422847 -0.499659E+00  0.904E-01    0.01       1.0  T
  29   -371.1436654  0.398619E+00  0.142E+00    0.00       1.0  T
  30   -371.2993238 -0.155658E+00  0.118E+00    0.00       1.0  T
  31   -371.6850220 -0.385698E+00  0.821E-01    0.01       1.0  T
  32   -371.6976296 -0.126075E-01  0.786E-01    0.01       1.0  T
  33   -371.7649097 -0.672802E-01  0.560E-01    0.02       1.0  T
  34   -371.8002910 -0.353813E-01  0.379E-01    0.02       1.0  T
  35   -371.7177680  0.825230E-01  0.570E-01    0.00       1.0  T
  36   -371.8028121 -0.850441E-01  0.376E-01    0.00       1.0  T
  37   -371.8231407 -0.203287E-01  0.208E-01    0.00       1.0  T
  38   -371.8041146  0.190261E-01  0.327E-01    0.00       1.0  T
  39   -371.8226377 -0.185231E-01  0.217E-01    0.01       1.0  T
  40   -371.8357831 -0.131454E-01  0.603E-02    0.01       1.0  T
  41   -371.8357178  0.652863E-04  0.613E-02    0.01       1.0  T
  42   -371.8351011  0.616676E-03  0.759E-02    0.01       1.0  T
  43   -371.8362465 -0.114539E-02  0.401E-02    0.01       1.0  T
  44   -371.8364151 -0.168580E-03  0.267E-02    0.01       1.0  T
  45   -371.8364467 -0.315646E-04  0.230E-02    0.01       1.0  T
  46   -371.8365570 -0.110350E-03  0.112E-02    0.01       1.0  T
  47   -371.8365691 -0.120688E-04  0.942E-03    0.01       1.0  T
  48   -371.8365845 -0.154392E-04  0.521E-03    0.01       1.4  T
  49   -371.8365853 -0.811658E-06  0.522E-03    0.01       1.4  T
  50   -371.8365905 -0.516532E-05  0.299E-03    0.01       2.4  T
  51   -371.8365912 -0.674142E-06  0.254E-03    0.01       2.8  T
  52   -371.8365913 -0.167839E-06  0.184E-03    0.01       3.8  T
  53   -371.8365916 -0.309931E-06  0.150E-03    0.01       4.7  T
  54   -371.8365919 -0.292293E-06  0.114E-03    0.01       6.2  T
  55   -371.8365920 -0.492499E-07  0.951E-04    0.01       7.4  T
  56   -371.8365922 -0.165096E-06  0.577E-04    0.01      12.2  T
     SCC iter.                  ...        0 min,  6.819 sec
     gradient                   ...        0 min,  0.321 sec
 * total energy  :  -365.0623240 Eh     change       -0.1368191E+00 Eh
   gradient norm :     0.1523814 Eh/α   predicted    -0.1298412E+00 (  -5.10%)
   displ. norm   :     0.7633411 α      lambda       -0.1032799E+00
   maximum displ.:     0.2997542 α      in ANC's #209, #206, #159, ...

........................................................................
.............................. CYCLE    5 ..............................
........................................................................
   1   -371.8294746 -0.371829E+03  0.183E+00    0.05       0.0  T
   2   -359.8608608  0.119686E+02  0.567E+00    0.03       1.0  T
   3   -356.1131220  0.374774E+01  0.703E+00    0.01       1.0  T
   4   -358.6879618 -0.257484E+01  0.739E+00    0.13       1.0  T
   5   -367.6618669 -0.897391E+01  0.426E+00    0.02       1.0  T
   6   -363.7826422  0.387922E+01  0.527E+00    0.03       1.0  T
   7   -363.9500815 -0.167439E+00  0.550E+00    0.06       1.0  T
   8   -367.6469400 -0.369686E+01  0.417E+00    0.01       1.0  T
   9   -366.4737596  0.117318E+01  0.478E+00    0.06       1.0  T
  10   -370.3029629 -0.382920E+01  0.263E+00    0.02       1.0  T
  11   -370.1451222  0.157841E+00  0.263E+00    0.01       1.0  T
  12   -370.5604838 -0.415362E+00  0.234E+00    0.00       1.0  T
  13   -368.5113821  0.204910E+01  0.355E+00    0.02       1.0  T
  14   -368.8126682 -0.301286E+00  0.336E+00    0.00       1.0  T
  15   -370.1304771 -0.131781E+01  0.268E+00    0.05       1.0  T
  16   -369.1569750  0.973502E+00  0.339E+00    0.00       1.0  T
  17   -369.0844277  0.725473E-01  0.340E+00    0.00       1.0  T
  18   -369.8653882 -0.780961E+00  0.295E+00    0.04       1.0  T
  19   -370.1802900 -0.314902E+00  0.278E+00    0.03       1.0  T
  20   -370.3109472 -0.130657E+00  0.267E+00    0.01       1.0  T
  21   -370.1676394  0.143308E+00  0.268E+00    0.02       1.0  T
  22   -370.3302564 -0.162617E+00  0.264E+00    0.00       1.0  T
  23   -370.6034682 -0.273212E+00  0.239E+00    0.03       1.0  T
  24   -370.8186208 -0.215153E+00  0.205E+00    0.01       1.0  T
  25   -371.0613262 -0.242705E+00  0.181E+00    0.01       1.0  T
  26   -371.2548230 -0.193497E+00  0.165E+00    0.01       1.0  T
  27   -370.6027012  0.652122E+00  0.204E+00    0.02       1.0  T
  28   -371.4525410 -0.849840E+00  0.122E+00    0.03       1.0  T
  29   -371.7539494 -0.301408E+00  0.108E+00    0.01       1.0  T
  30   -371.7417084  0.122410E-01  0.104E+00    0.01       1.0  T
  31   -371.0477477  0.693961E+00  0.185E+00    0.01       1.0  T
  32   -371.0331980  0.145496E-01  0.180E+00    0.01       1.0  T
  33   -371.7394178 -0.706220E+00  0.801E-01    0.01       1.0  T
  34   -371.7676825 -0.282647E-01  0.712E-01    0.00       1.0  T
  35   -371.7927150 -0.250325E-01  0.796E-01    0.03       1.0  T
  36   -371.8179294 -0.252144E-01  0.631E-01    0.01       1.0  T
  37   -371.6209726  0.196957E+00  0.953E-01    0.01       1.0  T
  38   -371.7967854 -0.175813E+00  0.602E-01    0.00       1.0  T
  39   -371.8669101 -0.701247E-01  0.391E-01    0.01       1.0  T
  40   -371.8544472  0.124629E-01  0.425E-01    0.02       1.0  T
  41   -371.8796118 -0.251645E-01  0.291E-01    0.02       1.0  T
  42   -371.8893234 -0.971165E-02  0.231E-01    0.02       1.0  T
  43   -371.9022884 -0.129650E-01  0.126E-01    0.03       1.0  T
  44   -371.9029359 -0.647475E-03  0.100E-01    0.02       1.0  T
  45   -371.8923697  0.105662E-01  0.213E-01    0.02       1.0  T
  46   -371.9001550 -0.778526E-02  0.142E-01    0.02       1.0  T
  47   -371.9036222 -0.346718E-02  0.782E-02    0.03       1.0  T
  48   -371.9043580 -0.735814E-03  0.481E-02    0.03       1.0  T
  49   -371.9043482  0.980591E-05  0.392E-02    0.03       1.0  T
  50   -371.9044025 -0.543774E-04  0.298E-02    0.03       1.0  T
  51   -371.9043836  0.189939E-04  0.266E-02    0.03       1.0  T
  52   -371.9041938  0.189706E-03  0.344E-02    0.03       1.0  T
  53   -371.9044446 -0.250803E-03  0.155E-02    0.03       1.0  T
  54   -371.9044653 -0.206701E-04  0.106E-02    0.03       1.0  T
  55   -371.9044783 -0.129844E-04  0.719E-03    0.03       1.0  T
  56   -371.9044758  0.248271E-05  0.710E-03    0.03       1.0  T
  57   -371.9044811 -0.526329E-05  0.453E-03    0.03       1.6  T
  58   -371.9044839 -0.276827E-05  0.331E-03    0.03       2.1  T
  59   -371.9044860 -0.216003E-05  0.205E-03    0.03       3.4  T
  60   -371.9044860  0.440687E-07  0.185E-03    0.03       3.8  T
  61   -371.9044865 -0.549709E-06  0.112E-03    0.03       6.3  T
  62   -371.9044864  0.725987E-07  0.129E-03    0.03       5.5  T
  63   -371.9044867 -0.303975E-06  0.509E-04    0.03      13.8  T
  64   -371.9044867  0.106086E-07  0.540E-04    0.03      13.1  T
     SCC iter.                  ...        0 min,  7.794 sec
     gradient                   ...        0 min,  0.323 sec
 * total energy  :  -365.1498912 Eh     change       -0.8756718E-01 Eh
   gradient norm :     0.1090414 Eh/α   predicted    -0.8173001E-01 (  -6.67%)
   displ. norm   :     0.8325149 α      lambda       -0.8153623E-01
   maximum displ.:     0.3152734 α      in ANC's #209, #206, #159, ...

........................................................................
.............................. CYCLE    6 ..............................
........................................................................
   1   -371.8619232 -0.371862E+03  0.182E+00    0.08       0.0  T
   2   -360.7018911  0.111600E+02  0.641E+00    0.04       1.0  T
   3   -360.3346264  0.367265E+00  0.666E+00    0.00       1.0  T
   4   -364.4476761 -0.411305E+01  0.533E+00    0.00       1.0  T
   5   -367.8704176 -0.342274E+01  0.407E+00    0.02       1.0  T
   6   -364.6429543  0.322746E+01  0.538E+00    0.09       1.0  T
   7   -369.0303930 -0.438744E+01  0.360E+00    0.07       1.0  T
   8   -367.3498063  0.168059E+01  0.405E+00    0.03       1.0  T
   9   -367.6826173 -0.332811E+00  0.425E+00    0.02       1.0  T
  10   -370.8028827 -0.312027E+01  0.215E+00    0.07       1.0  T
  11   -370.3797516  0.423131E+00  0.246E+00    0.01       1.0  T
  12   -370.5954983 -0.215747E+00  0.237E+00    0.06       1.0  T
  13   -370.5555031  0.399952E-01  0.241E+00    0.01       1.0  T
  14   -370.7745284 -0.219025E+00  0.197E+00    0.02       1.0  T
  15   -370.9428137 -0.168285E+00  0.218E+00    0.01       1.0  T
  16   -371.1182502 -0.175436E+00  0.199E+00    0.02       1.0  T
  17   -370.9832902  0.134960E+00  0.212E+00    0.05       1.0  T
  18   -370.9431849  0.401053E-01  0.216E+00    0.03       1.0  T
  19   -371.1056978 -0.162513E+00  0.202E+00    0.06       1.0  T
  20   -370.2545966  0.851101E+00  0.254E+00    0.00       1.0  T
  21   -371.3175984 -0.106300E+01  0.157E+00    0.02       1.0  T
  22   -370.3480670  0.969531E+00  0.247E+00    0.01       1.0  T
  23   -371.5900065 -0.124194E+01  0.151E+00    0.00       1.0  T
  24   -371.9031702 -0.313164E+00  0.749E-01    0.03       1.0  T
  25   -371.6779098  0.225260E+00  0.125E+00    0.02       1.0  T
  26   -371.5829423  0.949676E-01  0.117E+00    0.01       1.0  T
  27   -371.5459076  0.370346E-01  0.114E+00    0.02       1.0  T
  28   -371.8216040 -0.275696E+00  0.839E-01    0.02       1.0  T
  29   -371.8901077 -0.685037E-01  0.641E-01    0.05       1.0  T
  30   -371.9390710 -0.489633E-01  0.530E-01    0.04       1.0  T
  31   -371.8794812  0.595899E-01  0.794E-01    0.01       1.0  T
  32   -371.8403818  0.390993E-01  0.830E-01    0.01       1.0  T
  33   -371.8656987 -0.253169E-01  0.775E-01    0.01       1.0  T
  34   -371.8728151 -0.711634E-02  0.639E-01    0.02       1.0  T
  35   -371.9232124 -0.503973E-01  0.476E-01    0.03       1.0  T
  36   -371.9178403  0.537208E-02  0.452E-01    0.03       1.0  T
  37   -371.9217170 -0.387667E-02  0.410E-01    0.04       1.0  T
  38   -371.9201656  0.155142E-02  0.406E-01    0.04       1.0  T
  39   -371.9142741  0.589151E-02  0.429E-01    0.04       1.0  T
  40   -371.9220865 -0.781242E-02  0.401E-01    0.04       1.0  T
  41   -371.9213721  0.714432E-03  0.407E-01    0.04       1.0  T
  42   -371.9503377 -0.289657E-01  0.195E-01    0.04       1.0  T
  43   -371.9562612 -0.592348E-02  0.117E-01    0.04       1.0  T
  44   -371.9524765  0.378476E-02  0.148E-01    0.04       1.0  T
  45   -371.9547702 -0.229378E-02  0.115E-01    0.04       1.0  T
  46   -371.9553988 -0.628541E-03  0.955E-02    0.04       1.0  T
  47   -371.9559113 -0.512524E-03  0.773E-02    0.04       1.0  T
  48   -371.9566066 -0.695309E-03  0.518E-02    0.04       1.0  T
  49   -371.9571575 -0.550870E-03  0.290E-02    0.04       1.0  T
  50   -371.9572706 -0.113144E-03  0.168E-02    0.04       1.0  T
  51   -371.9572990 -0.283445E-04  0.114E-02    0.04       1.0  T
  52   -371.9573151 -0.161231E-04  0.886E-03    0.04       1.0  T
  53   -371.9573121  0.298749E-05  0.657E-03    0.04       1.1  T
  54   -371.9573154 -0.333580E-05  0.395E-03    0.04       1.8  T
  55   -371.9573150  0.459608E-06  0.451E-03    0.04       1.6  T
  56   -371.9573161 -0.111691E-05  0.291E-03    0.04       2.4  T
  57   -371.9573178 -0.174125E-05  0.121E-03    0.04       5.8  T
  58   -371.9573176  0.235673E-06  0.141E-03    0.04       5.0  T
  59   -371.9573177 -0.140715E-06  0.127E-03    0.04       5.6  T
  60   -371.9573179 -0.154553E-06  0.947E-04    0.04       7.4  T
  61   -371.9573179 -0.357663E-07  0.669E-04    0.04      10.5  T
     SCC iter.                  ...        0 min,  7.423 sec
     gradient                   ...        0 min,  0.322 sec
 * total energy  :  -365.2221557 Eh     change       -0.7226447E-01 Eh
   gradient norm :     0.0956240 Eh/α   predicted    -0.6902372E-01 (  -4.48%)
   displ. norm   :     0.8627598 α      lambda       -0.6825119E-01
   maximum displ.:     0.2998592 α      in ANC's #209, #159, #113, ...

........................................................................
.............................. CYCLE    7 ..............................
........................................................................
   1   -371.8961282 -0.371896E+03  0.149E+00    0.11       0.0  T
   2   -361.1324505  0.107637E+02  0.634E+00    0.04       1.0  T
   3   -359.1685433  0.196391E+01  0.672E+00    0.04       1.0  T
   4   -367.6113411 -0.844280E+01  0.444E+00    0.01       1.0  T
   5   -367.2014779  0.409863E+00  0.436E+00    0.06       1.0  T
   6   -370.7459432 -0.354447E+01  0.205E+00    0.01       1.0  T
   7   -368.4715553  0.227439E+01  0.355E+00    0.04       1.0  T
   8   -369.5282884 -0.105673E+01  0.354E+00    0.02       1.0  T
   9   -366.6521337  0.287615E+01  0.476E+00    0.04       1.0  T
  10   -370.1954893 -0.354336E+01  0.335E+00    0.04       1.0  T
  11   -370.2359459 -0.404566E-01  0.322E+00    0.08       1.0  T
  12   -370.3259337 -0.899877E-01  0.312E+00    0.04       1.0  T
  13   -371.2100899 -0.884156E+00  0.197E+00    0.01       1.0  T
  14   -371.5367788 -0.326689E+00  0.145E+00    0.01       1.0  T
  15   -371.0247624  0.512016E+00  0.224E+00    0.06       1.0  T
  16   -371.0031766  0.215858E-01  0.229E+00    0.06       1.0  T
  17   -371.0177131 -0.145365E-01  0.232E+00    0.02       1.0  T
  18   -371.7779046 -0.760191E+00  0.967E-01    0.00       1.0  T
  19   -370.8690696  0.908835E+00  0.273E+00    0.01       1.0  T
  20   -371.0770260 -0.207956E+00  0.256E+00    0.02       1.0  T
  21   -371.5820558 -0.505030E+00  0.162E+00    0.02       1.0  T
  22   -371.7889116 -0.206856E+00  0.141E+00    0.01       1.0  T
  23   -371.7794241  0.948751E-02  0.147E+00    0.01       1.0  T
  24   -371.6591304  0.120294E+00  0.191E+00    0.01       1.0  T
  25   -371.9126369 -0.253506E+00  0.170E+00    0.02       1.0  T
  26   -371.9119753  0.661643E-03  0.169E+00    0.02       1.0  T
  27   -371.9157974 -0.382212E-02  0.159E+00    0.02       1.0  T
  28   -371.2804134  0.635384E+00  0.230E+00    0.03       1.0  T
  29   -371.2814253 -0.101189E-02  0.231E+00    0.03       1.0  T
  30   -371.1279846  0.153441E+00  0.254E+00    0.07       1.0  T
  31   -371.2374644 -0.109480E+00  0.247E+00    0.05       1.0  T
  32   -371.2401554 -0.269097E-02  0.240E+00    0.03       1.0  T
  33   -371.5979828 -0.357827E+00  0.202E+00    0.02       1.0  T
  34   -371.6489965 -0.510137E-01  0.191E+00    0.02       1.0  T
  35   -371.6587693 -0.977284E-02  0.188E+00    0.01       1.0  T
  36   -371.5938032  0.649661E-01  0.186E+00    0.00       1.0  T
  37   -371.6257333 -0.319301E-01  0.172E+00    0.01       1.0  T
  38   -371.5674305  0.583028E-01  0.182E+00    0.02       1.0  T
  39   -371.7554414 -0.188011E+00  0.135E+00    0.03       1.0  T
  40   -371.7860197 -0.305782E-01  0.138E+00    0.04       1.0  T
  41   -371.8545845 -0.685648E-01  0.128E+00    0.05       1.0  T
  42   -371.8897913 -0.352068E-01  0.125E+00    0.06       1.0  T
  43   -371.8773191  0.124722E-01  0.127E+00    0.06       1.0  T
  44   -371.8774317 -0.112661E-03  0.127E+00    0.06       1.0  T
  45   -371.8803159 -0.288416E-02  0.117E+00    0.06       1.0  T
  46   -371.9627138 -0.823979E-01  0.653E-01    0.07       1.0  T
  47   -371.9855113 -0.227975E-01  0.455E-01    0.06       1.0  T
  48   -371.9648958  0.206155E-01  0.500E-01    0.07       1.0  T
  49   -371.9928352 -0.279394E-01  0.268E-01    0.06       1.0  T
  50   -371.9977996 -0.496446E-02  0.199E-01    0.07       1.0  T
  51   -371.9927083  0.509134E-02  0.215E-01    0.07       1.0  T
  52   -371.9943689 -0.166056E-02  0.193E-01    0.07       1.0  T
  53   -372.0004260 -0.605709E-02  0.119E-01    0.06       1.0  T
  54   -372.0000744  0.351578E-03  0.999E-02    0.07       1.0  T
  55   -372.0014966 -0.142222E-02  0.855E-02    0.06       1.0  T
  56   -372.0014426  0.540467E-04  0.108E-01    0.06       1.0  T
  57   -372.0014672 -0.246963E-04  0.825E-02    0.06       1.0  T
  58   -372.0019038 -0.436596E-03  0.399E-02    0.06       1.0  T
  59   -372.0018303  0.735263E-04  0.446E-02    0.06       1.0  T
  60   -372.0018745 -0.441989E-04  0.377E-02    0.06       1.0  T
  61   -372.0019734 -0.988912E-04  0.197E-02    0.06       1.0  T
  62   -372.0019869 -0.135197E-04  0.119E-02    0.06       1.0  T
  63   -372.0019978 -0.109189E-04  0.888E-03    0.06       1.0  T
  64   -372.0019983 -0.466584E-06  0.858E-03    0.06       1.0  T
  65   -372.0020078 -0.947183E-05  0.504E-03    0.06       1.4  T
  66   -372.0020129 -0.513639E-05  0.436E-03    0.06       1.6  T
  67   -372.0020138 -0.899502E-06  0.143E-03    0.06       4.9  T
  68   -372.0020140 -0.204890E-06  0.109E-03    0.06       6.5  T
  69   -372.0020140  0.746860E-08  0.128E-03    0.06       5.5  T
  70   -372.0020140 -0.274098E-07  0.100E-03    0.06       7.0  T
  71   -372.0020141 -0.945496E-07  0.619E-04    0.06      11.4  T
  72   -372.0020142 -0.346285E-07  0.325E-04    0.06      21.7  T
     SCC iter.                  ...        0 min,  8.792 sec
     gradient                   ...        0 min,  0.321 sec
 * total energy  :  -365.2831077 Eh     change       -0.6095202E-01 Eh
   gradient norm :     0.0789599 Eh/α   predicted    -0.5952714E-01 (  -2.34%)
   displ. norm   :     0.8648327 α      lambda       -0.5540834E-01
   maximum displ.:     0.2597313 α      in ANC's #209, #113, #159, ...

........................................................................
.............................. CYCLE    8 ..............................
........................................................................
   1   -371.9466212 -0.371947E+03  0.111E+00    0.13       0.0  T
   2   -364.3109360  0.763569E+01  0.541E+00    0.03       1.0  T
   3   -364.7323964 -0.421460E+00  0.585E+00    0.04       1.0  T
   4   -370.0792369 -0.534684E+01  0.336E+00    0.00       1.0  T
   5   -370.3728920 -0.293655E+00  0.285E+00    0.01       1.0  T
   6   -370.2187035  0.154189E+00  0.313E+00    0.01       1.0  T
   7   -369.6735169  0.545187E+00  0.363E+00    0.03       1.0  T
   8   -371.8347827 -0.216127E+01  0.125E+00    0.06       1.0  T
   9   -371.4912840  0.343499E+00  0.133E+00    0.03       1.0  T
  10   -368.4984346  0.299285E+01  0.440E+00    0.06       1.0  T
  11   -370.2256300 -0.172720E+01  0.343E+00    0.03       1.0  T
  12   -370.9665641 -0.740934E+00  0.251E+00    0.04       1.0  T
  13   -371.2529577 -0.286394E+00  0.227E+00    0.05       1.0  T
  14   -371.7503389 -0.497381E+00  0.136E+00    0.00       1.0  T
  15   -370.6143381  0.113600E+01  0.236E+00    0.01       1.0  T
  16   -371.4638935 -0.849555E+00  0.120E+00    0.02       1.0  T
  17   -371.8166860 -0.352793E+00  0.105E+00    0.03       1.0  T
  18   -371.6502159  0.166470E+00  0.127E+00    0.02       1.0  T
  19   -371.2404530  0.409763E+00  0.193E+00    0.05       1.0  T
  20   -371.3259621 -0.855091E-01  0.200E+00    0.03       1.0  T
  21   -371.8243842 -0.498422E+00  0.106E+00    0.02       1.0  T
  22   -371.8905451 -0.661609E-01  0.988E-01    0.05       1.0  T
  23   -371.9739457 -0.834006E-01  0.985E-01    0.10       1.0  T
  24   -371.9782818 -0.433607E-02  0.893E-01    0.09       1.0  T
  25   -372.0135176 -0.352358E-01  0.807E-01    0.09       1.0  T
  26   -372.0079456  0.557198E-02  0.813E-01    0.05       1.0  T
  27   -372.0059447  0.200094E-02  0.848E-01    0.05       1.0  T
  28   -372.0054297  0.514957E-03  0.794E-01    0.05       1.0  T
  29   -371.9943874  0.110423E-01  0.747E-01    0.04       1.0  T
  30   -371.9774589  0.169285E-01  0.799E-01    0.04       1.0  T
  31   -371.9661094  0.113495E-01  0.781E-01    0.03       1.0  T
  32   -371.9951073 -0.289979E-01  0.582E-01    0.04       1.0  T
  33   -371.9708934  0.242139E-01  0.594E-01    0.04       1.0  T
  34   -371.9946696 -0.237762E-01  0.522E-01    0.04       1.0  T
  35   -371.9829734  0.116962E-01  0.587E-01    0.04       1.0  T
  36   -372.0193713 -0.363979E-01  0.401E-01    0.05       1.0  T
  37   -372.0324465 -0.130752E-01  0.318E-01    0.06       1.0  T
  38   -372.0318766  0.569833E-03  0.331E-01    0.06       1.0  T
  39   -372.0318525  0.241622E-04  0.344E-01    0.06       1.0  T
  40   -372.0314280  0.424487E-03  0.351E-01    0.06       1.0  T
  41   -372.0294921  0.193585E-02  0.363E-01    0.06       1.0  T
  42   -372.0368668 -0.737465E-02  0.265E-01    0.07       1.0  T
  43   -372.0382817 -0.141488E-02  0.183E-01    0.08       1.0  T
  44   -372.0376121  0.669563E-03  0.185E-01    0.07       1.0  T
  45   -372.0375839  0.281555E-04  0.184E-01    0.07       1.0  T
  46   -372.0381717 -0.587788E-03  0.157E-01    0.07       1.0  T
  47   -372.0383407 -0.168963E-03  0.124E-01    0.07       1.0  T
  48   -372.0392297 -0.888995E-03  0.892E-02    0.08       1.0  T
  49   -372.0399045 -0.674770E-03  0.811E-02    0.08       1.0  T
  50   -372.0398621  0.423095E-04  0.812E-02    0.08       1.0  T
  51   -372.0398499  0.122268E-04  0.787E-02    0.08       1.0  T
  52   -372.0402576 -0.407672E-03  0.628E-02    0.08       1.0  T
  53   -372.0404382 -0.180646E-03  0.569E-02    0.08       1.0  T
  54   -372.0404452 -0.698154E-05  0.564E-02    0.08       1.0  T
  55   -372.0405810 -0.135742E-03  0.466E-02    0.08       1.0  T
  56   -372.0407293 -0.148382E-03  0.334E-02    0.08       1.0  T
  57   -372.0407429 -0.135733E-04  0.267E-02    0.08       1.0  T
  58   -372.0407345  0.838769E-05  0.246E-02    0.08       1.0  T
  59   -372.0407233  0.112699E-04  0.215E-02    0.08       1.0  T
  60   -372.0407229  0.363826E-06  0.208E-02    0.08       1.0  T
  61   -372.0407260 -0.311552E-05  0.189E-02    0.08       1.0  T
  62   -372.0407365 -0.104578E-04  0.154E-02    0.08       1.0  T
  63   -372.0407463 -0.978278E-05  0.107E-02    0.08       1.0  T
  64   -372.0407517 -0.547825E-05  0.634E-03    0.08       1.1  T
  65   -372.0407535 -0.180741E-05  0.409E-03    0.08       1.7  T
  66   -372.0407541 -0.560514E-06  0.288E-03    0.08       2.5  T
  67   -372.0407540  0.116414E-06  0.174E-03    0.08       4.0  T
  68   -372.0407543 -0.344019E-06  0.894E-04    0.08       7.9  T
  69   -372.0407544 -0.110740E-06  0.557E-04    0.08      12.7  T
     SCC iter.                  ...        0 min,  8.438 sec
     gradient                   ...        0 min,  0.322 sec
 * total energy  :  -365.3316421 Eh     change       -0.4853443E-01 Eh
   gradient norm :     0.0598354 Eh/α   predicted    -0.4842513E-01 (  -0.23%)
   displ. norm   :     0.8415373 α      lambda       -0.4126588E-01
   maximum displ.:     0.2476415 α      in ANC's #113, #111, #110, ...

........................................................................
.............................. CYCLE    9 ..............................
........................................................................
   1   -372.0088696 -0.372009E+03  0.839E-01    0.14       0.0  T
   2   -368.0644056  0.394446E+01  0.476E+00    0.05       1.0  T
   3   -368.8060671 -0.741662E+00  0.445E+00    0.08       1.0  T
   4   -371.8026573 -0.299659E+01  0.115E+00    0.10       1.0  T
   5   -370.2197799  0.158288E+01  0.336E+00    0.05       1.0  T
   6   -371.2736442 -0.105386E+01  0.261E+00    0.07       1.0  T
   7   -371.9781862 -0.704542E+00  0.752E-01    0.04       1.0  T
   8   -370.9779172  0.100027E+01  0.233E+00    0.01       1.0  T
   9   -371.9817245 -0.100381E+01  0.605E-01    0.05       1.0  T
  10   -371.9860530 -0.432845E-02  0.778E-01    0.06       1.0  T
  11   -371.5706304  0.415423E+00  0.214E+00    0.01       1.0  T
  12   -371.5572023  0.134280E-01  0.214E+00    0.01       1.0  T
  13   -371.4798106  0.773917E-01  0.233E+00    0.01       1.0  T
  14   -371.1860396  0.293771E+00  0.266E+00    0.01       1.0  T
  15   -371.2053999 -0.193603E-01  0.266E+00    0.01       1.0  T
  16   -371.2001887  0.521120E-02  0.264E+00    0.01       1.0  T
  17   -371.3697024 -0.169514E+00  0.237E+00    0.01       1.0  T
  18   -371.9302375 -0.560535E+00  0.958E-01    0.09       1.0  T
  19   -372.0311046 -0.100867E+00  0.943E-01    0.12       1.0  T
  20   -372.0204463  0.106583E-01  0.863E-01    0.06       1.0  T
  21   -371.9694254  0.510209E-01  0.911E-01    0.05       1.0  T
  22   -372.0537218 -0.842964E-01  0.615E-01    0.10       1.0  T
  23   -372.0559526 -0.223078E-02  0.506E-01    0.10       1.0  T
  24   -372.0604426 -0.448997E-02  0.461E-01    0.10       1.0  T
  25   -372.0646720 -0.422949E-02  0.312E-01    0.08       1.0  T
  26   -372.0558009  0.887117E-02  0.227E-01    0.07       1.0  T
  27   -372.0691497 -0.133488E-01  0.160E-01    0.09       1.0  T
  28   -372.0697827 -0.633015E-03  0.191E-01    0.09       1.0  T
  29   -372.0687011  0.108163E-02  0.123E-01    0.08       1.0  T
  30   -372.0688027 -0.101649E-03  0.121E-01    0.08       1.0  T
  31   -372.0702491 -0.144640E-02  0.115E-01    0.09       1.0  T
  32   -372.0703491 -0.999722E-04  0.998E-02    0.09       1.0  T
  33   -372.0700322  0.316934E-03  0.741E-02    0.09       1.0  T
  34   -372.0704943 -0.462180E-03  0.631E-02    0.09       1.0  T
  35   -372.0707465 -0.252164E-03  0.652E-02    0.09       1.0  T
  36   -372.0707996 -0.531126E-04  0.623E-02    0.09       1.0  T
  37   -372.0708476 -0.479909E-04  0.592E-02    0.09       1.0  T
  38   -372.0708793 -0.316476E-04  0.564E-02    0.09       1.0  T
  39   -372.0708936 -0.143620E-04  0.473E-02    0.09       1.0  T
  40   -372.0709071 -0.134300E-04  0.396E-02    0.09       1.0  T
  41   -372.0709237 -0.166526E-04  0.307E-02    0.09       1.0  T
  42   -372.0709298 -0.606435E-05  0.190E-02    0.09       1.0  T
  43   -372.0709336 -0.382730E-05  0.126E-02    0.09       1.0  T
  44   -372.0709323  0.130616E-05  0.100E-02    0.09       1.0  T
  45   -372.0709329 -0.619831E-06  0.783E-03    0.09       1.0  T
  46   -372.0709339 -0.959263E-06  0.614E-03    0.09       1.1  T
  47   -372.0709342 -0.366635E-06  0.555E-03    0.09       1.3  T
  48   -372.0709344 -0.149677E-06  0.450E-03    0.09       1.6  T
  49   -372.0709351 -0.673838E-06  0.291E-03    0.09       2.4  T
  50   -372.0709357 -0.595633E-06  0.187E-03    0.09       3.8  T
  51   -372.0709358 -0.123957E-06  0.151E-03    0.09       4.7  T
  52   -372.0709359 -0.983955E-07  0.125E-03    0.09       5.7  T
  53   -372.0709360 -0.106119E-06  0.908E-04    0.09       7.8  T
  54   -372.0709361 -0.700924E-07  0.627E-04    0.09      11.2  T
     SCC iter.                  ...        0 min,  6.681 sec
     gradient                   ...        0 min,  0.354 sec
 * total energy  :  -365.3667941 Eh     change       -0.3515194E-01 Eh
   gradient norm :     0.0440898 Eh/α   predicted    -0.3524491E-01 (   0.26%)
   displ. norm   :     0.8103593 α      lambda       -0.2847659E-01
   maximum displ.:     0.2326033 α      in ANC's #39, #111, #113, ...

........................................................................
.............................. CYCLE   10 ..............................
........................................................................
   1   -372.0651280 -0.372065E+03  0.629E-01    0.14       0.0  T
   2   -368.7675438  0.329758E+01  0.490E+00    0.16       1.0  T
   3   -369.4740590 -0.706515E+00  0.424E+00    0.02       1.0  T
   4   -372.0159103 -0.254185E+01  0.757E-01    0.11       1.0  T
   5   -371.6879752  0.327935E+00  0.158E+00    0.01       1.0  T
   6   -371.1925575  0.495418E+00  0.290E+00    0.02       1.0  T
   7   -371.0083936  0.184164E+00  0.307E+00    0.01       1.0  T
   8   -370.9984293  0.996431E-02  0.299E+00    0.08       1.0  T
   9   -371.1569910 -0.158562E+00  0.281E+00    0.02       1.0  T
  10   -371.1230896  0.339014E-01  0.287E+00    0.04       1.0  T
  11   -371.2603291 -0.137239E+00  0.272E+00    0.01       1.0  T
  12   -371.8878105 -0.627481E+00  0.113E+00    0.19       1.0  T
  13   -371.8618243  0.259862E-01  0.106E+00    0.06       1.0  T
  14   -371.8248953  0.369290E-01  0.126E+00    0.05       1.0  T
  15   -371.9890552 -0.164160E+00  0.109E+00    0.17       1.0  T
  16   -371.9904273 -0.137217E-02  0.105E+00    0.15       1.0  T
  17   -372.0484907 -0.580634E-01  0.944E-01    0.13       1.0  T
  18   -372.0406030  0.788770E-02  0.935E-01    0.13       1.0  T
  19   -372.0556480 -0.150450E-01  0.875E-01    0.11       1.0  T
  20   -372.0603524 -0.470438E-02  0.815E-01    0.12       1.0  T
  21   -372.0627706 -0.241825E-02  0.755E-01    0.10       1.0  T
  22   -372.0641025 -0.133185E-02  0.724E-01    0.10       1.0  T
  23   -372.0833786 -0.192761E-01  0.452E-01    0.11       1.0  T
  24   -372.0905497 -0.717113E-02  0.182E-01    0.10       1.0  T
  25   -372.0917146 -0.116494E-02  0.148E-01    0.10       1.0  T
  26   -372.0918739 -0.159237E-03  0.212E-01    0.10       1.0  T
  27   -372.0917358  0.138072E-03  0.200E-01    0.10       1.0  T
  28   -372.0923896 -0.653782E-03  0.134E-01    0.10       1.0  T
  29   -372.0926967 -0.307061E-03  0.817E-02    0.10       1.0  T
  30   -372.0926756  0.210749E-04  0.100E-01    0.10       1.0  T
  31   -372.0928325 -0.156898E-03  0.743E-02    0.10       1.0  T
  32   -372.0925617  0.270754E-03  0.106E-01    0.10       1.0  T
  33   -372.0927674 -0.205718E-03  0.766E-02    0.10       1.0  T
  34   -372.0927192  0.481954E-04  0.755E-02    0.10       1.0  T
  35   -372.0927720 -0.527488E-04  0.594E-02    0.10       1.0  T
  36   -372.0928729 -0.100924E-03  0.347E-02    0.10       1.0  T
  37   -372.0928813 -0.834643E-05  0.261E-02    0.10       1.0  T
  38   -372.0929075 -0.262613E-04  0.215E-02    0.10       1.0  T
  39   -372.0929367 -0.291351E-04  0.132E-02    0.10       1.0  T
  40   -372.0929493 -0.126231E-04  0.793E-03    0.10       1.0  T
  41   -372.0929537 -0.438210E-05  0.628E-03    0.10       1.1  T
  42   -372.0929592 -0.555598E-05  0.264E-03    0.10       2.7  T
  43   -372.0929602 -0.102477E-05  0.176E-03    0.10       4.0  T
  44   -372.0929606 -0.368713E-06  0.137E-03    0.10       5.2  T
  45   -372.0929608 -0.188549E-06  0.107E-03    0.10       6.6  T
  46   -372.0929609 -0.124835E-06  0.721E-04    0.10       9.8  T
  47   -372.0929610 -0.413964E-07  0.567E-04    0.10      12.4  T
     SCC iter.                  ...        0 min,  5.747 sec
     gradient                   ...        0 min,  0.323 sec
 * total energy  :  -365.3906026 Eh     change       -0.2380856E-01 Eh
   gradient norm :     0.0328031 Eh/α   predicted    -0.2358837E-01 (  -0.92%)
   displ. norm   :     0.8079120 α      lambda       -0.1958431E-01
   maximum displ.:     0.2944126 α      in ANC's #39, #32, #42, ...

........................................................................
.............................. CYCLE   11 ..............................
........................................................................
   1   -372.1029840 -0.372103E+03  0.485E-01    0.13       0.0  T
   2   -369.5220368  0.258095E+01  0.486E+00    0.15       1.0  T
   3   -370.5921652 -0.107013E+01  0.318E+00    0.00       1.0  T
   4   -370.6758687 -0.837035E-01  0.357E+00    0.05       1.0  T
   5   -370.8111061 -0.135237E+00  0.324E+00    0.10       1.0  T
   6   -369.7053880  0.110572E+01  0.419E+00    0.09       1.0  T
   7   -371.3709843 -0.166560E+01  0.213E+00    0.01       1.0  T
   8   -370.8513410  0.519643E+00  0.296E+00    0.09       1.0  T
   9   -371.9921770 -0.114084E+01  0.966E-01    0.10       1.0  T
  10   -371.7126837  0.279493E+00  0.158E+00    0.01       1.0  T
  11   -372.0412982 -0.328614E+00  0.856E-01    0.07       1.0  T
  12   -372.0422654 -0.967180E-03  0.983E-01    0.15       1.0  T
  13   -372.0599168 -0.176514E-01  0.104E+00    0.18       1.0  T
  14   -372.0653331 -0.541626E-02  0.853E-01    0.12       1.0  T
  15   -372.0848731 -0.195400E-01  0.673E-01    0.11       1.0  T
  16   -372.0576183  0.272547E-01  0.648E-01    0.08       1.0  T
  17   -371.7824616  0.275157E+00  0.176E+00    0.01       1.0  T
  18   -372.0948992 -0.312438E+00  0.760E-01    0.14       1.0  T
  19   -372.0873179  0.758130E-02  0.764E-01    0.17       1.0  T
  20   -372.0936101 -0.629219E-02  0.664E-01    0.16       1.0  T
  21   -372.0967017 -0.309169E-02  0.563E-01    0.14       1.0  T
  22   -372.0980770 -0.137524E-02  0.528E-01    0.13       1.0  T
  23   -372.0960610  0.201600E-02  0.440E-01    0.09       1.0  T
  24   -372.0947689  0.129212E-02  0.454E-01    0.09       1.0  T
  25   -372.1008313 -0.606241E-02  0.412E-01    0.12       1.0  T
  26   -372.1044758 -0.364450E-02  0.340E-01    0.11       1.0  T
  27   -372.1068754 -0.239961E-02  0.267E-01    0.11       1.0  T
  28   -372.1074440 -0.568591E-03  0.243E-01    0.11       1.0  T
  29   -372.1094432 -0.199923E-02  0.150E-01    0.11       1.0  T
  30   -372.1100956 -0.652398E-03  0.102E-01    0.11       1.0  T
  31   -372.1101832 -0.875973E-04  0.709E-02    0.11       1.0  T
  32   -372.1101304  0.527829E-04  0.787E-02    0.11       1.0  T
  33   -372.1101295  0.889454E-06  0.693E-02    0.11       1.0  T
  34   -372.1101285  0.987016E-06  0.684E-02    0.11       1.0  T
  35   -372.1101241  0.440296E-05  0.741E-02    0.11       1.0  T
  36   -372.1101402 -0.160745E-04  0.678E-02    0.11       1.0  T
  37   -372.1101536 -0.134006E-04  0.606E-02    0.11       1.0  T
  38   -372.1102031 -0.495168E-04  0.538E-02    0.11       1.0  T
  39   -372.1102341 -0.310148E-04  0.393E-02    0.11       1.0  T
  40   -372.1102442 -0.100553E-04  0.280E-02    0.11       1.0  T
  41   -372.1102555 -0.113056E-04  0.178E-02    0.11       1.0  T
  42   -372.1102591 -0.362647E-05  0.105E-02    0.11       1.0  T
  43   -372.1102612 -0.207355E-05  0.331E-03    0.11       2.1  T
  44   -372.1102615 -0.257085E-06  0.140E-03    0.11       5.1  T
  45   -372.1102615 -0.250906E-07  0.699E-04    0.11      10.1  T
  46   -372.1102615 -0.691136E-08  0.292E-04    0.11      24.2  T
     SCC iter.                  ...        0 min,  5.585 sec
     gradient                   ...        0 min,  0.321 sec
 * total energy  :  -365.4075141 Eh     change       -0.1691148E-01 Eh
   gradient norm :     0.0272570 Eh/α   predicted    -0.1618374E-01 (  -4.30%)
   displ. norm   :     0.8639516 α      lambda       -0.1637991E-01
   maximum displ.:     0.3632384 α      in ANC's #32, #39, #42, ...

........................................................................
.............................. CYCLE   12 ..............................
........................................................................
   1   -372.1186010 -0.372119E+03  0.531E-01    0.13       0.0  T
   2   -370.7446168  0.137398E+01  0.404E+00    0.06       1.0  T
   3   -371.7768208 -0.103220E+01  0.136E+00    0.09       1.0  T
   4   -368.5555887  0.322123E+01  0.494E+00    0.03       1.0  T
   5   -369.5781550 -0.102257E+01  0.462E+00    0.17       1.0  T
   6   -369.9323115 -0.354156E+00  0.389E+00    0.01       1.0  T
   7   -370.1743386 -0.242027E+00  0.403E+00    0.04       1.0  T
   8   -370.7230448 -0.548706E+00  0.355E+00    0.01       1.0  T
   9   -371.1483634 -0.425319E+00  0.296E+00    0.03       1.0  T
  10   -372.0021499 -0.853786E+00  0.947E-01    0.06       1.0  T
  11   -372.1034585 -0.101309E+00  0.721E-01    0.15       1.0  T
  12   -372.0901429  0.133156E-01  0.741E-01    0.17       1.0  T
  13   -372.0892195  0.923454E-03  0.632E-01    0.15       1.0  T
  14   -372.0847292  0.449032E-02  0.663E-01    0.14       1.0  T
  15   -372.0983409 -0.136117E-01  0.590E-01    0.16       1.0  T
  16   -372.0940174  0.432348E-02  0.599E-01    0.15       1.0  T
  17   -372.0897832  0.423425E-02  0.619E-01    0.16       1.0  T
  18   -372.0919783 -0.219511E-02  0.558E-01    0.16       1.0  T
  19   -372.1030425 -0.110642E-01  0.520E-01    0.18       1.0  T
  20   -372.1090952 -0.605266E-02  0.455E-01    0.17       1.0  T
  21   -372.1113105 -0.221530E-02  0.398E-01    0.16       1.0  T
  22   -372.1183943 -0.708385E-02  0.279E-01    0.14       1.0  T
  23   -372.1206734 -0.227910E-02  0.233E-01    0.13       1.0  T
  24   -372.1245170 -0.384363E-02  0.145E-01    0.12       1.0  T
  25   -372.1264996 -0.198251E-02  0.410E-02    0.12       1.0  T
  26   -372.1263958  0.103780E-03  0.480E-02    0.12       1.0  T
  27   -372.1264783 -0.825382E-04  0.337E-02    0.11       1.0  T
  28   -372.1264467  0.316119E-04  0.310E-02    0.11       1.0  T
  29   -372.1265342 -0.874684E-04  0.254E-02    0.11       1.0  T
  30   -372.1265488 -0.145968E-04  0.238E-02    0.11       1.0  T
  31   -372.1265693 -0.204920E-04  0.182E-02    0.11       1.0  T
  32   -372.1265673  0.199534E-05  0.163E-02    0.11       1.0  T
  33   -372.1265754 -0.812266E-05  0.136E-02    0.11       1.0  T
  34   -372.1265789 -0.352762E-05  0.113E-02    0.11       1.0  T
  35   -372.1265840 -0.509784E-05  0.813E-03    0.11       1.0  T
  36   -372.1265874 -0.336540E-05  0.508E-03    0.11       1.4  T
  37   -372.1265889 -0.151163E-05  0.268E-03    0.11       2.6  T
  38   -372.1265893 -0.375897E-06  0.155E-03    0.11       4.6  T
  39   -372.1265893 -0.428051E-07  0.135E-03    0.11       5.2  T
  40   -372.1265893 -0.372028E-07  0.989E-04    0.11       7.1  T
  41   -372.1265894 -0.382315E-07  0.532E-04    0.11      13.3  T
     SCC iter.                  ...        0 min,  4.984 sec
     gradient                   ...        0 min,  0.323 sec
 * total energy  :  -365.4230162 Eh     change       -0.1550209E-01 Eh
   gradient norm :     0.0272073 Eh/α   predicted    -0.1430307E-01 (  -7.73%)
   displ. norm   :     0.9469736 α      lambda       -0.1763711E-01
   maximum displ.:     0.4236840 α      in ANC's #32, #39, #19, ...

........................................................................
.............................. CYCLE   13 ..............................
........................................................................
   1   -372.1224289 -0.372122E+03  0.731E-01    0.14       0.0  T
   2   -370.5575950  0.156483E+01  0.265E+00    0.04       1.0  T
   3   -368.7302034  0.182739E+01  0.484E+00    0.01       1.0  T
   4   -368.5908013  0.139402E+00  0.437E+00    0.01       1.0  T
   5   -367.6755052  0.915296E+00  0.494E+00    0.05       1.0  T
   6   -369.1665815 -0.149108E+01  0.457E+00    0.08       1.0  T
   7   -368.9926037  0.173978E+00  0.409E+00    0.01       1.0  T
   8   -370.3593838 -0.136678E+01  0.352E+00    0.06       1.0  T
   9   -369.0651898  0.129419E+01  0.374E+00    0.01       1.0  T
  10   -369.3124996 -0.247310E+00  0.430E+00    0.01       1.0  T
  11   -369.4663041 -0.153805E+00  0.421E+00    0.00       1.0  T
  12   -368.7204920  0.745812E+00  0.453E+00    0.01       1.0  T
  13   -365.3108014  0.340969E+01  0.657E+00    0.04       1.0  T
  14   -368.8661570 -0.355536E+01  0.593E+00    0.00       1.0  T
  15   -368.9762947 -0.110138E+00  0.554E+00    0.02       1.0  T
  16   -367.6073103  0.136898E+01  0.516E+00    0.05       1.0  T
  17   -369.4889761 -0.188167E+01  0.504E+00    0.06       1.0  T
  18   -369.4535079  0.354682E-01  0.493E+00    0.18       1.0  T
  19   -369.4401189  0.133889E-01  0.424E+00    0.02       1.0  T
  20   -369.4824621 -0.423431E-01  0.330E+00    0.03       1.0  T
  21   -372.0576088 -0.257515E+01  0.238E+00    0.10       1.0  T
  22   -372.0680150 -0.104062E-01  0.160E+00    0.06       1.0  T
  23   -371.8562514  0.211764E+00  0.127E+00    0.00       1.0  T
  24   -372.0776673 -0.221416E+00  0.105E+00    0.09       1.0  T
  25   -371.9461328  0.131535E+00  0.100E+00    0.03       1.0  T
  26   -372.0410114 -0.948787E-01  0.755E-01    0.05       1.0  T
  27   -372.1053382 -0.643268E-01  0.486E-01    0.08       1.0  T
  28   -372.1315328 -0.261947E-01  0.276E-01    0.10       1.0  T
  29   -372.1340190 -0.248619E-02  0.324E-01    0.10       1.0  T
  30   -372.1345329 -0.513845E-03  0.389E-01    0.09       1.0  T
  31   -372.1393066 -0.477371E-02  0.151E-01    0.10       1.0  T
  32   -372.1410429 -0.173635E-02  0.926E-02    0.11       1.0  T
  33   -372.1411605 -0.117530E-03  0.670E-02    0.12       1.0  T
  34   -372.1408385  0.321997E-03  0.825E-02    0.12       1.0  T
  35   -372.1409821 -0.143591E-03  0.645E-02    0.12       1.0  T
  36   -372.1411635 -0.181427E-03  0.484E-02    0.11       1.0  T
  37   -372.1411757 -0.122109E-04  0.513E-02    0.11       1.0  T
  38   -372.1413984 -0.222667E-03  0.404E-02    0.12       1.0  T
  39   -372.1413664  0.320062E-04  0.496E-02    0.12       1.0  T
  40   -372.1414384 -0.720946E-04  0.316E-02    0.12       1.0  T
  41   -372.1414012  0.372569E-04  0.305E-02    0.12       1.0  T
  42   -372.1414650 -0.637857E-04  0.223E-02    0.12       1.0  T
  43   -372.1415042 -0.392639E-04  0.198E-02    0.12       1.0  T
  44   -372.1415009  0.333086E-05  0.197E-02    0.12       1.0  T
  45   -372.1415185 -0.176248E-04  0.199E-02    0.12       1.0  T
  46   -372.1415449 -0.263830E-04  0.189E-02    0.12       1.0  T
  47   -372.1415594 -0.145024E-04  0.174E-02    0.12       1.0  T
  48   -372.1415648 -0.540728E-05  0.159E-02    0.12       1.0  T
  49   -372.1415708 -0.593436E-05  0.139E-02    0.12       1.0  T
  50   -372.1415765 -0.576988E-05  0.110E-02    0.12       1.0  T
  51   -372.1415801 -0.359685E-05  0.804E-03    0.12       1.0  T
  52   -372.1415818 -0.170425E-05  0.575E-03    0.12       1.2  T
  53   -372.1415836 -0.177129E-05  0.388E-03    0.12       1.8  T
  54   -372.1415842 -0.555241E-06  0.302E-03    0.12       2.3  T
  55   -372.1415849 -0.744863E-06  0.204E-03    0.12       3.5  T
  56   -372.1415855 -0.605557E-06  0.148E-03    0.12       4.8  T
  57   -372.1415859 -0.404875E-06  0.115E-03    0.12       6.1  T
  58   -372.1415861 -0.213328E-06  0.115E-03    0.12       6.1  T
  59   -372.1415863 -0.141122E-06  0.947E-04    0.12       7.4  T
  60   -372.1415863 -0.605691E-07  0.803E-04    0.12       8.8  T
     SCC iter.                  ...        0 min,  7.364 sec
     gradient                   ...        0 min,  0.357 sec
 * total energy  :  -365.4408428 Eh     change       -0.1782656E-01 Eh
   gradient norm :     0.0313435 Eh/α   predicted    -0.1672668E-01 (  -6.17%)
   displ. norm   :     0.9252299 α      lambda       -0.1873583E-01
   maximum displ.:     0.4409515 α      in ANC's #32, #19, #39, ...

........................................................................
.............................. CYCLE   14 ..............................
........................................................................
   1   -372.1217356 -0.372122E+03  0.651E-01    0.13       0.0  T
   2   -370.1893581  0.193238E+01  0.290E+00    0.05       1.0  T
   3   -369.6617451  0.527613E+00  0.426E+00    0.01       1.0  T
   4   -368.5155209  0.114622E+01  0.386E+00    0.06       1.0  T
   5   -368.4275861  0.879348E-01  0.394E+00    0.05       1.0  T
   6   -368.1624659  0.265120E+00  0.474E+00    0.08       1.0  T
   7   -367.5550214  0.607444E+00  0.490E+00    0.11       1.0  T
   8   -369.2572485 -0.170223E+01  0.449E+00    0.20       1.0  T
   9   -368.0704708  0.118678E+01  0.485E+00    0.04       1.0  T
  10   -368.1312121 -0.607413E-01  0.478E+00    0.04       1.0  T
  11   -368.5049745 -0.373762E+00  0.470E+00    0.01       1.0  T
  12   -368.7194768 -0.214502E+00  0.467E+00    0.03       1.0  T
  13   -367.0197801  0.169970E+01  0.499E+00    0.01       1.0  T
  14   -368.5468782 -0.152710E+01  0.472E+00    0.08       1.0  T
  15   -362.1942019  0.635268E+01  0.848E+00    0.03       1.0  T
  16   -362.3504374 -0.156235E+00  0.841E+00    0.03       1.0  T
  17   -362.2710447  0.793927E-01  0.830E+00    0.02       1.0  T
  18   -362.2433351  0.277096E-01  0.834E+00    0.02       1.0  T
  19   -362.0795385  0.163797E+00  0.780E+00    0.03       1.0  T
  20   -361.9381938  0.141345E+00  0.775E+00    0.03       1.0  T
  21   -362.6786538 -0.740460E+00  0.723E+00    0.06       1.0  T
  22   -368.4921513 -0.581350E+01  0.652E+00    0.00       1.0  T
  23   -371.9795326 -0.348738E+01  0.294E+00    0.06       1.0  T
  24   -371.9069556  0.725770E-01  0.182E+00    0.03       1.0  T
  25   -372.1251774 -0.218222E+00  0.147E+00    0.16       1.0  T
  26   -371.7963351  0.328842E+00  0.200E+00    0.02       1.0  T
  27   -371.8749377 -0.786026E-01  0.183E+00    0.04       1.0  T
  28   -371.9949650 -0.120027E+00  0.933E-01    0.06       1.0  T
  29   -371.9531746  0.417905E-01  0.104E+00    0.05       1.0  T
  30   -371.9507254  0.244922E-02  0.100E+00    0.05       1.0  T
  31   -372.0991689 -0.148444E+00  0.809E-01    0.10       1.0  T
  32   -372.0986651  0.503820E-03  0.817E-01    0.09       1.0  T
  33   -372.0999421 -0.127701E-02  0.660E-01    0.09       1.0  T
  34   -372.0002996  0.996424E-01  0.108E+00    0.04       1.0  T
  35   -372.1237677 -0.123468E+00  0.349E-01    0.12       1.0  T
[...]
 545: 10.59 546:260.83 547:466.80 548:  7.32 549:  3.55 550: 53.03 551:  5.91 552:******
 553:533.12 554:210.36 555: 12.39 556: 18.64 557: 54.97 558: 15.39 559:411.55 560: 17.32
 561:****** 562: 29.51 563:****** 564:187.86 565:****** 566:****** 567:****** 568:******
 569:927.93 570:535.45 571: 42.37 572:****** 573:****** 574:****** 575:447.64 576:******
 577:****** 578: 27.14 579:****** 580:****** 581:****** 582:****** 583: 32.78 584:******
 585: 70.70 586:****** 587:****** 588:721.26 589:****** 590: 23.03 591:****** 592:736.09
 593:****** 594:****** 595:****** 596:272.42 597:****** 598:****** 599:****** 600:******
 601:****** 602:****** 603:******
 Raman intensities (amu)
   1:  0.00   2:  0.00   3:  0.00   4:  0.00   5:  0.00   6:  0.00   7:  0.00   8:  0.00
   9:  0.00  10:  0.00  11:  0.00  12:  0.00  13:  0.00  14:  0.00  15:  0.00  16:  0.00
  17:  0.00  18:  0.00  19:  0.00  20:  0.00  21:  0.00  22:  0.00  23:  0.00  24:  0.00
  25:  0.00  26:  0.00  27:  0.00  28:  0.00  29:  0.00  30:  0.00  31:  0.00  32:  0.00
  33:  0.00  34:  0.00  35:  0.00  36:  0.00  37:  0.00  38:  0.00  39:  0.00  40:  0.00
  41:  0.00  42:  0.00  43:  0.00  44:  0.00  45:  0.00  46:  0.00  47:  0.00  48:  0.00
  49:  0.00  50:  0.00  51:  0.00  52:  0.00  53:  0.00  54:  0.00  55:  0.00  56:  0.00
  57:  0.00  58:  0.00  59:  0.00  60:  0.00  61:  0.00  62:  0.00  63:  0.00  64:  0.00
  65:  0.00  66:  0.00  67:  0.00  68:  0.00  69:  0.00  70:  0.00  71:  0.00  72:  0.00
  73:  0.00  74:  0.00  75:  0.00  76:  0.00  77:  0.00  78:  0.00  79:  0.00  80:  0.00
  81:  0.00  82:  0.00  83:  0.00  84:  0.00  85:  0.00  86:  0.00  87:  0.00  88:  0.00
  89:  0.00  90:  0.00  91:  0.00  92:  0.00  93:  0.00  94:  0.00  95:  0.00  96:  0.00
  97:  0.00  98:  0.00  99:  0.00 100:  0.00 101:  0.00 102:  0.00 103:  0.00 104:  0.00
 105:  0.00 106:  0.00 107:  0.00 108:  0.00 109:  0.00 110:  0.00 111:  0.00 112:  0.00
 113:  0.00 114:  0.00 115:  0.00 116:  0.00 117:  0.00 118:  0.00 119:  0.00 120:  0.00
 121:  0.00 122:  0.00 123:  0.00 124:  0.00 125:  0.00 126:  0.00 127:  0.00 128:  0.00
 129:  0.00 130:  0.00 131:  0.00 132:  0.00 133:  0.00 134:  0.00 135:  0.00 136:  0.00
 137:  0.00 138:  0.00 139:  0.00 140:  0.00 141:  0.00 142:  0.00 143:  0.00 144:  0.00
 145:  0.00 146:  0.00 147:  0.00 148:  0.00 149:  0.00 150:  0.00 151:  0.00 152:  0.00
 153:  0.00 154:  0.00 155:  0.00 156:  0.00 157:  0.00 158:  0.00 159:  0.00 160:  0.00
 161:  0.00 162:  0.00 163:  0.00 164:  0.00 165:  0.00 166:  0.00 167:  0.00 168:  0.00
 169:  0.00 170:  0.00 171:  0.00 172:  0.00 173:  0.00 174:  0.00 175:  0.00 176:  0.00
 177:  0.00 178:  0.00 179:  0.00 180:  0.00 181:  0.00 182:  0.00 183:  0.00 184:  0.00
 185:  0.00 186:  0.00 187:  0.00 188:  0.00 189:  0.00 190:  0.00 191:  0.00 192:  0.00
 193:  0.00 194:  0.00 195:  0.00 196:  0.00 197:  0.00 198:  0.00 199:  0.00 200:  0.00
 201:  0.00 202:  0.00 203:  0.00 204:  0.00 205:  0.00 206:  0.00 207:  0.00 208:  0.00
 209:  0.00 210:  0.00 211:  0.00 212:  0.00 213:  0.00 214:  0.00 215:  0.00 216:  0.00
 217:  0.00 218:  0.00 219:  0.00 220:  0.00 221:  0.00 222:  0.00 223:  0.00 224:  0.00
 225:  0.00 226:  0.00 227:  0.00 228:  0.00 229:  0.00 230:  0.00 231:  0.00 232:  0.00
 233:  0.00 234:  0.00 235:  0.00 236:  0.00 237:  0.00 238:  0.00 239:  0.00 240:  0.00
 241:  0.00 242:  0.00 243:  0.00 244:  0.00 245:  0.00 246:  0.00 247:  0.00 248:  0.00
 249:  0.00 250:  0.00 251:  0.00 252:  0.00 253:  0.00 254:  0.00 255:  0.00 256:  0.00
 257:  0.00 258:  0.00 259:  0.00 260:  0.00 261:  0.00 262:  0.00 263:  0.00 264:  0.00
 265:  0.00 266:  0.00 267:  0.00 268:  0.00 269:  0.00 270:  0.00 271:  0.00 272:  0.00
 273:  0.00 274:  0.00 275:  0.00 276:  0.00 277:  0.00 278:  0.00 279:  0.00 280:  0.00
 281:  0.00 282:  0.00 283:  0.00 284:  0.00 285:  0.00 286:  0.00 287:  0.00 288:  0.00
 289:  0.00 290:  0.00 291:  0.00 292:  0.00 293:  0.00 294:  0.00 295:  0.00 296:  0.00
 297:  0.00 298:  0.00 299:  0.00 300:  0.00 301:  0.00 302:  0.00 303:  0.00 304:  0.00
 305:  0.00 306:  0.00 307:  0.00 308:  0.00 309:  0.00 310:  0.00 311:  0.00 312:  0.00
 313:  0.00 314:  0.00 315:  0.00 316:  0.00 317:  0.00 318:  0.00 319:  0.00 320:  0.00
 321:  0.00 322:  0.00 323:  0.00 324:  0.00 325:  0.00 326:  0.00 327:  0.00 328:  0.00
 329:  0.00 330:  0.00 331:  0.00 332:  0.00 333:  0.00 334:  0.00 335:  0.00 336:  0.00
 337:  0.00 338:  0.00 339:  0.00 340:  0.00 341:  0.00 342:  0.00 343:  0.00 344:  0.00
 345:  0.00 346:  0.00 347:  0.00 348:  0.00 349:  0.00 350:  0.00 351:  0.00 352:  0.00
 353:  0.00 354:  0.00 355:  0.00 356:  0.00 357:  0.00 358:  0.00 359:  0.00 360:  0.00
 361:  0.00 362:  0.00 363:  0.00 364:  0.00 365:  0.00 366:  0.00 367:  0.00 368:  0.00
 369:  0.00 370:  0.00 371:  0.00 372:  0.00 373:  0.00 374:  0.00 375:  0.00 376:  0.00
 377:  0.00 378:  0.00 379:  0.00 380:  0.00 381:  0.00 382:  0.00 383:  0.00 384:  0.00
 385:  0.00 386:  0.00 387:  0.00 388:  0.00 389:  0.00 390:  0.00 391:  0.00 392:  0.00
 393:  0.00 394:  0.00 395:  0.00 396:  0.00 397:  0.00 398:  0.00 399:  0.00 400:  0.00
 401:  0.00 402:  0.00 403:  0.00 404:  0.00 405:  0.00 406:  0.00 407:  0.00 408:  0.00
 409:  0.00 410:  0.00 411:  0.00 412:  0.00 413:  0.00 414:  0.00 415:  0.00 416:  0.00
 417:  0.00 418:  0.00 419:  0.00 420:  0.00 421:  0.00 422:  0.00 423:  0.00 424:  0.00
 425:  0.00 426:  0.00 427:  0.00 428:  0.00 429:  0.00 430:  0.00 431:  0.00 432:  0.00
 433:  0.00 434:  0.00 435:  0.00 436:  0.00 437:  0.00 438:  0.00 439:  0.00 440:  0.00
 441:  0.00 442:  0.00 443:  0.00 444:  0.00 445:  0.00 446:  0.00 447:  0.00 448:  0.00
 449:  0.00 450:  0.00 451:  0.00 452:  0.00 453:  0.00 454:  0.00 455:  0.00 456:  0.00
 457:  0.00 458:  0.00 459:  0.00 460:  0.00 461:  0.00 462:  0.00 463:  0.00 464:  0.00
 465:  0.00 466:  0.00 467:  0.00 468:  0.00 469:  0.00 470:  0.00 471:  0.00 472:  0.00
 473:  0.00 474:  0.00 475:  0.00 476:  0.00 477:  0.00 478:  0.00 479:  0.00 480:  0.00
 481:  0.00 482:  0.00 483:  0.00 484:  0.00 485:  0.00 486:  0.00 487:  0.00 488:  0.00
 489:  0.00 490:  0.00 491:  0.00 492:  0.00 493:  0.00 494:  0.00 495:  0.00 496:  0.00
 497:  0.00 498:  0.00 499:  0.00 500:  0.00 501:  0.00 502:  0.00 503:  0.00 504:  0.00
 505:  0.00 506:  0.00 507:  0.00 508:  0.00 509:  0.00 510:  0.00 511:  0.00 512:  0.00
 513:  0.00 514:  0.00 515:  0.00 516:  0.00 517:  0.00 518:  0.00 519:  0.00 520:  0.00
 521:  0.00 522:  0.00 523:  0.00 524:  0.00 525:  0.00 526:  0.00 527:  0.00 528:  0.00
 529:  0.00 530:  0.00 531:  0.00 532:  0.00 533:  0.00 534:  0.00 535:  0.00 536:  0.00
 537:  0.00 538:  0.00 539:  0.00 540:  0.00 541:  0.00 542:  0.00 543:  0.00 544:  0.00
 545:  0.00 546:  0.00 547:  0.00 548:  0.00 549:  0.00 550:  0.00 551:  0.00 552:  0.00
 553:  0.00 554:  0.00 555:  0.00 556:  0.00 557:  0.00 558:  0.00 559:  0.00 560:  0.00
 561:  0.00 562:  0.00 563:  0.00 564:  0.00 565:  0.00 566:  0.00 567:  0.00 568:  0.00
 569:  0.00 570:  0.00 571:  0.00 572:  0.00 573:  0.00 574:  0.00 575:  0.00 576:  0.00
 577:  0.00 578:  0.00 579:  0.00 580:  0.00 581:  0.00 582:  0.00 583:  0.00 584:  0.00
 585:  0.00 586:  0.00 587:  0.00 588:  0.00 589:  0.00 590:  0.00 591:  0.00 592:  0.00
 593:  0.00 594:  0.00 595:  0.00 596:  0.00 597:  0.00 598:  0.00 599:  0.00 600:  0.00
 601:  0.00 602:  0.00 603:  0.00
 output can be read by thermo (or use thermo option).
 writing <g98.out> molden fake output.
 recommended (thermochemical) frequency scaling factor: 1.0
           -------------------------------------------------
          |             Thermodynamic Functions             |
           -------------------------------------------------
 symmetry recognition skipped because # atoms >         200

          ...................................................
          :                      SETUP                      :
          :.................................................:
          :  # frequencies                         596      :
          :  # imaginary freq.                       0      :
          :  linear?                             false      :
          :  only rotor calc.                    false      :
          :  symmetry                               C1      :
          :  rotational number                       1      :
          :  scaling factor                  1.0000000      :
          :  rotor cutoff                   50.0000000 cm⁻¹ :
          :  imag. cutoff                  -20.0000000 cm⁻¹ :
          :.................................................:

    mode    ω/cm⁻¹     T·S(HO)/kcal·mol⁻¹    T·S(FR)/kcal·mol⁻¹   T·S(vib)
   ------------------------------------------------------------------------
       1      1.11    -3.69108 (  0.00%)    -2.18465 (100.00%)    -2.18465
       2      2.15    -3.29983 (  0.00%)    -1.98903 (100.00%)    -1.98903
       3      2.76    -3.15111 (  0.00%)    -1.91467 (100.00%)    -1.91468
       4      3.92    -2.94261 (  0.00%)    -1.81042 (100.00%)    -1.81046
       5      5.24    -2.77108 (  0.01%)    -1.72465 ( 99.99%)    -1.72477
       6      8.02    -2.51921 (  0.07%)    -1.59870 ( 99.93%)    -1.59931
       7      8.45    -2.48817 (  0.08%)    -1.58318 ( 99.92%)    -1.58392
       8      8.52    -2.48337 (  0.08%)    -1.58078 ( 99.92%)    -1.58154
       9      9.30    -2.43169 (  0.12%)    -1.55494 ( 99.88%)    -1.55598
      10      9.44    -2.42294 (  0.13%)    -1.55056 ( 99.87%)    -1.55166
      11      9.64    -2.41050 (  0.14%)    -1.54434 ( 99.86%)    -1.54553
      12      9.80    -2.40042 (  0.15%)    -1.53930 ( 99.85%)    -1.54057
      13     13.56    -2.20818 (  0.54%)    -1.44315 ( 99.46%)    -1.44727
      14     15.37    -2.13374 (  0.89%)    -1.40592 ( 99.11%)    -1.41237
      15     17.87    -2.04479 (  1.60%)    -1.36142 ( 98.40%)    -1.37238
      16     20.19    -1.97237 (  2.59%)    -1.32519 ( 97.41%)    -1.34195
      17     23.07    -1.89341 (  4.34%)    -1.28567 ( 95.66%)    -1.31202
      18     24.90    -1.84826 (  5.79%)    -1.26307 ( 94.21%)    -1.29698
      19     27.84    -1.78221 (  8.77%)    -1.23000 ( 91.23%)    -1.27843
      20     28.84    -1.76134 (  9.97%)    -1.21955 ( 90.03%)    -1.27355
      21     29.07    -1.75672 ( 10.25%)    -1.21724 ( 89.75%)    -1.27254
      22     30.48    -1.72869 ( 12.13%)    -1.20319 ( 87.87%)    -1.26694
      23     30.66    -1.72524 ( 12.38%)    -1.20147 ( 87.62%)    -1.26632
      24     30.96    -1.71936 ( 12.82%)    -1.19852 ( 87.18%)    -1.26529
      25     31.62    -1.70689 ( 13.79%)    -1.19228 ( 86.21%)    -1.26325
      26     31.65    -1.70634 ( 13.84%)    -1.19200 ( 86.16%)    -1.26317
      27     34.25    -1.65964 ( 18.05%)    -1.16860 ( 81.95%)    -1.25723
      28     40.70    -1.55773 ( 30.51%)    -1.11751 ( 69.49%)    -1.25183
      29     47.50    -1.46650 ( 44.90%)    -1.07172 ( 55.10%)    -1.24897
      30     53.69    -1.39434 ( 57.07%)    -1.03546 ( 42.93%)    -1.24028
      31     57.57    -1.35321 ( 63.74%)    -1.01477 ( 36.26%)    -1.23050
      32     65.16    -1.28038 ( 74.26%)    -0.97809 ( 25.74%)    -1.20256
      33     73.11    -1.21280 ( 82.05%)    -0.94398 ( 17.95%)    -1.16455
      34     80.64    -1.15541 ( 87.12%)    -0.91496 ( 12.88%)    -1.12444
      35     83.94    -1.13194 ( 88.82%)    -0.90307 ( 11.18%)    -1.10635
      36     85.26    -1.12280 ( 89.43%)    -0.89843 ( 10.57%)    -1.09907
      37     85.71    -1.11977 ( 89.62%)    -0.89690 ( 10.38%)    -1.09664
      38     86.99    -1.11106 ( 90.16%)    -0.89248 (  9.84%)    -1.08956
      39     90.02    -1.09113 ( 91.31%)    -0.88236 (  8.69%)    -1.07298
      40     92.75    -1.07369 ( 92.21%)    -0.87350 (  7.79%)    -1.05810
      41     93.44    -1.06939 ( 92.42%)    -0.87132 (  7.58%)    -1.05438
      42     93.69    -1.06781 ( 92.50%)    -0.87051 (  7.50%)    -1.05301
      43     94.11    -1.06524 ( 92.62%)    -0.86920 (  7.38%)    -1.05077
      44     95.33    -1.05775 ( 92.96%)    -0.86539 (  7.04%)    -1.04422
      45     99.30    -1.03401 ( 93.96%)    -0.85331 (  6.04%)    -1.02310
      46    108.46    -0.98280 ( 95.68%)    -0.82716 (  4.32%)    -0.97607
      47    111.58    -0.96635 ( 96.12%)    -0.81874 (  3.88%)    -0.96063
      48    116.72    -0.94037 ( 96.74%)    -0.80542 (  3.26%)    -0.93597
      49    124.93    -0.90119 ( 97.50%)    -0.78526 (  2.50%)    -0.89829
      50    124.95    -0.90112 ( 97.50%)    -0.78523 (  2.50%)    -0.89822
      51    125.02    -0.90077 ( 97.51%)    -0.78505 (  2.49%)    -0.89788
      52    125.32    -0.89942 ( 97.53%)    -0.78436 (  2.47%)    -0.89658
      53    126.08    -0.89593 ( 97.59%)    -0.78255 (  2.41%)    -0.89319
      54    126.15    -0.89560 ( 97.59%)    -0.78238 (  2.41%)    -0.89287
      55    132.75    -0.86638 ( 98.03%)    -0.76730 (  1.97%)    -0.86443
      56    137.36    -0.84684 ( 98.27%)    -0.75717 (  1.73%)    -0.84529
      57    160.82    -0.75733 ( 99.07%)    -0.71046 (  0.93%)    -0.75690
      58    167.16    -0.73560 ( 99.21%)    -0.69901 (  0.79%)    -0.73531
      59    171.62    -0.72082 ( 99.28%)    -0.69121 (  0.72%)    -0.72061
      60    175.61    -0.70799 ( 99.35%)    -0.68440 (  0.65%)    -0.70783
      61    177.22    -0.70290 ( 99.37%)    -0.68170 (  0.63%)    -0.70277
      62    178.11    -0.70010 ( 99.38%)    -0.68021 (  0.62%)    -0.69997
      63    178.75    -0.69811 ( 99.39%)    -0.67915 (  0.61%)    -0.69799
      64    179.89    -0.69455 ( 99.41%)    -0.67726 (  0.59%)    -0.69445
      65    179.99    -0.69426 ( 99.41%)    -0.67711 (  0.59%)    -0.69416
      66    180.57    -0.69245 ( 99.42%)    -0.67615 (  0.58%)    -0.69236
      67    184.50    -0.68050 ( 99.46%)    -0.66977 (  0.54%)    -0.68044
      68    184.87    -0.67938 ( 99.47%)    -0.66917 (  0.53%)    -0.67932
      69    185.58    -0.67725 ( 99.48%)    -0.66804 (  0.52%)    -0.67721
      70    187.05    -0.67290 ( 99.49%)    -0.66571 (  0.51%)    -0.67286
      71    188.96    -0.66727 ( 99.51%)    -0.66270 (  0.49%)    -0.66725
      72    205.27    -0.62175 ( 99.65%)    -0.63817 (  0.35%)    -0.62180
      73    205.92    -0.62003 ( 99.65%)    -0.63724 (  0.35%)    -0.62009
      74    207.19    -0.61666 ( 99.66%)    -0.63541 (  0.34%)    -0.61672
      75    208.46    -0.61332 ( 99.67%)    -0.63359 (  0.33%)    -0.61338
      76    209.67    -0.61017 ( 99.68%)    -0.63188 (  0.32%)    -0.61024
      77    209.88    -0.60963 ( 99.68%)    -0.63158 (  0.32%)    -0.60970
      78    220.07    -0.58392 ( 99.73%)    -0.61754 (  0.27%)    -0.58401
      79    220.85    -0.58202 ( 99.74%)    -0.61650 (  0.26%)    -0.58211
      80    222.24    -0.57864 ( 99.74%)    -0.61463 (  0.26%)    -0.57873
      81    223.88    -0.57469 ( 99.75%)    -0.61246 (  0.25%)    -0.57478
      82    223.99    -0.57441 ( 99.75%)    -0.61231 (  0.25%)    -0.57450
      83    224.23    -0.57383 ( 99.75%)    -0.61199 (  0.25%)    -0.57392
      84    224.29    -0.57370 ( 99.75%)    -0.61192 (  0.25%)    -0.57380
      85    224.48    -0.57323 ( 99.75%)    -0.61166 (  0.25%)    -0.57333
      86    224.83    -0.57241 ( 99.76%)    -0.61121 (  0.24%)    -0.57251
      87    225.67    -0.57039 ( 99.76%)    -0.61009 (  0.24%)    -0.57048
      88    225.83    -0.57003 ( 99.76%)    -0.60989 (  0.24%)    -0.57012
      89    226.63    -0.56811 ( 99.76%)    -0.60884 (  0.24%)    -0.56821
      90    230.10    -0.55998 ( 99.78%)    -0.60434 (  0.22%)    -0.56008
      91    230.32    -0.55947 ( 99.78%)    -0.60406 (  0.22%)    -0.55957
      92    234.15    -0.55065 ( 99.79%)    -0.59917 (  0.21%)    -0.55075
      93    237.93    -0.54213 ( 99.81%)    -0.59443 (  0.19%)    -0.54223
      94    246.87    -0.52260 ( 99.83%)    -0.58350 (  0.17%)    -0.52270
      95    246.91    -0.52252 ( 99.83%)    -0.58345 (  0.17%)    -0.52262
      96    246.93    -0.52247 ( 99.83%)    -0.58342 (  0.17%)    -0.52257
      97    247.94    -0.52033 ( 99.83%)    -0.58222 (  0.17%)    -0.52043
      98    247.96    -0.52028 ( 99.83%)    -0.58219 (  0.17%)    -0.52038
      99    252.77    -0.51019 ( 99.85%)    -0.57651 (  0.15%)    -0.51029
     100    254.20    -0.50723 ( 99.85%)    -0.57483 (  0.15%)    -0.50733
     101    254.31    -0.50700 ( 99.85%)    -0.57470 (  0.15%)    -0.50710
     102    254.51    -0.50659 ( 99.85%)    -0.57447 (  0.15%)    -0.50669
     103    255.88    -0.50379 ( 99.85%)    -0.57288 (  0.15%)    -0.50389
     104    255.97    -0.50359 ( 99.85%)    -0.57277 (  0.15%)    -0.50370
     105    270.21    -0.47551 ( 99.88%)    -0.55674 (  0.12%)    -0.47561
     106    273.45    -0.46937 ( 99.89%)    -0.55320 (  0.11%)    -0.46947
     107    276.53    -0.46363 ( 99.89%)    -0.54988 (  0.11%)    -0.46372
     108    278.49    -0.46003 ( 99.90%)    -0.54780 (  0.10%)    -0.46012
     109    279.01    -0.45906 ( 99.90%)    -0.54724 (  0.10%)    -0.45915
     110    279.45    -0.45827 ( 99.90%)    -0.54678 (  0.10%)    -0.45836
     111    279.69    -0.45783 ( 99.90%)    -0.54652 (  0.10%)    -0.45792
     112    286.78    -0.44511 ( 99.91%)    -0.53911 (  0.09%)    -0.44520
     113    295.17    -0.43057 ( 99.92%)    -0.53056 (  0.08%)    -0.43065
   ------------------------------------------------------------------------

   temp. (K)  partition function   enthalpy   heat capacity  entropy
                                   cal/mol     cal/K/mol   cal/K/mol   J/K/mol
 298.15  VIB  0.131E+66            75106.592    476.444    477.185
         ROT  0.766E+10              888.752      2.981     48.210
         INT  0.100E+76            75995.344    479.425    525.395
         TR   0.932E+29             1481.254      4.968     48.773
         TOT                       77476.5983   484.3931   574.1677  2402.3177

       T/K    H(0)-H(T)+PV         H(T)/Eh          T*S/Eh         G(T)/Eh
   ------------------------------------------------------------------------
    298.15    0.123467E+00    0.148080E+01    0.272806E+00    0.120800E+01
   ------------------------------------------------------------------------

         :::::::::::::::::::::::::::::::::::::::::::::::::::::
         ::                  THERMODYNAMIC                  ::
         :::::::::::::::::::::::::::::::::::::::::::::::::::::
         :: total free energy        -364.756416020668 Eh   ::
         ::.................................................::
         :: total energy             -365.964413492935 Eh   ::
         :: zero point energy           1.357336259669 Eh   ::
         :: G(RRHO) w/o ZPVE           -0.149338787403 Eh   ::
         :: G(RRHO) contrib.            1.207997472266 Eh   ::
         :::::::::::::::::::::::::::::::::::::::::::::::::::::

optimized geometry written to: xtbopt.xyz


           -------------------------------------------------
          | TOTAL ENERGY             -365.964413492935 Eh   |
          | TOTAL ENTHALPY           -364.483610414934 Eh   |
          | TOTAL FREE ENERGY        -364.756416020668 Eh   |
          | GRADIENT NORM               0.000562232368 Eh/α |
          | HOMO-LUMO GAP               0.241134514784 eV   |
           -------------------------------------------------

------------------------------------------------------------------------
 * finished run on 2021/11/19 at 19:41:52.978     
------------------------------------------------------------------------
 total:
 * wall-time:     0 d,  0 h, 29 min, 52.626 sec
 *  cpu-time:     0 d,  0 h, 29 min, 52.637 sec
 * ratio c/w:     1.000 speedup
 SCF:
 * wall-time:     0 d,  0 h,  0 min, 17.854 sec
 *  cpu-time:     0 d,  0 h,  0 min, 17.854 sec
 * ratio c/w:     1.000 speedup
 ANC optimizer:
 * wall-time:     0 d,  0 h,  3 min, 58.115 sec
 *  cpu-time:     0 d,  0 h,  3 min, 58.114 sec
 * ratio c/w:     1.000 speedup
 analytical hessian:
 * wall-time:     0 d,  0 h, 25 min, 36.407 sec
 *  cpu-time:     0 d,  0 h, 25 min, 36.419 sec
 * ratio c/w:     1.000 speedup

