201
 energy: -363.992980161988 gnorm: 1.759681367179 xtb: 6.4.1 (bd6e46d)
Fe       22.80709700000000    0.03646900000000   -0.01143500000000
C        25.13608800000000   -3.11032400000000    1.31125400000000
C        26.05219500000000   -2.16611700000000    1.26097200000000
C        25.64101600000000   -1.11221300000000    0.33968000000000
C        26.25988600000000    0.01213300000000   -0.00673000000000
C        25.55584400000000    1.23208200000000   -0.37083500000000
C        25.88395500000000    2.19213700000000   -1.21830900000000
C        24.84917500000000    3.20842200000000   -1.23520700000000
C        23.91290700000000    2.83196000000000   -0.38831500000000
N        24.31489700000000    1.59894900000000    0.17550200000000
C        22.65183300000000    3.47695900000000   -0.00916300000000
C        21.55661500000000    2.84217700000000    0.34159700000000
C        20.48299000000000    3.16013300000000    1.31062500000000
C        19.64542700000001    2.16337900000000    1.23345900000000
C        20.08372400000000    1.15969600000000    0.25300700000000
N        21.18866300000000    1.59854900000000   -0.23128600000000
C        19.47289000000000   -0.09357500000000   -0.16054100000000
C        20.13705000000000   -1.19808100000000   -0.41496600000000
C        19.76320200000000   -2.26102300000000   -1.37249300000000
C        20.71194900000000   -3.15477900000000   -1.28347400000000
C        21.69767300000000   -2.71732900000000   -0.30059600000000
N        21.34462700000000   -1.57152400000000    0.19620100000000
C        22.92856000000000   -3.37339900000000    0.14512500000000
C        24.05160200000000   -2.72753800000000    0.41224600000000
N        24.38020200000000   -1.48009700000000   -0.18615800000000
H        25.19635000000000   -4.02010500000000    1.92880000000000
H        26.96852300000000   -2.20606600000000    1.83902000000000
H        26.81132000000000    2.20893200000000   -1.81945200000000
H        24.86607400000000    4.11311100000000   -1.84782800000000
H        22.60411000000000    4.57176200000000   -0.01294100000000
H        20.43016800000000    4.03885800000000    1.93561700000000
H        18.73379700000000    2.12770900000000    1.85078300000000
H        18.37463900000000   -0.09066400000000   -0.25981200000000
H        18.89434600000000   -2.31348800000000   -2.02144300000000
H        20.70910300000000   -4.07108700000000   -1.88223300000000
H        22.89307800000000   -4.46920100000000    0.25705000000000
Fe       88.86141300000000   -0.01090700000000   -0.01586800000000
C        86.53242200000000    2.83588500000000    1.86763700000000
C        85.61631500000000    1.91739600000000    1.64306300000000
C        86.02749400000000    1.05269900000000    0.54224900000000
C        85.40862400000000    0.01213300000000   -0.00673000000000
C        86.11266600000000   -1.11909100000000   -0.59083300000000
C        85.78455599999999   -1.90526300000000   -1.60170000000000
C        86.81933500000000   -2.90077200000000   -1.80684000000000
C        87.75560299999999   -2.68795600000000   -0.90481000000000
N        87.35361300000000   -1.58094400000000   -0.12203800000000
C        89.01667800000000   -3.39209700000000   -0.65189600000000
C        90.11189500000002   -2.83340400000000   -0.18946300000000
C        91.18552000000000   -3.32561000000000    0.70375900000000
C        92.02308300000001   -2.33184300000000    0.81284400000000
C        91.58478599999999   -1.16369400000000    0.03560900000000
N        90.47984800000000   -1.50508600000000   -0.52169100000000
C        92.19562100000000    0.14454100000000   -0.13826100000000
C        91.53146000000000    1.27707500000000   -0.18336700000000
C        91.90530900000000    2.49920000000000   -0.92708200000000
C        90.95656200000001    3.36092800000000   -0.67380400000000
C        89.97083800000000    2.74873300000000    0.21086000000000
N        90.32388400000001    1.53065400000000    0.48647000000000
C        88.73994999999999    3.31072700000000    0.77055400000000
C        87.61690800000000    2.62652300000000    0.91322200000000
N        87.28830800000000    1.51174800000000    0.09378700000000
H        86.47216000000000    3.61530900000000    2.64324100000000
H        84.69998800000000    1.84941500000000    2.21848900000000
H        84.85719000000000   -1.81024600000000   -2.19552400000000
H        86.80243600000000   -3.67610700000000   -2.57666000000000
H        89.06440000000001   -4.46719500000000   -0.85871000000000
H        91.23834200000000   -4.30502600000000    1.15488600000000
H        92.93471400000001   -2.41131500000000    1.42606900000000
H        93.29387100000000    0.16009700000000   -0.23634800000000
H        92.77416500000000    2.67114400000000   -1.55503500000000
H        90.95940800000001    4.37240900000000   -1.09218100000000
H        88.77543200000000    4.36674400000000    1.08382300000000
C        29.23189800000000    0.02326500000000   -0.00268900000000
C        30.44743100000000   -0.00207900000000   -0.01316800000000
C        31.86894800000000   -0.02350200000000   -0.01734400000000
C        33.07750900000000   -0.02571300000000   -0.01723900000000
C        34.49858500000000   -0.00675400000000   -0.01786600000000
C        35.70972700000000    0.02326500000000   -0.00268900000000
C        44.80707400000000    0.02326500000000   -0.00268900000000
C        46.02260600000000   -0.00207900000000   -0.01316800000000
C        47.44412300000000   -0.02350200000000   -0.01734400000000
C        48.65268500000000   -0.02571300000000   -0.01723900000000
C        50.07376000000000   -0.00675400000000   -0.01786600000000
C        51.28490200000001    0.02326500000000   -0.00268900000000
C        60.38224900000001    0.02326500000000   -0.00268900000000
C        61.59778200000000   -0.00207900000000   -0.01316800000000
C        63.01929900000000   -0.02350200000000   -0.01734400000000
C        64.22786100000000   -0.02571300000000   -0.01723900000000
C        65.64893600000001   -0.00675400000000   -0.01786600000000
C        66.86007800000000    0.02326500000000   -0.00268900000000
C        75.95742500000000    0.02326500000000   -0.00268900000000
C        77.17295799999999   -0.00207900000000   -0.01316800000000
C        78.59447500000000   -0.02350200000000   -0.01734400000000
C        79.80303600000001   -0.02571300000000   -0.01723900000000
C        81.22411100000001   -0.00675400000000   -0.01786600000000
C        82.43525400000000    0.02326500000000   -0.00268900000000
Fe       40.29831700000000    0.03488200000000    0.00213900000000
C        38.01850600000000   -3.22656600000000   -0.90752600000000
C        37.06229700000000   -2.32721500000000   -1.00955300000000
C        37.45467100000000   -1.16491000000000   -0.20703700000000
C        36.81955500000001   -0.01363800000000    0.00522900000000
C        37.50501200000000    1.26096200000000    0.23145900000000
C        37.16972200000001    2.33956200000000    0.93569900000000
C        38.19426300000000    3.35887800000000    0.84511700000000
C        39.14486000000000    2.86195400000000    0.07175300000000
N        38.76786600000000    1.54534900000000   -0.34439000000000
C        40.39200000000000    3.47365500000000   -0.34511300000000
C        41.49355100000000    2.80639800000000   -0.67688400000000
C        42.48709800000000    3.05838300000000   -1.71105400000000
C        43.38098100000000    2.09752400000000   -1.60957000000000
C        43.00128300000001    1.18564000000000   -0.50559300000000
N        41.90636800000000    1.63495900000000    0.00177400000000
C        43.65849000000000   -0.01363800000000    0.00522900000000
C        43.03507800000000   -1.08282000000000    0.46674600000000
C        43.41379100000001   -2.01493500000000    1.54222200000000
C        42.47312200000000   -2.92908100000000    1.62808800000000
C        41.46482100000000   -2.63330200000000    0.63066100000000
N        41.80259600000000   -1.57992500000000   -0.01863400000000
C        40.21242800000001   -3.34031000000000    0.29946700000000
C        39.09855100000000   -2.74361300000000   -0.04787400000000
N        38.71643900000000   -1.46085600000000    0.36980900000000
H        38.01885100000000   -4.21764000000000   -1.39876100000000
H        36.15376300000000   -2.44890900000000   -1.59070100000000
H        36.24486900000000    2.45791300000000    1.51262500000000
H        38.22155800000000    4.34804300000000    1.30176800000000
H        40.47794000000000    4.57103300000000   -0.40713600000000
H        42.51977000000000    3.86459900000000   -2.43787800000000
H        44.27404200000000    1.98455500000000   -2.24334400000000
H        44.32854100000000   -1.94052900000000    2.15239100000000
H        42.49216900000000   -3.74268900000000    2.33635500000000
H        40.25091200000000   -4.44026900000000    0.35850400000000
Fe       55.87349300000000    0.03488200000000    0.00213900000000
C        53.59368200000000   -3.22656600000000   -0.90752600000000
C        52.63747300000000   -2.32721500000000   -1.00955300000000
C        53.02984700000000   -1.16491000000000   -0.20703700000000
C        52.39473000000000   -0.01363800000000    0.00522900000000
C        53.08018700000000    1.26096200000000    0.23145900000000
C        52.74489700000000    2.33956200000000    0.93569900000000
C        53.76943800000000    3.35887800000000    0.84511700000000
C        54.72003600000000    2.86195400000000    0.07175300000000
N        54.34304200000000    1.54534900000000   -0.34439000000000
C        55.96717500000000    3.47365500000000   -0.34511300000000
C        57.06872700000000    2.80639800000000   -0.67688400000000
C        58.06227300000000    3.05838300000000   -1.71105400000000
C        58.95615700000000    2.09752400000000   -1.60957000000000
C        58.57645800000000    1.18564000000000   -0.50559300000000
N        57.48154300000001    1.63495900000000    0.00177400000000
C        59.23366500000000   -0.01363800000000    0.00522900000000
C        58.61025400000000   -1.08282000000000    0.46674600000000
C        58.98896700000001   -2.01493500000000    1.54222200000000
C        58.04829800000000   -2.92908100000000    1.62808800000000
C        57.03999700000000   -2.63330200000000    0.63066100000000
N        57.37777100000000   -1.57992500000000   -0.01863400000000
C        55.78760300000000   -3.34031000000000    0.29946700000000
C        54.67372700000000   -2.74361300000000   -0.04787400000000
N        54.29161500000000   -1.46085600000000    0.36980900000000
H        53.59402700000000   -4.21764000000000   -1.39876100000000
H        51.72893800000000   -2.44890900000000   -1.59070100000000
H        51.82004500000000    2.45791300000000    1.51262500000000
H        53.79673300000001    4.34804300000000    1.30176800000000
H        56.05311500000000    4.57103300000000   -0.40713600000000
H        58.09494600000000    3.86459900000000   -2.43787800000000
H        59.84921800000000    1.98455500000000   -2.24334400000000
H        59.90371700000000   -1.94052900000000    2.15239100000000
H        58.06734400000000   -3.74268900000000    2.33635500000000
H        55.82608800000000   -4.44026900000000    0.35850400000000
Fe       71.44866800000000    0.03488200000000    0.00213900000000
C        69.16885700000000   -3.22656600000000   -0.90752600000000
C        68.21264800000000   -2.32721500000000   -1.00955300000000
C        68.60502200000001   -1.16491000000000   -0.20703700000000
C        67.96990599999999   -0.01363800000000    0.00522900000000
C        68.65536300000001    1.26096200000000    0.23145900000000
C        68.32007299999999    2.33956200000000    0.93569900000000
C        69.34461400000001    3.35887800000000    0.84511700000000
C        70.29521099999999    2.86195400000000    0.07175300000000
N        69.91821700000000    1.54534900000000   -0.34439000000000
C        71.54235100000000    3.47365500000000   -0.34511300000000
C        72.64390200000000    2.80639800000000   -0.67688400000000
C        73.63744900000000    3.05838300000000   -1.71105400000000
C        74.53133200000001    2.09752400000000   -1.60957000000000
C        74.15163400000000    1.18564000000000   -0.50559300000000
N        73.05671900000000    1.63495900000000    0.00177400000000
C        74.80884100000000   -0.01363800000000    0.00522900000000
C        74.18543000000000   -1.08282000000000    0.46674600000000
C        74.56414200000000   -2.01493500000000    1.54222200000000
C        73.62347300000000   -2.92908100000000    1.62808800000000
C        72.61517200000000   -2.63330200000000    0.63066100000000
N        72.95294699999999   -1.57992500000000   -0.01863400000000
C        71.36277900000000   -3.34031000000000    0.29946700000000
C        70.24890200000000   -2.74361300000000   -0.04787400000000
N        69.86678999999999   -1.46085600000000    0.36980900000000
H        69.16920200000000   -4.21764000000000   -1.39876100000000
H        67.30411400000000   -2.44890900000000   -1.59070100000000
H        67.39522100000001    2.45791300000000    1.51262500000000
H        69.37190900000000    4.34804300000000    1.30176800000000
H        71.62829100000000    4.57103300000000   -0.40713600000000
H        73.67012099999999    3.86459900000000   -2.43787800000000
H        75.42439400000001    1.98455500000000   -2.24334400000000
H        75.47889200000000   -1.94052900000000    2.15239100000000
H        73.64252000000002   -3.74268900000000    2.33635500000000
H        71.40126300000000   -4.44026900000000    0.35850400000000
201
 energy: -364.661015705043 gnorm: 0.706327220203 xtb: 6.4.1 (bd6e46d)
Fe       22.81242258986356    0.03624967799222   -0.01116945348846
C        25.13473839396326   -3.11678927397270    1.30842659467626
C        26.06118538478224   -2.16478526734915    1.26055620746137
C        25.63833407207452   -1.11618251747398    0.34248545514086
C        26.24776905588403    0.02529476719467   -0.00827342292354
C        25.54910652475582    1.22519781416000   -0.36323652114881
C        25.89135131380448    2.21169010255488   -1.23264105984066
C        24.87027363819358    3.21034001946103   -1.24645270803050
C        23.90623614427042    2.81814237803822   -0.38056607146092
N        24.30166190480929    1.58905160357271    0.17882859446409
C        22.66485998297977    3.47917448294601   -0.01087034947063
C        21.54631493595634    2.83231824999247    0.34309568863048
C        20.48701362366726    3.16604995387598    1.30252753149617
C        19.62860203772630    2.15700788997899    1.23667967531473
C        20.07734295670223    1.16051152244426    0.26243988164051
N        21.20831435971479    1.59185802273703   -0.22663371645577
C        19.46422458864737   -0.07830472223262   -0.15594901245105
C        20.14048908925332   -1.20395563490352   -0.41869386767617
C        19.75732097540448   -2.25801789986150   -1.36627626214255
C        20.71789088919536   -3.16865160132888   -1.28337726547623
C        21.70427285019378   -2.72661826566677   -0.30465737697441
N        21.34762070334753   -1.55886766656705    0.18693028299653
C        22.91467895893409   -3.37906345369836    0.13990206110685
C        24.05860560722043   -2.71628637439395    0.41328247613933
N        24.37690149669487   -1.47982509437006   -0.17340932431577
H        25.19270358995039   -4.01679836738715    1.92492378190251
H        26.96999010410934   -2.20186735600413    1.83763124493787
H        26.80880119748323    2.21240839980991   -1.81933577974110
H        24.86864339546376    4.11107296312763   -1.84803581270809
H        22.61054325443072    4.57017845752798   -0.01030168950694
H        20.43297759414645    4.03806076184660    1.93341526917897
H        18.73314183946660    2.12368202716519    1.84952417201623
H        18.37630111395547   -0.08773502949305   -0.26189428281337
H        18.89554285347900   -2.30929924186995   -2.01821807116658
H        20.71378208287587   -4.07184924197595   -1.88025498754839
H        22.89140034293282   -4.46661617371088    0.25704987373606
Fe       88.85608744771224   -0.01073318340857   -0.01557066617499
C        86.53377575108276    2.84275970466756    1.86605887555855
C        85.60733247362271    1.91616272612977    1.64239814240589
C        86.03020982420907    1.05609271616461    0.54573761412534
C        85.42074398769350   -0.00044633083750   -0.01068971303866
C        86.11940536057995   -1.11372283904182   -0.58208939747056
C        85.77716559994235   -1.92181731962113   -1.61939959842518
C        86.79823520109301   -2.90056835368570   -1.81824046401289
C        87.76227652741781   -2.67581326042795   -0.89462820469694
N        87.36683661679314   -1.57183989223974   -0.11693269549801
C        89.00364701417890   -3.39395960569949   -0.65398636576167
C        90.12219579654925   -2.82398879483218   -0.18615968695805
C        91.18149389868191   -3.32991928748993    0.69470500680493
C        92.03990974643312   -2.32617825615506    0.81718783763809
C        91.59117059000646   -1.16624332831124    0.04472650842800
N        90.46019601506804   -1.49938069610522   -0.51588203826340
C        92.20428640575763    0.12867988821390   -0.13657923564453
C        91.52801722977499    1.28354140860603   -0.18594253902757
C        91.91118913740264    2.49509150133437   -0.92153094712780
C        90.95061758901298    3.37454138026084   -0.67113452090840
C        89.96423878046062    2.75861570327963    0.20859224866474
N        90.32089552636266    1.51993904513455    0.47501698084815
C        88.75383095487275    3.31726762862091    0.76647204456760
C        87.60990769400118    2.61527467908330    0.91215403472075
N        87.29163198705309    1.50911277007691    0.10627329698812
H        86.47580701638375    3.61278049476225    2.63881992335080
H        84.69852127571080    1.84554718179165    2.21634247458069
H        84.85971028489507   -1.81367960066618   -2.19606289616020
H        86.79986838658928   -3.67406654099551   -2.57649019333896
H        89.05796841762675   -4.46613087061429   -0.85582731289424
H        91.23553279005813   -4.30383533528824    1.15287035359690
H        92.93537035274153   -2.40712474578375    1.42557960603352
H        93.29220970767867    0.15760491356525   -0.23893530955166
H        92.77296855529117    2.66642955323791   -1.55264301851730
H        90.95472902315252    4.37279209834455   -1.09009561103722
H        88.77711021921790    4.36420755668584    1.08334393122734
C        29.23121076954854    0.02305069046030   -0.00254679252213
C        30.45612757947262   -0.00237414307890   -0.01308102062323
C        31.85566510823939   -0.02303155969746   -0.01733879996369
C        33.08051634413486   -0.02517112224952   -0.01722526103438
C        34.44495686317190   -0.00693126947799   -0.01772668739018
C        35.63522205175244    0.03172390134748   -0.00440982592301
C        44.87246893112359    0.02979341776601   -0.00246475104569
C        46.06818587741110   -0.00248443015468   -0.01270751740903
C        47.43579619724012   -0.02290047256274   -0.01792294238846
C        48.65852847006747   -0.02513412632235   -0.01723535500354
C        50.02069483857869   -0.00694126288717   -0.01769890248266
C        51.21048396510910    0.03169404134152   -0.00467577792192
C        60.44755742411231    0.02978526697670   -0.00230503960223
C        61.64345810283936   -0.00245609312231   -0.01266764159168
C        63.01090799610020   -0.02291319528700   -0.01795498741199
C        64.23376026148017   -0.02513268292193   -0.01723276471539
C        65.59585477760592   -0.00693159801846   -0.01769819159304
C        66.78560308562940    0.03167114766847   -0.00471346771190
C        76.02301167506040    0.02988237533733   -0.00217939195338
C        77.21914281869994   -0.00231277731242   -0.01251105259242
C        78.58971752598761   -0.02289041027209   -0.01795366463983
C        79.81488574295949   -0.02524246693805   -0.01746205836549
C        81.21422400662802   -0.00716606921749   -0.01763091729463
C        82.43750357119296    0.02293658917985   -0.00252327898616
Fe       40.29469529803267    0.03593168628958    0.00061302804705
C        38.02119562684850   -3.23961008678999   -0.90554024945836
C        37.05854821868940   -2.32462094026188   -1.00616675750713
C        37.48991273447307   -1.18564335409116   -0.20990199613500
C        36.88725698328343   -0.00257231064682    0.00607916244673
C        37.53620436631428    1.26686900454263    0.22869679973586
C        37.16418439240102    2.35768606181649    0.94497376919613
C        38.17759747195416    3.36110348382972    0.85208800941035
C        39.15353748763076    2.85021304207045    0.06604712848810
N        38.78194944825790    1.54183313034881   -0.34062482549183
C        40.38223081860502    3.47648047161521   -0.34483336413308
C        41.50115751253734    2.80017173827563   -0.67793351525648
C        42.48809082412009    3.06450402093828   -1.70571370574516
C        43.39361942565454    2.08864517193132   -1.60964209380259
C        42.99275312912342    1.19082896977418   -0.51788195011458
N        41.88480141521890    1.63251526434541   -0.00256937845476
C        43.61194288294097   -0.00224603572338   -0.00098531735442
C        43.00780013633588   -1.10110639949124    0.47661052806568
C        43.42164836226151   -2.01020987440646    1.53754978384036
C        42.46863806534826   -2.94048483836058    1.62896015633796
C        41.45699992054999   -2.64423944955505    0.63742930730273
N        41.79471218045428   -1.56338347973570   -0.01715430576619
C        40.22816279915266   -3.34715450136577    0.30632776804889
C        39.08733873337010   -2.73595701702723   -0.05271622220373
N        38.72327530919186   -1.45879680011627    0.35712194221614
H        38.02086885721594   -4.21486749774368   -1.39666644269326
H        36.15452454870679   -2.44400003629094   -1.58854754205890
H        36.24551483353878    2.45890516252560    1.51257443009451
H        38.21700831515211    4.34505937892035    1.30261778937840
H        40.47067219483930    4.56831731077732   -0.40962830891985
H        42.51646916423856    3.86373869420088   -2.43453463485039
H        44.27279636415377    1.98178371908904   -2.24109921801362
H        44.32499131383709   -1.93795201565348    2.14810251453588
H        42.48898495322484   -3.74525053580931    2.33661108505468
H        40.25311866055797   -4.43854680765444    0.35720618872822
Fe       55.86981245275644    0.03587473759073    0.00106677956839
C        53.59601789791933   -3.23957694835818   -0.90564621739864
C        52.63364880872536   -2.32499974786036   -1.00612758734203
C        53.06495754384676   -1.18540467428777   -0.20922718425222
C        52.46269654776813   -0.00278369748208    0.00595657932464
C        53.11140241882553    1.26700192061788    0.22839279549651
C        52.73944136459299    2.35784377451435    0.94504600581344
C        53.75254938965989    3.36110010547927    0.85210528963743
C        54.72878595215274    2.85019575113796    0.06582264785624
N        54.35703986428420    1.54181263682185   -0.34064664653460
C        55.95718723539095    3.47639282003776   -0.34468005461233
C        57.07648069449061    2.80005337999829   -0.67796461617301
C        58.06318822399711    3.06450115340923   -1.70574963852310
C        58.96884243339692    2.08861899336035   -1.60964413644713
C        58.56777019122593    1.19105774033127   -0.51802900441674
N        57.46006652456586    1.63253921012215   -0.00282400019015
C        59.18713385906974   -0.00243670803564   -0.00086296837095
C        58.58313029188648   -1.10112550887720    0.47656060081815
C        58.99693675532237   -2.01028039613499    1.53754293289430
C        58.04384253252978   -2.94037500583478    1.62907876387482
C        57.03240435382395   -2.64383932373947    0.63745560491775
N        57.36989564562561   -1.56371250982927   -0.01723100477202
C        55.80294696208804   -3.34715488179717    0.30607351788755
C        54.66285696785680   -2.73590830505790   -0.05254989309575
N        54.29859661029838   -1.45868587985501    0.35700004236979
H        53.59600351657770   -4.21486824114353   -1.39669698258099
H        51.72969408518636   -2.44402632437342   -1.58860510953083
H        51.82070489067320    2.45891513084685    1.51262728740553
H        53.79215695985906    4.34506193042397    1.30263623915555
H        56.04584150910082    4.56830351775294   -0.40953558501918
H        58.09164518081037    3.86374805594915   -2.43452900837841
H        59.84797731191718    1.98178440603680   -2.24109393723008
H        59.90018577001445   -1.93796516963032    2.14811529881324
H        58.06415234599065   -3.74522728315585    2.33662663438989
H        55.82828400062601   -4.43854492318685    0.35706662999346
Fe       71.44488135234408    0.03590269635223    0.00086792738221
C        69.17105391399907   -3.23961382196095   -0.90560315376012
C        68.20888817187367   -2.32510389988420   -1.00615404270071
C        68.64016480813687   -1.18524788811601   -0.20915047878685
C        68.03786882470075   -0.00284733067393    0.00592437645750
C        68.68652038703370    1.26701043688576    0.22844267328194
C        68.31463372436500    2.35776881268097    0.94504394770654
C        69.32777542939031    3.36109695600309    0.85209056827660
C        70.30404062919666    2.85026583662354    0.06583051065494
N        69.93220028162607    1.54179225749357   -0.34065605729697
C        71.53231018354278    3.47639888205408   -0.34462627144097
C        72.65171714062247    2.80010390725072   -0.67795048007768
C        73.63829803395797    3.06453358904962   -1.70571651119948
C        74.54397834083886    2.08855602055255   -1.60968176083968
C        74.14271123220047    1.19086802599056   -0.51851513473414
N        73.03540866719345    1.63248961955686   -0.00278012384915
C        74.76246367300919   -0.00270669974064   -0.00084306700780
C        74.15847148731193   -1.10101415603593    0.47685402359836
C        74.57216737312667   -2.01015936383646    1.53740217600899
C        73.61883492639988   -2.94029226745358    1.62907119441638
C        72.60789172728028   -2.64359551791850    0.63767160714026
N        72.94495278077274   -1.56375128712296   -0.01698380864616
C        71.37771288097397   -3.34726221698047    0.30581929457079
C        70.23825242465621   -2.73614831624450   -0.05237331508125
N        69.87379176623028   -1.45846661183989    0.35710954766741
H        69.17116412600015   -4.21487162775453   -1.39670618007424
H        67.30488507267133   -2.44402817039677   -1.58862365459829
H        67.39588138109598    2.45890974005995    1.51261871090190
H        69.36732764047349    4.34507643973540    1.30261429997329
H        71.62100569129349    4.56830505569024   -0.40955584776725
H        73.66681780525727    3.86375393708062   -2.43451913510061
H        75.42314472079278    1.98178731888752   -2.24106817118744
H        75.47536512793731   -1.93798021067542    2.14808033401436
H        73.63929462908723   -3.74520952994245    2.33660197850737
H        71.40346718795038   -4.43857605320807    0.35684325490897
201
 energy: -364.925504938693 gnorm: 0.340326638806 xtb: 6.4.1 (bd6e46d)
Fe       22.82152505088527    0.03582635552473   -0.00984881565420
C        25.13499384847688   -3.12291469517789    1.30012912369948
C        26.07351294731642   -2.16440472673930    1.25685390359154
C        25.63310975693770   -1.11852722368003    0.34942185290555
C        26.21990075309370    0.04735252509073   -0.00913010582359
C        25.53645902566740    1.22142627618353   -0.35841096336652
C        25.89814293371994    2.23698182179841   -1.24510463336317
C        24.89867185610123    3.20932408715185   -1.25350725599270
C        23.90176459628941    2.79692374161447   -0.37385002702388
N        24.27948210460327    1.57218679234868    0.17510526404144
C        22.68384477944144    3.47453309524273   -0.01162634663743
C        21.54028711557983    2.81622421880013    0.34574765990972
C        20.48911972361658    3.16944866570974    1.28526224839937
C        19.60731595471831    2.15307808301273    1.23550710260688
C        20.07146966749432    1.16126273429912    0.27790104118701
N        21.23905235021270    1.57511942119028   -0.20628585534956
C        19.45652168861813   -0.05905295627693   -0.14856781444110
C        20.14478496370721   -1.20464725716688   -0.42603552184636
C        19.75307052100423   -2.25754717036675   -1.35242896732239
C        20.72198026986452   -3.18636746017853   -1.27808211392511
C        21.71210347468011   -2.73639089172691   -0.31284543455141
N        21.35656319126312   -1.53700744754914    0.16052799731377
C        22.89965395481721   -3.38220664713558    0.13239541325509
C        24.06163727498696   -2.70163366921610    0.41687706792601
N        24.36903670583510   -1.47718714208148   -0.14703342838161
H        25.18477601923398   -4.01200465609361    1.91650445707685
H        26.97569863987748   -2.19281487906446    1.83464233734000
H        26.80675388309129    2.21982978110158   -1.82049620394335
H        24.87405926579515    4.10730994285109   -1.84781717983953
H        22.62561765919677    4.56356873973313   -0.00732911644827
H        20.43896746378507    4.03490732288927    1.92587906082179
H        18.72781816352117    2.11524456972171    1.84810002159522
H        18.37785828574594   -0.08129542627820   -0.26392859664818
H        18.89844021498777   -2.30092785759875   -2.00984569983095
H        20.72360658506648   -4.07689968281000   -1.87661561604344
H        22.88934503394447   -4.46224919083286    0.25498496443021
Fe       88.84698316781343   -0.01055616664479   -0.01419878179021
C        86.53352506718763    2.85032158014971    1.85904841540863
C        85.59501925652285    1.91648184001071    1.63869393445682
C        86.03547843716261    1.05714602918261    0.55298174139059
C        85.44866142336066   -0.02185276398371   -0.01565870755317
C        86.13203256203286   -1.11088418325193   -0.57663986117221