201
 energy: -365.964413510610 gnorm: 0.000561702158 xtb: 6.4.1 (bd6e46d)
Fe       23.46324448265273   -0.00105491344882   -0.00968489175731
C        25.97354924923363   -3.38125135949810    0.01970681712464
C        26.96280514600379   -2.45710653704139    0.02199972546974
C        26.31828218858839   -1.17981543128784    0.01329330229446
C        26.99076687641114    0.04651684853581    0.01265844508957
C        26.28581300357314    1.25432084368667    0.00661830106374
C        26.89564381349696    2.54858857371450    0.00978522267519
C        25.88180192115762    3.44570163449464    0.00277222223609
C        24.66023313773124    2.69361209689549   -0.00517871283848
N        24.92847700759047    1.34980741678305   -0.00205017167009
C        23.41616750028156    3.29360931474842   -0.01615858322798
C        22.19031253998619    2.65790515121020   -0.02632964413954
C        20.94467643554509    3.37390848633313   -0.03989942834109
C        19.96013454087963    2.44746428513770   -0.04769654499733
C        20.60715913599276    1.16754460599752   -0.03840109807809
N        21.96443083401336    1.30933809217120   -0.02574611338775
C        19.95341674767056   -0.04849477920002   -0.04090127179610
C        20.63957611345713   -1.24649972824432   -0.03024121962150
C        20.02724530716280   -2.54341128384143   -0.03041543388100
C        21.03638654398348   -3.44294215919938   -0.01756152608492
C        22.26226778809778   -2.69355232247506   -0.00991876207351
N        22.00017161748349   -1.35158286879340   -0.01764858938907
C        23.50480807634597   -3.29588828288877    0.00253791900924
C        24.73215443727164   -2.66243252375729    0.00908853073964
N        24.96405572056015   -1.31185804615540    0.00556668908832
H        26.05695108217713   -4.45088358699876    0.02429565195500
H        28.02536204344068   -2.60411442060151    0.02894709241402
H        27.95385493386124    2.72414117825996    0.01679468603237
H        25.93629063570975    4.51719558147660    0.00254475299057
H        23.40170464661639    4.37439014420255   -0.01778947627771
H        20.85947857684612    4.44360626135142   -0.04307222733719
H        18.89732544108525    2.59354673579478   -0.05850858222736
H        18.87460458369950   -0.06302123431247   -0.05096556764412
H        18.96876893850900   -2.71816621089373   -0.03914734983812
H        20.98010269619400   -4.51455005853227   -0.01360248750738
H        23.51959202183368   -4.37665176874604    0.00686286932018
Fe       88.23219081207479    0.02888804676424   -0.00842545040927
C        85.72806436175988    3.35159214270939    0.63778669603199
C        84.73711981177354    2.44527571931436    0.46675594146063
C        85.37937768248113    1.18997729470033    0.22394557606219
C        84.70456527657070   -0.01418219734198   -0.00138953089968
C        85.40715800365764   -1.20242954142491   -0.22501287511185
C        84.79499216138765   -2.47417028982732   -0.45949512819521
C        85.80722883192965   -3.35706175990070   -0.62857251331900
C        87.03020019797076   -2.61876164682278   -0.49711775390187
N        86.76439168415671   -1.29755731926330   -0.24906838759772
C        88.27318161320191   -3.20935923954299   -0.61554236133410
C        89.50024375251500   -2.58500814639251   -0.50847217951228
C        90.74457884344194   -3.28905535474057   -0.65141995456651
C        91.73082282082385   -2.37852426461230   -0.49035467759087
C        91.08614924719328   -1.12037852318007   -0.24872381597504
N        89.72859737753387   -1.25948933863695   -0.26248028201437
C        91.74212420978471    0.07455519848186   -0.02968340753981
C        91.05814457907594    1.25169034531573    0.19980652490047
C        91.67288763158207    2.52548247172156    0.43748983483709
C        90.66540970891450    3.40911591407221    0.61600016663444
C        89.43813631711704    2.67331311035287    0.48617094470410
N        89.69773385601711    1.35515976000681    0.23182334262973
C        88.19670905999038    3.26548975386147    0.60907787880892
C        86.96818814456472    2.64425715187401    0.49723034130525
N        86.73385423352765    1.31805359893013    0.24396430628807
H        85.64661331174858    4.40208183841979    0.84006925654061
H        83.67481454954827    2.59083375817718    0.49863521466963
H        83.73644280076853   -2.64576094551407   -0.48661483983192
H        85.75083819877793   -4.41037212556196   -0.82473105427113
H        88.28564716226293   -4.27178040129813   -0.81407374552141
H        90.82785219352964   -4.34052574645267   -0.84892506538941
H        92.79336988943710   -2.52228855779245   -0.52710107772239
H        92.82096175310794    0.08870105434259   -0.03701526401873
H        92.73169053796704    2.69699798641170    0.46045810031990
H        90.72368063710429    4.46164017168372    0.81679948810651
H        88.18392400697030    4.32693247837084    0.81267322161061
C        28.38656400765857    0.06321555335177    0.01681653456354
C        29.60625943823377    0.07104761644074    0.01685345723369
C        30.94324615711809    0.07636696525159    0.01589440645002
C        32.16735721343364    0.07927833795973    0.00986852309740
C        33.50420219078723    0.07759675051132    0.00568856344569
C        34.72408664291008    0.07410171938583   -0.00048585592455
C        44.58074924130392    0.03400425667704   -0.02001516367227
C        45.80079647714928    0.03118079748618   -0.01708507969942
C        47.13746873913595    0.03037079211954   -0.01832022691168
C        48.36183832422908    0.02831911859588   -0.01516109928556
C        49.69852028344319    0.03048661905312   -0.01647755733216
C        50.91858073775257    0.03273378470667   -0.01797045569717
C        60.77643232417946    0.04351065501965   -0.02229943786207
C        61.99648944985826    0.04498156040142   -0.02151330255481
C        63.33318379709791    0.04640653693433   -0.02149506066448
C        64.55754955081707    0.04696723288665   -0.02051146069737
C        65.89423566182269    0.04550516848091   -0.02003824679915
C        67.11428524375094    0.04465768321649   -0.01967705839676
C        76.97101534433692   -0.01447189446675   -0.01745941067022
C        78.19084415791406   -0.02341148689672   -0.01455484257107
C        79.52777526464897   -0.03005998279476   -0.01260594985975
C        80.75186150852561   -0.03417567973797   -0.00889021986283
C        82.08894824050368   -0.03344174576004   -0.00646076266983
C        83.30861760735408   -0.02753220729326   -0.00292585608084
Fe       39.65222692552488    0.05259766245695   -0.01915113998383
C        37.17201074484581   -3.32789327816245    0.37627677497773
C        36.17309312263620   -2.41938432539180    0.27695658849056
C        36.80448288133016   -1.14410010098817    0.12901032139088
C        36.11929401760680    0.06810300033754   -0.00657210133946
C        36.81406327448422    1.27392483202416   -0.14949019436821
C        36.19270877590067    2.55419606680121   -0.29667501680284
C        37.19871486268655    3.45347069689989   -0.40783422902607
C        38.42640872173587    2.71629074090672   -0.32717489948990
N        38.16985944919541    1.37937493639868   -0.16855437082407
C        39.66519718495195    3.32170339433450   -0.40408572475914
C        40.89917075336730    2.70569858576879   -0.33483401506148
C        42.13263917413535    3.43224594975187   -0.42318585962186
C        43.13151332299334    2.52456050016217   -0.31602783931644
C        42.50015640197012    1.24988962010231   -0.16340815301708
N        41.14526103324527    1.36682297193131   -0.17595537027849
C        43.18560539887257    0.03854426038552   -0.02057977416837
C        42.49084050778634   -1.16777110064179    0.11966215466584
C        43.11211197954181   -2.44819073489853    0.26637525124598
C        42.10600283085911   -3.34835613544531    0.36941017892779
C        40.87834207308301   -2.61153338175953    0.28534862235558
N        41.13502448400895   -1.27400539156880    0.13204760890286
C        39.63946171210056   -3.21751496862680    0.35619960210778
C        38.40548311375233   -2.60119069992997    0.28894697155494
N        38.15940753706342   -1.26151799233828    0.13710086581274
H        37.09968186538033   -4.39142030705296    0.49761646285047
H        35.11209483606578   -2.57570390618009    0.29904826826088
H        35.13295510718287    2.71971800590700   -0.31088074419172
H        37.13474827021302    4.51713467469717   -0.53271429965141
H        39.66939882069136    4.39513210130786   -0.53131371504311
H        42.20508038904804    4.49516321610435   -0.54997389498929
H        44.19255130513012    2.68112514540362   -0.33587902347247
H        44.17186249913473   -2.61325923888839    0.28526527073120
H        42.16993467109989   -4.41232008998881    0.49125909263101
H        39.63508357704357   -4.29149335970357    0.47873670298420
Fe       55.84751257899197    0.03805962198480   -0.02142380367049
C        53.38430244465257   -3.35605275346624    0.36313052975860
C        52.38068865723348   -2.45346791613233    0.25770382812864
C        53.00537425891409   -1.17423260936884    0.11540995119267
C        52.31375661142484    0.03456571865301   -0.01927991496948
C        53.00267725743419    1.24468353801109   -0.15521842679790
C        52.37532043701027    2.52256294995465   -0.29721147793740
C        53.37700778087374    3.42708215348173   -0.40452552916969
C        54.60818934598931    2.69536670903449   -0.32724943930658
N        54.35798332531010    1.35667236136081   -0.17285854377510
C        55.84397868290219    3.30645446712367   -0.40672940257232
C        57.08106605309229    2.69623572720024   -0.34205514686913
C        58.31070838023441    3.42846353414717   -0.43713520716420
C        59.31430086540645    2.52595611443368   -0.33083570880169
C        58.68963836069115    1.24878570098954   -0.17164033029347
N        57.33410238738532    1.35890214455610   -0.18071042766413
C        59.38126019137097    0.04178170763484   -0.02223178771720
C        58.69234935477463   -1.16683738077096    0.12697805188687
C        59.31974598628912   -2.44287045869764    0.28518613457931
C        58.31804113276225   -3.34747066315234    0.39160634911992
C        57.08686133596601   -2.61772676623587    0.29745409207264
N        57.33705186988876   -1.27979206649067    0.13654029943245
C        55.85104715651024   -3.23047127329448    0.36284257713827
C        54.61393628095205   -2.62182008763672    0.28483368913929
N        54.36090652101355   -1.28354151317527    0.13139977195984
H        53.31800982536819   -4.42012331721553    0.48303922721767
H        51.32048408998528   -2.61615642643652    0.27212773970184
H        51.31475230544373    2.68311544680624   -0.31065089899202
H        53.30845797957627    4.49098418332359   -0.52517663674702
H        55.84286702412554    4.37997048204853   -0.53333958802035
H        58.37703624147544    4.49135672336313   -0.56745455011107
H        60.37452966164409    2.68746382227133   -0.35512488860362
H        60.38028594827020   -2.60223863312040    0.30892980505405
H        58.38655056846745   -4.41023683050205    0.52156346861041
H        55.85216074890933   -4.30403853958386    0.48901516285601
Fe       72.04278188465356    0.01571190636950   -0.02001877221194
C        69.55508797952243   -3.35849218687792    0.38438215344842
C        68.55813560025659   -2.44854120592260    0.27859541534999
C        69.19223654899224   -1.17528782843890    0.12506238309224
C        68.50942465083169    0.03736735738916   -0.01958240229803
C        69.20681131491941    1.24157647068479   -0.16427599987245
C        68.58833398730906    2.52249603478576   -0.31759174431039
C        69.59635410461591    3.42011454103686   -0.42410645246920
C        70.82244687899541    2.68124814750059   -0.33496118422754
N        70.56285781322717    1.34494070591693   -0.17614979692754
C        72.06264259735821    3.28472902225472   -0.40414217601582
C        73.29528538561526    2.66666927960790   -0.32888577768606
C        74.53036240133217    3.39135401609225   -0.41063977945388
C        75.52730543227729    2.48164723414250   -0.30297051369282
C        74.89315624137170    1.20753382908005   -0.15651773894305
N        73.53843716884160    1.32698936740028   -0.17250847341493
C        75.57568540284066   -0.00584230131813   -0.01894456761761
C        74.87832589422453   -1.21091928538646    0.11743295172992
C        75.49688449102597   -2.49274736906329    0.26321193682397
C        74.48889371398850   -3.39035911804488    0.36953727054164
C        73.26280430097630   -2.65060069973228    0.28788592849128
N        73.52228523302338   -1.31386768391701    0.13250253989367
C        72.02270840465708   -3.25352910387737    0.36301327057656
C        70.79007764755762   -2.63474155432419    0.29472288643933
N        70.54688085292065   -1.29527721616190    0.13635647442224
H        69.48041227764840   -4.42119893349313    0.51119011975875
H        67.49679773828461   -2.60269272416305    0.29973156738215
H        67.52891831911444    2.68962733954818   -0.33812898512308
H        69.53466620741942    4.48365780024980   -0.55103651909505
H        72.06932266892034    4.35824049692680   -0.53064645693822
H        74.60499836566395    4.45449054325597   -0.53418707135147
H        76.58866756786344    2.63633438086492   -0.31908655279384
H        76.55627495935178   -2.66034047507064    0.27975324172857
H        74.55050065204213   -4.45441734726502    0.49220815806169
H        72.01619139367658   -4.32710115901219    0.48894832683914
