271
 energy: -471.932478124695 gnorm: 0.993449490393 xtb: 6.4.1 (bd6e46d)
Zn       42.10772900000000    0.04415900000000   -0.01372200000000
C        44.43672000000000   -3.10263400000000    1.30896700000000
C        45.35282700000000   -2.15842600000000    1.25868400000000
C        44.94164800000000   -1.10452200000000    0.33739300000000
C        45.56051800000000    0.01982400000000   -0.00901700000000
C        44.85647600000000    1.23977200000000   -0.37312300000000
C        45.18458700000000    2.19982700000000   -1.22059600000000
C        44.14980700000001    3.21611200000000   -1.23749400000000
C        43.21353900000000    2.83965000000000   -0.39060200000000
N        43.61552900000000    1.60663900000000    0.17321500000000
C        41.95246500000000    3.48465000000000   -0.01145100000000
C        40.85724700000000    2.84986700000000    0.33931000000000
C        39.78362200000000    3.16782300000000    1.30833800000000
C        38.94605900000001    2.17106900000000    1.23117100000000
C        39.38435700000000    1.16738600000000    0.25071900000000
N        40.48929500000000    1.60623900000000   -0.23357300000000
C        38.77352200000000   -0.08588500000000   -0.16282900000000
C        39.43768200000001   -1.19039100000000   -0.41725300000000
C        39.06383400000000   -2.25333300000000   -1.37478000000000
C        40.01258100000000   -3.14708900000000   -1.28576100000000
C        40.99830500000000   -2.70963900000000   -0.30288300000000
N        40.64525900000000   -1.56383400000000    0.19391400000000
C        42.22919300000000   -3.36570900000000    0.14283800000000
C        43.35223400000000   -2.71984800000000    0.40995900000000
N        43.68083400000000   -1.47240700000000   -0.18844500000000
H        44.49698200000000   -4.01241400000000    1.92651300000000
H        46.26915500000000   -2.19837600000000    1.83673300000000
H        46.11195200000001    2.21662300000000   -1.82174000000000
H        44.16670600000000    4.12080100000000   -1.85011500000000
H        41.90474200000001    4.57945200000000   -0.01522800000000
H        39.73080000000001    4.04654800000000    1.93333000000000
H        38.03442900000000    2.13539900000000    1.84849600000000
H        37.67527100000000   -0.08297400000000   -0.26209900000000
H        38.19497800000001   -2.30579800000000   -2.02373100000000
H        40.00973500000000   -4.06339700000000   -1.88452100000000
H        42.19371000000001   -4.46151100000000    0.25476300000000
Zn      125.39376200000001   -0.00321700000000   -0.01815500000000
C       123.06477099999999    2.84357500000000    1.86534900000000
C       122.14866400000000    1.92508600000000    1.64077600000000
C       122.55984300000000    1.06038900000000    0.53996200000000
C       121.94097300000000    0.01982400000000   -0.00901700000000
C       122.64501500000000   -1.11140100000000   -0.59312000000000
C       122.31690400000001   -1.89757300000000   -1.60398700000000
C       123.35168400000001   -2.89308200000000   -1.80912700000000
C       124.28795200000000   -2.68026600000000   -0.90709700000000
N       123.88596200000001   -1.57325400000000   -0.12432600000000
C       125.54902700000001   -3.38440700000000   -0.65418400000000
C       126.64424400000000   -2.82571400000000   -0.19175100000000
C       127.71786899999999   -3.31791900000000    0.70147100000000
C       128.55543200000000   -2.32415200000000    0.81055700000000
C       128.11713499999999   -1.15600400000000    0.03332200000000
N       127.01219700000001   -1.49739600000000   -0.52397800000000
C       128.72796900000000    0.15223200000000   -0.14054800000000
C       128.06380899999999    1.28476500000000   -0.18565400000000
C       128.43765800000000    2.50689100000000   -0.92936900000000
C       127.48891000000000    3.36861800000000   -0.67609100000000
C       126.50318700000000    2.75642300000000    0.20857200000000
N       126.85623200000001    1.53834500000000    0.48418300000000
C       125.27229900000000    3.31841800000000    0.76826700000000
C       124.14925700000002    2.63421300000000    0.91093500000000
N       123.82065700000000    1.51943800000000    0.09150000000000
H       123.00450900000001    3.62300000000000    2.64095400000000
H       121.23233600000000    1.85710500000000    2.21620100000000
H       121.38953900000000   -1.80255600000000   -2.19781100000000
H       123.33478500000000   -3.66841600000000   -2.57894700000000
H       125.59674900000000   -4.45950500000000   -0.86099700000000
H       127.77069100000000   -4.29733600000000    1.15259800000000
H       129.46706300000000   -2.40362400000000    1.42378200000000
H       129.82622000000001    0.16778800000000   -0.23863600000000
H       129.30651300000000    2.67883500000000   -1.55732200000000
H       127.49175600000001    4.38009900000000   -1.09446800000000
H       125.30778100000001    4.37443400000000    1.08153600000000
C        48.45522200000000    0.01778800000000   -0.01012900000000
C        49.66319900000001    0.02524300000000   -0.00843400000000
C        51.08196700000000    0.02594000000000   -0.00329700000000
C        52.29748300000000    0.01778800000000   -0.01012900000000
C        61.80537300000000    0.01778800000000   -0.01012900000000
C        63.01335000000000    0.02524300000000   -0.00843400000000
C        64.43211700000001    0.02594000000000   -0.00329700000000
C        65.64763400000000    0.01778800000000   -0.01012900000000
C        75.15552300000000    0.01778800000000   -0.01012900000000
C        76.36350000000000    0.02524300000000   -0.00843400000000
C        77.78226800000002    0.02594000000000   -0.00329700000000
C        78.99778400000001    0.01778800000000   -0.01012900000000
C        88.50567400000000    0.01778800000000   -0.01012900000000
C        89.71365000000000    0.02524300000000   -0.00843400000000
C        91.13241800000002    0.02594000000000   -0.00329700000000
C        92.34793500000001    0.01778800000000   -0.01012900000000
C       101.85582400000000    0.01778800000000   -0.01012900000000
C       103.06380100000001    0.02524300000000   -0.00843400000000
C       104.48256900000000    0.02594000000000   -0.00329700000000
C       105.69808500000001    0.01778800000000   -0.01012900000000
C       115.20597500000000    0.01778800000000   -0.01012900000000
C       116.41395100000001    0.02524300000000   -0.00843400000000
C       117.83271900000000    0.02594000000000   -0.00329700000000
C       119.04823600000000    0.01778800000000   -0.01012900000000
Zn       57.08606500000000    0.03792400000000    0.00200900000000
C        54.80625400000000   -3.22352300000000   -0.90765700000000
C        53.85004500000000   -2.32417300000000   -1.00968300000000
C        54.24241900000000   -1.16186800000000   -0.20716700000000
C        53.60730200000000   -0.01059600000000    0.00509900000000
C        54.29275900000000    1.26400400000000    0.23132800000000
C        53.95746900000000    2.34260400000000    0.93556900000000
C        54.98201000000001    3.36192100000000    0.84498700000000
C        55.93260800000001    2.86499600000000    0.07162200000000
N        55.55561400000001    1.54839100000000   -0.34452000000000
C        57.17974700000001    3.47669800000000   -0.34524300000000
C        58.28129900000000    2.80944100000000   -0.67701500000000
C        59.27484500000000    3.06142500000000   -1.71118400000000
C        60.16872900000000    2.10056600000000   -1.60970000000000
C        59.78903000000000    1.18868200000000   -0.50572300000000
N        58.69411500000000    1.63800100000000    0.00164300000000
C        60.44623700000001   -0.01059600000000    0.00509900000000
C        59.82282600000000   -1.07977800000000    0.46661600000000
C        60.20153900000000   -2.01189300000000    1.54209100000000
C        59.26087000000000   -2.92603900000000    1.62795800000000
C        58.25256900000000   -2.63026000000000    0.63053000000000
N        58.59034300000000   -1.57688300000000   -0.01876500000000
C        57.00017500000000   -3.33726700000000    0.29933700000000
C        55.88629900000000   -2.74057100000000   -0.04800400000000
N        55.50418700000001   -1.45781400000000    0.36967900000000
H        54.80659900000000   -4.21459700000000   -1.39889100000000
H        52.94151000000001   -2.44586700000000   -1.59083100000000
H        53.03261700000000    2.46095500000000    1.51249500000000
H        55.00930500000000    4.35108500000000    1.30163800000000
H        57.26568700000000    4.57407500000000   -0.40726600000000
H        59.30751800000000    3.86764100000000   -2.43800800000000
H        61.06179000000000    1.98759800000000   -2.24347500000000
H        61.11628900000000   -1.93748700000000    2.15226100000000
H        59.27991600000001   -3.73964700000000    2.33622500000000
H        57.03866000000001   -4.43722700000000    0.35837300000000
Zn       70.43621500000002    0.03792400000000    0.00200900000000
C        68.15640399999999   -3.22352300000000   -0.90765700000000
C        67.20019499999999   -2.32417300000000   -1.00968300000000
C        67.59256900000000   -1.16186800000000   -0.20716700000000
C        66.95745300000000   -0.01059600000000    0.00509900000000
C        67.64291000000000    1.26400400000000    0.23132800000000
C        67.30762000000000    2.34260400000000    0.93556900000000
C        68.33216100000001    3.36192100000000    0.84498700000000
C        69.28275800000000    2.86499600000000    0.07162200000000
N        68.90576400000000    1.54839100000000   -0.34452000000000
C        70.52989800000000    3.47669800000000   -0.34524300000000
C        71.63144900000000    2.80944100000000   -0.67701500000000
C        72.62499600000000    3.06142500000000   -1.71118400000000
C        73.51887900000001    2.10056600000000   -1.60970000000000
C        73.13918099999999    1.18868200000000   -0.50572300000000
N        72.04426599999999    1.63800100000000    0.00164300000000
C        73.79638799999999   -0.01059600000000    0.00509900000000
C        73.17297600000002   -1.07977800000000    0.46661600000000
C        73.55168900000000   -2.01189300000000    1.54209100000000
C        72.61102000000000   -2.92603900000000    1.62795800000000
C        71.60271899999999   -2.63026000000000    0.63053000000000
N        71.94049400000000   -1.57688300000000   -0.01876500000000
C        70.35032600000000   -3.33726700000000    0.29933700000000
C        69.23644899999999   -2.74057100000000   -0.04800400000000
N        68.85433700000000   -1.45781400000000    0.36967900000000
H        68.15674900000000   -4.21459700000000   -1.39889100000000
H        66.29166100000000   -2.44586700000000   -1.59083100000000
H        66.38276700000000    2.46095500000000    1.51249500000000
H        68.35945599999999    4.35108500000000    1.30163800000000
H        70.61583800000000    4.57407500000000   -0.40726600000000
H        72.65766800000000    3.86764100000000   -2.43800800000000
H        74.41194000000002    1.98759800000000   -2.24347500000000
H        74.46643899999999   -1.93748700000000    2.15226100000000
H        72.63006700000000   -3.73964700000000    2.33622500000000
H        70.38881000000001   -4.43722700000000    0.35837300000000
Zn       83.78636600000000    0.03792400000000    0.00200900000000
C        81.50655500000001   -3.22352300000000   -0.90765700000000
C        80.55034600000000   -2.32417300000000   -1.00968300000000
C        80.94271999999999   -1.16186800000000   -0.20716700000000
C        80.30760300000001   -0.01059600000000    0.00509900000000
C        80.99306000000000    1.26400400000000    0.23132800000000
C        80.65777000000001    2.34260400000000    0.93556900000000
C        81.68231100000001    3.36192100000000    0.84498700000000
C        82.63290900000000    2.86499600000000    0.07162200000000
N        82.25591400000000    1.54839100000000   -0.34452000000000
C        83.88004800000000    3.47669800000000   -0.34524300000000
C        84.98160000000000    2.80944100000000   -0.67701500000000
C        85.97514600000000    3.06142500000000   -1.71118400000000
C        86.86902900000001    2.10056600000000   -1.60970000000000
C        86.48933100000001    1.18868200000000   -0.50572300000000
N        85.39441600000001    1.63800100000000    0.00164300000000
C        87.14653800000001   -0.01059600000000    0.00509900000000
C        86.52312700000000   -1.07977800000000    0.46661600000000
C        86.90183900000001   -2.01189300000000    1.54209100000000
C        85.96117100000001   -2.92603900000000    1.62795800000000
C        84.95286900000001   -2.63026000000000    0.63053000000000
N        85.29064400000000   -1.57688300000000   -0.01876500000000
C        83.70047600000001   -3.33726700000000    0.29933700000000
C        82.58660000000002   -2.74057100000000   -0.04800400000000
N        82.20448700000000   -1.45781400000000    0.36967900000000
H        81.50689900000000   -4.21459700000000   -1.39889100000000
H        79.64181100000000   -2.44586700000000   -1.59083100000000
H        79.73291800000000    2.46095500000000    1.51249500000000
H        81.70960599999999    4.35108500000000    1.30163800000000
H        83.96598800000000    4.57407500000000   -0.40726600000000
H        86.00781900000001    3.86764100000000   -2.43800800000000
H        87.76209100000000    1.98759800000000   -2.24347500000000
H        87.81659000000002   -1.93748700000000    2.15226100000000
H        85.98021700000000   -3.73964700000000    2.33622500000000
H        83.73896100000002   -4.43722700000000    0.35837300000000
Zn       97.13651600000000    0.03792400000000    0.00200900000000
C        94.85670500000001   -3.22352300000000   -0.90765700000000
C        93.90049600000000   -2.32417300000000   -1.00968300000000
C        94.29286999999999   -1.16186800000000   -0.20716700000000
C        93.65775400000000   -0.01059600000000    0.00509900000000
C        94.34321100000000    1.26400400000000    0.23132800000000
C        94.00792000000001    2.34260400000000    0.93556900000000
C        95.03246200000001    3.36192100000000    0.84498700000000
C        95.98305900000000    2.86499600000000    0.07162200000000
N        95.60606500000000    1.54839100000000   -0.34452000000000
C        97.23019900000000    3.47669800000000   -0.34524300000000
C        98.33175000000000    2.80944100000000   -0.67701500000000
C        99.32529700000002    3.06142500000000   -1.71118400000000
C       100.21917999999999    2.10056600000000   -1.60970000000000
C        99.83948200000000    1.18868200000000   -0.50572300000000
N        98.74456700000000    1.63800100000000    0.00164300000000
C       100.49668900000000   -0.01059600000000    0.00509900000000
C        99.87327700000002   -1.07977800000000    0.46661600000000
C       100.25199000000001   -2.01189300000000    1.54209100000000
C        99.31132100000002   -2.92603900000000    1.62795800000000
C        98.30302000000000   -2.63026000000000    0.63053000000000
N        98.64079500000000   -1.57688300000000   -0.01876500000000
C        97.05062700000001   -3.33726700000000    0.29933700000000
C        95.93675000000002   -2.74057100000000   -0.04800400000000
N        95.55463800000000   -1.45781400000000    0.36967900000000
H        94.85705000000000   -4.21459700000000   -1.39889100000000
H        92.99196200000000   -2.44586700000000   -1.59083100000000
H        93.08306800000001    2.46095500000000    1.51249500000000
H        95.05975700000000    4.35108500000000    1.30163800000000
H        97.31613900000001    4.57407500000000   -0.40726600000000
H        99.35796900000001    3.86764100000000   -2.43800800000000
H       101.11224100000000    1.98759800000000   -2.24347500000000
H       101.16674000000002   -1.93748700000000    2.15226100000000
H        99.33036800000001   -3.73964700000000    2.33622500000000
H        97.08911100000000   -4.43722700000000    0.35837300000000
Zn      110.48666700000000    0.03792400000000    0.00200900000000
C       108.20685600000000   -3.22352300000000   -0.90765700000000
C       107.25064700000000   -2.32417300000000   -1.00968300000000
C       107.64302100000000   -1.16186800000000   -0.20716700000000
C       107.00790400000000   -0.01059600000000    0.00509900000000
C       107.69336100000000    1.26400400000000    0.23132800000000
C       107.35807100000000    2.34260400000000    0.93556900000000
C       108.38261200000001    3.36192100000000    0.84498700000000
C       109.33320999999999    2.86499600000000    0.07162200000000
N       108.95621500000000    1.54839100000000   -0.34452000000000
C       110.58034900000000    3.47669800000000   -0.34524300000000
C       111.68190100000000    2.80944100000000   -0.67701500000000
C       112.67544700000001    3.06142500000000   -1.71118400000000
C       113.56932999999999    2.10056600000000   -1.60970000000000
C       113.18963200000000    1.18868200000000   -0.50572300000000
N       112.09471700000000    1.63800100000000    0.00164300000000
C       113.84683900000000   -0.01059600000000    0.00509900000000
C       113.22342800000000   -1.07977800000000    0.46661600000000
C       113.60214000000001   -2.01189300000000    1.54209100000000
C       112.66147200000000   -2.92603900000000    1.62795800000000
C       111.65317000000000   -2.63026000000000    0.63053000000000
N       111.99094500000000   -1.57688300000000   -0.01876500000000
C       110.40077700000001   -3.33726700000000    0.29933700000000
C       109.28690100000000   -2.74057100000000   -0.04800400000000
N       108.90478800000000   -1.45781400000000    0.36967900000000
H       108.20720000000000   -4.21459700000000   -1.39889100000000
H       106.34211200000000   -2.44586700000000   -1.59083100000000
H       106.43321899999999    2.46095500000000    1.51249500000000
H       108.40990700000000    4.35108500000000    1.30163800000000
H       110.66628900000001    4.57407500000000   -0.40726600000000
H       112.70812000000001    3.86764100000000   -2.43800800000000
H       114.46239199999999    1.98759800000000   -2.24347500000000
H       114.51689100000000   -1.93748700000000    2.15226100000000
H       112.68051800000001   -3.73964700000000    2.33622500000000
H       110.43926200000001   -4.43722700000000    0.35837300000000
271
 energy: -472.330077080305 gnorm: 0.576023041143 xtb: 6.4.1 (bd6e46d)
Zn       42.11756778915245    0.04425252519952   -0.01266632617219
C        44.43609341790840   -3.11088869445390    1.30185688314222
C        45.36602085146937   -2.15741892062923    1.25567945165471
C        44.93763421591117   -1.10740214549277    0.34366305561093
C        45.54261782508758    0.03714026397955   -0.01188288675014
C        44.84532926920532    1.23526546168075   -0.36532574101728
C        45.19514758712810    2.22454590954826   -1.23695159097938
C        44.17648741220037    3.21839333071482   -1.24997752202053
C        43.20717185219324    2.81988206662715   -0.38358998779714
N        43.59664975290452    1.59184742413563    0.17616032634611
C        41.96959614190585    3.48415237246120   -0.01263390363141
C        40.84662688035335    2.83579223091658    0.34051983832306
C        39.78621581955913    3.17492467888775    1.29378886526708
C        38.92270445974978    2.16343229664474    1.23380112036195
C        39.37715433120913    1.16823240871896    0.26509603387539
N        40.51722536694359    1.59070318913218   -0.22014964177252
C        38.76298083361745   -0.06542020753709   -0.15643527677656
C        39.44127837191259   -1.19517019816849   -0.42231416901993
C        39.05651741271820   -2.25154694929125   -1.36318997002376
C        40.01969816274696   -3.16682246952896   -1.28263946123358
C        41.00728292008236   -2.72013455372025   -0.30996126019188
N        40.65182033175253   -1.54420269604254    0.17313100274064
C        42.21163803915219   -3.37144320293373    0.13567772931274
C        43.35905854945897   -2.70630555641039    0.41165928536305
N        43.67725810470339   -1.47218580342231   -0.16537383012607
H        44.49001641786649   -4.00761190078875    1.91949255233031
H        46.27288355368967   -2.19059544134793    1.83427121465681
H        46.10932816688466    2.22333495412275   -1.82254231921159
H        44.17201464623577    4.11791379154611   -1.85058792670580
H        41.91733721359707    4.57573904164203   -0.01010529402815
H        39.73666903801831    4.04506642641740    1.92824781447813
H        38.03123832365115    2.12778340839986    1.84705998627748
H        37.67719568428804   -0.07645439921060   -0.26600910496002
H        38.19684151512720   -2.29787915394207   -2.01740519026692
H        40.01873258341347   -4.06636235768814   -1.88118500084690
H        42.18969163112479   -4.45729702763239    0.25509820854554
Zn      125.38392572254817   -0.00349414811785   -0.01714387191855
C       123.06540506357626    2.85300463626197    1.85989411872037
C       122.13549374411409    1.92464481520241    1.63763218307687
C       122.56388855412921    1.06204140874725    0.54667160790207
C       121.95888735430138    0.00329296302231   -0.01491050741464
C       122.65618681420325   -1.10841405583774   -0.58462348519863
C       122.30635221126752   -1.91881854493907   -1.62462169156476
C       123.32501445342776   -2.89301070054782   -1.82180941212973
C       124.29432632147035   -2.66215562928512   -0.89654533296013
N       123.90484287415646   -1.55927217182156   -0.11869980765673
C       125.53189201827179   -3.38370889171305   -0.65525582745044
C       126.65486509710233   -2.81210491821391   -0.18794531542074
C       127.71526898198825   -3.32219479677480    0.68585569307199
C       128.57878789070452   -2.31712904814402    0.81455349544641
C       128.12434342756382   -1.15950174540203    0.04729409805736
N       126.98426281477458   -1.48462767303454   -0.50790648048675
C       128.73851082732187    0.13093363265153   -0.13805908487127
C       128.06021189551501    1.29040049202261   -0.18974199774201
C       128.44497157022428    2.50298199190398   -0.91831143850285
C       127.48179033521637    3.38743002778093   -0.66936030209976
C       126.49420675464228    2.76805155017622    0.20356256208229
N       126.84967236748325    1.52290907300536    0.46012148778328
C       125.28985536438019    3.32538935589606    0.76229500136566
C       124.14243143245218    2.62059657020751    0.91008179869854
N       123.82424566571521    1.51495195739327    0.11413462060373
H       123.01147307164327    3.61958635167752    2.63316454942027
H       121.22861270882190    1.84992433407980    2.21233693902424
H       121.39216956168643   -1.80898829443408   -2.19984158004246
H       123.32948162088282   -3.66549469308062   -2.57888109515832
H       125.58415913672528   -4.45681320168540   -0.85528402720990
H       127.76482221242938   -4.29493821563657    1.14787729406085
H       129.47025509571819   -2.39587377993942    1.42378251620423
H       129.82429577916537    0.16210687978711   -0.24368580630790
H       129.30464920285380    2.66987960138868   -1.55257392950347
H       127.48275746129252    4.38239494265412   -1.09063795776336
H       125.31180058340861    4.37023456865387    1.08108911067557
C        48.44590940330153    0.01811782154661   -0.00855760326644
C        49.66764858726446    0.02544961317926   -0.00866726695796
C        51.05519578398664    0.02649678365865   -0.00358032994592
C        52.27333211005999    0.02482884263688   -0.01265062692513
C        61.81977254907167    0.02383472335801   -0.00810488511357
C        63.03637430531553    0.02565207526018   -0.00691906246920
C        64.40750067221546    0.02637770172532   -0.00387092078788
C        65.62503546482891    0.02468001164384   -0.01353207819129
C        75.16998065560702    0.02388779140380   -0.00790089191406
C        76.38648265116022    0.02566921182312   -0.00685401548401
C        77.75771443602899    0.02637658215103   -0.00390070722755
C        78.97514078702226    0.02465646569836   -0.01361663249505
C        88.52010615968291    0.02389073456244   -0.00786804485225
C        89.73668095994512    0.02567517140399   -0.00682747438217
C        91.10781972328343    0.02637517046329   -0.00390071662275
C        92.32532388644346    0.02464416353576   -0.01364317923922
C       101.87016131191270    0.02387091632039   -0.00788771187456
C       103.08697462031937    0.02568383580049   -0.00678483268133
C       104.45783999505667    0.02637357895555   -0.00388503656869
C       105.67555188995387    0.02462593899869   -0.01368052853371
C       115.22288288420035    0.02432775776704   -0.00738032520242
C       116.43985586484111    0.02559900400910   -0.00738433857888
C       117.83044752559347    0.02534616103082   -0.00362467977027
C       119.05302512097788    0.01730182396594   -0.00941992421358
Zn       57.07786456338626    0.04045470044314    0.00102313874083
C        54.80852825638459   -3.23981112198535   -0.90222657154315
C        53.84409799273109   -2.32255732808468   -1.00182199634919
C        54.26690565201017   -1.17719600169615   -0.21021202406993
C        53.62327214451028    0.00674286462486    0.00450268148354
C        54.31989867390836    1.26729743844332    0.22832888587173
C        53.94969688665875    2.36599557767792    0.94619364648455
C        54.96022663471950    3.36357621994672    0.85178022555200
C        55.94270074798397    2.84729129432445    0.06652895741449
N        55.57516373672140    1.53903439862124   -0.33545612033597
C        57.16666351750779    3.47677320949031   -0.34571700816072
C        58.28997510508692    2.79852041074631   -0.67800297656446
C        59.27922478784205    3.06836816974228   -1.70025046551254
C        60.18734088919840    2.08919276596358   -1.60818365711884
C        59.79133696188703    1.18937441509729   -0.52039017219985
N        58.66619092194436    1.62447349016348   -0.01178359699126
C        60.44933782025951    0.00579260572429   -0.00372685534907
C        59.80754446505153   -1.09355380258399    0.47472642596582
C        60.21227441504152   -2.00899560585800    1.53337122627729
C        59.25645762494665   -2.94141607269184    1.62650265714972
C        58.24281461759363   -2.63916973129068    0.63909448119904
N        58.58004373173308   -1.54727996212418   -0.00971720857773
C        57.01997955036192   -3.34352748329116    0.30860662863585
C        55.87375545213025   -2.72905811995346   -0.05485854042974
N        55.51382034524880   -1.45064789635053    0.34434185720635
H        54.81082852532180   -4.21124357897846   -1.39534228205621
H        52.94230953722386   -2.43731371483941   -1.58670248272955
H        53.03265112266774    2.46405026107156    1.51279783510770
H        55.00068300328795    4.34604340310287    1.30309659969641
H        57.25183999665803    4.56866271970820   -0.41159780779917
H        59.30131553393990    3.86608251714898   -2.43119244891944
H        61.06172124762826    1.98217038009845   -2.24027383354578
H        61.11119766104675   -1.93300928923499    2.14502570023430
H        59.27357767223193   -3.74463215615847    2.33641108316736
H        57.04355357643431   -4.43426566580680    0.35647276867690
Zn       70.42771747543011    0.04035722494818    0.00107836864545
C        68.15806155106870   -3.24010440158133   -0.90205000860082
C        67.19437025204087   -2.32313126919996   -1.00177517377006
C        67.61718357915929   -1.17720613534147   -0.20891483559678
C        66.97379751139241    0.00638199293820    0.00442437578015
C        67.67029502816081    1.26776301497017    0.22784469055328
C        67.30009600570091    2.36601417109098    0.94628548231836
C        68.31032006643254    3.36384006118241    0.85160241329772
C        69.29302562853968    2.84753882135260    0.06647100142178
N        68.92496454401524    1.53894522011915   -0.33550189964925
C        70.51662028557475    3.47670270097084   -0.34544681432278
C        71.64022162789337    2.79841188242073   -0.67799939528569
C        72.62927719028637    3.06830707401081   -1.70031595723679
C        73.53751210855042    2.08915242432651   -1.60821999918816
C        73.14135732304386    1.18935501016930   -0.52059012479528
N        72.01635570880741    1.62450240549279   -0.01182452877961
C        73.79938200018314    0.00562723103670   -0.00359016802418
C        73.15796419270598   -1.09344860081719    0.47471787018192
C        73.56273422397874   -2.00913502644239    1.53326732309509
C        72.60656767800917   -2.94106893934125    1.62682195213248
C        71.59317209135230   -2.63861652490168    0.63927851080523
N        71.92994927544873   -1.54768591968051   -0.00973005544023
C        70.36950975389357   -3.34349529091367    0.30800709071236
C        69.22450022476166   -2.72930856550577   -0.05468802383419
N        68.86400417502163   -1.45017116094684    0.34431056532809
H        68.16089207374327   -4.21129902932987   -1.39542490064722
H        66.29254587452931   -2.43739817563616   -1.58681186145534
H        66.38282922000742    2.46408313137977    1.51278229951308
H        68.35082775119422    4.34612204615183    1.30311306540649
H        70.60199802578732    4.56862617961782   -0.41144239047076
H        72.65145899191624    3.86607557467351   -2.43118096497675
H        74.41188120254449    1.98217415400894   -2.24025846052923
H        74.46143574020208   -1.93303605737032    2.14502630556516
H        72.62373247249846   -3.74456875597712    2.33641692125416
H        70.39371083590139   -4.43422801720400    0.35596248553523
Zn       83.77781774655048    0.04031139510515    0.00109015667113
C        81.50809617384932   -3.24014220139580   -0.90201471577446
C        80.54453887262088   -2.32323616328005   -1.00177661161869
C        80.96734382582419   -1.17710955168897   -0.20885078378192
C        80.32399745629272    0.00632121651221    0.00438665655797
C        81.02049789832081    1.26777568155199    0.22787847469636
C        80.65029997032586    2.36602486649037    0.94632644414574
C        81.66044931592366    3.36388304139514    0.85156858166631