271
 energy: -473.683967102153 gnorm: 0.000900013800 xtb: 6.4.1 (bd6e46d)
Zn       43.38792889029402    0.00803728691840   -0.01442254682566
C        45.92124335851889   -3.42638311286223    0.01575073053709
C        46.87473336354717   -2.46370764549391    0.01487389238175
C        46.18612479269068   -1.20460789237298    0.00475080811009
C        46.82555579803989    0.04610390365311   -0.00143348671449
C        46.15894940980157    1.28238795739162   -0.01003674080820
C        46.81952833223739    2.55646085004602   -0.01254264314746
C        45.84490929558523    3.49776987006955   -0.01785592218251
C        44.59233063567864    2.79655985241092   -0.01915512440305
N        44.81523684778830    1.45207156964753   -0.01432499267168
C        43.35096260862710    3.41054867806165   -0.02519420495624
C        42.12388817112459    2.76833692811792   -0.02880661693984
C        40.85059456087271    3.43633310281751   -0.03713401387613
C        39.90364039259638    2.46943482317667   -0.04014120694025
C        40.59767137635020    1.20980228038633   -0.03332350368497
N        41.93959282824662    1.42205868315078   -0.02632710493708
C        39.97908951764733   -0.02981189012696   -0.03398163573848
C        40.62490196013947   -1.25543605687699   -0.02641342671720
C        39.95890788862816   -2.53013924816632   -0.02645380589269
C        40.92702171926526   -3.47580044190276   -0.01633708573626
C        42.18517983324222   -2.77972931932704   -0.01026519954037
N        41.97117689641397   -1.43787025718928   -0.01692230107277
C        43.42613133907896   -3.39455917860719    0.00092885302414
C        44.65350227406019   -2.75313481590509    0.00570712019154
N        44.84656569764473   -1.40402704286477   -0.00017600720149
H        46.04931863744519   -4.49166492282325    0.02212699136348
H        47.94154691962795   -2.57726544222811    0.02024414193977
H        47.88361107716617    2.69354974749931   -0.00971160282422
H        45.94930010064319    4.56564674273764   -0.02059985965035
H        43.33991559631384    4.49169980038919   -0.02814186756442
H        40.71840651439699    4.50133139221438   -0.04043390558161
H        38.83612338391841    2.57930406042484   -0.04639381836688
H        38.89814645934973   -0.04178262567223   -0.04062236620769
H        38.89409522944131   -2.66367834119009   -0.03322820361055
H        40.81849661506605   -4.54346669695319   -0.01318050493503
H        43.43911337290001   -4.47567687645953    0.00579178494528
Zn      124.14179098299529    0.04211676088491   -0.01229409269150
C       121.61789908000061    3.42800714099539    0.60411344111384
C       120.66170772643889    2.48319892049768    0.43411851411897
C       121.34683864643496    1.24232155581806    0.20932139599022
C       120.70414133539845    0.01210007272410   -0.00570179011923
C       121.36724647439513   -1.20706417163477   -0.22153534345089
C       120.70308460574090   -2.46007042256358   -0.44204880879626
C       121.67502934669344   -3.38824012807538   -0.61451908484642
C       122.92957823402497   -2.70016999021838   -0.49886510826531
N       122.71050557015968   -1.37659484086221   -0.25928240097997
C       124.16917491052607   -3.30612671527245   -0.61826112564408
C       125.39800372416701   -2.67590145701496   -0.51373148291825
C       126.66941273020603   -3.33494161929241   -0.64322036372870
C       127.61907256039215   -2.38530773192449   -0.47604814942966
C       126.92859029098710   -1.14517715267047   -0.24427252722164
N       125.58608575939614   -1.35176245536069   -0.27349007678211
C       127.55065154304225    0.07276901215891   -0.02312283614102
C       126.90827518946637    1.27927743645224    0.20260810497431
C       127.57785091599617    2.53147596580829    0.43084721876986
C       126.61238288017826    3.46369164668386    0.60533823350652
C       125.35223450137372    2.78196469155209    0.48358767352731
N       125.56249628491533    1.46161937288095    0.24084428362901
C       124.11299017949409    3.38996260961207    0.59617985094475
C       122.88380150870800    2.76216922741926    0.48255770897436
N       122.68702105356127    1.43516271775363    0.24251736444313
H       121.49279727293268    4.47659333311223    0.79411796877680
H       119.59519291777197    2.59757428426729    0.45671189265103
H       119.63862695978153   -2.59305096105140   -0.46033370919334
H       121.56761130893857   -4.43908538207574   -0.80283034631573
H       124.17714766263323   -4.36993540689500   -0.81128334998885
H       126.79858419008633   -4.38274699360799   -0.83586829109829
H       128.68626895586732   -2.49504143896395   -0.50354756850941
H       128.63163097081829    0.08250806229772   -0.02677093684200
H       128.64305670026451    2.66042739055879    0.45128359096050
H       126.72391647160342    4.51349179710192    0.79814013938891
H       124.10301410346968    4.45357233990855    0.79020759230641
C        48.22440359970243    0.05971390462671   -0.00068813926784
C        49.44278024236980    0.06780547023934   -0.00136729718301
C        50.78504359907261    0.07405425234534   -0.00021408110855
C        52.00355423162929    0.07336291366092   -0.00237917531176
C        61.68222044336019    0.04829701679405   -0.02159608157371
C        62.90105880532717    0.04792456371484   -0.02204027914730
C        64.24316384843820    0.04713614178182   -0.02236412082030
C        65.46201378331484    0.04819500918599   -0.02249773975384
C        75.14338745033220    0.04672760279840   -0.02155353683267
C        76.36229533995291    0.04305798120943   -0.02504253761225
C        77.70452001205922    0.04242692802145   -0.02631734054682
C        78.92341692564882    0.03902346573641   -0.02844916038313
C        88.60578743645972    0.04256682371928   -0.01530110681298
C        89.82468968739758    0.04675225504664   -0.02049628463087
C        91.16692795843896    0.04516155989493   -0.01881508216802
C        92.38582126695962    0.05002507847945   -0.02227781140492
C       102.06729732502269    0.04677015451882   -0.01659104062553
C       103.28612920371611    0.04353927800791   -0.01630689843699
C       104.62823710130262    0.04121717019957   -0.01937810590972
C       105.84705063738394    0.03498801981595   -0.02088030284313
C       115.52580915248348   -0.00606059985734   -0.00954986797462
C       116.74425962187229   -0.00671968508393   -0.00604525938075
C       118.08672220992311   -0.00399285465160   -0.00649176013577
C       119.30502469781639    0.00179884022205   -0.00506060933371
Zn       56.84247715786486    0.06107570554618   -0.01401819168992
C        54.33951569018384   -3.37117718468979    0.38045959244812
C        53.37684560291054   -2.42318908960328    0.27430324261658
C        54.05351252456759   -1.16629325294211    0.13056354633484
C        53.40188031973873    0.07081884662620   -0.00634470133098
C        54.05960917396827    1.30419544165746   -0.14663742866944
C        53.38943156373985    2.56483754538197   -0.28791424291968
C        54.35699570688338    3.50728042845002   -0.39905128836567
C        55.61398762439723    2.81941818772577   -0.32520003199655
N        55.40186898305799    1.48189128639865   -0.17152464373744
C        56.85119405734903    3.43632470960357   -0.40105362002816
C        58.08497474729306    2.81192659971753   -0.33387941352209
C        59.34540425948504    3.49246443976924   -0.41650238725926
C        60.30822393477793    2.54474873234363   -0.30955840341033
C        59.63189047415720    1.28807543376229   -0.16207693372835
N        58.29061601250064    1.47322338303910   -0.17989113191273
C        60.28397114661499    0.05154816082686   -0.01984571439784
C        59.62569374153309   -1.18147181935156    0.12395159363058
C        60.29558418756202   -2.44193485853469    0.26846589367325
C        59.32790881616858   -3.38441634651213    0.37791996382218
C        58.07099256929062   -2.69687260789527    0.29996858301621
N        58.28347960861033   -1.35924218830668    0.14606857041212
C        56.83400250029808   -3.31438681705775    0.37151992007043
C        55.60003183381452   -2.69042476742490    0.30129698792457
N        55.39480697078496   -1.35162034979584    0.14920703026984
H        54.22138265013804   -4.43073243479704    0.50120281311753
H        52.31111768842349   -2.54546034176691    0.29028524793873
H        52.32432433371415    2.69310660286429   -0.29907835264615
H        54.24438462771391    4.56745169934646   -0.51978277241437
H        56.85398704501237    4.51055015453317   -0.52461371018499
H        59.46319397427827    4.55180481707673   -0.53949873274972
H        61.37390942495757    2.66713512050308   -0.32679449123351
H        61.36064277388505   -2.57019553829059    0.28215060061657
H        59.44020732962599   -4.44448303049944    0.49981922960055
H        56.83117361485030   -4.38869124267976    0.49438202207998
Zn       70.30246743409600    0.04855766259658   -0.01599634219792
C        67.80787933530509   -3.38923294838201    0.38344976923497
C        66.84249581446313   -2.44466464403073    0.27135068414302
C        67.51548949854109   -1.18614010783638    0.12486819291530
C        66.86025135925189    0.04826334110389   -0.02134409994696
C        67.51584695809969    1.28270163041664   -0.16567485642237
C        66.84310536106540    2.54092500254424   -0.31602342317213
C        67.80873655867043    3.48580549831843   -0.42336290737564
C        69.06719341234745    2.80181641089391   -0.33895787288787
N        68.85772597459655    1.46406596935577   -0.18263471941427
C        70.30294509456905    3.42226652890167   -0.40884974380807
C        71.53856911904916    2.80185831211686   -0.33702476014775
C        72.79707510499580    3.48583445731901   -0.41942972392686
C        73.76249288979572    2.54084218011893   -0.31159653285598
C        73.08969618657231    1.28247007450748   -0.16247374756241
N        71.74795909438086    1.46394900544185   -0.18182086607347
C        73.74502845399608    0.04778623472689   -0.01871674853148
C        73.08924833255624   -1.18632127479664    0.12754205301447
C        73.76179990199755   -2.44486181032658    0.27589314879603
C        72.79611002979161   -3.38912394095323    0.38783517505270
C        71.53773224257834   -2.70457241002941    0.30733586546612
N        71.74733197799733   -1.36694963581789    0.14977215023311
C        70.30209900960737   -3.32485891358058    0.37948659843649
C        69.06644419038177   -2.70480295024145    0.30517308091756
N        68.85732494229569   -1.36707398600734    0.14817047708948
H        67.69278135099088   -4.44877989125288    0.50711991876557
H        65.77711886068826   -2.57037630611277    0.28448140909175
H        65.77769892203597    2.66612887494366   -0.33527179899914
H        67.69391923099663    4.54525854466246   -0.54829358805460
H        70.30292222058445    4.49643938252645   -0.53307805634427
H        72.91205521629219    4.54529065005241   -0.54361386561534
H        74.82797145300752    2.66614744556817   -0.32994153201623
H        74.82711735800642   -2.57083757300458    0.29021926674474
H        72.91079742798016   -4.44856268025248    0.51287949012366
H        70.30213876040527   -4.39878933951537    0.50571275995539
Zn       83.76457481335518    0.03940180569629   -0.02119477529438
C        81.27054649032617   -3.39854892312715    0.37801791397311
C        80.30487577012454   -2.45433095299406    0.26519946311173
C        80.97744935159025   -1.19558684745513    0.11840028523718
C        80.32176227100554    0.03861260045498   -0.02825428423275
C        80.97737607050574    1.27294244725970   -0.17372997413780
C        80.30475350671797    2.53109572264208   -0.32483245815400
C        81.27034103608399    3.47566052333466   -0.43493890086894
C        82.52873820462682    2.79168727644604   -0.35036892663746
N        82.31925714534781    1.45415660855457   -0.19207717797324
C        83.76441548369462    3.41225113032373   -0.41998683709383
C        85.00012811233515    2.79267633481737   -0.34264803388589
C        86.25851076056729    3.47762387273754   -0.41959016789757
C        87.22413620288090    2.53351725993848   -0.30598335137237
C        86.55152462745048    1.27475565284439   -0.15981177681941
N        85.20965613825179    1.45513222051077   -0.18451693937417
C        87.20743263353445    0.04065618529110   -0.01380160281971
C        86.55204159714010   -1.19395236599588    0.13080487557860
C        87.22462687197687   -2.45229222024722    0.28087065329872
C        86.25898977858060   -3.39695426217763    0.39026303570421
C        85.00054183111084   -2.71288967747611    0.30644521094323
N        85.21010867920560   -1.37523981849150    0.14924179587517
C        83.76477750065665   -3.33338747254576    0.37626386255062
C        82.52897591234550   -2.71370881749163    0.30023695062385
N        82.31936782121488   -1.37614191441189    0.14232182001154
H        81.15576807137788   -4.45807751268853    0.50224405503469
H        79.23952619725904   -2.58038679961065    0.27788583265517
H        79.23944168589489    2.65653755149093   -0.34247987126909
H        81.15557436705504    4.53490753758123   -0.56143062737112
H        83.76440863617796    4.48606893718843   -0.54716501643307
H        86.37327221205875    4.53714759567671   -0.54365640119606
H        88.28946191231822    2.65969469391278   -0.31761539387373
H        88.28996620026291   -2.57776785865428    0.29825482904417
H        86.37375648160729   -4.45635227019018    0.51568895895611
H        83.76479586297012   -4.40731243088011    0.50261701495198
Zn       97.22674960775291    0.04934911001092   -0.02336773629073
C        94.73079538673497   -3.38700090086349    0.37884476006165
C        93.76580526932953   -2.44202566706157    0.26709539079422
C        94.43926208530638   -1.18383652120535    0.11965412048901
C        93.78417107678116    0.05075140189508   -0.02605818522823
C        94.44025308189713    1.28469484927919   -0.17297382639124
C        93.76834321744482    2.54328090021416   -0.32394744418279
C        94.73447871929729    3.48711563935639   -0.43581206683088
C        95.99256440932778    2.80234056907104   -0.35248126223492
N        95.78226535293565    1.46501862438613   -0.19329488709567
C        97.22861594872784    3.42202428185006   -0.42394453906642
C        98.46403292435681    2.80159899494684   -0.34758902266289
C        99.72294747492708    3.48541744337087   -0.42618370236311
C       100.68791347573466    2.54061010109405   -0.31233850372692
C       100.01436630610688    1.28252651127441   -0.16465943585481
N        98.67260686428823    1.46403710842055   -0.18855849756532
C       100.66904118950053    0.04792475458366   -0.01781662127828
C       100.01290929582116   -1.18610488233543    0.12755469918099
C       100.68501803540092   -2.44463955668573    0.27794082692957
C        99.71898819357547   -3.38880860809778    0.38781075516467
C        98.46090979819229   -2.70411766161305    0.30429460357004
N        98.67096407958198   -1.36662896673557    0.14656513793715
C        97.22486891011279   -3.32385006222616    0.37498443475803
C        95.98963798176645   -2.70315007602224    0.29976558031368
N        95.78099665577403   -1.36539622518369    0.14195201496283
H        94.61535142656444   -4.44643966245801    0.50318610200714
H        92.70039047025969   -2.56726652854824    0.28083703838429
H        92.70307466562700    2.66944051246448   -0.34038929397536
H        94.62033828135678    4.54639047351715   -0.56268362081279
H        97.22924521191513    4.49578288593652   -0.55167058289178
H        99.83853891816021    4.54472685964979   -0.55145057119271
H       101.75335209405065    2.66584370243444   -0.32506623761651
H       101.75029488354342   -2.57062530337246    0.29498609536433
H        99.83331574837381   -4.44822032261946    0.51345305079344
H        97.22420824069499   -4.39772954356229    0.50161693860884
Zn      110.68670075585854    0.01360256798845   -0.01908735093557
C       108.17719109471797   -3.41499274634874    0.36493824726227
C       107.21620912708026   -2.46513347741595    0.26056392004542
C       107.89497258763799   -1.20912748429216    0.11863116812786
C       107.24531814832326    0.02892248246412   -0.02127901898033
C       107.90601876476642    1.26097866128664   -0.16207547449919
C       107.23860461898121    2.52270056171158   -0.30712455121461
C       108.20812006364984    3.46374382736778   -0.41246766910328
C       109.46369592334881    2.77413966397272   -0.33103062254512
N       109.24858219297803    1.43660656452434   -0.17994725389114
C       110.70186954298961    3.39008452532408   -0.39510238190205
C       111.93460861544230    2.76434606562531   -0.31895299540638
C       113.19645652626421    3.44373229557836   -0.38847400303669
C       114.15727860949735    2.49421345932876   -0.27948813107648
C       113.47816515330885    1.23764112607156   -0.14417927650537
N       112.13718780008824    1.42485405766057   -0.16978345394312
C       114.12724475056207   -0.00124272325009   -0.01233253833147
C       113.46723218065050   -1.23457526886733    0.11590073057638
C       114.13501540488716   -2.49708070842662    0.25213834919462
C       113.16563305614169   -3.43854354965794    0.35522042613498
C       111.90992607716112   -2.74822622145740    0.28169346185041
N       112.12457969245047   -1.41028751197038    0.13567313135861
C       110.67151872587745   -3.36333236958118    0.35252817218622
C       109.43895746001290   -2.73640964910477    0.28657572275587
N       109.23590227157757   -1.39674281628071    0.13764993663331
H       108.05736460148142   -4.47458852888282    0.48366306449616
H       106.15027878512070   -2.58567335523716    0.27597627150714
H       106.17380625677151    2.65268154086881   -0.32408574841883
H       108.09789939302763    4.52411439860491   -0.53356641169861
H       110.70680608051474    4.46462372695922   -0.51581704556970
H       113.31663716257631    4.50350277104286   -0.50526012546882
H       115.22324269402404    2.61514735421680   -0.28916030620810
H       115.19989082618577   -2.62708198344079    0.26614460221364
H       113.27622782025460   -4.49952470242732    0.47063132724078
H       110.66666426296857   -4.43809959906095    0.47119846895972
