 Entering Gaussian System
 *********************************************
 Gaussian 98:
 frequency output generated by the xtb code
 *********************************************
                         Standard orientation:
 --------------------------------------------------------------------
  Center     Atomic     Atomic              Coordinates (Angstroms)
  Number     Number      Type              X           Y           Z
 --------------------------------------------------------------------
    1         27             0       25.631212    0.016781    0.080238
    2          6             0       28.182927   -2.716740    2.001089
    3          6             0       29.114586   -1.880963    1.487166
    4          6             0       28.400288   -0.865471    0.775166
    5          6             0       29.025122    0.234588    0.180963
    6          6             0       28.291039    1.327538   -0.284586
    7          6             0       28.894474    2.557767   -0.696303
    8          6             0       27.881686    3.423789   -0.929186
    9          6             0       26.667417    2.698830   -0.707435
   10          7             0       26.931171    1.415395   -0.309406
   11          6             0       25.415902    3.219181   -0.964587
   12          6             0       24.270780    2.450771   -0.970586
   13          6             0       23.003211    2.925218   -1.444195
   14          6             0       22.170242    1.861200   -1.444975
   15          6             0       22.921338    0.753848   -0.928997
   16          7             0       24.205402    1.124617   -0.646120
   17          6             0       22.373100   -0.487272   -0.678514
   18          6             0       23.048432   -1.474924    0.008489
   19          6             0       22.429497   -2.686080    0.463105
   20          6             0       23.346604   -3.325466    1.222193
   21          6             0       24.534284   -2.522941    1.190070
   22          7             0       24.340051   -1.393005    0.446511
   23          6             0       25.725759   -2.900742    1.773300
   24          6             0       26.910539   -2.225459    1.566631
   25          7             0       27.055965   -1.077616    0.832882
   26          1             0       28.324411   -3.594280    2.601493
   27          1             0       30.181305   -1.912744    1.593458
   28          1             0       29.951293    2.716915   -0.779645
   29          1             0       27.930916    4.448240   -1.243237
   30          1             0       25.341572    4.256058   -1.255215
   31          1             0       22.808366    3.934889   -1.750203
   32          1             0       21.140613    1.810720   -1.742119
   33          1             0       21.346809   -0.664780   -0.961384
   34          1             0       21.421317   -2.974789    0.236884
   35          1             0       23.257195   -4.257438    1.746059
   36          1             0       25.748507   -3.808967    2.356154
   37         27             0       58.148921    0.028574    0.071415
   38          6             0       55.617376    2.830591    1.918833
   39          6             0       54.679384    1.995556    1.415342
   40          6             0       55.386569    0.954888    0.733150
   41          6             0       54.753094   -0.155206    0.167857
   42          6             0       55.478051   -1.266409   -0.268109
   43          6             0       54.864484   -2.501525   -0.649040
   44          6             0       55.870140   -3.380963   -0.861849
   45          6             0       57.090350   -2.660502   -0.658829
   46          7             0       56.837124   -1.365901   -0.291020
   47          6             0       58.337050   -3.195978   -0.908143
   48          6             0       59.487939   -2.436591   -0.934089
   49          6             0       60.749874   -2.929324   -1.403919
   50          6             0       61.591193   -1.872075   -1.426486
   51          6             0       60.851157   -0.750174   -0.926264
   52          7             0       59.564811   -1.105420   -0.633843
   53          6             0       61.412028    0.488500   -0.692156
   54          6             0       60.747246    1.491288   -0.016867
   55          6             0       61.379276    2.700514    0.424748
   56          6             0       60.467126    3.360772    1.171939
   57          6             0       59.269604    2.572833    1.144820
   58          7             0       59.453431    1.430198    0.417915
   59          6             0       58.079055    2.975868    1.712668
   60          6             0       56.886928    2.313306    1.506905
   61          7             0       56.732952    1.152334    0.796098
   62          1             0       55.482018    3.722993    2.498378
   63          1             0       53.612246    2.043990    1.510341
   64          1             0       53.806435   -2.654299   -0.728615
   65          1             0       55.812341   -4.412193   -1.151315
   66          1             0       58.402415   -4.239375   -1.176798
   67          1             0       60.935921   -3.945678   -1.692767
   68          1             0       62.619967   -1.835110   -1.728542
   69          1             0       62.440012    0.651790   -0.977444
   70          1             0       62.391896    2.973884    0.199193
   71          1             0       60.565680    4.298444    1.683883
   72          1             0       58.064094    3.893849    2.280335
   73          6             0       30.425575    0.268621    0.128290
   74          6             0       31.636981    0.264599    0.073732
   75          6             0       41.282053    0.036685   -0.082271
   76          6             0       42.494523    0.015214   -0.079129
   77          6             0       52.140543   -0.179146    0.075771
   78          6             0       53.352307   -0.181302    0.120264
   79         27             0       36.457428    0.142731   -0.111903
   80          6             0       33.915123   -3.219658    0.023932
   81          6             0       32.976213   -2.247391   -0.020999
   82          6             0       33.682076   -1.002263   -0.011852
   83          6             0       33.037333    0.236321    0.010150
   84          6             0       33.747688    1.436149   -0.048338
   85          6             0       33.112056    2.717944   -0.044706
   86          6             0       34.090861    3.632047   -0.231662
   87          6             0       35.316190    2.899385   -0.331521
   88          7             0       35.097710    1.554051   -0.192910
   89          6             0       36.533845    3.495557   -0.577529
   90          6             0       37.725395    2.804834   -0.613724
   91          6             0       38.988469    3.433621   -0.853198
   92          6             0       39.928792    2.472481   -0.708911
   93          6             0       39.229886    1.267240   -0.382371
   94          7             0       37.882737    1.468728   -0.353137
   95          6             0       39.880466    0.065405   -0.096030
   96          6             0       39.173215   -1.112387    0.152158
   97          6             0       39.814355   -2.361316    0.429548
   98          6             0       38.833242   -3.289991    0.491775
   99          6             0       37.602069   -2.595389    0.268850
  100          7             0       37.819540   -1.255163    0.086125
  101          6             0       36.378733   -3.227016    0.211091
  102          6             0       35.183716   -2.558087    0.061214
  103          7             0       35.030207   -1.197290    0.011231
  104          1             0       33.782991   -4.284040    0.037359
  105          1             0       31.908802   -2.339537   -0.066343
  106          1             0       32.059549    2.871532    0.088995
  107          1             0       34.013078    4.699901   -0.296386
  108          1             0       36.557262    4.563155   -0.735590
  109          1             0       39.116594    4.471424   -1.092109
  110          1             0       40.992710    2.545586   -0.819645
  111          1             0       40.871438   -2.484754    0.559544
  112          1             0       38.913441   -4.344332    0.671986
  113          1             0       36.354060   -4.302179    0.304442
  114         27             0       47.319348   -0.078325   -0.088183
  115          6             0       44.800111   -3.399696   -0.727989
  116          6             0       43.856826   -2.436571   -0.620976
  117          6             0       44.551143   -1.219400   -0.330899
  118          6             0       43.896219   -0.011372   -0.083454
  119          6             0       44.599212    1.174567    0.136692
  120          6             0       43.953699    2.427773    0.382716
  121          6             0       44.931925    3.360652    0.425107
  122          6             0       46.165549    2.664906    0.220230
  123          7             0       45.952598    1.319840    0.070272
  124          6             0       47.386279    3.299414    0.142351
  125          6             0       48.583183    2.631415    0.003715
  126          6             0       49.848918    3.296428   -0.060142
  127          6             0       50.791393    2.326812   -0.083205
  128          6             0       50.090498    1.079847   -0.034184
  129          7             0       48.741775    1.270305   -0.008683
  130          6             0       50.739777   -0.155166    0.021482
  131          6             0       50.033363   -1.358717    0.007890
  132          6             0       50.673976   -2.637260    0.054767
  133          6             0       49.697916   -3.561075   -0.094864
  134          6             0       48.469469   -2.836913   -0.216243
  135          7             0       48.683269   -1.486627   -0.126122
  136          6             0       47.253897   -3.445510   -0.440855
  137          6             0       46.060486   -2.759913   -0.503975
  138          7             0       45.898631   -1.416313   -0.288987
  139          1             0       44.675766   -4.445218   -0.932823
  140          1             0       42.793667   -2.516324   -0.734246
  141          1             0       42.896011    2.551317    0.507700
  142          1             0       44.847970    4.418675    0.580281
  143          1             0       47.407029    4.376760    0.207106
  144          1             0       49.976857    4.361249   -0.078440
  145          1             0       51.858197    2.421624   -0.137151
  146          1             0       51.727583   -2.781879    0.189758
  147          1             0       49.779495   -4.630282   -0.121742
  148          1             0       47.234107   -4.518032   -0.561714
 --------------------------------------------------------------------
     1 basis functions        1 primitive gaussians
     1 alpha electrons        1 beta electrons

 Harmonic frequencies (cm**-1), IR intensities (km*mol⁻¹),
 Raman scattering activities (A**4/amu), Raman depolarization ratios,
 reduced masses (AMU), force constants (mDyne/A) and normal coordinates:
                      1                      2                      3
                        a                      a                      a 
 Frequencies --    -4.7695                -2.4671                 3.9777
 Red. masses --    18.1168                18.3718                16.9773
 Frc consts  --     0.0000                 0.0000                 0.0000
 IR Inten    --   139.5291                19.2914                27.2584
 Raman Activ --     0.0000                 0.0000                 0.0000
 Depolar     --     0.0000                 0.0000                 0.0000
 Atom AN      X      Y      Z        X      Y      Z        X      Y      Z
   1  27    -0.01  -0.04  -0.08     0.01   0.01   0.19     0.01  -0.17   0.02
   2   6    -0.03  -0.01   0.01     0.04   0.00   0.04     0.06  -0.02   0.01
   3   6    -0.02  -0.02   0.01     0.03   0.00   0.03     0.04  -0.01   0.00
   4   6    -0.01  -0.02  -0.00     0.02   0.01   0.04     0.02  -0.02   0.00
   5   6    -0.00  -0.02   0.00     0.01   0.01   0.04    -0.00  -0.01   0.00
   6   6     0.00  -0.03  -0.02    -0.00   0.01   0.06    -0.02  -0.02   0.01
   7   6     0.01  -0.03  -0.02    -0.01   0.02   0.06    -0.05  -0.01   0.01
   8   6     0.01  -0.03  -0.04    -0.02   0.02   0.08    -0.07  -0.03   0.01
   9   6     0.01  -0.03  -0.04    -0.01   0.01   0.09    -0.05  -0.05   0.01
  10   7     0.00  -0.03  -0.03    -0.00   0.01   0.08    -0.03  -0.05   0.01
  11   6     0.01  -0.03  -0.06    -0.02   0.01   0.11    -0.06  -0.08   0.02
  12   6     0.01  -0.02  -0.06    -0.02   0.01   0.12    -0.05  -0.10   0.01
  13   6     0.02  -0.02  -0.07    -0.02   0.00   0.14    -0.06  -0.13   0.01
  14   6     0.01  -0.02  -0.07    -0.02   0.00   0.14    -0.03  -0.15   0.01
  15   6     0.01  -0.02  -0.06    -0.01   0.00   0.12    -0.01  -0.13   0.01
  16   7     0.01  -0.02  -0.06    -0.01   0.00   0.12    -0.02  -0.11   0.01
  17   6     0.00  -0.02  -0.06    -0.00  -0.00   0.12     0.02  -0.14   0.01
  18   6    -0.01  -0.01  -0.05     0.01  -0.00   0.11     0.03  -0.13   0.01
  19   6    -0.01  -0.01  -0.05     0.02  -0.01   0.11     0.06  -0.14   0.01
  20   6    -0.02  -0.01  -0.04     0.03  -0.01   0.10     0.07  -0.12   0.01
  21   6    -0.02  -0.01  -0.03     0.03  -0.00   0.09     0.05  -0.10   0.01
  22   7    -0.01  -0.02  -0.04     0.02  -0.00   0.10     0.03  -0.11   0.01
  23   6    -0.02  -0.01  -0.02     0.04  -0.00   0.07     0.06  -0.07   0.01
  24   6    -0.02  -0.01  -0.01     0.03  -0.00   0.06     0.05  -0.05   0.01
  25   7    -0.01  -0.02  -0.02     0.02   0.00   0.07     0.03  -0.05   0.01
  26   1    -0.01  -0.00   0.00     0.01  -0.00   0.01     0.02  -0.00   0.00
  27   1    -0.01  -0.01   0.01     0.01   0.00   0.00     0.01   0.00   0.00
  28   1     0.00  -0.01  -0.00    -0.00   0.01   0.01    -0.02   0.00   0.00
  29   1     0.01  -0.01  -0.01    -0.01   0.01   0.03    -0.03  -0.01   0.01
  30   1     0.01  -0.01  -0.02    -0.01   0.00   0.03    -0.02  -0.02   0.01
  31   1     0.01  -0.01  -0.02    -0.01   0.00   0.04    -0.02  -0.04   0.00
  32   1     0.00  -0.01  -0.02    -0.01  -0.00   0.04    -0.01  -0.05   0.00
  33   1     0.00  -0.00  -0.02    -0.00  -0.00   0.04     0.01  -0.05   0.00
  34   1    -0.00  -0.00  -0.02     0.01  -0.00   0.03     0.02  -0.05   0.00
  35   1    -0.01  -0.00  -0.01     0.01  -0.00   0.03     0.03  -0.03   0.00
  36   1    -0.01  -0.00  -0.00     0.01  -0.00   0.02     0.02  -0.02   0.00
  37  27    -0.00  -0.04   0.08    -0.01   0.00   0.19     0.01  -0.17  -0.01
  38   6    -0.03  -0.02  -0.00    -0.04   0.00   0.03     0.06  -0.03   0.01
  39   6    -0.02  -0.02  -0.01    -0.03  -0.00   0.02     0.04  -0.01   0.01
  40   6    -0.01  -0.02   0.00    -0.02  -0.00   0.04     0.02  -0.02   0.00
  41   6    -0.00  -0.03   0.00    -0.01  -0.01   0.04    -0.00  -0.01  -0.00
  42   6     0.01  -0.03   0.02     0.00  -0.01   0.05    -0.03  -0.02  -0.01
  43   6     0.01  -0.03   0.02     0.01  -0.01   0.05    -0.05   0.00  -0.02
  44   6     0.02  -0.03   0.04     0.02  -0.01   0.07    -0.07  -0.02  -0.03
  45   6     0.01  -0.03   0.04     0.01  -0.01   0.09    -0.06  -0.05  -0.03
  46   7     0.01  -0.03   0.03     0.01  -0.01   0.08    -0.03  -0.05  -0.02
  47   6     0.02  -0.02   0.06     0.02  -0.00   0.11    -0.07  -0.07  -0.03
  48   6     0.01  -0.02   0.06     0.02   0.00   0.12    -0.05  -0.10  -0.02
  49   6     0.02  -0.02   0.07     0.03   0.00   0.14    -0.06  -0.12  -0.02
  50   6     0.02  -0.01   0.08     0.02   0.01   0.14    -0.04  -0.14  -0.01
  51   6     0.01  -0.01   0.06     0.01   0.01   0.13    -0.01  -0.13  -0.00
  52   7     0.01  -0.02   0.06     0.01   0.00   0.12    -0.02  -0.11  -0.01
  53   6     0.00  -0.01   0.06     0.00   0.01   0.13     0.02  -0.14   0.01
  54   6    -0.01  -0.01   0.05    -0.01   0.01   0.11     0.04  -0.13   0.01
  55   6    -0.01  -0.01   0.05    -0.02   0.02   0.11     0.06  -0.15   0.02
  56   6    -0.02  -0.01   0.04    -0.03   0.02   0.10     0.07  -0.13   0.02
  57   6    -0.02  -0.01   0.04    -0.03   0.01   0.09     0.06  -0.11   0.01
  58   7    -0.01  -0.01   0.05    -0.02   0.01   0.10     0.04  -0.12   0.01
  59   6    -0.03  -0.01   0.02    -0.04   0.01   0.07     0.06  -0.08   0.01
  60   6    -0.02  -0.02   0.01    -0.03   0.01   0.05     0.05  -0.06   0.01
  61   7    -0.01  -0.02   0.02    -0.02   0.00   0.06     0.03  -0.05   0.00
  62   1    -0.01  -0.00  -0.00    -0.01   0.00   0.01     0.02  -0.01   0.00
  63   1    -0.01  -0.01  -0.01    -0.01  -0.00   0.00     0.01   0.00   0.00
  64   1     0.00  -0.01   0.00     0.00  -0.01   0.01    -0.02   0.01  -0.01
  65   1     0.01  -0.01   0.01     0.01  -0.00   0.02    -0.03  -0.00  -0.01
  66   1     0.01  -0.01   0.02     0.01  -0.00   0.03    -0.03  -0.02  -0.01
  67   1     0.01  -0.01   0.02     0.01   0.00   0.04    -0.02  -0.04  -0.01
  68   1     0.01  -0.00   0.02     0.01   0.00   0.05    -0.01  -0.05  -0.00
  69   1     0.00  -0.00   0.02     0.00   0.00   0.04     0.01  -0.05   0.00
  70   1    -0.00  -0.00   0.02    -0.01   0.01   0.04     0.02  -0.05   0.01
  71   1    -0.01  -0.00   0.01    -0.01   0.01   0.03     0.03  -0.04   0.01
  72   1    -0.01  -0.00   0.01    -0.01   0.00   0.02     0.02  -0.02   0.01
  73   6    -0.00  -0.02   0.02     0.01   0.01   0.02    -0.00   0.01  -0.01
  74   6    -0.00  -0.02   0.04     0.00   0.01  -0.01    -0.00   0.03  -0.02
  75   6     0.00   0.04   0.01    -0.00  -0.00  -0.07    -0.00   0.10  -0.00
  76   6     0.00   0.04  -0.01    -0.00  -0.00  -0.07    -0.00   0.10  -0.01
  77   6    -0.00  -0.02  -0.04    -0.00  -0.01  -0.01    -0.00   0.04   0.01
  78   6    -0.00  -0.03  -0.02    -0.00  -0.01   0.01    -0.00   0.02   0.01
  79  27     0.01   0.05   0.24     0.00  -0.00  -0.18    -0.01   0.15  -0.05
  80   6     0.03   0.00   0.13    -0.01   0.01  -0.08     0.02   0.05  -0.02
  81   6     0.02  -0.01   0.09    -0.00   0.01  -0.05     0.02   0.04  -0.02
  82   6     0.01  -0.00   0.08    -0.00   0.01  -0.05     0.01   0.05  -0.02
  83   6    -0.00  -0.01   0.07     0.00   0.01  -0.03    -0.00   0.04  -0.02
  84   6    -0.01  -0.00   0.09     0.01   0.01  -0.05    -0.01   0.05  -0.03
  85   6    -0.02  -0.01   0.11     0.01   0.01  -0.05    -0.02   0.04  -0.05
  86   6    -0.02   0.01   0.15     0.01   0.00  -0.08    -0.03   0.05  -0.05
  87   6    -0.02   0.02   0.15     0.00  -0.00  -0.09    -0.02   0.06  -0.05
  88   7    -0.01   0.01   0.12     0.00   0.00  -0.08    -0.01   0.06  -0.04
  89   6    -0.02   0.03   0.16     0.00  -0.01  -0.11    -0.03   0.07  -0.04
  90   6    -0.02   0.04   0.13     0.00  -0.01  -0.11    -0.02   0.08  -0.03
  91   6    -0.03   0.05   0.12     0.00  -0.01  -0.11    -0.02   0.09  -0.03
  92   6    -0.02   0.05   0.07     0.00  -0.01  -0.09    -0.02   0.09  -0.01
  93   6    -0.01   0.04   0.07     0.00  -0.00  -0.08    -0.01   0.09  -0.01
  94   7    -0.01   0.03   0.11     0.00  -0.00  -0.10    -0.01   0.09  -0.02
  95   6     0.00   0.04   0.05    -0.00  -0.00  -0.08    -0.00   0.10  -0.01
  96   6     0.01   0.04   0.07    -0.00  -0.00  -0.09     0.01   0.09  -0.01
  97   6     0.03   0.05   0.08    -0.00  -0.01  -0.10     0.01   0.10   0.00
  98   6     0.03   0.04   0.13    -0.00  -0.01  -0.12     0.02   0.09  -0.00
  99   6     0.02   0.03   0.14    -0.00  -0.01  -0.11     0.02   0.08  -0.01
 100   7     0.01   0.03   0.11    -0.00  -0.00  -0.10     0.01   0.09  -0.01
 101   6     0.03   0.02   0.16    -0.00  -0.00  -0.11     0.02   0.07  -0.02
 102   6     0.02   0.01   0.14    -0.00   0.00  -0.09     0.02   0.06  -0.02
 103   7     0.01   0.01   0.12    -0.00   0.00  -0.08     0.01   0.06  -0.02
 104   1     0.01  -0.00   0.04    -0.00   0.00  -0.03     0.01   0.01  -0.01
 105   1     0.01  -0.01   0.02    -0.00   0.00  -0.01     0.00   0.01  -0.01
 106   1    -0.01  -0.01   0.03     0.00   0.00  -0.01    -0.01   0.01  -0.01
 107   1    -0.01   0.00   0.05     0.00   0.00  -0.03    -0.01   0.01  -0.02
 108   1    -0.01   0.01   0.05     0.00  -0.00  -0.04    -0.01   0.02  -0.02
 109   1    -0.01   0.01   0.04     0.00  -0.00  -0.04    -0.01   0.02  -0.01
 110   1    -0.01   0.01   0.01     0.00  -0.00  -0.03    -0.01   0.03  -0.00
 111   1     0.01   0.02   0.02    -0.00  -0.00  -0.03     0.00   0.03   0.00
 112   1     0.01   0.01   0.04    -0.00  -0.00  -0.04     0.01   0.03  -0.00
 113   1     0.01   0.01   0.05    -0.00  -0.00  -0.04     0.01   0.02  -0.00
 114  27     0.01   0.04  -0.24    -0.00  -0.01  -0.18    -0.01   0.16   0.04
 115   6    -0.03   0.04  -0.12    -0.00   0.00  -0.11    -0.02   0.09   0.01
 116   6    -0.02   0.04  -0.08    -0.00   0.00  -0.09    -0.02   0.10   0.00
 117   6    -0.01   0.03  -0.07    -0.00  -0.00  -0.08    -0.01   0.09   0.00
 118   6     0.00   0.04  -0.05    -0.00  -0.00  -0.08    -0.00   0.10  -0.00
 119   6     0.02   0.03  -0.07     0.00  -0.00  -0.08     0.00   0.09  -0.00
 120   6     0.03   0.04  -0.08     0.00  -0.00  -0.09     0.01   0.10  -0.01
 121   6     0.03   0.04  -0.13     0.00   0.00  -0.11     0.02   0.09   0.00
 122   6     0.02   0.03  -0.14     0.00  -0.00  -0.11     0.02   0.08   0.01
 123   7     0.02   0.03  -0.11     0.00  -0.00  -0.10     0.01   0.09   0.01
 124   6     0.03   0.02  -0.16     0.00  -0.00  -0.11     0.02   0.07   0.02
 125   6     0.02   0.01  -0.14     0.00  -0.01  -0.09     0.02   0.06   0.02
 126   6     0.03  -0.01  -0.13     0.00  -0.01  -0.08     0.02   0.06   0.03
 127   6     0.02  -0.01  -0.09     0.00  -0.01  -0.05     0.01   0.05   0.03
 128   6     0.01  -0.01  -0.08     0.00  -0.01  -0.05     0.01   0.05   0.02
 129   7     0.01   0.01  -0.12     0.00  -0.01  -0.08     0.01   0.07   0.02
 130   6     0.00  -0.01  -0.07    -0.00  -0.01  -0.03    -0.00   0.05   0.02
 131   6    -0.01  -0.01  -0.09    -0.00  -0.01  -0.05    -0.01   0.05   0.03
 132   6    -0.02  -0.01  -0.11    -0.01  -0.01  -0.05    -0.02   0.05   0.03
 133   6    -0.02  -0.00  -0.15    -0.01  -0.01  -0.08    -0.03   0.06   0.04
 134   6    -0.02   0.01  -0.15    -0.00  -0.01  -0.09    -0.02   0.06   0.03
 135   7    -0.01   0.01  -0.13    -0.00  -0.01  -0.08    -0.01   0.07   0.03
 136   6    -0.02   0.02  -0.17    -0.00  -0.00  -0.11    -0.03   0.07   0.03
 137   6    -0.02   0.03  -0.14    -0.00   0.00  -0.11    -0.02   0.08   0.02
 138   7    -0.01   0.03  -0.11    -0.00  -0.00  -0.10    -0.01   0.09   0.01
 139   1    -0.01   0.01  -0.04    -0.00   0.00  -0.04    -0.01   0.03   0.00
 140   1    -0.01   0.01  -0.01    -0.00   0.00  -0.03    -0.00   0.03  -0.00
 141   1     0.01   0.01  -0.02     0.00   0.00  -0.03     0.00   0.03  -0.00
 142   1     0.01   0.01  -0.04     0.00   0.00  -0.04     0.01   0.03   0.00
 143   1     0.01   0.01  -0.05     0.00  -0.00  -0.04     0.01   0.02   0.01
 144   1     0.01  -0.00  -0.04     0.00  -0.00  -0.03     0.01   0.02   0.01
 145   1     0.01  -0.01  -0.02     0.00  -0.00  -0.01     0.00   0.01   0.01
 146   1    -0.01  -0.01  -0.03    -0.00  -0.00  -0.01    -0.01   0.01   0.01
 147   1    -0.01  -0.00  -0.05    -0.00  -0.00  -0.03    -0.01   0.02   0.01
 148   1    -0.01   0.01  -0.06    -0.00   0.00  -0.04    -0.01   0.02   0.01
                      4                      5                      6
                        a                      a                      a 
 Frequencies --     4.4295                 7.9074                 8.2342
 Red. masses --    11.3258                12.2267                11.9184
 Frc consts  --     0.0000                 0.0000                 0.0000
 IR Inten    --   134.7312               132.7034               414.8330
 Raman Activ --     0.0000                 0.0000                 0.0000
 Depolar     --     0.0000                 0.0000                 0.0000
 Atom AN      X      Y      Z        X      Y      Z        X      Y      Z
   1  27    -0.01   0.02   0.02    -0.02   0.04  -0.00     0.03  -0.01  -0.00
   2   6    -0.01   0.09   0.14    -0.04  -0.06  -0.07     0.03   0.03   0.02
   3   6    -0.01   0.06   0.09    -0.03  -0.06  -0.05     0.02   0.05   0.04
   4   6    -0.00   0.03   0.04    -0.02  -0.04  -0.02     0.01   0.04   0.04
   5   6    -0.00   0.00  -0.01    -0.00  -0.03  -0.01     0.00   0.06   0.06
   6   6     0.00  -0.02  -0.07     0.01  -0.02   0.01    -0.01   0.07   0.09
   7   6     0.01  -0.04  -0.13     0.03  -0.02   0.02    -0.03   0.10   0.15
   8   6     0.01  -0.05  -0.18     0.04  -0.00   0.04    -0.05   0.09   0.18
   9   6     0.01  -0.04  -0.14     0.03   0.01   0.04    -0.04   0.05   0.13
  10   7     0.00  -0.02  -0.08     0.01   0.00   0.02    -0.01   0.04   0.08
  11   6     0.01  -0.05  -0.16     0.04   0.04   0.07    -0.04   0.03   0.12
  12   6     0.01  -0.04  -0.12     0.02   0.06   0.06    -0.02  -0.00   0.05
  13   6     0.01  -0.06  -0.15     0.02   0.10   0.09    -0.02  -0.02   0.03
  14   6     0.00  -0.06  -0.08     0.00   0.11   0.08     0.01  -0.05  -0.05
  15   6    -0.00  -0.03  -0.02    -0.01   0.08   0.04     0.03  -0.05  -0.07
  16   7    -0.00  -0.03  -0.05     0.00   0.06   0.04     0.01  -0.02  -0.01
  17   6    -0.01  -0.02   0.05    -0.03   0.09   0.01     0.06  -0.08  -0.14
  18   6    -0.01   0.02   0.10    -0.03   0.06  -0.02     0.07  -0.08  -0.14
  19   6    -0.02   0.05   0.17    -0.05   0.05  -0.05     0.08  -0.11  -0.20
  20   6    -0.02   0.08   0.20    -0.05   0.02  -0.08     0.07  -0.09  -0.17
  21   6    -0.01   0.07   0.15    -0.04   0.00  -0.06     0.05  -0.06  -0.10
  22   7    -0.01   0.04   0.09    -0.03   0.03  -0.03     0.05  -0.05  -0.09
  23   6    -0.01   0.10   0.16    -0.04  -0.03  -0.07     0.04  -0.03  -0.06
  24   6    -0.01   0.08   0.12    -0.04  -0.04  -0.06     0.03   0.00  -0.01
  25   7    -0.01   0.04   0.06    -0.02  -0.02  -0.03     0.02   0.02   0.01
  26   1    -0.00   0.04   0.05    -0.02  -0.02  -0.03     0.01   0.01   0.00
  27   1    -0.00   0.02   0.02    -0.01  -0.02  -0.01     0.01   0.02   0.02
  28   1     0.00  -0.01  -0.04     0.01  -0.01   0.01    -0.01   0.04   0.05
  29   1     0.00  -0.02  -0.07     0.02   0.00   0.02    -0.02   0.03   0.06
  30   1     0.00  -0.02  -0.06     0.01   0.01   0.02    -0.02   0.01   0.05
  31   1     0.00  -0.02  -0.06     0.01   0.03   0.03    -0.01  -0.00   0.02
  32   1     0.00  -0.02  -0.02     0.00   0.04   0.03     0.01  -0.02  -0.03
  33   1    -0.00  -0.01   0.02    -0.01   0.03   0.01     0.02  -0.03  -0.05
  34   1    -0.01   0.01   0.05    -0.02   0.02  -0.01     0.03  -0.04  -0.07
  35   1    -0.01   0.03   0.07    -0.02   0.00  -0.03     0.02  -0.03  -0.06
  36   1    -0.00   0.04   0.06    -0.02  -0.01  -0.03     0.01  -0.01  -0.02
  37  27     0.01   0.01   0.02     0.03  -0.01   0.00    -0.02   0.03  -0.00
  38   6    -0.00  -0.08   0.13     0.03   0.05  -0.06    -0.03  -0.07   0.08
  39   6     0.00  -0.06   0.09     0.02   0.07  -0.07    -0.03  -0.06   0.06
  40   6     0.00  -0.03   0.04     0.02   0.06  -0.06    -0.02  -0.04   0.03
  41   6     0.00   0.00  -0.01     0.00   0.07  -0.08    -0.00  -0.03   0.01
  42   6     0.00   0.02  -0.07    -0.01   0.07  -0.10     0.01  -0.02  -0.01
  43   6    -0.00   0.05  -0.13    -0.04   0.10  -0.16     0.02  -0.02  -0.03
  44   6    -0.00   0.06  -0.18    -0.06   0.09  -0.18     0.03  -0.00  -0.05
  45   6    -0.00   0.04  -0.14    -0.04   0.05  -0.13     0.02   0.01  -0.05
  46   7     0.00   0.03  -0.08    -0.02   0.04  -0.09     0.01   0.00  -0.02
  47   6    -0.00   0.05  -0.17    -0.05   0.02  -0.11     0.03   0.04  -0.08
  48   6     0.00   0.05  -0.12    -0.02  -0.02  -0.03     0.02   0.06  -0.08
  49   6     0.00   0.07  -0.14    -0.02  -0.05   0.01     0.02   0.09  -0.11
  50   6     0.01   0.07  -0.08     0.02  -0.08   0.10    -0.00   0.11  -0.10
  51   6     0.01   0.05  -0.02     0.04  -0.07   0.11    -0.01   0.08  -0.06
  52   7     0.00   0.04  -0.05     0.01  -0.04   0.03    -0.00   0.06  -0.05
  53   6     0.01   0.03   0.06     0.08  -0.10   0.17    -0.03   0.08  -0.03
  54   6     0.01  -0.00   0.10     0.08  -0.09   0.15    -0.03   0.05   0.02
  55   6     0.01  -0.03   0.17     0.10  -0.12   0.20    -0.04   0.04   0.05
  56   6     0.01  -0.06   0.20     0.08  -0.09   0.15    -0.04   0.00   0.09
  57   6     0.00  -0.05   0.14     0.05  -0.05   0.08    -0.03  -0.01   0.07
  58   7     0.01  -0.02   0.10     0.05  -0.05   0.09    -0.03   0.02   0.03
  59   6     0.00  -0.08   0.15     0.04  -0.01   0.02    -0.03  -0.04   0.09
  60   6     0.00  -0.06   0.11     0.03   0.02  -0.02    -0.03  -0.04   0.07
  61   7     0.00  -0.03   0.06     0.02   0.03  -0.03    -0.02  -0.03   0.04
  62   1    -0.00  -0.03   0.05     0.01   0.02  -0.02    -0.01  -0.02   0.03
  63   1    -0.00  -0.02   0.02     0.01   0.03  -0.03    -0.01  -0.02   0.02
  64   1    -0.00   0.01  -0.04    -0.01   0.04  -0.05     0.01  -0.01  -0.01
  65   1    -0.00   0.02  -0.07    -0.02   0.03  -0.07     0.01   0.00  -0.02
  66   1    -0.00   0.02  -0.07    -0.02   0.01  -0.04     0.01   0.01  -0.03
  67   1    -0.00   0.03  -0.06    -0.01  -0.01  -0.01     0.01   0.03  -0.04
  68   1     0.00   0.02  -0.02     0.01  -0.03   0.04    -0.00   0.04  -0.03
  69   1     0.00   0.01   0.02     0.03  -0.04   0.07    -0.01   0.03  -0.01
  70   1     0.00  -0.01   0.06     0.03  -0.04   0.08    -0.01   0.02   0.02
  71   1     0.00  -0.03   0.07     0.02  -0.03   0.05    -0.01  -0.00   0.03
  72   1    -0.00  -0.03   0.06     0.01  -0.00   0.01    -0.01  -0.02   0.03
  73   6    -0.00  -0.00  -0.01    -0.00  -0.05  -0.00     0.00   0.08   0.06
  74   6    -0.00  -0.01  -0.01    -0.00  -0.05   0.00     0.00   0.08   0.05
  75   6    -0.00  -0.01  -0.01    -0.00  -0.03  -0.01    -0.00  -0.01   0.01
  76   6    -0.00  -0.01  -0.01    -0.00  -0.02  -0.01    -0.00  -0.02   0.01
  77   6     0.00   0.00  -0.01     0.00   0.09  -0.06    -0.00  -0.05   0.00
  78   6     0.00   0.00  -0.01     0.00   0.09  -0.08    -0.00  -0.04   0.00
  79  27    -0.00  -0.02  -0.01    -0.01  -0.10   0.02    -0.00   0.06   0.01
  80   6    -0.00  -0.01   0.09     0.01  -0.05   0.04    -0.03   0.06   0.12
  81   6    -0.00  -0.01   0.07     0.00  -0.05   0.02    -0.02   0.06   0.10
  82   6    -0.00  -0.01   0.03     0.00  -0.05   0.01    -0.01   0.06   0.06
  83   6    -0.00  -0.01  -0.01    -0.00  -0.05   0.01     0.00   0.06   0.03
  84   6    -0.00  -0.01  -0.04    -0.01  -0.05   0.01     0.01   0.06  -0.02
  85   6    -0.00  -0.01  -0.08    -0.01  -0.05   0.01     0.03   0.06  -0.07
  86   6    -0.00  -0.01  -0.09    -0.01  -0.05   0.01     0.03   0.04  -0.12
  87   6    -0.00  -0.02  -0.07    -0.01  -0.05  -0.00     0.02   0.03  -0.11
  88   7    -0.00  -0.01  -0.04    -0.01  -0.05   0.00     0.01   0.04  -0.05
  89   6    -0.00  -0.02  -0.07    -0.01  -0.05  -0.03     0.03   0.00  -0.15
  90   6    -0.00  -0.02  -0.05    -0.01  -0.05  -0.04     0.02  -0.01  -0.12
  91   6     0.00  -0.02  -0.05    -0.02  -0.05  -0.07     0.03  -0.03  -0.15
  92   6     0.00  -0.02  -0.03    -0.02  -0.05  -0.06     0.02  -0.03  -0.10
  93   6    -0.00  -0.01  -0.02    -0.01  -0.04  -0.03     0.01  -0.01  -0.04
  94   7    -0.00  -0.01  -0.03    -0.01  -0.05  -0.02     0.01   0.00  -0.06
  95   6    -0.00  -0.01  -0.01    -0.00  -0.04  -0.01    -0.00  -0.00   0.01
  96   6     0.00  -0.01   0.00     0.00  -0.03   0.03    -0.01   0.01   0.06
  97   6     0.00  -0.00   0.02     0.00  -0.02   0.06    -0.02   0.02   0.11
  98   6     0.00  -0.00   0.04     0.01  -0.02   0.08    -0.03   0.03   0.14
  99   6     0.00  -0.01   0.04     0.00  -0.03   0.06    -0.03   0.03   0.10
 100   7     0.00  -0.01   0.02     0.00  -0.04   0.03    -0.02   0.02   0.06
 101   6    -0.00  -0.01   0.06     0.01  -0.04   0.06    -0.03   0.04   0.12
 102   6    -0.00  -0.01   0.06     0.01  -0.05   0.04    -0.02   0.05   0.10
 103   7    -0.00  -0.01   0.03     0.00  -0.05   0.03    -0.01   0.05   0.07
 104   1    -0.00  -0.00   0.03     0.00  -0.01   0.01    -0.01   0.02   0.04
 105   1    -0.00  -0.00   0.02     0.00  -0.02   0.00    -0.01   0.02   0.03
 106   1    -0.00  -0.00  -0.02    -0.00  -0.02   0.01     0.01   0.02  -0.02
 107   1    -0.00  -0.00  -0.03    -0.00  -0.02   0.00     0.01   0.01  -0.05
 108   1    -0.00  -0.01  -0.03    -0.01  -0.02  -0.01     0.01  -0.00  -0.06
 109   1     0.00  -0.01  -0.02    -0.01  -0.02  -0.03     0.01  -0.01  -0.06
 110   1     0.00  -0.00  -0.01    -0.00  -0.01  -0.02     0.01  -0.01  -0.03
 111   1     0.00  -0.00   0.00     0.00  -0.00   0.02    -0.01   0.00   0.03
 112   1     0.00  -0.00   0.01     0.00  -0.01   0.03    -0.01   0.01   0.05
 113   1     0.00  -0.00   0.02     0.00  -0.01   0.02    -0.01   0.01   0.04
 114  27     0.00   0.00  -0.01    -0.00   0.07  -0.02    -0.01  -0.08  -0.01
 115   6     0.00   0.00  -0.05     0.03  -0.02   0.13    -0.02  -0.05   0.09
 116   6     0.00   0.00  -0.03     0.02  -0.03   0.09    -0.02  -0.04   0.08
 117   6     0.00  -0.00  -0.02     0.01  -0.01   0.04    -0.01  -0.04   0.04
 118   6    -0.00  -0.01  -0.01    -0.00  -0.00  -0.01    -0.00  -0.03   0.01
 119   6    -0.00  -0.01   0.01    -0.02   0.01  -0.04     0.00  -0.02  -0.03
 120   6    -0.01  -0.01   0.02    -0.03   0.01  -0.07     0.00  -0.01  -0.07
 121   6    -0.01  -0.01   0.04    -0.04   0.02  -0.10     0.01  -0.02  -0.09
 122   6    -0.01  -0.01   0.04    -0.03   0.03  -0.08     0.00  -0.03  -0.07
 123   7    -0.00  -0.00   0.02    -0.02   0.02  -0.05     0.00  -0.03  -0.04
 124   6    -0.01  -0.00   0.06    -0.04   0.04  -0.09     0.01  -0.03  -0.08
 125   6    -0.00   0.00   0.06    -0.03   0.05  -0.08     0.01  -0.04  -0.05
 126   6    -0.00   0.00   0.09    -0.04   0.06  -0.11     0.01  -0.04  -0.05
 127   6    -0.00   0.01   0.07    -0.03   0.07  -0.10     0.01  -0.05  -0.02
 128   6    -0.00   0.00   0.03    -0.01   0.07  -0.07     0.00  -0.04  -0.01
 129   7    -0.00   0.00   0.03    -0.02   0.05  -0.06     0.00  -0.04  -0.03
 130   6     0.00   0.00  -0.01     0.00   0.07  -0.04    -0.00  -0.05  -0.00
 131   6     0.00   0.00  -0.04     0.01   0.07   0.00    -0.01  -0.04  -0.00
 132   6     0.01   0.00  -0.08     0.03   0.07   0.05    -0.01  -0.04  -0.00
 133   6     0.01   0.00  -0.10     0.04   0.06   0.10    -0.01  -0.04   0.01
 134   6     0.01   0.00  -0.07     0.03   0.04   0.08    -0.01  -0.04   0.02
 135   7     0.00   0.00  -0.04     0.01   0.05   0.03    -0.01  -0.05   0.01
 136   6     0.01   0.01  -0.07     0.03   0.02   0.12    -0.01  -0.04   0.04
 137   6     0.00   0.00  -0.05     0.02   0.00   0.10    -0.01  -0.04   0.05
 138   7     0.00   0.00  -0.03     0.01   0.01   0.05    -0.01  -0.04   0.03
 139   1     0.00   0.00  -0.02     0.01  -0.01   0.05    -0.01  -0.01   0.03
 140   1     0.00  -0.00  -0.01     0.01  -0.01   0.03    -0.01  -0.01   0.03
 141   1    -0.00  -0.00   0.00    -0.01   0.00  -0.02     0.00  -0.00  -0.02
 142   1    -0.00  -0.00   0.02    -0.01   0.01  -0.04     0.00  -0.00  -0.04
 143   1    -0.00  -0.00   0.03    -0.01   0.01  -0.03     0.00  -0.01  -0.03
 144   1    -0.00   0.00   0.03    -0.01   0.02  -0.04     0.00  -0.01  -0.02
 145   1    -0.00   0.00   0.02    -0.01   0.02  -0.03     0.00  -0.01  -0.00
 146   1     0.00   0.00  -0.03     0.01   0.03   0.01    -0.00  -0.01  -0.00
 147   1     0.00   0.00  -0.04     0.01   0.02   0.04    -0.00  -0.01   0.00
 148   1     0.00   0.00  -0.03     0.01   0.00   0.05    -0.00  -0.01   0.02
                      7                      8                      9
                        a                      a                      a 
 Frequencies --    10.3261                12.6172                13.9516
 Red. masses --    11.4348                12.3207                11.6761
 Frc consts  --     0.0000                 0.0000                 0.0000
 IR Inten    --    62.7617                20.0621                 2.7173
 Raman Activ --     0.0000                 0.0000                 0.0000
 Depolar     --     0.0000                 0.0000                 0.0000
 Atom AN      X      Y      Z        X      Y      Z        X      Y      Z
   1  27    -0.02  -0.01  -0.01     0.01   0.03   0.02     0.01  -0.02   0.00
   2   6     0.01  -0.09  -0.14    -0.07   0.00   0.10     0.03   0.02   0.01
   3   6     0.01  -0.08  -0.13    -0.05  -0.02   0.10     0.02   0.02  -0.00
   4   6     0.00  -0.06  -0.10    -0.02  -0.01   0.08     0.01   0.01  -0.00
   5   6     0.00  -0.06  -0.09     0.00  -0.02   0.09     0.00   0.02  -0.00
   6   6     0.01  -0.05  -0.09     0.02  -0.01   0.08    -0.00   0.01  -0.00
   7   6     0.02  -0.07  -0.12     0.05  -0.01   0.10    -0.01   0.01  -0.01
   8   6     0.03  -0.05  -0.10     0.06  -0.00   0.09    -0.02   0.00  -0.03
   9   6     0.02  -0.03  -0.05     0.05   0.01   0.05    -0.01  -0.01  -0.03
  10   7     0.01  -0.03  -0.05     0.03   0.00   0.05    -0.01  -0.00  -0.02
  11   6     0.02   0.01   0.01     0.06   0.01   0.01    -0.02  -0.03  -0.06
  12   6     0.00   0.04   0.08     0.06   0.02  -0.04    -0.01  -0.04  -0.06
  13   6    -0.02   0.09   0.16     0.08   0.02  -0.09    -0.01  -0.06  -0.08
  14   6    -0.05   0.11   0.22     0.08   0.02  -0.13    -0.00  -0.07  -0.06
  15   6    -0.05   0.09   0.16     0.05   0.02  -0.10     0.00  -0.05  -0.02
  16   7    -0.02   0.05   0.09     0.04   0.02  -0.05    -0.00  -0.03  -0.03
  17   6    -0.07   0.10   0.17     0.04   0.02  -0.12     0.01  -0.04   0.02
  18   6    -0.06   0.06   0.09     0.00   0.03  -0.08     0.01  -0.02   0.05
  19   6    -0.06   0.06   0.08    -0.02   0.04  -0.08     0.01  -0.01   0.08
  20   6    -0.03   0.01   0.01    -0.06   0.04  -0.03     0.02   0.01   0.09
  21   6    -0.01  -0.02  -0.03    -0.05   0.04   0.00     0.02   0.01   0.06
  22   7    -0.03   0.01   0.03    -0.01   0.03  -0.03     0.01  -0.01   0.04
  23   6     0.00  -0.06  -0.09    -0.07   0.03   0.05     0.03   0.02   0.05
  24   6     0.00  -0.07  -0.10    -0.06   0.02   0.07     0.02   0.01   0.02
  25   7    -0.00  -0.05  -0.08    -0.03   0.01   0.06     0.01   0.01   0.01
  26   1     0.00  -0.03  -0.05    -0.03   0.00   0.03     0.01   0.01   0.00
  27   1     0.00  -0.03  -0.04    -0.02  -0.01   0.04     0.01   0.01  -0.01
  28   1     0.01  -0.03  -0.05     0.01  -0.01   0.04    -0.00   0.01   0.00
  29   1     0.01  -0.02  -0.03     0.02  -0.00   0.03    -0.01  -0.00  -0.01
  30   1     0.01   0.00   0.00     0.02   0.00   0.01    -0.01  -0.01  -0.02
  31   1    -0.00   0.03   0.05     0.03   0.01  -0.03    -0.00  -0.02  -0.03
  32   1    -0.02   0.04   0.08     0.03   0.01  -0.05     0.00  -0.02  -0.02
  33   1    -0.03   0.04   0.07     0.01   0.01  -0.05     0.00  -0.02   0.01
  34   1    -0.02   0.03   0.04    -0.00   0.01  -0.03     0.00  -0.00   0.03
  35   1    -0.01  -0.00  -0.01    -0.02   0.02  -0.01     0.01   0.01   0.03
  36   1     0.00  -0.02  -0.04    -0.03   0.01   0.02     0.01   0.01   0.02
  37  27    -0.01  -0.02   0.02    -0.02  -0.02   0.02    -0.01   0.02   0.00
  38   6     0.02  -0.08   0.13     0.07  -0.00   0.10    -0.03  -0.03   0.02
  39   6     0.01  -0.06   0.12     0.05   0.02   0.11    -0.02  -0.02   0.00
  40   6     0.01  -0.04   0.09     0.02   0.02   0.08    -0.01  -0.02   0.00
  41   6     0.00  -0.04   0.08    -0.00   0.03   0.09    -0.00  -0.02   0.00
  42   6     0.01  -0.04   0.07    -0.02   0.02   0.08     0.00  -0.01  -0.00
  43   6     0.01  -0.05   0.09    -0.04   0.02   0.11     0.01  -0.02  -0.01
  44   6     0.02  -0.04   0.07    -0.06   0.01   0.09     0.02  -0.00  -0.03
  45   6     0.01  -0.02   0.03    -0.05  -0.00   0.05     0.01   0.01  -0.04
  46   7     0.01  -0.02   0.04    -0.03   0.00   0.06     0.01   0.00  -0.02
  47   6     0.01   0.00  -0.02    -0.06  -0.01   0.01     0.02   0.03  -0.08
  48   6    -0.00   0.03  -0.07    -0.06  -0.01  -0.04     0.01   0.04  -0.08
  49   6    -0.02   0.06  -0.14    -0.08  -0.02  -0.09     0.01   0.07  -0.11
  50   6    -0.04   0.08  -0.18    -0.08  -0.02  -0.14    -0.00   0.08  -0.08
  51   6    -0.04   0.06  -0.13    -0.05  -0.01  -0.10    -0.00   0.05  -0.04
  52   7    -0.02   0.03  -0.07    -0.04  -0.01  -0.05    -0.00   0.04  -0.04
  53   6    -0.05   0.07  -0.13    -0.04  -0.02  -0.12    -0.01   0.05   0.01
  54   6    -0.04   0.04  -0.07    -0.01  -0.02  -0.08    -0.01   0.02   0.05
  55   6    -0.04   0.03  -0.06     0.02  -0.03  -0.08    -0.01   0.01   0.09
  56   6    -0.01  -0.01   0.01     0.06  -0.04  -0.03    -0.02  -0.02   0.11
  57   6    -0.00  -0.03   0.03     0.05  -0.04   0.00    -0.02  -0.02   0.07
  58   7    -0.02   0.00  -0.01     0.01  -0.03  -0.03    -0.01   0.01   0.04
  59   6     0.01  -0.06   0.09     0.07  -0.03   0.05    -0.02  -0.03   0.07
  60   6     0.01  -0.06   0.10     0.06  -0.02   0.07    -0.02  -0.02   0.04
  61   7     0.01  -0.04   0.08     0.03  -0.00   0.06    -0.01  -0.01   0.02
  62   1     0.01  -0.03   0.05     0.03  -0.00   0.03    -0.01  -0.01   0.01
  63   1     0.00  -0.02   0.04     0.02   0.01   0.04    -0.01  -0.01  -0.00
  64   1     0.00  -0.02   0.04    -0.01   0.01   0.04     0.00  -0.01   0.00
  65   1     0.01  -0.01   0.02    -0.02   0.00   0.03     0.01   0.00  -0.01
  66   1     0.01   0.00  -0.01    -0.02  -0.00   0.01     0.01   0.01  -0.03
  67   1    -0.00   0.02  -0.05    -0.03  -0.00  -0.03     0.00   0.02  -0.04
  68   1    -0.02   0.03  -0.07    -0.03  -0.01  -0.05    -0.00   0.03  -0.03
  69   1    -0.02   0.03  -0.05    -0.02  -0.01  -0.05    -0.00   0.02   0.00
  70   1    -0.01   0.02  -0.03     0.00  -0.01  -0.03    -0.00   0.00   0.03
  71   1    -0.00  -0.01   0.01     0.02  -0.02  -0.01    -0.01  -0.01   0.04
  72   1     0.01  -0.02   0.03     0.03  -0.01   0.02    -0.01  -0.01   0.03
  73   6     0.00  -0.07  -0.10     0.00  -0.04   0.11     0.00   0.03  -0.00
  74   6     0.00  -0.06  -0.09     0.00  -0.05   0.11     0.00   0.03  -0.00
  75   6     0.01   0.05  -0.00     0.00  -0.01  -0.12     0.00   0.01  -0.03
  76   6     0.01   0.05  -0.01     0.00   0.01  -0.12     0.00  -0.01  -0.03
  77   6     0.00  -0.04   0.08    -0.00   0.05   0.11    -0.00  -0.03   0.00
  78   6     0.00  -0.04   0.09    -0.00   0.04   0.11    -0.00  -0.03   0.00
  79  27     0.02   0.00  -0.00    -0.00  -0.09  -0.02     0.00   0.06  -0.00
  80   6     0.05  -0.03   0.01     0.01  -0.05   0.06    -0.01   0.03  -0.17
  81   6     0.04  -0.04  -0.04     0.01  -0.05   0.10    -0.01   0.04  -0.13
  82   6     0.02  -0.03  -0.04     0.01  -0.05   0.07    -0.00   0.03  -0.06
  83   6     0.00  -0.04  -0.07     0.00  -0.05   0.09     0.00   0.03  -0.00
  84   6    -0.01  -0.03  -0.06    -0.00  -0.05   0.08     0.01   0.03   0.07
  85   6    -0.02  -0.04  -0.06    -0.00  -0.05   0.12     0.01   0.04   0.14
  86   6    -0.03  -0.03  -0.05    -0.01  -0.04   0.09     0.01   0.04   0.20
  87   6    -0.02  -0.01  -0.03    -0.01  -0.04   0.04     0.01   0.04   0.16
  88   7    -0.01  -0.02  -0.04    -0.01  -0.05   0.04     0.01   0.04   0.08
  89   6    -0.03  -0.00  -0.02    -0.03  -0.04  -0.01     0.01   0.05   0.18
  90   6    -0.02   0.01  -0.02    -0.03  -0.03  -0.05     0.01   0.05   0.12
  91   6    -0.03   0.02  -0.04    -0.04  -0.03  -0.09     0.01   0.05   0.13
  92   6    -0.02   0.03  -0.04    -0.03  -0.03  -0.11     0.00   0.04   0.06
  93   6    -0.00   0.03  -0.02    -0.01  -0.03  -0.09     0.00   0.03   0.02
  94   7    -0.01   0.02  -0.01    -0.01  -0.04  -0.06     0.00   0.03   0.06
  95   6     0.01   0.04   0.01    -0.00  -0.02  -0.11     0.00   0.01  -0.02
  96   6     0.02   0.04   0.05     0.01  -0.03  -0.10    -0.00   0.01  -0.06
  97   6     0.03   0.06   0.10     0.02  -0.03  -0.12    -0.01  -0.00  -0.10
  98   6     0.04   0.05   0.13     0.03  -0.03  -0.11    -0.01  -0.00  -0.13
  99   6     0.04   0.03   0.10     0.02  -0.04  -0.06    -0.01   0.01  -0.11
 100   7     0.02   0.03   0.05     0.01  -0.04  -0.07    -0.01   0.02  -0.07
 101   6     0.05   0.01   0.09     0.02  -0.04  -0.03    -0.01   0.01  -0.15
 102   6     0.04  -0.01   0.04     0.01  -0.04   0.02    -0.01   0.02  -0.13
 103   7     0.03  -0.02  -0.00     0.01  -0.05   0.03    -0.00   0.03  -0.07
 104   1     0.02  -0.01   0.01     0.00  -0.01   0.02    -0.00   0.01  -0.06
 105   1     0.01  -0.02  -0.02     0.00  -0.02   0.04    -0.00   0.01  -0.04
 106   1    -0.01  -0.02  -0.02     0.00  -0.01   0.05     0.00   0.01   0.04
 107   1    -0.01  -0.01  -0.01    -0.01  -0.01   0.03     0.01   0.01   0.08
 108   1    -0.01  -0.00  -0.01    -0.01  -0.01  -0.00     0.01   0.02   0.07
 109   1    -0.01   0.01  -0.01    -0.01  -0.01  -0.03     0.00   0.02   0.05
 110   1    -0.01   0.01  -0.01    -0.01  -0.01  -0.04     0.00   0.01   0.01
 111   1     0.01   0.02   0.03     0.01  -0.01  -0.04    -0.00  -0.00  -0.03
 112   1     0.02   0.02   0.05     0.01  -0.01  -0.03    -0.01  -0.00  -0.05
 113   1     0.02   0.00   0.04     0.01  -0.01  -0.01    -0.00   0.00  -0.06
 114  27     0.02   0.03  -0.00     0.00   0.08  -0.03    -0.00  -0.06  -0.00
 115   6    -0.02   0.03   0.03     0.04   0.02  -0.09    -0.01  -0.05   0.14
 116   6    -0.01   0.04   0.02     0.03   0.02  -0.12    -0.00  -0.04   0.08
 117   6    -0.00   0.03   0.01     0.01   0.02  -0.09    -0.00  -0.03   0.03
 118   6     0.01   0.04  -0.01     0.00   0.02  -0.11     0.00  -0.01  -0.02
 119   6     0.02   0.05  -0.05    -0.01   0.02  -0.10     0.01  -0.01  -0.06
 120   6     0.03   0.06  -0.10    -0.02   0.02  -0.13     0.01   0.00  -0.11
 121   6     0.04   0.05  -0.12    -0.03   0.03  -0.11     0.01   0.00  -0.15
 122   6     0.03   0.03  -0.09    -0.02   0.03  -0.07     0.01  -0.01  -0.13
 123   7     0.02   0.03  -0.05    -0.01   0.03  -0.07     0.01  -0.02  -0.08
 124   6     0.04   0.02  -0.08    -0.02   0.04  -0.04     0.01  -0.02  -0.17
 125   6     0.04   0.00  -0.03    -0.01   0.04   0.01     0.01  -0.03  -0.15
 126   6     0.05  -0.01  -0.01    -0.01   0.05   0.05     0.01  -0.04  -0.18
 127   6     0.04  -0.02   0.04    -0.01   0.05   0.09     0.01  -0.04  -0.14
 128   6     0.02  -0.02   0.04    -0.01   0.05   0.07     0.00  -0.03  -0.07
 129   7     0.02  -0.00   0.00    -0.01   0.05   0.03     0.00  -0.03  -0.08
 130   6     0.01  -0.02   0.06    -0.00   0.05   0.09    -0.00  -0.03   0.00
 131   6    -0.01  -0.02   0.05     0.00   0.05   0.08    -0.01  -0.03   0.07
 132   6    -0.02  -0.02   0.06     0.00   0.05   0.12    -0.01  -0.03   0.15
 133   6    -0.03  -0.01   0.04     0.01   0.05   0.09    -0.01  -0.04   0.21
 134   6    -0.02   0.00   0.03     0.02   0.04   0.04    -0.01  -0.04   0.17
 135   7    -0.01  -0.00   0.03     0.01   0.05   0.04    -0.01  -0.04   0.09
 136   6    -0.02   0.01   0.02     0.03   0.04  -0.01    -0.01  -0.05   0.19
 137   6    -0.02   0.02   0.02     0.03   0.03  -0.05    -0.01  -0.04   0.13
 138   7    -0.00   0.03   0.01     0.01   0.03  -0.06    -0.00  -0.03   0.06
 139   1    -0.01   0.01   0.01     0.01   0.01  -0.03    -0.00  -0.02   0.06
 140   1    -0.00   0.01   0.01     0.01   0.00  -0.04    -0.00  -0.01   0.02
 141   1     0.01   0.02  -0.03    -0.01   0.01  -0.05     0.00   0.00  -0.03
 142   1     0.01   0.02  -0.05    -0.01   0.01  -0.04     0.01   0.00  -0.06
 143   1     0.01   0.01  -0.03    -0.01   0.01  -0.01     0.00  -0.00  -0.06
 144   1     0.02  -0.00  -0.01    -0.00   0.01   0.02     0.00  -0.01  -0.07
 145   1     0.01  -0.01   0.02    -0.00   0.02   0.04     0.00  -0.01  -0.04
 146   1    -0.01  -0.01   0.02    -0.00   0.02   0.05    -0.00  -0.01   0.05
 147   1    -0.01  -0.00   0.01     0.01   0.01   0.03    -0.01  -0.01   0.08
 148   1    -0.01   0.00   0.01     0.01   0.01  -0.00    -0.01  -0.02   0.07
                     10                     11                     12
                        a                      a                      a 
 Frequencies --    19.7349                21.1767                26.8118
 Red. masses --    12.1967                12.1535                10.9968
 Frc consts  --     0.0000                 0.0000                 0.0000
 IR Inten    --    35.3714                20.9368                 1.8835
 Raman Activ --     0.0000                 0.0000                 0.0000
 Depolar     --     0.0000                 0.0000                 0.0000
 Atom AN      X      Y      Z        X      Y      Z        X      Y      Z
   1  27     0.02   0.02   0.02    -0.00  -0.03   0.03     0.01   0.00   0.01
   2   6    -0.03  -0.00   0.03    -0.08  -0.07   0.04     0.03  -0.05  -0.10
   3   6    -0.02  -0.02   0.02    -0.06  -0.09   0.05     0.02  -0.06  -0.14
   4   6    -0.00  -0.02   0.02    -0.03  -0.07   0.05     0.01  -0.03  -0.08
   5   6     0.01  -0.02   0.03     0.00  -0.08   0.07     0.00  -0.00  -0.04
   6   6     0.02  -0.00   0.05     0.03  -0.06   0.06    -0.01   0.03   0.04
   7   6     0.03   0.00   0.07     0.06  -0.07   0.08    -0.01   0.06   0.12
   8   6     0.03   0.01   0.08     0.08  -0.05   0.07    -0.02   0.06   0.15
   9   6     0.03   0.01   0.05     0.06  -0.03   0.04    -0.02   0.03   0.09
  10   7     0.02   0.00   0.04     0.03  -0.04   0.04    -0.01   0.02   0.04
  11   6     0.03   0.01   0.02     0.08  -0.01   0.01    -0.02   0.01   0.04
  12   6     0.04   0.01  -0.02     0.07   0.01  -0.03     0.00  -0.02  -0.04
  13   6     0.05   0.00  -0.07     0.09   0.03  -0.06     0.02  -0.05  -0.11
  14   6     0.06  -0.00  -0.10     0.07   0.04  -0.08     0.04  -0.06  -0.14
  15   6     0.04   0.00  -0.07     0.04   0.03  -0.05     0.03  -0.04  -0.08
  16   7     0.03   0.01  -0.03     0.04   0.01  -0.02     0.01  -0.02  -0.03
  17   6     0.03   0.01  -0.07     0.01   0.05  -0.05     0.02  -0.03  -0.03
  18   6     0.01   0.02  -0.03    -0.03   0.04  -0.03     0.00   0.01   0.05
  19   6    -0.01   0.04  -0.01    -0.07   0.06  -0.02    -0.02   0.05   0.12
  20   6    -0.03   0.05   0.03    -0.09   0.05  -0.00    -0.02   0.07   0.15
  21   6    -0.02   0.04   0.03    -0.07   0.02   0.01    -0.01   0.05   0.09
  22   7    -0.00   0.02   0.00    -0.04   0.02  -0.00     0.00   0.02   0.04
  23   6    -0.03   0.04   0.05    -0.09  -0.01   0.02     0.01   0.03   0.05
  24   6    -0.02   0.01   0.04    -0.07  -0.04   0.03     0.02  -0.01  -0.03
  25   7    -0.01   0.01   0.03    -0.04  -0.04   0.04     0.01  -0.01  -0.03
  26   1    -0.01  -0.00   0.01    -0.03  -0.02   0.01     0.01  -0.02  -0.04
  27   1    -0.00  -0.01   0.00    -0.02  -0.03   0.02     0.01  -0.03  -0.06
  28   1     0.01   0.00   0.03     0.02  -0.03   0.03    -0.00   0.02   0.04
  29   1     0.01   0.00   0.03     0.03  -0.01   0.02    -0.01   0.02   0.06
  30   1     0.01   0.00   0.01     0.03  -0.00   0.00    -0.01   0.00   0.02
  31   1     0.02   0.00  -0.02     0.03   0.01  -0.02     0.01  -0.02  -0.04
  32   1     0.02  -0.00  -0.04     0.02   0.02  -0.03     0.02  -0.02  -0.06
  33   1     0.01   0.00  -0.03     0.00   0.02  -0.02     0.01  -0.01  -0.01
  34   1    -0.00   0.01  -0.01    -0.02   0.02  -0.01    -0.01   0.01   0.04
  35   1    -0.01   0.02   0.02    -0.04   0.02   0.00    -0.01   0.03   0.06
  36   1    -0.01   0.01   0.02    -0.03  -0.00   0.01     0.00   0.01   0.02
  37  27    -0.02  -0.02   0.02     0.00  -0.02  -0.03     0.01   0.00  -0.01
  38   6     0.02  -0.00   0.03    -0.08  -0.07  -0.04     0.03  -0.04   0.10
  39   6     0.01   0.01   0.02    -0.06  -0.09  -0.05     0.02  -0.05   0.12
  40   6     0.00   0.01   0.02    -0.03  -0.07  -0.05     0.01  -0.02   0.07
  41   6    -0.01   0.01   0.03     0.00  -0.08  -0.07     0.00   0.00   0.03
  42   6    -0.02  -0.00   0.04     0.03  -0.06  -0.06    -0.00   0.02  -0.04
  43   6    -0.02  -0.01   0.07     0.06  -0.07  -0.08    -0.01   0.05  -0.11
  44   6    -0.03  -0.01   0.07     0.08  -0.05  -0.07    -0.02   0.05  -0.13
  45   6    -0.02  -0.01   0.04     0.06  -0.03  -0.04    -0.01   0.02  -0.07
  46   7    -0.02  -0.01   0.03     0.04  -0.04  -0.04    -0.00   0.01  -0.03
  47   6    -0.03  -0.01   0.02     0.08  -0.01  -0.01    -0.01   0.00  -0.02
  48   6    -0.03  -0.01  -0.02     0.07   0.01   0.02     0.00  -0.02   0.04
  49   6    -0.04   0.00  -0.07     0.09   0.03   0.06     0.02  -0.04   0.11
  50   6    -0.05   0.01  -0.10     0.07   0.05   0.08     0.03  -0.05   0.12
  51   6    -0.04   0.00  -0.07     0.04   0.03   0.05     0.02  -0.03   0.06
  52   7    -0.03  -0.01  -0.03     0.04   0.01   0.02     0.01  -0.02   0.03
  53   6    -0.03  -0.00  -0.06     0.01   0.05   0.05     0.01  -0.02   0.02
  54   6    -0.01  -0.01  -0.03    -0.03   0.04   0.03    -0.00   0.01  -0.05
  55   6     0.00  -0.03  -0.01    -0.06   0.06   0.02    -0.02   0.04  -0.12
  56   6     0.02  -0.04   0.02    -0.09   0.05   0.00    -0.02   0.06  -0.14
  57   6     0.02  -0.03   0.03    -0.07   0.02  -0.01    -0.00   0.04  -0.08
  58   7    -0.00  -0.02   0.00    -0.04   0.02   0.00     0.00   0.01  -0.04
  59   6     0.02  -0.03   0.04    -0.09  -0.01  -0.02     0.01   0.02  -0.04
  60   6     0.02  -0.02   0.04    -0.07  -0.04  -0.03     0.02  -0.01   0.03
  61   7     0.00  -0.01   0.03    -0.04  -0.04  -0.04     0.01  -0.01   0.02
  62   1     0.01  -0.00   0.01    -0.03  -0.02  -0.01     0.01  -0.02   0.03
  63   1     0.00   0.01   0.00    -0.02  -0.04  -0.02     0.01  -0.02   0.05
  64   1    -0.01  -0.00   0.02     0.02  -0.03  -0.03    -0.00   0.02  -0.04
  65   1    -0.01  -0.00   0.03     0.03  -0.02  -0.02    -0.01   0.02  -0.05
  66   1    -0.01  -0.00   0.01     0.03  -0.00  -0.00    -0.01   0.00  -0.01
  67   1    -0.01   0.00  -0.02     0.03   0.01   0.02     0.01  -0.01   0.04
  68   1    -0.02   0.00  -0.04     0.02   0.02   0.03     0.01  -0.02   0.05
  69   1    -0.01   0.00  -0.03     0.00   0.02   0.02     0.01  -0.01   0.01
  70   1    -0.00  -0.01  -0.01    -0.02   0.02   0.01    -0.01   0.01  -0.04
  71   1     0.01  -0.02   0.01    -0.04   0.02  -0.00    -0.01   0.03  -0.05
  72   1     0.01  -0.01   0.02    -0.03  -0.00  -0.01     0.00   0.01  -0.01
  73   6     0.01  -0.03   0.03     0.00  -0.09   0.09     0.00  -0.00  -0.06
  74   6     0.01  -0.04   0.01     0.00  -0.08   0.09     0.00  -0.00  -0.07
  75   6    -0.00   0.00   0.26     0.00   0.12  -0.01    -0.01  -0.01  -0.01
  76   6    -0.00   0.02   0.26     0.00   0.12  -0.01    -0.01  -0.01  -0.01
  77   6    -0.01   0.03   0.02     0.00  -0.09  -0.09     0.00   0.00   0.05
  78   6    -0.01   0.02   0.03     0.00  -0.10  -0.09     0.00   0.00   0.04
  79  27     0.01  -0.08  -0.03    -0.00   0.03  -0.07    -0.01  -0.00  -0.00
  80   6     0.01  -0.04  -0.18     0.07  -0.04  -0.02     0.00  -0.00  -0.17
  81   6     0.00  -0.04  -0.10     0.05  -0.06   0.03     0.00  -0.00  -0.20
  82   6     0.00  -0.04  -0.04     0.03  -0.04   0.03    -0.00   0.00  -0.12
  83   6     0.01  -0.04  -0.01     0.00  -0.06   0.06     0.00   0.00  -0.06
  84   6     0.00  -0.04  -0.03    -0.02  -0.04   0.04     0.01   0.00   0.03
  85   6     0.00  -0.04  -0.07    -0.05  -0.06   0.05     0.01   0.01   0.11
  86   6    -0.00  -0.05  -0.13    -0.07  -0.04  -0.01     0.02   0.01   0.15
  87   6    -0.00  -0.05  -0.11    -0.06  -0.02  -0.05     0.01   0.01   0.09
  88   7     0.00  -0.04  -0.06    -0.03  -0.02  -0.02     0.01   0.00   0.03
  89   6    -0.00  -0.05  -0.11    -0.08   0.00  -0.10     0.01   0.00   0.05
  90   6     0.01  -0.04  -0.02    -0.07   0.03  -0.09    -0.00  -0.01  -0.03
  91   6     0.02  -0.04   0.05    -0.08   0.06  -0.10    -0.01  -0.03  -0.10
  92   6     0.02  -0.02   0.16    -0.06   0.09  -0.06    -0.01  -0.04  -0.13
  93   6     0.01  -0.02   0.15    -0.03   0.08  -0.04    -0.01  -0.02  -0.06
  94   7     0.01  -0.03   0.05    -0.03   0.05  -0.06    -0.01  -0.01  -0.02
  95   6     0.00  -0.01   0.20    -0.00   0.10  -0.02    -0.01  -0.01  -0.00
  96   6    -0.01  -0.02   0.13     0.03   0.08  -0.02    -0.01   0.01   0.07
  97   6    -0.02  -0.03   0.12     0.05   0.10  -0.02    -0.02   0.02   0.16
  98   6    -0.01  -0.04  -0.01     0.08   0.07  -0.05    -0.03   0.03   0.18
  99   6    -0.00  -0.04  -0.07     0.06   0.04  -0.06    -0.02   0.01   0.10
 100   7    -0.00  -0.03   0.02     0.03   0.05  -0.04    -0.01   0.00   0.05
 101   6     0.01  -0.05  -0.17     0.08   0.01  -0.08    -0.01   0.01   0.03
 102   6     0.01  -0.04  -0.15     0.06  -0.01  -0.05    -0.00  -0.00  -0.07
 103   7     0.01  -0.04  -0.08     0.03  -0.02  -0.01    -0.00   0.00  -0.06
 104   1     0.00  -0.01  -0.07     0.03  -0.01  -0.01     0.00  -0.00  -0.06
 105   1     0.00  -0.01  -0.02     0.02  -0.02   0.02     0.00  -0.00  -0.08
 106   1     0.00  -0.01  -0.02    -0.01  -0.02   0.03     0.00   0.00   0.04
 107   1    -0.00  -0.01  -0.05    -0.03  -0.01  -0.01     0.01   0.00   0.06
 108   1    -0.00  -0.02  -0.05    -0.03   0.00  -0.04     0.00   0.00   0.02
 109   1     0.01  -0.01   0.00    -0.03   0.02  -0.04    -0.00  -0.01  -0.04
 110   1     0.01  -0.00   0.07    -0.02   0.03  -0.01    -0.00  -0.02  -0.05
 111   1    -0.01  -0.01   0.06     0.02   0.04   0.00    -0.01   0.01   0.06
 112   1    -0.00  -0.01  -0.02     0.03   0.02  -0.02    -0.01   0.01   0.07
 113   1     0.00  -0.02  -0.07     0.03   0.00  -0.03    -0.00   0.00   0.01
 114  27    -0.01   0.08  -0.03     0.00   0.03   0.07    -0.01  -0.00   0.00
 115   6    -0.02   0.04   0.04    -0.08   0.06   0.10    -0.01  -0.03   0.10
 116   6    -0.02   0.03   0.16    -0.05   0.09   0.05    -0.01  -0.03   0.11
 117   6    -0.01   0.03   0.15    -0.03   0.08   0.02    -0.01  -0.02   0.05
 118   6    -0.00   0.02   0.20     0.00   0.10  -0.00    -0.01  -0.01  -0.01
 119   6     0.01   0.03   0.13     0.03   0.08   0.00    -0.01   0.00  -0.07
 120   6     0.02   0.04   0.12     0.05   0.10   0.00    -0.02   0.02  -0.16
 121   6     0.02   0.05  -0.01     0.08   0.07   0.05    -0.03   0.02  -0.16
 122   6     0.01   0.04  -0.07     0.06   0.04   0.07    -0.02   0.01  -0.08
 123   7     0.00   0.04   0.02     0.03   0.05   0.04    -0.01   0.00  -0.05
 124   6     0.00   0.04  -0.17     0.08   0.01   0.09    -0.01   0.00  -0.01
 125   6    -0.00   0.04  -0.15     0.06  -0.02   0.06    -0.00   0.00   0.07
 126   6     0.00   0.03  -0.18     0.07  -0.04   0.04    -0.00   0.01   0.16
 127   6     0.00   0.03  -0.10     0.05  -0.06  -0.02     0.00   0.01   0.18
 128   6    -0.00   0.03  -0.04     0.03  -0.05  -0.03    -0.00   0.01   0.10
 129   7    -0.00   0.04  -0.08     0.03  -0.02   0.02    -0.00   0.00   0.05
 130   6    -0.01   0.03  -0.00     0.00  -0.06  -0.06     0.00   0.00   0.05
 131   6    -0.01   0.03  -0.03    -0.02  -0.05  -0.04     0.01   0.00  -0.03
 132   6    -0.01   0.03  -0.07    -0.05  -0.06  -0.04     0.01   0.00  -0.11
 133   6    -0.00   0.04  -0.13    -0.07  -0.04   0.03     0.02   0.01  -0.13
 134   6    -0.00   0.04  -0.11    -0.06  -0.02   0.06     0.01   0.00  -0.07
 135   7    -0.01   0.04  -0.05    -0.03  -0.02   0.02     0.01   0.00  -0.03
 136   6    -0.01   0.05  -0.11    -0.08   0.00   0.11     0.01  -0.00  -0.03
 137   6    -0.01   0.04  -0.02    -0.06   0.03   0.10    -0.00  -0.01   0.03
 138   7    -0.01   0.04   0.05    -0.03   0.05   0.06    -0.01  -0.01   0.02
 139   1    -0.01   0.02   0.00    -0.03   0.02   0.04    -0.00  -0.01   0.04
 140   1    -0.01   0.01   0.07    -0.02   0.03   0.01    -0.00  -0.01   0.05
 141   1     0.01   0.01   0.06     0.01   0.04  -0.01    -0.01   0.01  -0.06
 142   1     0.01   0.02  -0.02     0.03   0.02   0.02    -0.01   0.01  -0.06
 143   1     0.00   0.01  -0.07     0.03   0.00   0.03    -0.00   0.00  -0.01
 144   1     0.00   0.01  -0.07     0.03  -0.01   0.02    -0.00   0.00   0.06
 145   1     0.00   0.01  -0.02     0.02  -0.02  -0.02     0.00   0.00   0.07
 146   1    -0.00   0.01  -0.02    -0.01  -0.02  -0.03     0.01   0.00  -0.04
 147   1    -0.00   0.01  -0.05    -0.03  -0.01   0.01     0.01   0.00  -0.05
 148   1    -0.00   0.02  -0.05    -0.03   0.00   0.04     0.00  -0.00  -0.01
                     13                     14                     15
                        a                      a                      a 
 Frequencies --    29.3478                29.9042                31.9187
 Red. masses --    11.2715                11.5475                11.7632
 Frc consts  --     0.0000                 0.0000                 0.0000
 IR Inten    --    53.6334                 2.5228                67.2206
 Raman Activ --     0.0000                 0.0000                 0.0000
 Depolar     --     0.0000                 0.0000                 0.0000
 Atom AN      X      Y      Z        X      Y      Z        X      Y      Z
   1  27     0.01   0.02   0.02    -0.01   0.02   0.03    -0.01   0.05   0.02
   2   6     0.02  -0.01  -0.06    -0.02   0.03   0.03    -0.02   0.14   0.16
   3   6     0.02  -0.05  -0.13    -0.01  -0.01  -0.04    -0.02   0.09   0.09
   4   6     0.01  -0.03  -0.10    -0.01  -0.01  -0.04    -0.01   0.04   0.02
   5   6    -0.00  -0.02  -0.10    -0.01  -0.03  -0.07    -0.02  -0.00  -0.07
   6   6    -0.01   0.01   0.00    -0.02  -0.00  -0.01    -0.02  -0.01  -0.08
   7   6    -0.02   0.05   0.09    -0.02   0.02   0.03    -0.02  -0.02  -0.12
   8   6    -0.03   0.07   0.19    -0.02   0.04   0.11    -0.02   0.00  -0.05
   9   6    -0.02   0.05   0.14    -0.02   0.03   0.11    -0.02   0.02   0.02
  10   7    -0.01   0.02   0.05    -0.02   0.01   0.04    -0.02   0.01  -0.01
  11   6    -0.03   0.04   0.14    -0.03   0.04   0.13    -0.04   0.04   0.11
  12   6    -0.00   0.00   0.03    -0.01   0.02   0.06    -0.03   0.03   0.11
  13   6     0.01  -0.02  -0.04    -0.00   0.00   0.02    -0.05   0.03   0.15
  14   6     0.05  -0.05  -0.13     0.03  -0.02  -0.07    -0.02   0.01   0.06
  15   6     0.04  -0.04  -0.10     0.03  -0.02  -0.07     0.01  -0.01  -0.01
  16   7     0.02  -0.01  -0.01     0.00   0.00   0.00    -0.01   0.01   0.03
  17   6     0.05  -0.04  -0.09     0.04  -0.03  -0.10     0.05  -0.04  -0.10
  18   6     0.02  -0.00  -0.00     0.02  -0.01  -0.05     0.05  -0.04  -0.11
  19   6     0.01   0.03   0.06     0.01   0.00  -0.03     0.07  -0.07  -0.15
  20   6    -0.02   0.08   0.14    -0.02   0.04   0.04     0.04  -0.02  -0.07
  21   6    -0.01   0.07   0.10    -0.02   0.05   0.06     0.01   0.03   0.01
  22   7     0.01   0.03   0.03    -0.00   0.02   0.00     0.02   0.01  -0.03
  23   6    -0.01   0.08   0.10    -0.03   0.07   0.09    -0.01   0.09   0.10
  24   6     0.01   0.03   0.01    -0.02   0.04   0.05    -0.02   0.10   0.12
  25   7     0.00   0.01  -0.02    -0.02   0.02   0.01    -0.01   0.06   0.04
  26   1     0.01  -0.00  -0.01    -0.00   0.01   0.02    -0.01   0.05   0.07
  27   1     0.01  -0.02  -0.06    -0.00  -0.01  -0.02    -0.00   0.03   0.03
  28   1    -0.01   0.02   0.02    -0.01   0.00   0.00    -0.01  -0.01  -0.06
  29   1    -0.01   0.03   0.08    -0.01   0.02   0.05    -0.01   0.00  -0.01
  30   1    -0.01   0.01   0.06    -0.01   0.01   0.05    -0.01   0.01   0.04
  31   1     0.00  -0.01  -0.01    -0.00   0.00   0.02    -0.02   0.01   0.06
  32   1     0.02  -0.02  -0.06     0.01  -0.01  -0.03    -0.00   0.00   0.01
  33   1     0.02  -0.02  -0.04     0.02  -0.02  -0.04     0.02  -0.02  -0.04
  34   1     0.00   0.01   0.02     0.01  -0.01  -0.02     0.03  -0.03  -0.06
  35   1    -0.01   0.04   0.06    -0.01   0.02   0.02     0.01  -0.01  -0.02
  36   1    -0.00   0.03   0.04    -0.01   0.03   0.04    -0.01   0.03   0.04
  37  27    -0.01  -0.02   0.02     0.01   0.04  -0.04     0.00  -0.04   0.02
  38   6    -0.02   0.02  -0.07    -0.01   0.07  -0.07     0.02  -0.14   0.19
  39   6    -0.02   0.05  -0.14    -0.00   0.01   0.03     0.01  -0.11   0.13
  40   6    -0.01   0.03  -0.10    -0.00  -0.01   0.05     0.01  -0.05   0.04
  41   6     0.00   0.02  -0.09    -0.01  -0.03   0.10     0.01  -0.00  -0.05
  42   6     0.01  -0.02   0.01    -0.01  -0.00   0.04     0.01   0.01  -0.10
  43   6     0.02  -0.05   0.10    -0.02   0.01   0.00     0.02   0.03  -0.16
  44   6     0.03  -0.06   0.18    -0.02   0.04  -0.11     0.02   0.02  -0.11
  45   6     0.02  -0.04   0.13    -0.01   0.04  -0.13     0.02  -0.01  -0.02
  46   7     0.01  -0.02   0.04    -0.01   0.02  -0.04     0.01  -0.01  -0.03
  47   6     0.02  -0.03   0.12    -0.02   0.05  -0.18     0.03  -0.03   0.07
  48   6     0.00   0.00   0.02    -0.01   0.03  -0.10     0.03  -0.03   0.11
  49   6    -0.02   0.03  -0.06     0.00   0.01  -0.06     0.05  -0.04   0.16
  50   6    -0.05   0.06  -0.13     0.04  -0.02   0.06     0.03  -0.02   0.10
  51   6    -0.04   0.04  -0.09     0.05  -0.02   0.08    -0.00  -0.00   0.01
  52   7    -0.02   0.01  -0.01     0.02   0.01  -0.01     0.01  -0.01   0.04
  53   6    -0.05   0.04  -0.08     0.07  -0.05   0.14    -0.04   0.04  -0.08
  54   6    -0.02  -0.00   0.01     0.05  -0.02   0.08    -0.05   0.05  -0.11
  55   6    -0.00  -0.03   0.08     0.04  -0.01   0.06    -0.08   0.08  -0.17
  56   6     0.01  -0.08   0.15     0.00   0.05  -0.05    -0.05   0.04  -0.10
  57   6     0.00  -0.07   0.10    -0.01   0.07  -0.08    -0.02  -0.01  -0.01
  58   7    -0.01  -0.02   0.04     0.02   0.03  -0.01    -0.02   0.00  -0.03
  59   6    -0.00  -0.06   0.09    -0.02   0.11  -0.14     0.01  -0.07   0.09
  60   6    -0.01  -0.02   0.00    -0.01   0.08  -0.09     0.01  -0.10   0.12
  61   7    -0.01  -0.00  -0.03    -0.01   0.03  -0.02     0.01  -0.06   0.05
  62   1    -0.01   0.00  -0.02    -0.00   0.03  -0.03     0.01  -0.05   0.08
  63   1    -0.01   0.02  -0.06    -0.00  -0.01   0.02     0.00  -0.03   0.04
  64   1     0.01  -0.02   0.03    -0.01   0.00   0.02     0.01   0.01  -0.07
  65   1     0.01  -0.02   0.08    -0.01   0.02  -0.05     0.00   0.01  -0.04
  66   1     0.01  -0.01   0.05    -0.01   0.02  -0.07     0.01  -0.01   0.03
  67   1    -0.00   0.01  -0.01    -0.01   0.01  -0.03     0.02  -0.01   0.07
  68   1    -0.02   0.02  -0.06     0.02  -0.01   0.04     0.01  -0.01   0.03
  69   1    -0.02   0.02  -0.03     0.03  -0.02   0.06    -0.02   0.02  -0.04
  70   1    -0.00  -0.01   0.02     0.02  -0.01   0.03    -0.03   0.04  -0.07
  71   1     0.01  -0.03   0.06    -0.00   0.02  -0.03    -0.02   0.01  -0.03
  72   1    -0.00  -0.03   0.04    -0.01   0.04  -0.06     0.00  -0.03   0.04
  73   6    -0.00  -0.04  -0.14    -0.01  -0.04  -0.11    -0.02  -0.03  -0.10
  74   6    -0.00  -0.05  -0.16    -0.01  -0.06  -0.12    -0.02  -0.06  -0.11
  75   6     0.00  -0.00  -0.10     0.01   0.03   0.01     0.00  -0.01  -0.03
  76   6     0.00   0.00  -0.10     0.01   0.02  -0.00     0.00   0.01  -0.03
  77   6     0.00   0.04  -0.14    -0.01  -0.08   0.18     0.01   0.04  -0.08
  78   6     0.00   0.03  -0.13    -0.01  -0.05   0.16     0.01   0.01  -0.08
  79  27     0.01  -0.03  -0.02    -0.00  -0.01  -0.01    -0.01  -0.07  -0.01
  80   6     0.03  -0.03   0.02     0.03  -0.04   0.05     0.01  -0.05   0.05
  81   6     0.02  -0.04  -0.09     0.02  -0.05  -0.01     0.00  -0.06   0.01
  82   6     0.01  -0.04  -0.10     0.00  -0.04  -0.05    -0.01  -0.05  -0.03
  83   6    -0.00  -0.04  -0.14    -0.01  -0.05  -0.11    -0.02  -0.06  -0.09
  84   6    -0.01  -0.04  -0.09    -0.03  -0.04  -0.13    -0.02  -0.05  -0.09
  85   6    -0.02  -0.04  -0.07    -0.04  -0.05  -0.18    -0.04  -0.06  -0.11
  86   6    -0.02  -0.03   0.02    -0.05  -0.04  -0.13    -0.04  -0.05  -0.04
  87   6    -0.01  -0.01   0.03    -0.03  -0.02  -0.05    -0.02  -0.03   0.01
  88   7    -0.01  -0.02  -0.03    -0.02  -0.03  -0.06    -0.02  -0.04  -0.02
  89   6    -0.01   0.00   0.08    -0.03   0.00   0.03    -0.02  -0.01   0.10
  90   6    -0.01   0.01   0.05    -0.01   0.02   0.09    -0.01  -0.00   0.12
  91   6    -0.01   0.01   0.04    -0.01   0.05   0.15    -0.01   0.02   0.17
  92   6    -0.01   0.00  -0.03    -0.01   0.05   0.14    -0.01   0.02   0.12
  93   6    -0.00  -0.00  -0.05    -0.00   0.03   0.07    -0.01  -0.01   0.04
  94   7    -0.00  -0.00  -0.01    -0.01   0.02   0.05    -0.01  -0.01   0.05
  95   6     0.00  -0.00  -0.07     0.01   0.02   0.02     0.00  -0.02  -0.02
  96   6     0.01   0.00  -0.02     0.01   0.01  -0.00     0.01  -0.03  -0.05
  97   6     0.02   0.02   0.04     0.03   0.02  -0.01     0.01  -0.03  -0.08
  98   6     0.02   0.02   0.13     0.03   0.01   0.01     0.01  -0.03  -0.06
  99   6     0.02   0.01   0.11     0.02   0.01   0.03     0.01  -0.03  -0.03
 100   7     0.01  -0.00   0.03     0.02   0.01   0.02     0.01  -0.03  -0.03
 101   6     0.02  -0.00   0.14     0.03  -0.00   0.06     0.01  -0.03   0.01
 102   6     0.02  -0.02   0.06     0.02  -0.02   0.04     0.00  -0.04   0.02
 103   7     0.01  -0.03  -0.02     0.01  -0.02  -0.01    -0.00  -0.04  -0.02
 104   1     0.01  -0.01   0.02     0.01  -0.01   0.03     0.00  -0.01   0.02
 105   1     0.01  -0.02  -0.04     0.01  -0.02  -0.01     0.00  -0.02   0.00
 106   1    -0.01  -0.02  -0.03    -0.02  -0.02  -0.07    -0.01  -0.02  -0.05
 107   1    -0.01  -0.01   0.02    -0.02  -0.01  -0.04    -0.01  -0.01  -0.01
 108   1    -0.00   0.00   0.04    -0.01   0.00   0.01    -0.01  -0.00   0.04
 109   1    -0.01   0.01   0.02    -0.01   0.02   0.06    -0.00   0.01   0.07
 110   1    -0.00   0.00  -0.02    -0.00   0.02   0.05    -0.00   0.01   0.04
 111   1     0.01   0.01   0.00     0.01   0.01  -0.01     0.00  -0.01  -0.03
 112   1     0.01   0.01   0.06     0.01   0.00   0.00     0.01  -0.01  -0.02
 113   1     0.01   0.00   0.06     0.01  -0.00   0.02     0.00  -0.01   0.01
 114  27    -0.00   0.02  -0.02     0.01  -0.05   0.02     0.02   0.06  -0.02
 115   6     0.02  -0.00  -0.01    -0.02   0.04  -0.18     0.02  -0.00   0.11
 116   6     0.02   0.01  -0.08    -0.01   0.04  -0.15     0.01  -0.00   0.06
 117   6     0.01   0.01  -0.07    -0.00   0.02  -0.07     0.01   0.01   0.02
 118   6     0.00   0.00  -0.07     0.01   0.02  -0.02     0.00   0.02  -0.02
 119   6    -0.00  -0.00  -0.00     0.02   0.00   0.00     0.00   0.02  -0.04
 120   6    -0.01  -0.02   0.06     0.03   0.01   0.00    -0.00   0.03  -0.06
 121   6    -0.01  -0.02   0.15     0.04   0.01  -0.03    -0.00   0.03  -0.05
 122   6    -0.01  -0.01   0.12     0.03  -0.01  -0.05    -0.00   0.03  -0.03
 123   7    -0.00   0.00   0.03     0.02  -0.01  -0.02     0.00   0.03  -0.03
 124   6    -0.01   0.00   0.13     0.04  -0.02  -0.07    -0.00   0.03  -0.02
 125   6    -0.01   0.02   0.04     0.03  -0.04  -0.04     0.00   0.03  -0.01
 126   6    -0.02   0.03  -0.02     0.04  -0.06  -0.03    -0.00   0.04   0.01
 127   6    -0.02   0.03  -0.11     0.03  -0.07   0.04     0.00   0.05  -0.01
 128   6    -0.01   0.03  -0.10     0.01  -0.06   0.08     0.01   0.04  -0.03
 129   7    -0.01   0.02  -0.03     0.02  -0.05   0.03     0.01   0.04  -0.03
 130   6     0.00   0.03  -0.12    -0.01  -0.07   0.15     0.01   0.04  -0.06
 131   6     0.01   0.03  -0.06    -0.02  -0.06   0.15     0.02   0.04  -0.05
 132   6     0.01   0.03  -0.01    -0.05  -0.07   0.20     0.03   0.05  -0.05
 133   6     0.01   0.02   0.06    -0.05  -0.05   0.12     0.03   0.04   0.01
 134   6     0.01   0.01   0.06    -0.03  -0.03   0.04     0.02   0.03   0.04
 135   7     0.00   0.02  -0.01    -0.02  -0.04   0.07     0.02   0.03  -0.00
 136   6     0.01   0.00   0.08    -0.03  -0.01  -0.06     0.02   0.02   0.09
 137   6     0.01  -0.00   0.02    -0.01   0.01  -0.11     0.01   0.01   0.09
 138   7     0.01   0.01  -0.02    -0.01   0.00  -0.06     0.01   0.02   0.03
 139   1     0.01  -0.00   0.00    -0.01   0.01  -0.07     0.01  -0.00   0.05
 140   1     0.01   0.00  -0.03    -0.00   0.02  -0.05     0.00  -0.00   0.02
 141   1    -0.00  -0.01   0.01     0.01   0.01   0.01    -0.00   0.01  -0.02
 142   1    -0.00  -0.01   0.06     0.02   0.00  -0.01    -0.00   0.01  -0.02
 143   1    -0.00  -0.00   0.05     0.01  -0.01  -0.03    -0.00   0.01  -0.00
 144   1    -0.01   0.01   0.00     0.02  -0.02  -0.02    -0.00   0.01   0.01
 145   1    -0.01   0.01  -0.05     0.01  -0.03   0.02     0.00   0.01  -0.00
 146   1     0.00   0.01  -0.01    -0.02  -0.03   0.08     0.01   0.02  -0.02
 147   1     0.00   0.01   0.03    -0.02  -0.02   0.04     0.01   0.01   0.01
 148   1     0.00  -0.00   0.03    -0.01  -0.00  -0.03     0.01   0.00   0.04
                     16                     17                     18
                        a                      a                      a 
 Frequencies --    35.7083                35.7157                48.0202
 Red. masses --    12.7746                13.7397                15.7153
 Frc consts  --     0.0000                 0.0000                 0.0000
 IR Inten    --    32.3580                44.7707                13.8618
 Raman Activ --     0.0000                 0.0000                 0.0000
 Depolar     --     0.0000                 0.0000                 0.0000
 Atom AN      X      Y      Z        X      Y      Z        X      Y      Z
   1  27    -0.13  -0.03  -0.02     0.13  -0.01  -0.01    -0.08   0.06  -0.03
   2   6    -0.03  -0.13  -0.18     0.07  -0.05  -0.08     0.03   0.06  -0.05
   3   6    -0.04  -0.10  -0.13     0.07  -0.03  -0.06     0.01   0.09  -0.04
   4   6    -0.04  -0.04  -0.05     0.06  -0.01  -0.02    -0.01   0.08  -0.03
   5   6    -0.04   0.01   0.04     0.05   0.00   0.01    -0.03   0.10  -0.02
   6   6    -0.05   0.03   0.10     0.06   0.01   0.02    -0.05   0.09  -0.00
   7   6    -0.05   0.06   0.18     0.06   0.01   0.03    -0.08   0.11   0.01
   8   6    -0.06   0.04   0.15     0.06   0.01   0.01    -0.11   0.08   0.00
   9   6    -0.06   0.00   0.05     0.06   0.00  -0.01    -0.09   0.05  -0.02
  10   7    -0.05  -0.00   0.04     0.06   0.00  -0.00    -0.06   0.06  -0.02
  11   6    -0.05  -0.02  -0.03     0.06  -0.01  -0.04    -0.10   0.01  -0.03
  12   6    -0.04  -0.03  -0.09     0.07  -0.01  -0.04    -0.09  -0.01  -0.03
  13   6    -0.02  -0.04  -0.15     0.07  -0.01  -0.05    -0.10  -0.03  -0.02
  14   6    -0.04  -0.03  -0.10     0.06  -0.00  -0.02    -0.09  -0.04   0.01
  15   6    -0.06  -0.01  -0.02     0.05   0.01   0.01    -0.06  -0.02   0.02
  16   7    -0.06  -0.02  -0.03     0.06   0.00  -0.01    -0.07  -0.00  -0.01
  17   6    -0.10   0.03   0.07     0.04   0.02   0.05    -0.05  -0.03   0.04
  18   6    -0.11   0.04   0.10     0.04   0.02   0.05    -0.02  -0.02   0.03
  19   6    -0.13   0.08   0.16     0.03   0.03   0.07     0.01  -0.03   0.03
  20   6    -0.10   0.04   0.10     0.04   0.01   0.03     0.04  -0.02   0.01
  21   6    -0.07  -0.01   0.01     0.06  -0.01   0.00     0.02  -0.00  -0.01
  22   7    -0.09   0.00   0.02     0.06   0.00   0.01    -0.01   0.00  -0.00
  23   6    -0.04  -0.06  -0.09     0.07  -0.03  -0.04     0.04   0.02  -0.04
  24   6    -0.04  -0.09  -0.13     0.07  -0.04  -0.05     0.02   0.04  -0.04
  25   7    -0.05  -0.05  -0.06     0.07  -0.02  -0.02    -0.01   0.06  -0.03
  26   1    -0.01  -0.05  -0.07     0.02  -0.02  -0.03     0.02   0.02  -0.02
  27   1    -0.01  -0.03  -0.04     0.02  -0.01  -0.02     0.00   0.03  -0.01
  28   1    -0.02   0.02   0.07     0.02   0.00   0.02    -0.03   0.04   0.01
  29   1    -0.02   0.02   0.05     0.02   0.00   0.00    -0.04   0.03   0.00
  30   1    -0.01  -0.01  -0.01     0.02  -0.00  -0.02    -0.04   0.00  -0.01
  31   1     0.00  -0.02  -0.06     0.02  -0.00  -0.02    -0.03  -0.01  -0.01
  32   1    -0.01  -0.01  -0.04     0.02  -0.00  -0.00    -0.03  -0.02   0.01
  33   1    -0.03   0.01   0.03     0.01   0.01   0.02    -0.01  -0.01   0.02
  34   1    -0.05   0.03   0.07     0.01   0.01   0.03     0.00  -0.01   0.02
  35   1    -0.03   0.02   0.03     0.01   0.00   0.01     0.02  -0.01   0.00
  36   1    -0.01  -0.02  -0.03     0.02  -0.01  -0.02     0.02   0.00  -0.01
  37  27     0.09  -0.01   0.01    -0.16  -0.02   0.01     0.08  -0.06  -0.03
  38   6     0.06  -0.06   0.10    -0.06  -0.09   0.14    -0.03  -0.07  -0.04
  39   6     0.05  -0.04   0.08    -0.06  -0.07   0.11    -0.01  -0.10  -0.04
  40   6     0.05  -0.01   0.03    -0.06  -0.03   0.05     0.01  -0.09  -0.03
  41   6     0.04   0.01  -0.01    -0.05   0.00  -0.02     0.03  -0.10  -0.01
  42   6     0.04   0.02  -0.03    -0.06   0.02  -0.08     0.05  -0.09  -0.00
  43   6     0.04   0.02  -0.06    -0.07   0.05  -0.16     0.08  -0.11   0.01
  44   6     0.04   0.02  -0.04    -0.08   0.04  -0.15     0.11  -0.08   0.00
  45   6     0.04   0.00  -0.00    -0.08   0.01  -0.07     0.09  -0.05  -0.02
  46   7     0.04   0.01  -0.01    -0.07   0.00  -0.04     0.06  -0.06  -0.02
  47   6     0.04  -0.01   0.04    -0.07  -0.01  -0.01     0.10  -0.02  -0.03
  48   6     0.05  -0.01   0.05    -0.06  -0.02   0.06     0.09   0.01  -0.03
  49   6     0.05  -0.02   0.07    -0.04  -0.03   0.11     0.10   0.03  -0.02
  50   6     0.04  -0.01   0.03    -0.05  -0.03   0.10     0.09   0.04   0.01
  51   6     0.04   0.00  -0.00    -0.07  -0.01   0.04     0.07   0.02   0.02
  52   7     0.04  -0.00   0.01    -0.08  -0.01   0.03     0.07   0.00  -0.01
  53   6     0.02   0.02  -0.05    -0.09   0.01  -0.02     0.05   0.03   0.04
  54   6     0.02   0.02  -0.06    -0.10   0.03  -0.06     0.02   0.02   0.02
  55   6     0.01   0.03  -0.08    -0.12   0.05  -0.11    -0.01   0.03   0.03
  56   6     0.03   0.02  -0.04    -0.11   0.04  -0.09    -0.04   0.02   0.00
  57   6     0.04  -0.01  -0.00    -0.09   0.01  -0.02    -0.02   0.00  -0.01
  58   7     0.04   0.00  -0.02    -0.09   0.00  -0.02     0.01  -0.00  -0.00
  59   6     0.05  -0.04   0.05    -0.07  -0.03   0.05    -0.04  -0.02  -0.03
  60   6     0.06  -0.04   0.07    -0.06  -0.06   0.09    -0.02  -0.05  -0.04
  61   7     0.05  -0.02   0.03    -0.06  -0.03   0.04     0.01  -0.06  -0.03
  62   1     0.02  -0.02   0.04    -0.02  -0.03   0.05    -0.02  -0.02  -0.02
  63   1     0.02  -0.01   0.02    -0.02  -0.02   0.03    -0.00  -0.03  -0.01
  64   1     0.01   0.01  -0.03    -0.02   0.02  -0.06     0.02  -0.04   0.01
  65   1     0.01   0.01  -0.01    -0.03   0.02  -0.06     0.04  -0.03   0.00
  66   1     0.01  -0.00   0.01    -0.02  -0.00  -0.00     0.04  -0.00  -0.01
  67   1     0.02  -0.01   0.03    -0.01  -0.01   0.04     0.03   0.01  -0.01
  68   1     0.01  -0.00   0.01    -0.01  -0.01   0.04     0.03   0.02   0.01
  69   1     0.00   0.01  -0.02    -0.03   0.00  -0.01     0.01   0.01   0.02
  70   1    -0.00   0.02  -0.03    -0.04   0.02  -0.05    -0.00   0.01   0.01
  71   1     0.01   0.00  -0.01    -0.03   0.02  -0.03    -0.02   0.01  -0.00
  72   1     0.02  -0.01   0.02    -0.02  -0.01   0.02    -0.02  -0.00  -0.01
  73   6    -0.04   0.02   0.05     0.05   0.01   0.02    -0.03   0.10  -0.01
  74   6    -0.04   0.04   0.04     0.05   0.02   0.02    -0.03   0.01   0.02
  75   6     0.01  -0.01  -0.00     0.01  -0.01   0.01    -0.00  -0.07   0.04
  76   6     0.01  -0.02  -0.00     0.01  -0.01   0.01     0.00   0.07   0.04
  77   6     0.04   0.02  -0.02    -0.05   0.02  -0.01     0.03  -0.00   0.01
  78   6     0.04   0.02  -0.02    -0.05   0.01  -0.02     0.03  -0.10  -0.01
  79  27    -0.03   0.04   0.02     0.08  -0.00   0.02    -0.04  -0.17   0.04
  80   6    -0.04   0.04   0.18     0.03   0.01   0.00    -0.05  -0.04  -0.02
  81   6    -0.04   0.04   0.18     0.03   0.01  -0.00    -0.05  -0.03  -0.01
  82   6    -0.03   0.04   0.10     0.04   0.01   0.01    -0.04  -0.04   0.01
  83   6    -0.03   0.04   0.03     0.05   0.01   0.02    -0.02  -0.03   0.03
  84   6    -0.03   0.03  -0.06     0.05   0.01   0.02    -0.00  -0.04   0.07
  85   6    -0.02   0.04  -0.16     0.05   0.01   0.03     0.02  -0.03   0.10
  86   6    -0.01   0.02  -0.19     0.05   0.01   0.00     0.03  -0.04   0.09
  87   6    -0.01   0.01  -0.10     0.05   0.01  -0.01     0.02  -0.07   0.05
  88   7    -0.02   0.02  -0.04     0.05   0.01   0.00    -0.00  -0.07   0.04
  89   6     0.01   0.00  -0.03     0.05   0.00  -0.04     0.02  -0.09  -0.01
[...]
  50   6     0.00   0.00  -0.00    -0.00  -0.00   0.00     0.00   0.00  -0.00
  51   6     0.00   0.00  -0.00    -0.00  -0.00  -0.00     0.00   0.00   0.00
  52   7    -0.00   0.00   0.00     0.00  -0.00  -0.00    -0.00   0.00   0.00
  53   6     0.00  -0.00  -0.00    -0.00  -0.00   0.00     0.00  -0.00  -0.00
  54   6     0.00   0.00  -0.00    -0.00   0.00   0.00     0.00  -0.00  -0.00
  55   6     0.00   0.00  -0.00    -0.00  -0.00   0.00     0.00   0.00  -0.00
  56   6    -0.00   0.00   0.00    -0.00  -0.00  -0.00     0.00   0.00   0.00
  57   6     0.00   0.00   0.00     0.00  -0.00  -0.00    -0.00   0.00   0.00
  58   7    -0.00  -0.00  -0.00     0.00   0.00   0.00    -0.00  -0.00  -0.00
  59   6    -0.00  -0.00  -0.00     0.00  -0.00  -0.00    -0.00  -0.00  -0.00
  60   6     0.00   0.00   0.00    -0.00  -0.00  -0.00     0.00   0.00   0.00
  61   7     0.00   0.00   0.00    -0.00  -0.00  -0.00     0.00  -0.00  -0.00
  62   1     0.00  -0.00  -0.00    -0.00   0.00   0.00     0.00  -0.00  -0.00
  63   1     0.01  -0.00  -0.00    -0.00   0.00   0.00     0.00  -0.00  -0.00
  64   1     0.53   0.08   0.04    -0.29  -0.04  -0.02     0.06   0.01   0.00
  65   1     0.01   0.25   0.07    -0.01  -0.14  -0.04     0.00   0.03   0.01
  66   1    -0.00   0.00   0.00     0.00  -0.00  -0.00    -0.00   0.00   0.00
  67   1    -0.00   0.01   0.00     0.00  -0.01  -0.00    -0.00   0.00   0.00
  68   1    -0.01  -0.00   0.00     0.01   0.00  -0.00    -0.00  -0.00   0.00
  69   1    -0.00  -0.00   0.00     0.00   0.00  -0.00    -0.00  -0.00   0.00
  70   1    -0.00  -0.00   0.00     0.00   0.00  -0.00    -0.00  -0.00   0.00
  71   1    -0.00  -0.00  -0.00     0.00   0.00   0.00    -0.00  -0.00  -0.00
  72   1    -0.00   0.00   0.00    -0.00   0.00   0.00    -0.00   0.00   0.00
  73   6     0.00   0.00   0.00     0.00   0.00   0.00    -0.00  -0.00  -0.00
  74   6    -0.00   0.00  -0.00    -0.00   0.00  -0.00     0.00   0.00   0.00
  75   6     0.00  -0.00   0.00     0.00   0.00   0.00    -0.00   0.00   0.00
  76   6     0.00   0.00  -0.00    -0.00  -0.00   0.00     0.00  -0.00   0.00
  77   6    -0.00   0.00   0.00     0.00  -0.00  -0.00    -0.00   0.00   0.00
  78   6     0.00   0.00  -0.00    -0.00  -0.00   0.00     0.00  -0.00  -0.00
  79  27    -0.00   0.00  -0.00    -0.00   0.00  -0.00    -0.00  -0.00  -0.00
  80   6     0.00   0.01  -0.00     0.00   0.02  -0.00     0.00   0.00  -0.00
  81   6     0.02   0.00   0.00     0.04   0.00   0.00    -0.00  -0.00  -0.00
  82   6     0.00  -0.00   0.00     0.00  -0.00   0.00     0.00   0.00  -0.00
  83   6     0.00  -0.00  -0.00     0.00  -0.00  -0.00    -0.00   0.00   0.00
  84   6     0.00   0.00  -0.00     0.00   0.01  -0.00    -0.00  -0.00   0.00
  85   6     0.11  -0.01  -0.01     0.20  -0.02  -0.03    -0.01   0.00   0.00
  86   6     0.00  -0.06   0.00     0.00  -0.11   0.01    -0.00   0.01  -0.00
  87   6    -0.00  -0.00   0.00    -0.00  -0.00   0.00     0.00  -0.00  -0.00
  88   7    -0.00   0.00   0.00    -0.00   0.00   0.00     0.00  -0.00  -0.00
  89   6     0.00  -0.00   0.00     0.00  -0.00   0.00     0.00   0.00  -0.00
  90   6     0.00   0.00  -0.00    -0.00   0.00  -0.00    -0.00   0.00   0.00
  91   6    -0.00  -0.00   0.00    -0.00   0.00  -0.00     0.00   0.08  -0.02
  92   6    -0.00  -0.00   0.00     0.00   0.00  -0.00     0.15   0.01  -0.01
  93   6    -0.00   0.00  -0.00    -0.00  -0.00   0.00     0.00  -0.00   0.00
  94   7     0.00   0.00  -0.00    -0.00   0.00   0.00    -0.00  -0.00   0.00
  95   6    -0.00  -0.00   0.00    -0.00   0.00  -0.00     0.00   0.00  -0.00
  96   6     0.00   0.00  -0.00    -0.00  -0.00   0.00    -0.00  -0.00   0.00
  97   6     0.02  -0.00   0.00    -0.01   0.00  -0.00    -0.09   0.01  -0.01
  98   6     0.00  -0.01   0.00    -0.00   0.01  -0.00    -0.00   0.05  -0.01
  99   6    -0.00  -0.00  -0.00     0.00  -0.00   0.00     0.00   0.00   0.00
 100   7    -0.00   0.00  -0.00     0.00  -0.00   0.00     0.00  -0.00   0.00
 101   6     0.00  -0.00   0.00     0.00   0.00  -0.00    -0.00   0.00  -0.00
 102   6    -0.00   0.00  -0.00    -0.00   0.00  -0.00     0.00  -0.00   0.00
 103   7    -0.00  -0.00  -0.00    -0.00  -0.00  -0.00     0.00   0.00   0.00
 104   1    -0.00  -0.03   0.00    -0.01  -0.08   0.00    -0.00  -0.00   0.00
 105   1    -0.05  -0.00  -0.00    -0.14  -0.01  -0.01     0.00   0.00   0.00
 106   1    -0.36   0.05   0.04    -0.66   0.10   0.08     0.03  -0.00  -0.00
 107   1    -0.01   0.18  -0.01    -0.02   0.34  -0.02     0.00  -0.02   0.00
 108   1     0.00   0.00  -0.00     0.00   0.01  -0.00     0.00  -0.00   0.00
 109   1     0.00   0.01  -0.00    -0.00  -0.00   0.00    -0.03  -0.23   0.05
 110   1     0.02   0.00  -0.00    -0.02  -0.00   0.00    -0.49  -0.03   0.05
 111   1    -0.06   0.01  -0.01     0.04  -0.00   0.00     0.29  -0.03   0.04
 112   1    -0.00   0.03  -0.01     0.00  -0.02   0.00     0.01  -0.14   0.02
 113   1     0.00   0.00  -0.00     0.00  -0.00   0.00    -0.00  -0.00   0.00
 114  27    -0.00   0.00   0.00     0.00  -0.00   0.00     0.00   0.00  -0.00
 115   6    -0.00  -0.00  -0.00    -0.00  -0.00  -0.00    -0.00  -0.07  -0.01
 116   6    -0.00   0.00  -0.00    -0.01  -0.00  -0.00    -0.14  -0.01  -0.01
 117   6    -0.00   0.00   0.00    -0.00   0.00   0.00    -0.00   0.00   0.00
 118   6    -0.00   0.00   0.00    -0.00  -0.00  -0.00    -0.00  -0.00  -0.00
 119   6     0.00  -0.00  -0.00     0.00   0.00   0.00     0.00   0.00   0.00
 120   6    -0.00   0.00   0.00     0.01  -0.00  -0.00     0.13  -0.01  -0.01
 121   6    -0.00   0.00   0.00     0.00  -0.01  -0.00     0.00  -0.07  -0.01
 122   6     0.00  -0.00  -0.00    -0.00  -0.00   0.00    -0.00  -0.00   0.00
 123   7    -0.00  -0.00   0.00    -0.00   0.00   0.00    -0.00   0.00   0.00
 124   6     0.00   0.00   0.00    -0.00  -0.00  -0.00     0.00  -0.00  -0.00
 125   6    -0.00   0.00   0.00     0.00  -0.00  -0.00     0.00   0.00   0.00
 126   6     0.00   0.01  -0.00    -0.00  -0.01   0.00    -0.00  -0.00   0.00
 127   6     0.02   0.00  -0.00    -0.02  -0.00   0.00    -0.00  -0.00   0.00
 128   6     0.00  -0.00   0.00    -0.00   0.00  -0.00    -0.00   0.00  -0.00
 129   7    -0.00  -0.00   0.00     0.00   0.00  -0.00     0.00   0.00   0.00
 130   6     0.00  -0.00   0.00    -0.00   0.00  -0.00    -0.00  -0.00   0.00
 131   6     0.00   0.01   0.00    -0.00  -0.00  -0.00     0.00   0.00   0.00
 132   6     0.16  -0.02   0.02    -0.08   0.01  -0.01     0.00  -0.00   0.00
 133   6     0.00  -0.09  -0.00    -0.00   0.04   0.00     0.00  -0.00  -0.00
 134   6    -0.00  -0.00  -0.00     0.00   0.00   0.00    -0.00   0.00   0.00
 135   7    -0.00   0.00  -0.00     0.00  -0.00   0.00    -0.00   0.00   0.00
 136   6     0.00  -0.00  -0.00    -0.00   0.00   0.00    -0.00  -0.00  -0.00
 137   6     0.00   0.00   0.00     0.00  -0.00   0.00     0.00  -0.00   0.00
 138   7    -0.00   0.00   0.00     0.00   0.00   0.00     0.00   0.00   0.00
 139   1     0.00   0.01   0.00     0.00   0.01   0.00     0.03   0.22   0.04
 140   1     0.00  -0.00  -0.00     0.02   0.00   0.00     0.46   0.03   0.05
 141   1     0.01  -0.00  -0.00    -0.05   0.01   0.01    -0.42   0.05   0.05
 142   1     0.00  -0.01  -0.00    -0.00   0.02   0.00    -0.02   0.21   0.03
 143   1     0.00  -0.00  -0.00     0.00   0.00   0.00     0.00   0.00   0.00
 144   1    -0.00  -0.04   0.00     0.00   0.03  -0.00     0.00   0.01  -0.00
 145   1    -0.07  -0.01   0.00     0.06   0.01  -0.00     0.01   0.00  -0.00
 146   1    -0.52   0.07  -0.06     0.26  -0.03   0.03    -0.01   0.00  -0.00
 147   1    -0.02   0.27   0.01     0.01  -0.13  -0.00    -0.00   0.01   0.00
 148   1     0.00   0.01   0.00    -0.00  -0.00  -0.00    -0.00   0.00   0.00
                    436                    437                    438
                        a                      a                      a 
 Frequencies --  3172.8230              3172.9621              3173.2385
 Red. masses --     1.9582                 1.9589                 1.9559
 Frc consts  --     0.0000                 0.0000                 0.0000
 IR Inten    --  1921.8811              7231.2551              8975.1202
 Raman Activ --     0.0000                 0.0000                 0.0000
 Depolar     --     0.0000                 0.0000                 0.0000
 Atom AN      X      Y      Z        X      Y      Z        X      Y      Z
   1  27     0.00  -0.00   0.00    -0.00  -0.00  -0.00     0.00   0.00   0.00
   2   6    -0.00   0.00  -0.00     0.00  -0.00   0.00    -0.00   0.01  -0.01
   3   6    -0.00  -0.00  -0.00    -0.00   0.00  -0.00    -0.02   0.00  -0.00
   4   6    -0.00   0.00   0.00     0.00  -0.00   0.00    -0.00  -0.00   0.00
   5   6    -0.00   0.00  -0.00     0.00  -0.00   0.00    -0.00  -0.00   0.00
   6   6     0.00  -0.00   0.00    -0.00   0.00  -0.00    -0.00   0.01  -0.00
   7   6     0.01   0.00  -0.00    -0.01  -0.00   0.00    -0.24  -0.03   0.02
   8   6    -0.00   0.00  -0.00     0.00  -0.01   0.00     0.00  -0.11   0.03
   9   6    -0.00  -0.00  -0.00     0.00   0.00   0.00     0.01  -0.00   0.00
  10   7    -0.00  -0.00   0.00     0.00   0.00  -0.00     0.00   0.00  -0.00
  11   6     0.00   0.00  -0.00    -0.00  -0.00   0.00    -0.00  -0.00   0.00
  12   6     0.00  -0.00  -0.00    -0.00  -0.00   0.00    -0.00   0.00  -0.00
  13   6    -0.00   0.00  -0.00     0.00  -0.00   0.00     0.00  -0.00   0.00
  14   6    -0.00  -0.00  -0.00     0.00   0.00   0.00     0.00   0.00   0.00
  15   6    -0.00  -0.00   0.00     0.00   0.00  -0.00     0.00   0.00  -0.00
  16   7    -0.00   0.00  -0.00     0.00  -0.00   0.00     0.00   0.00   0.00
  17   6    -0.00  -0.00  -0.00     0.00   0.00   0.00    -0.00  -0.00  -0.00
  18   6     0.00   0.00   0.00     0.00  -0.00   0.00    -0.00  -0.00  -0.00
  19   6    -0.00  -0.00  -0.00     0.00   0.00   0.00     0.00   0.00  -0.00
  20   6    -0.00  -0.00   0.00     0.00   0.00  -0.00     0.00  -0.00   0.00
  21   6     0.00   0.00  -0.00    -0.00   0.00  -0.00    -0.00  -0.00   0.00
  22   7    -0.00  -0.00   0.00     0.00   0.00  -0.00     0.00   0.00   0.00
  23   6     0.00  -0.00   0.00    -0.00   0.00  -0.00    -0.00   0.00  -0.00
  24   6    -0.00   0.00  -0.00    -0.00  -0.00   0.00     0.00   0.00   0.00
  25   7     0.00  -0.00   0.00    -0.00   0.00  -0.00     0.00   0.00  -0.00
  26   1     0.00  -0.00   0.00    -0.00   0.00  -0.00     0.00  -0.03   0.02
  27   1     0.00  -0.00   0.00     0.00  -0.00   0.00     0.07  -0.00   0.01
  28   1    -0.03  -0.00   0.00     0.04   0.01  -0.00     0.78   0.12  -0.06
  29   1    -0.00  -0.01   0.00     0.00   0.02  -0.01     0.02   0.35  -0.11
  30   1     0.00  -0.00   0.00    -0.00   0.00  -0.00    -0.00   0.01  -0.00
  31   1     0.00  -0.00   0.00    -0.00   0.00  -0.00    -0.00   0.01  -0.00
  32   1     0.00   0.00   0.00    -0.00  -0.00  -0.00    -0.00  -0.00  -0.00
  33   1     0.00   0.00   0.00    -0.00  -0.00  -0.00     0.00   0.00   0.00
  34   1     0.00   0.00   0.00    -0.00  -0.00  -0.00    -0.00   0.00  -0.00
  35   1     0.00   0.00  -0.00    -0.00  -0.00   0.00     0.00   0.00  -0.00
  36   1    -0.00   0.00  -0.00     0.00  -0.00   0.00    -0.00  -0.00   0.00
  37  27    -0.00  -0.00   0.00    -0.00  -0.00   0.00    -0.00  -0.00  -0.00
  38   6     0.00  -0.01  -0.00     0.00  -0.00  -0.00     0.00  -0.00  -0.00
  39   6     0.01  -0.00  -0.00     0.01  -0.00  -0.00     0.00  -0.00  -0.00
  40   6     0.00   0.00   0.00     0.00   0.00   0.00     0.00   0.00   0.00
  41   6     0.00   0.00   0.00     0.00   0.00   0.00     0.00   0.00   0.00
  42   6     0.00  -0.01  -0.00     0.00  -0.00  -0.00     0.00  -0.00  -0.00
  43   6     0.17   0.02   0.01     0.07   0.01   0.00     0.00   0.00   0.00
  44   6    -0.00   0.08   0.02    -0.00   0.03   0.01    -0.00   0.00   0.00
  45   6    -0.00  -0.00   0.00    -0.00   0.00   0.00    -0.00   0.00  -0.00
  46   7    -0.00  -0.00  -0.00    -0.00  -0.00  -0.00    -0.00  -0.00  -0.00
  47   6     0.00   0.00   0.00     0.00   0.00   0.00     0.00   0.00   0.00
  48   6     0.00  -0.00  -0.00    -0.00  -0.00  -0.00     0.00   0.00  -0.00
  49   6    -0.00   0.00   0.00    -0.00   0.00   0.00    -0.00   0.00   0.00
  50   6    -0.00  -0.00   0.00     0.00  -0.00  -0.00    -0.00  -0.00   0.00
  51   6    -0.00  -0.00  -0.00    -0.00  -0.00   0.00    -0.00  -0.00   0.00
  52   7     0.00  -0.00  -0.00     0.00  -0.00  -0.00     0.00  -0.00  -0.00
  53   6    -0.00   0.00   0.00    -0.00   0.00   0.00    -0.00  -0.00   0.00
  54   6    -0.00   0.00   0.00    -0.00  -0.00   0.00    -0.00   0.00   0.00
  55   6    -0.00  -0.00   0.00     0.00   0.00  -0.00    -0.00  -0.00   0.00
  56   6    -0.00  -0.00  -0.00     0.00   0.00   0.00    -0.00  -0.00  -0.00
  57   6     0.00  -0.00  -0.00    -0.00  -0.00  -0.00     0.00  -0.00  -0.00
  58   7     0.00   0.00   0.00     0.00   0.00   0.00     0.00   0.00   0.00
  59   6     0.00  -0.00  -0.00     0.00  -0.00  -0.00     0.00  -0.00  -0.00
  60   6    -0.00   0.00   0.00    -0.00  -0.00   0.00    -0.00  -0.00  -0.00
  61   7    -0.00  -0.00   0.00    -0.00   0.00   0.00    -0.00   0.00   0.00
  62   1    -0.00   0.02   0.01    -0.00   0.01   0.01    -0.00   0.00   0.00
  63   1    -0.04   0.00   0.00    -0.02   0.00   0.00    -0.00   0.00   0.00
  64   1    -0.56  -0.08  -0.04    -0.22  -0.03  -0.02    -0.00  -0.00  -0.00
  65   1    -0.01  -0.25  -0.07    -0.01  -0.10  -0.03    -0.00  -0.00  -0.00
  66   1     0.00  -0.00  -0.00     0.00  -0.00  -0.00     0.00  -0.00  -0.00
  67   1     0.00  -0.01  -0.00     0.00  -0.00  -0.00     0.00  -0.00  -0.00
  68   1     0.00   0.00  -0.00    -0.00   0.00   0.00     0.00   0.00  -0.00
  69   1     0.00   0.00  -0.00     0.00  -0.00  -0.00     0.00   0.00  -0.00
  70   1     0.00   0.00  -0.00    -0.00  -0.00   0.00     0.00   0.00  -0.00
  71   1     0.00   0.00   0.00    -0.00  -0.00  -0.00     0.00   0.00   0.00
  72   1    -0.00   0.00   0.00     0.00   0.00   0.00    -0.00   0.00   0.00
  73   6     0.00   0.00  -0.00    -0.00  -0.00   0.00    -0.00  -0.00   0.00
  74   6    -0.00  -0.00   0.00    -0.00   0.00  -0.00    -0.00   0.00  -0.00
  75   6     0.00  -0.00  -0.00    -0.00   0.00   0.00    -0.00  -0.00  -0.00
  76   6    -0.00  -0.00   0.00    -0.00  -0.00  -0.00    -0.00   0.00   0.00
  77   6    -0.00  -0.00  -0.00    -0.00  -0.00  -0.00     0.00  -0.00   0.00
  78   6    -0.00   0.00   0.00    -0.00   0.00   0.00    -0.00   0.00  -0.00
  79  27    -0.00   0.00   0.00     0.00  -0.00  -0.00     0.00  -0.00   0.00
  80   6    -0.00  -0.00   0.00     0.00  -0.00   0.00    -0.00  -0.01   0.00
  81   6    -0.00  -0.00  -0.00    -0.00  -0.00  -0.00    -0.02  -0.00  -0.00
  82   6    -0.00   0.00  -0.00    -0.00   0.00   0.00    -0.00   0.00  -0.00
  83   6    -0.00   0.00  -0.00    -0.00   0.00   0.00    -0.00   0.00  -0.00
  84   6    -0.00  -0.00   0.00    -0.00  -0.00   0.00    -0.00  -0.00   0.00
  85   6    -0.00   0.00   0.00    -0.01   0.00   0.00    -0.10   0.01   0.01
  86   6    -0.00   0.00  -0.00     0.00   0.00  -0.00    -0.00   0.05  -0.00
  87   6     0.00  -0.00   0.00     0.00   0.00  -0.00     0.00   0.00  -0.00
  88   7     0.00  -0.00   0.00     0.00   0.00  -0.00     0.00  -0.00  -0.00
  89   6     0.00   0.00  -0.00    -0.00  -0.00   0.00    -0.00   0.00  -0.00
  90   6    -0.00   0.00   0.00     0.00  -0.00  -0.00    -0.00  -0.00   0.00
  91   6     0.00   0.03  -0.01    -0.00  -0.06   0.01     0.00   0.00  -0.00
  92   6     0.05   0.00  -0.01    -0.11  -0.00   0.01     0.01   0.00  -0.00
  93   6     0.00  -0.00   0.00    -0.00   0.00  -0.00     0.00  -0.00   0.00
  94   7    -0.00  -0.00   0.00     0.00   0.00  -0.00    -0.00  -0.00   0.00
  95   6     0.00   0.00  -0.00    -0.00   0.00   0.00     0.00   0.00  -0.00
  96   6     0.00   0.00  -0.00    -0.00  -0.00   0.00     0.00   0.00  -0.00
  97   6     0.05  -0.00   0.01    -0.11   0.01  -0.01     0.01  -0.00   0.00
  98   6     0.00  -0.02   0.00    -0.00   0.06  -0.01     0.00  -0.00   0.00
  99   6    -0.00  -0.00  -0.00     0.00   0.00   0.00    -0.00   0.00  -0.00
 100   7    -0.00   0.00  -0.00     0.00  -0.00   0.00    -0.00   0.00  -0.00
 101   6     0.00  -0.00   0.00    -0.00   0.00  -0.00    -0.00  -0.00   0.00
 102   6     0.00   0.00   0.00     0.00  -0.00  -0.00     0.00  -0.00   0.00
 103   7     0.00   0.00  -0.00     0.00  -0.00   0.00     0.00   0.00   0.00
 104   1     0.00   0.00  -0.00     0.00   0.00  -0.00     0.00   0.03  -0.00
 105   1     0.01   0.00   0.00     0.00   0.00   0.00     0.06   0.01   0.00
 106   1     0.00  -0.00  -0.00     0.02  -0.00  -0.00     0.33  -0.05  -0.04
 107   1     0.00  -0.00   0.00     0.00  -0.01   0.00     0.01  -0.16   0.01
 108   1     0.00  -0.00   0.00    -0.00   0.00  -0.00    -0.00  -0.00   0.00
 109   1    -0.01  -0.08   0.02     0.02   0.18  -0.04    -0.00  -0.01   0.00
 110   1    -0.18  -0.01   0.02     0.38   0.03  -0.04    -0.02  -0.00   0.00
 111   1    -0.15   0.02  -0.02     0.38  -0.04   0.05    -0.03   0.00  -0.00
 112   1    -0.01   0.07  -0.01     0.01  -0.18   0.03    -0.00   0.01  -0.00
 113   1     0.00   0.00  -0.00    -0.00  -0.00   0.00    -0.00   0.00  -0.00
 114  27    -0.00   0.00   0.00     0.00   0.00   0.00    -0.00  -0.00  -0.00
 115   6     0.00   0.03   0.00    -0.00  -0.08  -0.01     0.00   0.01   0.00
 116   6     0.05   0.00   0.01    -0.15  -0.01  -0.01     0.01   0.00   0.00
 117   6     0.00  -0.00  -0.00    -0.00   0.00   0.00     0.00  -0.00  -0.00
 118   6     0.00   0.00   0.00    -0.00  -0.00  -0.00     0.00   0.00   0.00
 119   6     0.00   0.00   0.00    -0.00  -0.00  -0.00     0.00   0.00   0.00
 120   6     0.05  -0.00  -0.01    -0.10   0.01   0.01     0.01  -0.00  -0.00
 121   6     0.00  -0.02  -0.00    -0.00   0.05   0.01     0.00  -0.00  -0.00
 122   6    -0.00  -0.00   0.00     0.00   0.00  -0.00    -0.00  -0.00   0.00
 123   7    -0.00   0.00   0.00     0.00  -0.00  -0.00    -0.00   0.00   0.00
 124   6     0.00  -0.00  -0.00    -0.00   0.00   0.00     0.00  -0.00  -0.00
 125   6    -0.00   0.00   0.00    -0.00  -0.00   0.00    -0.00  -0.00   0.00
 126   6     0.00   0.01  -0.00     0.00   0.01  -0.00     0.00   0.00  -0.00
 127   6     0.01   0.00  -0.00     0.01   0.00  -0.00     0.00   0.00  -0.00
 128   6     0.00  -0.00   0.00     0.00  -0.00   0.00     0.00  -0.00  -0.00
 129   7    -0.00  -0.00   0.00    -0.00  -0.00  -0.00    -0.00   0.00   0.00
 130   6     0.00  -0.00   0.00     0.00  -0.00   0.00    -0.00  -0.00   0.00
 131   6     0.00   0.01   0.00     0.00   0.00   0.00     0.00   0.00   0.00
 132   6     0.17  -0.02   0.02     0.07  -0.01   0.01     0.00  -0.00   0.00
 133   6     0.00  -0.09  -0.00     0.00  -0.04  -0.00     0.00  -0.00  -0.00
 134   6    -0.00  -0.00  -0.00    -0.00   0.00  -0.00    -0.00  -0.00  -0.00
 135   7    -0.00   0.00  -0.00    -0.00   0.00  -0.00    -0.00  -0.00  -0.00
 136   6     0.00  -0.00   0.00    -0.00  -0.00  -0.00     0.00   0.00   0.00
 137   6    -0.00   0.00  -0.00     0.00  -0.00   0.00    -0.00   0.00  -0.00
 138   7    -0.00  -0.00  -0.00     0.00   0.00   0.00    -0.00  -0.00  -0.00
 139   1    -0.01  -0.08  -0.01     0.03   0.23   0.04    -0.00  -0.02  -0.00
 140   1    -0.17  -0.01  -0.02     0.48   0.04   0.05    -0.03  -0.00  -0.00
 141   1    -0.15   0.02   0.02     0.32  -0.04  -0.04    -0.02   0.00   0.00
 142   1    -0.01   0.07   0.01     0.01  -0.16  -0.02    -0.00   0.01   0.00
 143   1     0.00   0.00   0.00    -0.00  -0.00  -0.00     0.00   0.00   0.00
 144   1    -0.00  -0.02   0.00    -0.00  -0.02   0.00    -0.00  -0.00   0.00
 145   1    -0.05  -0.00   0.00    -0.03  -0.00   0.00    -0.00  -0.00   0.00
 146   1    -0.55   0.08  -0.07    -0.24   0.03  -0.03    -0.00   0.00  -0.00
 147   1    -0.02   0.27   0.01    -0.01   0.12   0.00    -0.00   0.00   0.00
 148   1     0.00   0.00   0.00    -0.00   0.01   0.00     0.00  -0.00  -0.00
