      -----------------------------------------------------------      
     |                   =====================                   |     
     |                           x T B                           |     
     |                   =====================                   |     
     |                         S. Grimme                         |     
     |          Mulliken Center for Theoretical Chemistry        |     
     |                    University of Bonn                     |     
      -----------------------------------------------------------      

   * xtb version 6.4.1 (bd6e46d) compiled by 'conda@4901f00b25ba' on 2021-06-10

   xtb is free software: you can redistribute it and/or modify it under
   the terms of the GNU Lesser General Public License as published by
   the Free Software Foundation, either version 3 of the License, or
   (at your option) any later version.
   
   xtb is distributed in the hope that it will be useful,
   but WITHOUT ANY WARRANTY; without even the implied warranty of
   MERCHANTABILITY or FITNESS FOR A PARTICULAR PURPOSE.  See the
   GNU Lesser General Public License for more details.
   
   Cite this work as:
   * C. Bannwarth, E. Caldeweyher, S. Ehlert, A. Hansen, P. Pracht,
     J. Seibert, S. Spicher, S. Grimme, WIREs Comput. Mol. Sci., 2020, 11,
     e01493. DOI: 10.1002/wcms.1493
   
   for GFN2-xTB:
   * C. Bannwarth, S. Ehlert and S. Grimme., J. Chem. Theory Comput., 2019,
     15, 1652-1671. DOI: 10.1021/acs.jctc.8b01176
   for GFN1-xTB:
   * S. Grimme, C. Bannwarth, P. Shushkov, J. Chem. Theory Comput., 2017,
     13, 1989-2009. DOI: 10.1021/acs.jctc.7b00118
   for GFN0-xTB:
   * P. Pracht, E. Caldeweyher, S. Ehlert, S. Grimme, ChemRxiv, 2019, preprint.
     DOI: 10.26434/chemrxiv.8326202.v1
   for GFN-FF:
   * S. Spicher and S. Grimme, Angew. Chem. Int. Ed., 2020, 59, 15665-15673.
     DOI: 10.1002/anie.202004239
   
   for DFT-D4:
   * E. Caldeweyher, C. Bannwarth and S. Grimme, J. Chem. Phys., 2017,
     147, 034112. DOI: 10.1063/1.4993215
   * E. Caldeweyher, S. Ehlert, A. Hansen, H. Neugebauer, S. Spicher,
     C. Bannwarth and S. Grimme, J. Chem. Phys., 2019, 150, 154122.
     DOI: 10.1063/1.5090222
   * E. Caldeweyher, J.-M. Mewes, S. Ehlert and S. Grimme, Phys. Chem. Chem. Phys.
     2020, 22, 8499-8512. DOI: 10.1039/D0CP00502A
   
   for sTDA-xTB:
   * S. Grimme and C. Bannwarth, J. Chem. Phys., 2016, 145, 054103.
     DOI: 10.1063/1.4959605
   
   in the mass-spec context:
   * V. Asgeirsson, C. Bauer and S. Grimme, Chem. Sci., 2017, 8, 4879.
     DOI: 10.1039/c7sc00601b
   * J. Koopman and S. Grimme, ACS Omega 2019, 4, 12, 15120-15133.
     DOI: 10.1021/acsomega.9b02011
   
   for metadynamics refer to:
   * S. Grimme, J. Chem. Theory Comput., 2019, 155, 2847-2862
     DOI: 10.1021/acs.jctc.9b00143
   
   for SPH calculations refer to:
   * S. Spicher and S. Grimme, J. Chem. Theory Comput., 2021, 17, 1701-1714
     DOI: 10.1021/acs.jctc.0c01306
   
   with help from (in alphabetical order)
   P. Atkinson, C. Bannwarth, F. Bohle, G. Brandenburg, E. Caldeweyher
   M. Checinski, S. Dohm, S. Ehlert, S. Ehrlich, I. Gerasimov, J. Koopman
   C. Lavigne, S. Lehtola, F. März, M. Müller, F. Musil, H. Neugebauer
   J. Pisarek, C. Plett, P. Pracht, J. Seibert, P. Shushkov, S. Spicher
   M. Stahn, M. Steiner, T. Strunk, J. Stückrath, T. Rose, and J. Unsleber
   
 * started run on 2021/11/19 at 12:28:12.618     

           -------------------------------------------------
          |                Calculation Setup                |
           -------------------------------------------------

          program call               : /home/jeff/miniconda3/bin/xtb input_structure_1.xyz --gfn 2 --ohess normal --parallel 1 --etemp 300 --chrg 0 --uhf 0 -I det_control.in
          hostname                   : jelfscompute1
          coordinate file            : input_structure_1.xyz
          omp threads                :                     1
          number of atoms            :                   148
          number of electrons        :                   502
          charge                     :                     0
          spin                       :                   0.0
          first test random number   :      0.24794806439878

   ID    Z sym.   atoms
    1   27 Co     1, 37, 79, 114
    2    6 C      2-9, 11-15, 17-21, 23, 24, 38-45, 47-51, 53-57, 59, 60,
                  73-78, 80-87, 89-93, 95-99, 101, 102, 115-122, 124-128,
                  130-134, 136, 137
    3    7 N      10, 16, 22, 25, 46, 52, 58, 61, 88, 94, 100, 103, 123, 129,
                  135, 138
    4    1 H      26-36, 62-72, 104-113, 139-148

molecular fragmentation (1/2 indicates fragments):
111111111111111111111111111111111111222222222222222222222222222222222222
222222222222222222222222222222222222222222222222222222222222222222222222
2222
# atoms in fragment 1/2:    36   112
 fragment masses (1/2) :      366.26     1168.83
CMA distance (Bohr)    :  43.427
constraining FC (au)   :  0.0500

           -------------------------------------------------
          |                 G F N 2 - x T B                 |
           -------------------------------------------------

        Reference                      10.1021/acs.jctc.8b01176
      * Hamiltonian:
        H0-scaling (s, p, d)           1.850000    2.230000    2.230000
        zeta-weighting                 0.500000
      * Dispersion:
        s8                             2.700000
        a1                             0.520000
        a2                             5.000000
        s9                             5.000000
      * Repulsion:
        kExp                           1.500000    1.000000
        rExp                           1.000000
      * Coulomb:
        alpha                          2.000000
        third order                    shell-resolved
        anisotropic                    true
        a3                             3.000000
        a5                             4.000000
        cn-shift                       1.200000
        cn-exp                         4.000000
        max-rad                        5.000000


          ...................................................
          :                      SETUP                      :
          :.................................................:
          :  # basis functions                 490          :
          :  # atomic orbitals                 486          :
          :  # shells                          258          :
          :  # electrons                       502          :
          :  max. iterations                   250          :
          :  Hamiltonian                  GFN2-xTB          :
          :  restarted?                      false          :
          :  GBSA solvation                  false          :
          :  PC potential                    false          :
          :  electronic temp.          300.0000000     K    :
          :  accuracy                    1.0000000          :
          :  -> integral cutoff          0.2500000E+02      :
          :  -> integral neglect         0.1000000E-07      :
          :  -> SCF convergence          0.1000000E-05 Eh   :
          :  -> wf. convergence          0.1000000E-03 e    :
          :  Broyden damping             0.4000000          :
          ...................................................

 iter      E             dE          RMSdq      gap      omega  full diag
   1   -268.2915925 -0.268292E+03  0.859E+00    0.07       0.0  T
   2   -235.9397520  0.323518E+02  0.135E+01    1.26       1.0  T
   3   -259.8208516 -0.238811E+02  0.749E+00    0.03       1.0  T
   4   -234.1615750  0.256593E+02  0.882E+00    0.04       1.0  T
   5   -246.1742782 -0.120127E+02  0.601E+00    0.02       1.0  T
   6   -242.3343388  0.383994E+01  0.723E+00    0.04       1.0  T
   7   -255.6176543 -0.132833E+02  0.664E+00    0.06       1.0  T
   8   -268.0969720 -0.124793E+02  0.419E+00    0.18       1.0  T
   9   -268.5261535 -0.429181E+00  0.361E+00    0.16       1.0  T
  10   -269.3100053 -0.783852E+00  0.326E+00    0.07       1.0  T
  11   -269.4486385 -0.138633E+00  0.310E+00    0.07       1.0  T
  12   -269.6750796 -0.226441E+00  0.307E+00    0.03       1.0  T
  13   -269.6970943 -0.220147E-01  0.302E+00    0.05       1.0  T
  14   -269.5984954  0.985989E-01  0.296E+00    0.10       1.0  T
  15   -269.7546145 -0.156119E+00  0.284E+00    0.03       1.0  T
  16   -270.0122784 -0.257664E+00  0.210E+00    0.04       1.0  T
  17   -269.9753696  0.369088E-01  0.201E+00    0.03       1.0  T
  18   -269.7450942  0.230275E+00  0.220E+00    0.01       1.0  T
  19   -268.7439038  0.100119E+01  0.294E+00    0.03       1.0  T
  20   -269.8562248 -0.111232E+01  0.189E+00    0.02       1.0  T
  21   -269.9372585 -0.810338E-01  0.170E+00    0.02       1.0  T
  22   -266.3765325  0.356073E+01  0.412E+00    0.01       1.0  T
  23   -268.5992751 -0.222274E+01  0.298E+00    0.01       1.0  T
  24   -269.1311612 -0.531886E+00  0.274E+00    0.02       1.0  T
  25   -268.4679953  0.663166E+00  0.304E+00    0.01       1.0  T
  26   -268.0568328  0.411163E+00  0.324E+00    0.01       1.0  T
  27   -264.9219459  0.313489E+01  0.472E+00    0.04       1.0  T
  28   -268.1154107 -0.319346E+01  0.320E+00    0.03       1.0  T
  29   -268.1119654  0.344531E-02  0.320E+00    0.03       1.0  T
  30   -269.4843788 -0.137241E+01  0.235E+00    0.02       1.0  T
  31   -268.1531855  0.133119E+01  0.317E+00    0.03       1.0  T
  32   -269.1712638 -0.101808E+01  0.245E+00    0.01       1.0  T
  33   -268.4333099  0.737954E+00  0.290E+00    0.03       1.0  T
  34   -269.4781714 -0.104486E+01  0.220E+00    0.00       1.0  T
  35   -269.5221888 -0.440174E-01  0.215E+00    0.00       1.0  T
  36   -269.6038475 -0.816587E-01  0.206E+00    0.00       1.0  T
  37   -269.7262332 -0.122386E+00  0.188E+00    0.00       1.0  T
  38   -269.8620798 -0.135847E+00  0.173E+00    0.02       1.0  T
  39   -269.6504619  0.211618E+00  0.191E+00    0.03       1.0  T
  40   -270.1916678 -0.541206E+00  0.128E+00    0.01       1.0  T
  41   -270.3940169 -0.202349E+00  0.957E-01    0.00       1.0  T
  42   -270.1938491  0.200168E+00  0.128E+00    0.01       1.0  T
  43   -270.3730223 -0.179173E+00  0.101E+00    0.02       1.0  T
  44   -270.4701714 -0.971490E-01  0.851E-01    0.00       1.0  T
  45   -270.5930885 -0.122917E+00  0.515E-01    0.00       1.0  T
  46   -270.6174454 -0.243569E-01  0.416E-01    0.01       1.0  T
  47   -270.4194497  0.197996E+00  0.948E-01    0.01       1.0  T
  48   -270.4331517 -0.137021E-01  0.920E-01    0.01       1.0  T
  49   -270.4576294 -0.244777E-01  0.887E-01    0.01       1.0  T
  50   -270.5073916 -0.497622E-01  0.748E-01    0.01       1.0  T
  51   -270.5923323 -0.849407E-01  0.398E-01    0.02       1.0  T
  52   -270.5685611  0.237712E-01  0.501E-01    0.02       1.0  T
  53   -270.5366658  0.318953E-01  0.596E-01    0.00       1.0  T
  54   -270.5168757  0.197901E-01  0.647E-01    0.00       1.0  T
  55   -270.5732369 -0.563612E-01  0.446E-01    0.01       1.0  T
  56   -270.5866952 -0.134583E-01  0.379E-01    0.01       1.0  T
  57   -270.5762294  0.104657E-01  0.415E-01    0.00       1.0  T
  58   -270.5900916 -0.138621E-01  0.349E-01    0.01       1.0  T
  59   -270.5842749  0.581662E-02  0.372E-01    0.01       1.0  T
  60   -270.5931492 -0.887429E-02  0.334E-01    0.01       1.0  T
  61   -270.5976368 -0.448754E-02  0.315E-01    0.01       1.0  T
  62   -270.6007406 -0.310385E-02  0.296E-01    0.01       1.0  T
  63   -270.6029715 -0.223086E-02  0.282E-01    0.01       1.0  T
  64   -270.6070931 -0.412166E-02  0.257E-01    0.01       1.0  T
  65   -270.6077803 -0.687164E-03  0.257E-01    0.02       1.0  T
  66   -270.6090691 -0.128879E-02  0.248E-01    0.02       1.0  T
  67   -270.6092348 -0.165683E-03  0.245E-01    0.02       1.0  T
  68   -270.6106806 -0.144586E-02  0.235E-01    0.01       1.0  T
  69   -270.6129999 -0.231931E-02  0.212E-01    0.01       1.0  T
  70   -270.6143822 -0.138227E-02  0.198E-01    0.01       1.0  T
  71   -270.6187510 -0.436879E-02  0.143E-01    0.01       1.0  T
  72   -270.6206790 -0.192798E-02  0.113E-01    0.02       1.0  T
  73   -270.6210947 -0.415711E-03  0.104E-01    0.02       1.0  T
  74   -270.6218223 -0.727596E-03  0.846E-02    0.02       1.0  T
  75   -270.6219090 -0.867181E-04  0.780E-02    0.02       1.0  T
  76   -270.6222501 -0.341111E-03  0.652E-02    0.02       1.0  T
  77   -270.6224311 -0.181005E-03  0.543E-02    0.02       1.0  T
  78   -270.6226093 -0.178220E-03  0.436E-02    0.02       1.0  T
  79   -270.6229006 -0.291249E-03  0.224E-02    0.02       1.0  T
  80   -270.6229789 -0.782726E-04  0.975E-03    0.02       1.0  T
  81   -270.6229920 -0.131565E-04  0.640E-03    0.02       1.3  T
  82   -270.6229887  0.327571E-05  0.707E-03    0.02       1.2  T
  83   -270.6229921 -0.338890E-05  0.498E-03    0.02       1.6  T
  84   -270.6229917  0.428724E-06  0.483E-03    0.02       1.7  T
  85   -270.6229932 -0.146440E-05  0.385E-03    0.02       2.1  T
  86   -270.6229941 -0.906064E-06  0.306E-03    0.02       2.7  T
  87   -270.6229939  0.201921E-06  0.313E-03    0.02       2.6  T
  88   -270.6229944 -0.516445E-06  0.262E-03    0.02       3.1  T
  89   -270.6229951 -0.729445E-06  0.172E-03    0.02       4.8  T
  90   -270.6229954 -0.332007E-06  0.104E-03    0.02       7.9  T
  91   -270.6229956 -0.146397E-06  0.596E-04    0.02      13.8  T
  92   -270.6229957 -0.579870E-07  0.198E-04    0.02      41.6  T

   *** convergence criteria satisfied after 92 iterations ***

         #    Occupation            Energy/Eh            Energy/eV
      -------------------------------------------------------------
         1        2.0000           -0.6809789             -18.5304
       ...           ...                  ...                  ...
       245        1.8736           -0.3446558              -9.3786
       246        1.7587           -0.3439815              -9.3602
       247        1.7536           -0.3439592              -9.3596
       248        1.6894           -0.3437038              -9.3527
       249        1.6777           -0.3436619              -9.3515
       250        1.5595           -0.3432956              -9.3415
       251        1.5463           -0.3432596              -9.3406 (HOMO)
       252        1.3068           -0.3426968              -9.3253 (LUMO)
       253        1.2387           -0.3425570              -9.3214
       254        0.0000           -0.3281050              -8.9282
       255        0.0000           -0.3272823              -8.9058
       256                         -0.3168680              -8.6224
       ...                                ...                  ...
       486                          1.4332549              39.0009
      -------------------------------------------------------------
                  HL-Gap            0.0005627 Eh            0.0153 eV
             Fermi-level           -0.3420946 Eh           -9.3089 eV

 SCC (total)                   0 d,  0 h,  0 min,  5.105 sec
 SCC setup                      ...        0 min,  0.004 sec (  0.078%)
 Dispersion                     ...        0 min,  0.011 sec (  0.212%)
 classical contributions        ...        0 min,  0.001 sec (  0.023%)
 integral evaluation            ...        0 min,  0.077 sec (  1.509%)
 iterations                     ...        0 min,  4.783 sec ( 93.691%)
 molecular gradient             ...        0 min,  0.223 sec (  4.367%)
 printout                       ...        0 min,  0.006 sec (  0.120%)

         :::::::::::::::::::::::::::::::::::::::::::::::::::::
         ::                     SUMMARY                     ::
         :::::::::::::::::::::::::::::::::::::::::::::::::::::
         :: total energy            -266.005524241381 Eh    ::
         :: gradient norm              0.720896358468 Eh/a0 ::
         :: HOMO-LUMO gap              0.015312832615 eV    ::
         ::.................................................::
         :: SCC energy              -270.622995650414 Eh    ::
         :: -> isotropic ES            0.102008219981 Eh    ::
         :: -> anisotropic ES          0.030715333686 Eh    ::
         :: -> anisotropic XC          0.167465270997 Eh    ::
         :: -> dispersion             -0.231419912456 Eh    ::
         :: repulsion energy           4.616726058507 Eh    ::
         :: add. restraining           0.000000000000 Eh    ::
         :: total charge               0.000000000133 e     ::
         :::::::::::::::::::::::::::::::::::::::::::::::::::::

      ----------------------------------------------------------- 
     |                   =====================                   |
     |                        A N C O P T                        |
     |                   =====================                   |
     |               Approximate Normal Coordinate               |
     |                Rational Function Optimizer                |
      ----------------------------------------------------------- 

          ...................................................
          :                      SETUP                      :
          :.................................................:
          :   optimization level            normal          :
          :   max. optcycles                   444          :
          :   ANC micro-cycles                  20          :
          :   degrees of freedom               438          :
          :.................................................:
          :   RF solver                   davidson          :
          :   write xtbopt.log                true          :
          :   linear?                        false          :
          :   energy convergence         0.5000000E-05 Eh   :
          :   grad. convergence          0.1000000E-02 Eh/α :
          :   maximium RF displ.         1.0000000          :
          :   Hlow (freq-cutoff)         0.1000000E-01      :
          :   Hmax (freq-cutoff)         5.0000000          :
          :   S6 in model hess.         20.0000000          :
          ...................................................

generating ANC from model Hessian ...
Using Lindh-Hessian (1995)
 Shifting diagonal of input Hessian by    1.0025105231916163E-002
 Lowest  eigenvalues of input Hessian
    0.010000    0.010002    0.010003    0.010007    0.010013    0.010016
    0.010017    0.010021    0.000000    0.000000    0.000000    0.000000
    0.000000    0.000000    0.010031    0.010034    0.010068    0.010091
 Highest eigenvalues
    2.203901    2.203901    2.210995    2.393222    2.512584    2.732931


........................................................................
.............................. CYCLE    1 ..............................
........................................................................
   1   -270.6229957 -0.270623E+03  0.168E-04    0.02       0.0  T
   2   -270.6229517  0.439501E-04  0.134E-02    0.01       1.0  T
   3   -270.6229949 -0.432410E-04  0.170E-03    0.02       4.8  T
   4   -270.6229946  0.325837E-06  0.220E-03    0.02       3.7  T
   5   -270.6229933  0.129159E-05  0.319E-03    0.02       2.6  T
   6   -270.6229952 -0.191337E-05  0.128E-03    0.02       6.4  T
   7   -270.6229955 -0.311851E-06  0.649E-04    0.02      12.7  T
   8   -270.6229956 -0.852374E-07  0.281E-04    0.02      29.2  T
     SCC iter.                  ...        0 min,  0.430 sec
     gradient                   ...        0 min,  0.222 sec
 * total energy  :  -266.0055242 Eh     change        0.1598818E-07 Eh
   gradient norm :     0.7208963 Eh/α   predicted     0.0000000E+00 (-100.00%)
   displ. norm   :     0.5914267 α      lambda       -0.3253463E+00
   maximum displ.:     0.1810450 α      in ANC's #151, #149, #150, ...

........................................................................
.............................. CYCLE    2 ..............................
........................................................................
   1   -270.6151374 -0.270615E+03  0.401E-01    0.01       0.0  T
   2   -268.6002955  0.201484E+01  0.290E+00    0.02       1.0  T
   3   -268.3951055  0.205190E+00  0.304E+00    0.02       1.0  T
   4   -269.2515205 -0.856415E+00  0.241E+00    0.02       1.0  T
   5   -268.7644261  0.487094E+00  0.284E+00    0.03       1.0  T
   6   -270.2515537 -0.148713E+01  0.126E+00    0.01       1.0  T
   7   -270.1628732  0.886805E-01  0.145E+00    0.02       1.0  T
   8   -270.4072150 -0.244342E+00  0.986E-01    0.02       1.0  T
   9   -270.2837332  0.123482E+00  0.123E+00    0.01       1.0  T
  10   -270.4052392 -0.121506E+00  0.986E-01    0.01       1.0  T
  11   -270.5955114 -0.190272E+00  0.412E-01    0.01       1.0  T
  12   -270.4949014  0.100610E+00  0.763E-01    0.00       1.0  T
  13   -270.5280817 -0.331804E-01  0.651E-01    0.00       1.0  T
  14   -270.4861092  0.419725E-01  0.763E-01    0.00       1.0  T
  15   -270.5362254 -0.501161E-01  0.628E-01    0.00       1.0  T
  16   -270.6151468 -0.789215E-01  0.259E-01    0.01       1.0  T
  17   -270.6304385 -0.152916E-01  0.519E-02    0.01       1.0  T
  18   -270.6294926  0.945829E-03  0.796E-02    0.01       1.0  T
  19   -270.6236393  0.585334E-02  0.169E-01    0.01       1.0  T
  20   -270.6297318 -0.609256E-02  0.692E-02    0.01       1.0  T
  21   -270.6305401 -0.808228E-03  0.346E-02    0.01       1.0  T
  22   -270.6305705 -0.304142E-04  0.319E-02    0.01       1.0  T
  23   -270.6307056 -0.135163E-03  0.154E-02    0.01       1.0  T
  24   -270.6305595  0.146160E-03  0.302E-02    0.01       1.0  T
  25   -270.6305239  0.355417E-04  0.320E-02    0.02       1.0  T
  26   -270.6306884 -0.164454E-03  0.173E-02    0.01       1.0  T
  27   -270.6307286 -0.401842E-04  0.112E-02    0.01       1.0  T
  28   -270.6307478 -0.192341E-04  0.637E-03    0.01       1.3  T
  29   -270.6307554 -0.762731E-05  0.274E-03    0.01       3.0  T
  30   -270.6307572 -0.175563E-05  0.391E-04    0.01      21.0  T
  31   -270.6307572  0.599925E-09  0.394E-04    0.01      20.8  T
  32   -270.6307572 -0.292970E-07  0.180E-04    0.01      45.6  T
     SCC iter.                  ...        0 min,  1.655 sec
     gradient                   ...        0 min,  0.222 sec
 * total energy  :  -266.2662377 Eh     change       -0.2607135E+00 Eh
   gradient norm :     0.4012937 Eh/α   predicted    -0.2196534E+00 ( -15.75%)
   displ. norm   :     0.6960344 α      lambda       -0.2172777E+00
   maximum displ.:     0.2299491 α      in ANC's #151, #149, #150, ...

........................................................................
.............................. CYCLE    3 ..............................
........................................................................
   1   -270.6715047 -0.270672E+03  0.431E-01    0.01       0.0  T
   2   -268.5921741  0.207933E+01  0.294E+00    0.02       1.0  T
   3   -268.3854710  0.206703E+00  0.308E+00    0.02       1.0  T
   4   -268.8953162 -0.509845E+00  0.275E+00    0.02       1.0  T
   5   -268.8695573  0.257588E-01  0.278E+00    0.02       1.0  T
   6   -269.7501954 -0.880638E+00  0.196E+00    0.02       1.0  T
   7   -270.2612421 -0.511047E+00  0.133E+00    0.01       1.0  T
   8   -269.8175198  0.443722E+00  0.193E+00    0.03       1.0  T
   9   -270.2275766 -0.410057E+00  0.137E+00    0.01       1.0  T
  10   -270.3603208 -0.132744E+00  0.115E+00    0.01       1.0  T
  11   -270.5164836 -0.156163E+00  0.843E-01    0.00       1.0  T
  12   -270.6583297 -0.141846E+00  0.397E-01    0.00       1.0  T
  13   -270.5216667  0.136663E+00  0.816E-01    0.01       1.0  T
  14   -270.5598127 -0.381460E-01  0.748E-01    0.01       1.0  T
  15   -270.5595414  0.271289E-03  0.749E-01    0.01       1.0  T
  16   -270.5517879  0.775352E-02  0.784E-01    0.01       1.0  T
  17   -270.5953092 -0.435213E-01  0.649E-01    0.01       1.0  T
  18   -270.5667256  0.285836E-01  0.709E-01    0.00       1.0  T
  19   -270.6568120 -0.900865E-01  0.364E-01    0.00       1.0  T
  20   -270.6747501 -0.179381E-01  0.248E-01    0.01       1.0  T
  21   -270.6712038  0.354635E-02  0.270E-01    0.00       1.0  T
  22   -270.6798851 -0.868128E-02  0.197E-01    0.00       1.0  T
  23   -270.6832135 -0.332844E-02  0.161E-01    0.01       1.0  T
  24   -270.6872267 -0.401322E-02  0.994E-02    0.01       1.0  T
  25   -270.6891935 -0.196677E-02  0.434E-02    0.01       1.0  T
  26   -270.6892331 -0.395843E-04  0.415E-02    0.01       1.0  T
  27   -270.6893733 -0.140245E-03  0.340E-02    0.01       1.0  T
  28   -270.6895753 -0.201958E-03  0.167E-02    0.01       1.0  T
  29   -270.6896363 -0.610647E-04  0.472E-03    0.01       1.7  T
  30   -270.6896327  0.362378E-05  0.601E-03    0.01       1.4  T
  31   -270.6896397 -0.692926E-05  0.307E-03    0.01       2.7  T
  32   -270.6896419 -0.229017E-05  0.613E-04    0.01      13.4  T
  33   -270.6896419 -0.228596E-08  0.599E-04    0.01      13.7  T
  34   -270.6896420 -0.684605E-07  0.211E-04    0.01      38.9  T
     SCC iter.                  ...        0 min,  1.762 sec
     gradient                   ...        0 min,  0.223 sec
 * total energy  :  -266.4328619 Eh     change       -0.1666242E+00 Eh
   gradient norm :     0.1776306 Eh/α   predicted    -0.1612705E+00 (  -3.21%)
   displ. norm   :     0.7689865 α      lambda       -0.1191279E+00
   maximum displ.:     0.2554239 α      in ANC's #149, #151, #150, ...

........................................................................
.............................. CYCLE    4 ..............................
........................................................................
   1   -270.7707923 -0.270771E+03  0.369E-01    0.01       0.0  T
   2   -269.8846003  0.886192E+00  0.199E+00    0.01       1.0  T
   3   -269.7561708  0.128430E+00  0.207E+00    0.02       1.0  T
   4   -268.9995680  0.756603E+00  0.273E+00    0.02       1.0  T
   5   -268.4927099  0.506858E+00  0.304E+00    0.03       1.0  T
   6   -270.0448682 -0.155216E+01  0.176E+00    0.02       1.0  T
   7   -269.6328248  0.412043E+00  0.217E+00    0.03       1.0  T
   8   -270.3751188 -0.742294E+00  0.134E+00    0.00       1.0  T
   9   -270.4687631 -0.936442E-01  0.115E+00    0.02       1.0  T
  10   -270.7566804 -0.287917E+00  0.343E-01    0.01       1.0  T
  11   -270.7502417  0.643867E-02  0.366E-01    0.00       1.0  T
  12   -270.6985444  0.516973E-01  0.578E-01    0.00       1.0  T
  13   -270.7479833 -0.494389E-01  0.374E-01    0.00       1.0  T
  14   -270.7126508  0.353325E-01  0.538E-01    0.01       1.0  T
  15   -270.7684926 -0.558418E-01  0.223E-01    0.01       1.0  T
  16   -270.7748675 -0.637487E-02  0.155E-01    0.01       1.0  T
  17   -270.7742761  0.591345E-03  0.156E-01    0.01       1.0  T
  18   -270.7730648  0.121138E-02  0.165E-01    0.00       1.0  T
  19   -270.7720999  0.964909E-03  0.174E-01    0.00       1.0  T
  20   -270.7749023 -0.280249E-02  0.142E-01    0.01       1.0  T
  21   -270.7788170 -0.391468E-02  0.641E-02    0.01       1.0  T
  22   -270.7788352 -0.181867E-04  0.616E-02    0.01       1.0  T
  23   -270.7792651 -0.429878E-03  0.468E-02    0.01       1.0  T
  24   -270.7794847 -0.219565E-03  0.359E-02    0.01       1.0  T
  25   -270.7795359 -0.512706E-04  0.326E-02    0.01       1.0  T
  26   -270.7797034 -0.167459E-03  0.195E-02    0.01       1.0  T
  27   -270.7797769 -0.735244E-04  0.884E-03    0.01       1.0  T
  28   -270.7797908 -0.138491E-04  0.447E-03    0.01       1.8  T
  29   -270.7797946 -0.385564E-05  0.209E-03    0.01       3.9  T
  30   -270.7797955 -0.877159E-06  0.680E-04    0.01      12.1  T
  31   -270.7797955 -0.490185E-07  0.491E-04    0.01      16.7  T
     SCC iter.                  ...        0 min,  1.606 sec
     gradient                   ...        0 min,  0.223 sec
 * total energy  :  -266.5319901 Eh     change       -0.9912823E-01 Eh
   gradient norm :     0.1127317 Eh/α   predicted    -0.9478670E-01 (  -4.38%)
   displ. norm   :     0.8246602 α      lambda       -0.8628488E-01
   maximum displ.:     0.2432124 α      in ANC's #149, #77, #151, ...

........................................................................
.............................. CYCLE    5 ..............................
........................................................................
   1   -270.8603624 -0.270860E+03  0.368E-01    0.01       0.0  T
   2   -269.4623063  0.139806E+01  0.237E+00    0.02       1.0  T
   3   -269.2123324  0.249974E+00  0.255E+00    0.02       1.0  T
   4   -270.2699198 -0.105759E+01  0.159E+00    0.01       1.0  T
   5   -268.9834295  0.128649E+01  0.280E+00    0.02       1.0  T
   6   -270.7381923 -0.175476E+01  0.707E-01    0.00       1.0  T
   7   -270.3577320  0.380460E+00  0.143E+00    0.02       1.0  T
   8   -270.7599842 -0.402252E+00  0.660E-01    0.01       1.0  T
   9   -270.8293145 -0.693304E-01  0.384E-01    0.01       1.0  T
  10   -270.8523582 -0.230437E-01  0.229E-01    0.01       1.0  T
  11   -270.8520578  0.300434E-03  0.225E-01    0.00       1.0  T
  12   -270.8547671 -0.270930E-02  0.204E-01    0.01       1.0  T
  13   -270.8556341 -0.867001E-03  0.190E-01    0.01       1.0  T
  14   -270.8630541 -0.742000E-02  0.735E-02    0.01       1.0  T
  15   -270.8635509 -0.496826E-03  0.557E-02    0.01       1.0  T
  16   -270.8639214 -0.370488E-03  0.395E-02    0.01       1.0  T
  17   -270.8641913 -0.269940E-03  0.223E-02    0.01       1.0  T
  18   -270.8642711 -0.798143E-04  0.128E-02    0.01       1.0  T
  19   -270.8642784 -0.724694E-05  0.112E-02    0.01       1.0  T
  20   -270.8642983 -0.199192E-04  0.652E-03    0.01       1.3  T
  21   -270.8643042 -0.589696E-05  0.401E-03    0.01       2.0  T
  22   -270.8643076 -0.340782E-05  0.136E-03    0.01       6.1  T
  23   -270.8643080 -0.360175E-06  0.604E-04    0.01      13.6  T
  24   -270.8643080 -0.729783E-07  0.229E-04    0.01      35.8  T
     SCC iter.                  ...        0 min,  1.245 sec
     gradient                   ...        0 min,  0.223 sec
 * total energy  :  -266.6071899 Eh     change       -0.7519976E-01 Eh
   gradient norm :     0.0964413 Eh/α   predicted    -0.7248297E-01 (  -3.61%)
   displ. norm   :     0.8547413 α      lambda       -0.6884752E-01
   maximum displ.:     0.2747730 α      in ANC's #77, #74, #151, ...

........................................................................
.............................. CYCLE    6 ..............................
........................................................................
   1   -270.9359727 -0.270936E+03  0.382E-01    0.01       0.0  T
   2   -270.4117329  0.524240E+00  0.149E+00    0.00       1.0  T
   3   -269.1570018  0.125473E+01  0.270E+00    0.02       1.0  T
   4   -268.6810061  0.475996E+00  0.311E+00    0.01       1.0  T
   5   -269.5274118 -0.846406E+00  0.241E+00    0.02       1.0  T
   6   -269.8258825 -0.298471E+00  0.209E+00    0.02       1.0  T
   7   -269.4633575  0.362525E+00  0.238E+00    0.02       1.0  T
   8   -270.4107211 -0.947364E+00  0.147E+00    0.01       1.0  T
   9   -270.5335702 -0.122849E+00  0.130E+00    0.00       1.0  T
  10   -270.7515278 -0.217958E+00  0.870E-01    0.00       1.0  T
  11   -270.5651815  0.186346E+00  0.123E+00    0.02       1.0  T
  12   -270.7714870 -0.206305E+00  0.817E-01    0.00       1.0  T
  13   -270.8578291 -0.863421E-01  0.586E-01    0.00       1.0  T
  14   -270.8953014 -0.374723E-01  0.421E-01    0.00       1.0  T
  15   -270.9361504 -0.408491E-01  0.127E-01    0.01       1.0  T
  16   -270.9390763 -0.292586E-02  0.656E-02    0.01       1.0  T
  17   -270.9256250  0.134513E-01  0.234E-01    0.01       1.0  T
  18   -270.9344700 -0.884501E-02  0.144E-01    0.01       1.0  T
  19   -270.9372563 -0.278634E-02  0.925E-02    0.01       1.0  T
  20   -270.9331615  0.409480E-02  0.153E-01    0.00       1.0  T
  21   -270.9363998 -0.323828E-02  0.107E-01    0.01       1.0  T
  22   -270.9389844 -0.258465E-02  0.409E-02    0.01       1.0  T
  23   -270.9392289 -0.244462E-03  0.282E-02    0.01       1.0  T
  24   -270.9393426 -0.113738E-03  0.176E-02    0.01       1.0  T
  25   -270.9393979 -0.552495E-04  0.861E-03    0.01       1.0  T
  26   -270.9393455  0.523537E-04  0.163E-02    0.01       1.0  T
  27   -270.9394051 -0.596118E-04  0.603E-03    0.01       1.4  T
  28   -270.9394125 -0.736695E-05  0.280E-03    0.01       2.9  T
  29   -270.9394129 -0.384957E-06  0.253E-03    0.01       3.2  T
  30   -270.9394143 -0.144856E-05  0.101E-03    0.01       8.2  T
  31   -270.9394140  0.350946E-06  0.153E-03    0.01       5.4  T
  32   -270.9394142 -0.246260E-06  0.117E-03    0.01       7.0  T
  33   -270.9394144 -0.159326E-06  0.832E-04    0.01       9.9  T
  34   -270.9394145 -0.116244E-06  0.454E-04    0.01      18.1  T
     SCC iter.                  ...        0 min,  1.762 sec
     gradient                   ...        0 min,  0.223 sec
 * total energy  :  -266.6685178 Eh     change       -0.6132796E-01 Eh
   gradient norm :     0.0798274 Eh/α   predicted    -0.5957315E-01 (  -2.86%)
   displ. norm   :     0.8846832 α      lambda       -0.5737129E-01
   maximum displ.:     0.2784347 α      in ANC's #74, #77, #20, ...

........................................................................
.............................. CYCLE    7 ..............................
........................................................................
   1   -270.9870004 -0.270987E+03  0.416E-01    0.01       0.0  T
   2   -270.1490918  0.837909E+00  0.194E+00    0.01       1.0  T
   3   -269.2643066  0.884785E+00  0.270E+00    0.02       1.0  T
   4   -269.0726691  0.191638E+00  0.281E+00    0.02       1.0  T
   5   -268.9468697  0.125799E+00  0.292E+00    0.01       1.0  T
   6   -270.3649985 -0.141813E+01  0.163E+00    0.02       1.0  T
   7   -270.2022552  0.162743E+00  0.183E+00    0.00       1.0  T
   8   -269.9627245  0.239531E+00  0.200E+00    0.02       1.0  T
   9   -270.4029248 -0.440200E+00  0.160E+00    0.02       1.0  T
  10   -270.8653635 -0.462439E+00  0.757E-01    0.01       1.0  T
  11   -270.8296781  0.356855E-01  0.849E-01    0.01       1.0  T
  12   -270.9316262 -0.101948E+00  0.551E-01    0.01       1.0  T
  13   -270.7379100  0.193716E+00  0.103E+00    0.02       1.0  T
  14   -270.9140461 -0.176136E+00  0.605E-01    0.01       1.0  T
  15   -270.9645765 -0.505303E-01  0.373E-01    0.00       1.0  T
  16   -270.9740729 -0.949640E-02  0.324E-01    0.01       1.0  T
  17   -270.9881736 -0.141007E-01  0.218E-01    0.00       1.0  T
  18   -270.9930781 -0.490454E-02  0.171E-01    0.01       1.0  T
  19   -270.9975564 -0.447832E-02  0.110E-01    0.01       1.0  T
  20   -270.9967791  0.777362E-03  0.122E-01    0.01       1.0  T
  21   -270.9997960 -0.301689E-02  0.558E-02    0.01       1.0  T
  22   -271.0003034 -0.507447E-03  0.303E-02    0.01       1.0  T
  23   -271.0004036 -0.100160E-03  0.212E-02    0.01       1.0  T
  24   -271.0004713 -0.677053E-04  0.118E-02    0.01       1.0  T
  25   -271.0004767 -0.540404E-05  0.105E-02    0.01       1.0  T
  26   -271.0004167  0.599862E-04  0.184E-02    0.01       1.0  T
  27   -271.0003882  0.285049E-04  0.209E-02    0.01       1.0  T
  28   -271.0004534 -0.651512E-04  0.128E-02    0.01       1.0  T
  29   -271.0004812 -0.278528E-04  0.755E-03    0.01       1.1  T
  30   -271.0004863 -0.513128E-05  0.577E-03    0.01       1.4  T
  31   -271.0004858  0.544462E-06  0.596E-03    0.01       1.4  T
  32   -271.0004892 -0.344571E-05  0.461E-03    0.01       1.8  T
  33   -271.0004934 -0.416011E-05  0.214E-03    0.01       3.8  T
  34   -271.0004945 -0.107022E-05  0.462E-04    0.01      17.8  T
  35   -271.0004945 -0.132678E-07  0.387E-04    0.01      21.2  T
  36   -271.0004945 -0.165318E-07  0.296E-04    0.01      27.7  T
     SCC iter.                  ...        0 min,  1.864 sec
     gradient                   ...        0 min,  0.224 sec
 * total energy  :  -266.7212844 Eh     change       -0.5276656E-01 Eh
   gradient norm :     0.0663867 Eh/α   predicted    -0.5113690E-01 (  -3.09%)
   displ. norm   :     0.9324036 α      lambda       -0.5259354E-01
   maximum displ.:     0.3019162 α      in ANC's #13, #74, #46, ...

........................................................................
.............................. CYCLE    8 ..............................
........................................................................
   1   -271.0144126 -0.271014E+03  0.478E-01    0.01       0.0  T
   2   -269.8848592  0.112955E+01  0.231E+00    0.00       1.0  T
   3   -269.1072045  0.777655E+00  0.293E+00    0.00       1.0  T
   4   -270.5521088 -0.144490E+01  0.142E+00    0.01       1.0  T
   5   -269.9630363  0.589073E+00  0.209E+00    0.02       1.0  T
   6   -270.2693300 -0.306294E+00  0.182E+00    0.01       1.0  T
   7   -270.2375655  0.317645E-01  0.184E+00    0.02       1.0  T
   8   -269.9493439  0.288222E+00  0.212E+00    0.02       1.0  T
   9   -270.5351911 -0.585847E+00  0.146E+00    0.00       1.0  T
  10   -270.1968146  0.338377E+00  0.190E+00    0.02       1.0  T
  11   -270.9705367 -0.773722E+00  0.572E-01    0.01       1.0  T
  12   -271.0378962 -0.673595E-01  0.203E-01    0.01       1.0  T
  13   -271.0363156  0.158063E-02  0.219E-01    0.01       1.0  T
  14   -271.0408391 -0.452350E-02  0.165E-01    0.01       1.0  T
  15   -270.9295053  0.111334E+00  0.663E-01    0.02       1.0  T
  16   -271.0231263 -0.936210E-01  0.310E-01    0.01       1.0  T
  17   -271.0344730 -0.113467E-01  0.208E-01    0.01       1.0  T
  18   -271.0261893  0.828365E-02  0.277E-01    0.01       1.0  T
  19   -271.0324874 -0.629811E-02  0.218E-01    0.01       1.0  T
  20   -271.0371042 -0.461679E-02  0.167E-01    0.01       1.0  T
  21   -271.0422730 -0.516878E-02  0.722E-02    0.01       1.0  T
  22   -271.0403842  0.188883E-02  0.113E-01    0.01       1.0  T
  23   -271.0425668 -0.218261E-02  0.615E-02    0.01       1.0  T
  24   -271.0429007 -0.333953E-03  0.483E-02    0.01       1.0  T
  25   -271.0433410 -0.440246E-03  0.181E-02    0.01       1.0  T
  26   -271.0433873 -0.463620E-04  0.103E-02    0.01       1.0  T
  27   -271.0433425  0.448782E-04  0.167E-02    0.01       1.0  T
  28   -271.0433549 -0.124626E-04  0.144E-02    0.01       1.0  T
  29   -271.0433942 -0.393291E-04  0.394E-03    0.01       2.1  T
  30   -271.0433834  0.108152E-04  0.739E-03    0.01       1.1  T
  31   -271.0433950 -0.116124E-04  0.196E-03    0.01       4.2  T
  32   -271.0433957 -0.689389E-06  0.882E-04    0.01       9.3  T
  33   -271.0433958 -0.103220E-06  0.546E-04    0.01      15.1  T
     SCC iter.                  ...        0 min,  1.707 sec
     gradient                   ...        0 min,  0.224 sec
 * total energy  :  -266.7724319 Eh     change       -0.5114749E-01 Eh
   gradient norm :     0.0645283 Eh/α   predicted    -0.4915857E-01 (  -3.89%)
   displ. norm   :     0.9706729 α      lambda       -0.5412895E-01
   maximum displ.:     0.3448446 α      in ANC's #13, #46, #20, ...

........................................................................
.............................. CYCLE    9 ..............................
........................................................................
   1   -271.0440355 -0.271044E+03  0.483E-01    0.01       0.0  T
   2   -269.9181458  0.112589E+01  0.235E+00    0.02       1.0  T
   3   -269.1280772  0.790069E+00  0.297E+00    0.01       1.0  T
   4   -270.5916850 -0.146361E+01  0.147E+00    0.02       1.0  T
   5   -269.1265303  0.146515E+01  0.286E+00    0.02       1.0  T
   6   -269.1771567 -0.506264E-01  0.283E+00    0.02       1.0  T
   7   -270.4032548 -0.122610E+01  0.173E+00    0.02       1.0  T
   8   -270.4592458 -0.559910E-01  0.163E+00    0.00       1.0  T
   9   -271.0026357 -0.543390E+00  0.589E-01    0.01       1.0  T
  10   -270.7708996  0.231736E+00  0.115E+00    0.02       1.0  T
  11   -270.6646303  0.106269E+00  0.135E+00    0.02       1.0  T
  12   -270.9578997 -0.293269E+00  0.729E-01    0.01       1.0  T
  13   -271.0687242 -0.110824E+00  0.185E-01    0.01       1.0  T
  14   -271.0618585  0.686566E-02  0.248E-01    0.00       1.0  T
  15   -271.0390829  0.227756E-01  0.402E-01    0.01       1.0  T
  16   -271.0698527 -0.307698E-01  0.161E-01    0.00       1.0  T
  17   -271.0693713  0.481365E-03  0.167E-01    0.00       1.0  T
  18   -271.0702438 -0.872482E-03  0.151E-01    0.00       1.0  T
  19   -271.0695272  0.716613E-03  0.161E-01    0.00       1.0  T
  20   -271.0727989 -0.327171E-02  0.109E-01    0.00       1.0  T
  21   -271.0744937 -0.169483E-02  0.673E-02    0.01       1.0  T
  22   -271.0743594  0.134303E-03  0.704E-02    0.00       1.0  T
  23   -271.0739921  0.367366E-03  0.794E-02    0.00       1.0  T
  24   -271.0742296 -0.237495E-03  0.703E-02    0.00       1.0  T
  25   -271.0750756 -0.846032E-03  0.331E-02    0.00       1.0  T
  26   -271.0752831 -0.207485E-03  0.127E-02    0.00       1.0  T
  27   -271.0753020 -0.189204E-04  0.832E-03    0.00       1.0  T
  28   -271.0753104 -0.839789E-05  0.499E-03    0.00       1.6  T
  29   -271.0753108 -0.407006E-06  0.478E-03    0.00       1.7  T
  30   -271.0753146 -0.375204E-05  0.241E-03    0.00       3.4  T
  31   -271.0753149 -0.329863E-06  0.205E-03    0.00       4.0  T
  32   -271.0753156 -0.685048E-06  0.117E-03    0.00       7.0  T
  33   -271.0753159 -0.300352E-06  0.297E-04    0.00      27.7  T
  34   -271.0753159  0.873598E-08  0.359E-04    0.00      22.9  T
     SCC iter.                  ...        0 min,  1.758 sec
     gradient                   ...        0 min,  0.224 sec
 * total energy  :  -266.8255286 Eh     change       -0.5309668E-01 Eh
   gradient norm :     0.0676297 Eh/α   predicted    -0.5256482E-01 (  -1.00%)
   displ. norm   :     0.9625310 α      lambda       -0.5492589E-01
   maximum displ.:     0.3646932 α      in ANC's #13, #46, #20, ...

........................................................................
.............................. CYCLE   10 ..............................
........................................................................
   1   -271.0834378 -0.271083E+03  0.417E-01    0.01       0.0  T
   2   -269.7733855  0.131005E+01  0.251E+00    0.01       1.0  T
   3   -269.1051136  0.668272E+00  0.303E+00    0.00       1.0  T
   4   -270.5230867 -0.141797E+01  0.163E+00    0.01       1.0  T
   5   -269.3976033  0.112548E+01  0.269E+00    0.02       1.0  T
   6   -269.6518580 -0.254255E+00  0.248E+00    0.02       1.0  T
   7   -270.9168949 -0.126504E+01  0.957E-01    0.01       1.0  T
   8   -270.5040321  0.412863E+00  0.167E+00    0.05       1.0  T
   9   -270.6419475 -0.137915E+00  0.144E+00    0.03       1.0  T
  10   -270.7145225 -0.725750E-01  0.133E+00    0.00       1.0  T
  11   -270.8002565 -0.857339E-01  0.118E+00    0.04       1.0  T
  12   -271.0990225 -0.298766E+00  0.177E-01    0.00       1.0  T
  13   -271.0995208 -0.498327E-03  0.171E-01    0.00       1.0  T
  14   -271.0917442  0.777666E-02  0.253E-01    0.01       1.0  T
  15   -271.0471452  0.445990E-01  0.517E-01    0.02       1.0  T
  16   -271.0986847 -0.515394E-01  0.178E-01    0.00       1.0  T
  17   -271.1003670 -0.168232E-02  0.150E-01    0.00       1.0  T
  18   -271.1007488 -0.381822E-03  0.139E-01    0.00       1.0  T
  19   -271.0999616  0.787224E-03  0.150E-01    0.00       1.0  T
  20   -271.1017638 -0.180223E-02  0.120E-01    0.00       1.0  T
  21   -271.1033200 -0.155617E-02  0.868E-02    0.00       1.0  T
  22   -271.1048666 -0.154659E-02  0.231E-02    0.00       1.0  T
  23   -271.1049381 -0.715174E-04  0.111E-02    0.00       1.0  T
  24   -271.1048467  0.913821E-04  0.220E-02    0.00       1.0  T
  25   -271.1048728 -0.261087E-04  0.189E-02    0.00       1.0  T
  26   -271.1049074 -0.345730E-04  0.145E-02    0.00       1.0  T
  27   -271.1049118 -0.441912E-05  0.138E-02    0.00       1.0  T
  28   -271.1049442 -0.323405E-04  0.429E-03    0.00       1.9  T
  29   -271.1049437  0.421379E-06  0.421E-03    0.00       2.0  T
  30   -271.1049473 -0.359435E-05  0.117E-03    0.00       7.0  T
  31   -271.1049476 -0.293743E-06  0.273E-04    0.00      30.1  T
  32   -271.1049476  0.501265E-07  0.547E-04    0.00      15.0  T
     SCC iter.                  ...        0 min,  1.655 sec
     gradient                   ...        0 min,  0.224 sec
 * total energy  :  -266.8754533 Eh     change       -0.4992477E-01 Eh
   gradient norm :     0.0671849 Eh/α   predicted    -0.5290642E-01 (   5.97%)
   displ. norm   :     0.8994896 α      lambda       -0.4362262E-01
   maximum displ.:     0.4071101 α      in ANC's #13, #20, #30, ...

........................................................................
.............................. CYCLE   11 ..............................
........................................................................
   1   -271.1150259 -0.271115E+03  0.280E-01    0.00       0.0  T
   2   -270.1948157  0.920210E+00  0.209E+00    0.02       1.0  T
   3   -270.3571375 -0.162322E+00  0.195E+00    0.02       1.0  T
   4   -269.9062503  0.450887E+00  0.227E+00    0.03       1.0  T
   5   -271.0901431 -0.118389E+01  0.409E-01    0.01       1.0  T
   6   -270.8247310  0.265412E+00  0.114E+00    0.01       1.0  T
   7   -271.0172639 -0.192533E+00  0.701E-01    0.02       1.0  T
   8   -271.0355070 -0.182431E-01  0.638E-01    0.02       1.0  T
   9   -271.0610654 -0.255583E-01  0.521E-01    0.00       1.0  T
  10   -271.0563166  0.474880E-02  0.553E-01    0.01       1.0  T
  11   -271.1193445 -0.630280E-01  0.110E-01    0.00       1.0  T
  12   -271.1136230  0.572156E-02  0.199E-01    0.00       1.0  T
  13   -271.1171569 -0.353391E-02  0.147E-01    0.00       1.0  T
  14   -271.1216767 -0.451976E-02  0.255E-02    0.00       1.0  T
  15   -271.1216816 -0.491741E-05  0.251E-02    0.00       1.0  T
  16   -271.1217711 -0.895070E-04  0.141E-02    0.00       1.0  T
  17   -271.1217498  0.212971E-04  0.177E-02    0.00       1.0  T
  18   -271.1217946 -0.448354E-04  0.934E-03    0.00       1.0  T
  19   -271.1218106 -0.160057E-04  0.245E-03    0.00       3.4  T
  20   -271.1218109 -0.242358E-06  0.223E-03    0.00       3.7  T
  21   -271.1218111 -0.271832E-06  0.193E-03    0.00       4.3  T
  22   -271.1218115 -0.397132E-06  0.130E-03    0.00       6.3  T
  23   -271.1218119 -0.350209E-06  0.276E-04    0.00      29.8  T
  24   -271.1218119 -0.133974E-07  0.142E-04    0.00      58.0  T
     SCC iter.                  ...        0 min,  1.242 sec
     gradient                   ...        0 min,  0.224 sec
 * total energy  :  -266.9121714 Eh     change       -0.3671812E-01 Eh
   gradient norm :     0.0640706 Eh/α   predicted    -0.3945845E-01 (   7.46%)
   displ. norm   :     0.7981096 α      lambda       -0.3440601E-01
   maximum displ.:     0.4300823 α      in ANC's #13, #20, #30, ...

........................................................................
.............................. CYCLE   12 ..............................
........................................................................
   1   -271.1700280 -0.271170E+03  0.202E-01    0.00       0.0  T
   2   -270.1771263  0.992902E+00  0.213E+00    0.04       1.0  T
   3   -271.0514680 -0.874342E+00  0.767E-01    0.00       1.0  T
   4   -269.2649071  0.178656E+01  0.285E+00    0.03       1.0  T
   5   -271.1528450 -0.188794E+01  0.279E-01    0.01       1.0  T
   6   -269.2712930  0.188155E+01  0.284E+00    0.03       1.0  T
   7   -271.1257513 -0.185446E+01  0.467E-01    0.01       1.0  T
   8   -271.1519342 -0.261829E-01  0.299E-01    0.00       1.0  T
   9   -271.1658159 -0.138817E-01  0.151E-01    0.00       1.0  T
  10   -271.1699168 -0.410085E-02  0.614E-02    0.00       1.0  T
  11   -271.1691819  0.734906E-03  0.786E-02    0.00       1.0  T
  12   -271.1700833 -0.901370E-03  0.451E-02    0.00       1.0  T
  13   -271.1702705 -0.187204E-03  0.332E-02    0.00       1.0  T
  14   -271.1702027  0.677924E-04  0.368E-02    0.00       1.0  T
  15   -271.1703177 -0.115077E-03  0.276E-02    0.00       1.0  T
  16   -271.1703854 -0.676499E-04  0.204E-02    0.00       1.0  T
  17   -271.1704160 -0.306134E-04  0.161E-02    0.00       1.0  T
  18   -271.1704494 -0.334034E-04  0.953E-03    0.00       1.0  T
  19   -271.1704618 -0.123425E-04  0.533E-03    0.00       1.5  T
  20   -271.1704656 -0.382625E-05  0.309E-03    0.00       2.7  T
  21   -271.1704667 -0.112583E-05  0.191E-03    0.00       4.3  T
  22   -271.1704672 -0.527656E-06  0.968E-04    0.00       8.5  T
  23   -271.1704674 -0.154900E-06  0.382E-04    0.00      21.5  T
     SCC iter.                  ...        0 min,  1.193 sec
     gradient                   ...        0 min,  0.225 sec
 * total energy  :  -266.9418018 Eh     change       -0.2963038E-01 Eh
   gradient norm :     0.0513567 Eh/α   predicted    -0.2816095E-01 (  -4.96%)
   displ. norm   :     0.8495108 α      lambda       -0.3117655E-01
   maximum displ.:     0.4983887 α      in ANC's #13, #20, #30, ...

........................................................................
.............................. CYCLE   13 ..............................
........................................................................
   1   -271.2301915 -0.271230E+03  0.237E-01    0.00       0.0  T
   2   -270.4184457  0.811746E+00  0.192E+00    0.02       1.0  T
   3   -269.7074681  0.710978E+00  0.266E+00    0.04       1.0  T
   4   -269.3302507  0.377217E+00  0.285E+00    0.03       1.0  T
   5   -271.0950870 -0.176484E+01  0.789E-01    0.01       1.0  T
   6   -271.1047631 -0.967603E-02  0.785E-01    0.00       1.0  T
   7   -270.9752514  0.129512E+00  0.106E+00    0.01       1.0  T
   8   -271.1647967 -0.189545E+00  0.570E-01    0.02       1.0  T
   9   -271.2041016 -0.393050E-01  0.378E-01    0.00       1.0  T
  10   -271.2343006 -0.301989E-01  0.853E-02    0.00       1.0  T
  11   -271.2122643  0.220363E-01  0.319E-01    0.00       1.0  T
  12   -271.2320595 -0.197952E-01  0.123E-01    0.00       1.0  T
  13   -271.2343170 -0.225750E-02  0.734E-02    0.00       1.0  T
  14   -271.2318157  0.250133E-02  0.127E-01    0.00       1.0  T
  15   -271.2352589 -0.344322E-02  0.316E-02    0.00       1.0  T
  16   -271.2352260  0.329325E-04  0.335E-02    0.00       1.0  T
  17   -271.2352611 -0.351036E-04  0.307E-02    0.00       1.0  T
  18   -271.2354496 -0.188579E-03  0.987E-03    0.00       1.0  T
  19   -271.2354500 -0.312138E-06  0.973E-03    0.00       1.0  T
  20   -271.2354706 -0.206365E-04  0.175E-03    0.00       4.7  T
  21   -271.2354704  0.210729E-06  0.206E-03    0.00       4.0  T
  22   -271.2354711 -0.752522E-06  0.853E-04    0.00       9.6  T
  23   -271.2354712 -0.953132E-07  0.460E-04    0.00      17.9  T
     SCC iter.                  ...        0 min,  1.191 sec
     gradient                   ...        0 min,  0.225 sec
 * total energy  :  -266.9686495 Eh     change       -0.2684763E-01 Eh
   gradient norm :     0.0495880 Eh/α   predicted    -0.2683785E-01 (  -0.04%)
   displ. norm   :     0.8949290 α      lambda       -0.2783344E-01
   maximum displ.:     0.5551528 α      in ANC's #13, #20, #30, ...

........................................................................
.............................. CYCLE   14 ..............................
........................................................................
   1   -271.2940884 -0.271294E+03  0.248E-01    0.00       0.0  T
   2   -269.4060246  0.188806E+01  0.295E+00    0.03       1.0  T
   3   -270.4938252 -0.108780E+01  0.199E+00    0.03       1.0  T
   4   -269.5884723  0.905353E+00  0.270E+00    0.03       1.0  T
   5   -270.7549958 -0.116652E+01  0.152E+00    0.04       1.0  T
   6   -271.0067565 -0.251761E+00  0.114E+00    0.00       1.0  T
   7   -271.0209456 -0.141891E-01  0.110E+00    0.01       1.0  T
   8   -269.8364259  0.118452E+01  0.251E+00    0.03       1.0  T
   9   -270.6125743 -0.776148E+00  0.174E+00    0.02       1.0  T
  10   -270.9965021 -0.383928E+00  0.114E+00    0.02       1.0  T
  11   -271.1838384 -0.187336E+00  0.754E-01    0.00       1.0  T
  12   -271.2575029 -0.736645E-01  0.450E-01    0.01       1.0  T
  13   -271.2963983 -0.388953E-01  0.176E-01    0.01       1.0  T
  14   -271.2955273  0.870971E-03  0.187E-01    0.01       1.0  T
  15   -271.2993926 -0.386528E-02  0.123E-01    0.00       1.0  T
  16   -271.3026475 -0.325495E-02  0.344E-02    0.00       1.0  T
  17   -271.2983978  0.424974E-02  0.142E-01    0.00       1.0  T
  18   -271.2959768  0.242093E-02  0.175E-01    0.00       1.0  T
  19   -271.3022078 -0.623092E-02  0.553E-02    0.00       1.0  T
  20   -271.3027030 -0.495241E-03  0.289E-02    0.00       1.0  T
  21   -271.3027473 -0.443375E-04  0.245E-02    0.00       1.0  T
  22   -271.3028786 -0.131261E-03  0.374E-03    0.00       2.2  T
  23   -271.3028665  0.121080E-04  0.830E-03    0.00       1.0  T
  24   -271.3028776 -0.111523E-04  0.398E-03    0.00       2.1  T
  25   -271.3028786 -0.950167E-06  0.288E-03    0.00       2.9  T
  26   -271.3028791 -0.543592E-06  0.245E-03    0.00       3.4  T
  27   -271.3028787  0.446852E-06  0.259E-03    0.00       3.2  T
  28   -271.3028756  0.307391E-05  0.437E-03    0.00       1.9  T
  29   -271.3028775 -0.191002E-05  0.332E-03    0.00       2.5  T
  30   -271.3028791 -0.155906E-05  0.208E-03    0.00       3.9  T
  31   -271.3028799 -0.847191E-06  0.861E-04    0.00       9.5  T
  32   -271.3028800 -0.616553E-07  0.681E-04    0.00      12.1  T
     SCC iter.                  ...        0 min,  1.654 sec
     gradient                   ...        0 min,  0.225 sec
 * total energy  :  -266.9921901 Eh     change       -0.2354061E-01 Eh
   gradient norm :     0.0497543 Eh/α   predicted    -0.2506259E-01 (   6.47%)
   displ. norm   :     0.8906629 α      lambda       -0.2568730E-01
   maximum displ.:     0.5435472 α      in ANC's #13, #20, #18, ...

........................................................................
.............................. CYCLE   15 ..............................
........................................................................
   1   -271.3185666 -0.271319E+03  0.167E-01    0.00       0.0  T
   2   -270.6187063  0.699860E+00  0.180E+00    0.05       1.0  T
   3   -270.7189090 -0.100203E+00  0.160E+00    0.01       1.0  T
   4   -270.6036566  0.115252E+00  0.178E+00    0.01       1.0  T
   5   -271.0293526 -0.425696E+00  0.119E+00    0.02       1.0  T
   6   -271.2099138 -0.180561E+00  0.703E-01    0.00       1.0  T
   7   -271.3190279 -0.109114E+00  0.791E-02    0.00       1.0  T
   8   -271.3106892  0.833878E-02  0.202E-01    0.01       1.0  T
   9   -271.3102255  0.463679E-03  0.207E-01    0.01       1.0  T
  10   -271.3169665 -0.674098E-02  0.114E-01    0.00       1.0  T
  11   -271.3164691  0.497323E-03  0.122E-01    0.01       1.0  T
  12   -271.3193647 -0.289554E-02  0.458E-02    0.00       1.0  T
  13   -271.3193676 -0.290845E-05  0.451E-02    0.00       1.0  T
  14   -271.3197329 -0.365314E-03  0.169E-02    0.00       1.0  T
  15   -271.3197678 -0.349522E-04  0.102E-02    0.00       1.0  T
  16   -271.3197864 -0.185687E-04  0.459E-03    0.00       1.8  T
  17   -271.3197783  0.808882E-05  0.749E-03    0.00       1.1  T
  18   -271.3197898 -0.114938E-04  0.228E-03    0.00       3.6  T
  19   -271.3197907 -0.899260E-06  0.102E-03    0.00       8.0  T
  20   -271.3197908 -0.102598E-06  0.714E-04    0.00      11.5  T
  21   -271.3197909 -0.872131E-07  0.347E-04    0.00      23.7  T
     SCC iter.                  ...        0 min,  1.086 sec
     gradient                   ...        0 min,  0.225 sec
 * total energy  :  -267.0144739 Eh     change       -0.2228380E-01 Eh
   gradient norm :     0.0412671 Eh/α   predicted    -0.2303227E-01 (   3.36%)
   displ. norm   :     0.9074292 α      lambda       -0.2258112E-01
   maximum displ.:     0.5814191 α      in ANC's #13, #20, #18, ...

........................................................................
.............................. CYCLE   16 ..............................
........................................................................
   1   -271.3419767 -0.271342E+03  0.199E-01    0.00       0.0  T
   2   -270.2590749  0.108290E+01  0.215E+00    0.02       1.0  T
   3   -270.3240706 -0.649957E-01  0.217E+00    0.00       1.0  T
   4   -270.4036526 -0.795820E-01  0.212E+00    0.01       1.0  T
   5   -271.1549598 -0.751307E+00  0.923E-01    0.00       1.0  T
   6   -270.8962971  0.258663E+00  0.138E+00    0.02       1.0  T
   7   -271.1896192 -0.293322E+00  0.842E-01    0.02       1.0  T
   8   -271.3411883 -0.151569E+00  0.171E-01    0.00       1.0  T
   9   -271.3194069  0.217814E-01  0.355E-01    0.01       1.0  T
  10   -271.3314501 -0.120432E-01  0.271E-01    0.01       1.0  T
  11   -271.3447167 -0.132666E-01  0.106E-01    0.01       1.0  T
  12   -271.3453153 -0.598680E-03  0.898E-02    0.00       1.0  T
  13   -271.3424325  0.288286E-02  0.142E-01    0.00       1.0  T
  14   -271.3444130 -0.198049E-02  0.108E-01    0.00       1.0  T
  15   -271.3468429 -0.242994E-02  0.390E-02    0.00       1.0  T
  16   -271.3469684 -0.125451E-03  0.316E-02    0.00       1.0  T
  17   -271.3471226 -0.154224E-03  0.180E-02    0.00       1.0  T
  18   -271.3471750 -0.523719E-04  0.982E-03    0.00       1.0  T
  19   -271.3471839 -0.889855E-05  0.754E-03    0.00       1.1  T
  20   -271.3471961 -0.122208E-04  0.196E-03    0.00       4.2  T
  21   -271.3471968 -0.722820E-06  0.769E-04    0.00      10.7  T
  22   -271.3471969 -0.779102E-07  0.478E-04    0.00      17.2  T
     SCC iter.                  ...        0 min,  1.140 sec
     gradient                   ...        0 min,  0.225 sec
 * total energy  :  -267.0340118 Eh     change       -0.1953792E-01 Eh
   gradient norm :     0.0372004 Eh/α   predicted    -0.2058752E-01 (   5.37%)
   displ. norm   :     0.9214919 α      lambda       -0.2167630E-01
   maximum displ.:     0.5923479 α      in ANC's #13, #20, #18, ...

........................................................................
.............................. CYCLE   17 ..............................
........................................................................
   1   -271.3915808 -0.271392E+03  0.180E-01    0.00       0.0  T
   2   -270.4088441  0.982737E+00  0.212E+00    0.00       1.0  T
   3   -270.7811314 -0.372287E+00  0.162E+00    0.04       1.0  T
   4   -271.0881422 -0.307011E+00  0.117E+00    0.03       1.0  T
   5   -269.6401268  0.144802E+01  0.272E+00    0.02       1.0  T
   6   -271.2645896 -0.162446E+01  0.759E-01    0.02       1.0  T
   7   -271.3437030 -0.791134E-01  0.456E-01    0.00       1.0  T
   8   -271.3720883 -0.283853E-01  0.311E-01    0.01       1.0  T
   9   -271.3785284 -0.644003E-02  0.252E-01    0.01       1.0  T
  10   -271.3824185 -0.389011E-02  0.212E-01    0.01       1.0  T
  11   -271.3923280 -0.990956E-02  0.338E-02    0.01       1.0  T
  12   -271.3920518  0.276234E-03  0.485E-02    0.01       1.0  T
  13   -271.3924302 -0.378378E-03  0.244E-02    0.00       1.0  T
  14   -271.3925430 -0.112822E-03  0.114E-02    0.01       1.0  T
  15   -271.3925358  0.725209E-05  0.126E-02    0.01       1.0  T
  16   -271.3925418 -0.601767E-05  0.115E-02    0.01       1.0  T
  17   -271.3925486 -0.681388E-05  0.995E-03    0.01       1.0  T
  18   -271.3925661 -0.175275E-04  0.412E-03    0.00       2.0  T
  19   -271.3925676 -0.152577E-05  0.305E-03    0.00       2.7  T
  20   -271.3925685 -0.882794E-06  0.223E-03    0.00       3.7  T
  21   -271.3925694 -0.911032E-06  0.819E-04    0.00      10.0  T
  22   -271.3925695 -0.101525E-06  0.397E-04    0.00      20.7  T
     SCC iter.                  ...        0 min,  1.169 sec
     gradient                   ...        0 min,  0.225 sec
 * total energy  :  -267.0512023 Eh     change       -0.1719053E-01 Eh
   gradient norm :     0.0416140 Eh/α   predicted    -0.2004134E-01 (  16.58%)
   displ. norm   :     0.8706205 α      lambda       -0.1932426E-01
   maximum displ.:     0.5573473 α      in ANC's #13, #20, #18, ...

........................................................................
.............................. CYCLE   18 ..............................
........................................................................
   1   -271.4048292 -0.271405E+03  0.230E-01    0.00       0.0  T
   2   -269.3368948  0.206793E+01  0.299E+00    0.00       1.0  T
   3   -269.5932451 -0.256350E+00  0.288E+00    0.04       1.0  T
   4   -269.5830201  0.102250E-01  0.288E+00    0.04       1.0  T
   5   -271.1520047 -0.156898E+01  0.104E+00    0.02       1.0  T
   6   -271.1537543 -0.174963E-02  0.106E+00    0.01       1.0  T
   7   -271.2712065 -0.117452E+00  0.806E-01    0.02       1.0  T
   8   -271.2789399 -0.773341E-02  0.752E-01    0.00       1.0  T
   9   -271.2779220  0.101794E-02  0.753E-01    0.01       1.0  T
  10   -271.3355369 -0.576149E-01  0.570E-01    0.00       1.0  T
  11   -271.3558201 -0.202833E-01  0.494E-01    0.00       1.0  T
  12   -271.3669466 -0.111265E-01  0.444E-01    0.00       1.0  T
  13   -271.3800012 -0.130546E-01  0.374E-01    0.00       1.0  T
  14   -271.4102266 -0.302254E-01  0.112E-01    0.01       1.0  T
  15   -271.4122248 -0.199824E-02  0.627E-02    0.01       1.0  T
  16   -271.4125054 -0.280527E-03  0.530E-02    0.01       1.0  T
  17   -271.4124883  0.170958E-04  0.533E-02    0.01       1.0  T
  18   -271.4126137 -0.125402E-03  0.476E-02    0.01       1.0  T
  19   -271.4127393 -0.125615E-03  0.415E-02    0.01       1.0  T
  20   -271.4131105 -0.371220E-03  0.107E-02    0.01       1.0  T
  21   -271.4131375 -0.269766E-04  0.181E-03    0.01       4.5  T
  22   -271.4131379 -0.465087E-06  0.883E-04    0.01       9.3  T
  23   -271.4131380 -0.212382E-07  0.779E-04    0.01      10.5  T
     SCC iter.                  ...        0 min,  1.193 sec
     gradient                   ...        0 min,  0.226 sec
 * total energy  :  -267.0670880 Eh     change       -0.1588571E-01 Eh
   gradient norm :     0.0409985 Eh/α   predicted    -0.1698583E-01 (   6.93%)
   displ. norm   :     0.8775742 α      lambda       -0.1705465E-01
   maximum displ.:     0.5850629 α      in ANC's #13, #20, #18, ...

........................................................................
.............................. CYCLE   19 ..............................
........................................................................
   1   -271.4290564 -0.271429E+03  0.131E-01    0.00       0.0  T
   2   -271.0346533  0.394403E+00  0.138E+00    0.04       1.0  T
   3   -270.7670934  0.267560E+00  0.172E+00    0.00       1.0  T
   4   -271.4186702 -0.651577E+00  0.236E-01    0.01       1.0  T
   5   -270.7616107  0.657059E+00  0.174E+00    0.01       1.0  T
   6   -271.3652324 -0.603622E+00  0.514E-01    0.01       1.0  T
   7   -271.3356174  0.296150E-01  0.619E-01    0.01       1.0  T
   8   -271.4200346 -0.844172E-01  0.205E-01    0.01       1.0  T
   9   -271.4200067  0.278220E-04  0.207E-01    0.00       1.0  T
  10   -271.4263184 -0.631163E-02  0.122E-01    0.01       1.0  T
  11   -271.4278551 -0.153669E-02  0.923E-02    0.01       1.0  T
  12   -271.4297229 -0.186786E-02  0.193E-02    0.01       1.0  T
  13   -271.4297528 -0.298936E-04  0.151E-02    0.01       1.0  T
  14   -271.4298030 -0.501303E-04  0.400E-03    0.01       2.1  T
  15   -271.4298058 -0.281890E-05  0.154E-03    0.01       5.3  T
  16   -271.4298062 -0.455640E-06  0.546E-04    0.01      15.0  T
  17   -271.4298063 -0.453092E-07  0.254E-04    0.01      32.4  T
     SCC iter.                  ...        0 min,  0.897 sec
     gradient                   ...        0 min,  0.227 sec
 * total energy  :  -267.0824713 Eh     change       -0.1538326E-01 Eh
   gradient norm :     0.0306859 Eh/α   predicted    -0.1509453E-01 (  -1.88%)
   displ. norm   :     0.9180470 α      lambda       -0.1570823E-01
   maximum displ.:     0.6118751 α      in ANC's #13, #20, #18, ...

........................................................................
.............................. CYCLE   20 ..............................
........................................................................
   1   -271.4599515 -0.271460E+03  0.160E-01    0.01       0.0  T
   2   -269.4560739  0.200388E+01  0.291E+00    0.00       1.0  T
   3   -269.9898106 -0.533737E+00  0.258E+00    0.04       1.0  T
   4   -271.1272044 -0.113739E+01  0.124E+00    0.02       1.0  T
   5   -271.1492806 -0.220762E-01  0.116E+00    0.02       1.0  T
   6   -271.1712059 -0.219253E-01  0.109E+00    0.03       1.0  T
   7   -271.4164415 -0.245236E+00  0.448E-01    0.00       1.0  T
   8   -271.4287560 -0.123145E-01  0.374E-01    0.00       1.0  T
   9   -271.4447904 -0.160344E-01  0.267E-01    0.00       1.0  T
  10   -271.4537965 -0.900609E-02  0.185E-01    0.00       1.0  T
  11   -271.4575014 -0.370499E-02  0.137E-01    0.00       1.0  T
  12   -271.4590553 -0.155384E-02  0.112E-01    0.00       1.0  T
  13   -271.4610601 -0.200482E-02  0.632E-02    0.01       1.0  T
  14   -271.4617391 -0.678946E-03  0.323E-02    0.01       1.0  T
  15   -271.4618492 -0.110170E-03  0.235E-02    0.01       1.0  T
  16   -271.4619279 -0.786484E-04  0.150E-02    0.01       1.0  T
  17   -271.4619797 -0.518669E-04  0.236E-03    0.01       3.5  T
  18   -271.4619794  0.322602E-06  0.262E-03    0.01       3.1  T
  19   -271.4619804 -0.100676E-05  0.148E-03    0.01       5.6  T
  20   -271.4619805 -0.744989E-07  0.125E-03    0.01       6.6  T
  21   -271.4619807 -0.206630E-06  0.794E-04    0.01      10.4  T
  22   -271.4619808 -0.615446E-07  0.604E-04    0.01      13.6  T
     SCC iter.                  ...        0 min,  1.141 sec
     gradient                   ...        0 min,  0.226 sec
 * total energy  :  -267.0970513 Eh     change       -0.1457999E-01 Eh
   gradient norm :     0.0229493 Eh/α   predicted    -0.1447365E-01 (  -0.73%)
   displ. norm   :     0.9399428 α      lambda       -0.1476888E-01
   maximum displ.:     0.6207870 α      in ANC's #13, #20, #18, ...
 * RMSD in coord.:     1.0898471 α      energy gain  -0.1091527E+01 Eh

generating ANC from model Hessian ...
Using Lindh-Hessian (1995)
 Shifting diagonal of input Hessian by    1.0006067477203173E-002
 Lowest  eigenvalues of input Hessian
    0.010000    0.010003    0.010004    0.000000    0.000000    0.000000
    0.000000    0.000000    0.000000    0.010008    0.010011    0.010013
    0.010014    0.010017    0.010068    0.010195    0.010491    0.010669
 Highest eigenvalues
    2.124598    2.126994    2.128362    2.472312    2.485339    2.493712


........................................................................
.............................. CYCLE   21 ..............................
........................................................................
   1   -271.4916698 -0.271492E+03  0.139E-01    0.01       0.0  T
   2   -270.9156807  0.575989E+00  0.159E+00    0.03       1.0  T
   3   -271.2235255 -0.307845E+00  0.110E+00    0.05       1.0  T
   4   -271.1810202  0.425053E-01  0.115E+00    0.01       1.0  T
   5   -270.4714277  0.709593E+00  0.212E+00    0.01       1.0  T
   6   -271.4248069 -0.953379E+00  0.549E-01    0.02       1.0  T
   7   -271.4594470 -0.346401E-01  0.369E-01    0.01       1.0  T
   8   -271.4870978 -0.276508E-01  0.154E-01    0.01       1.0  T
   9   -271.4821609  0.493688E-02  0.202E-01    0.01       1.0  T
  10   -271.4849864 -0.282544E-02  0.175E-01    0.01       1.0  T
  11   -271.4902062 -0.521987E-02  0.841E-02    0.01       1.0  T
  12   -271.4918339 -0.162770E-02  0.202E-02    0.01       1.0  T
  13   -271.4917275  0.106490E-03  0.277E-02    0.01       1.0  T
  14   -271.4918919 -0.164451E-03  0.108E-02    0.01       1.0  T
  15   -271.4918554  0.364961E-04  0.163E-02    0.01       1.0  T
  16   -271.4918805 -0.251121E-04  0.125E-02    0.01       1.0  T
  17   -271.4919168 -0.362594E-04  0.101E-03    0.01       8.1  T
  18   -271.4919169 -0.698021E-07  0.818E-04    0.01      10.0  T
  19   -271.4919170 -0.123453E-06  0.412E-04    0.01      19.9  T
     SCC iter.                  ...        0 min,  0.989 sec
     gradient                   ...        0 min,  0.226 sec
 * total energy  :  -267.1103315 Eh     change       -0.1328021E-01 Eh
   gradient norm :     0.0212395 Eh/α   predicted     0.0000000E+00 (-100.00%)
   displ. norm   :     0.6532870 α      lambda       -0.9589836E-02
   maximum displ.:     0.3760922 α      in ANC's #14, #18, #20, ...

........................................................................
.............................. CYCLE   22 ..............................
........................................................................
   1   -271.5140750 -0.271514E+03  0.881E-02    0.01       0.0  T
   2   -271.3599009  0.154174E+00  0.789E-01    0.01       1.0  T
   3   -271.4075708 -0.476698E-01  0.659E-01    0.00       1.0  T
   4   -270.9411972  0.466374E+00  0.161E+00    0.06       1.0  T
   5   -271.2730537 -0.331856E+00  0.106E+00    0.01       1.0  T
   6   -271.4778561 -0.204802E+00  0.409E-01    0.01       1.0  T
   7   -271.4983580 -0.205019E-01  0.257E-01    0.00       1.0  T
   8   -271.5136919 -0.153339E-01  0.469E-02    0.01       1.0  T
   9   -271.5136800  0.119836E-04  0.469E-02    0.01       1.0  T
  10   -271.5140269 -0.346955E-03  0.187E-02    0.01       1.0  T
  11   -271.5139247  0.102255E-03  0.270E-02    0.01       1.0  T
  12   -271.5140887 -0.164006E-03  0.615E-03    0.01       1.3  T
  13   -271.5140954 -0.670834E-05  0.312E-03    0.01       2.6  T
  14   -271.5140956 -0.275358E-06  0.304E-03    0.01       2.7  T
  15   -271.5140973 -0.162433E-05  0.138E-03    0.01       6.0  T
  16   -271.5140976 -0.352435E-06  0.590E-04    0.01      13.9  T
  17   -271.5140976 -0.228808E-07  0.482E-04    0.01      17.0  T
     SCC iter.                  ...        0 min,  0.884 sec
     gradient                   ...        0 min,  0.227 sec
 * total energy  :  -267.1194896 Eh     change       -0.9158112E-02 Eh
   gradient norm :     0.0160473 Eh/α   predicted    -0.6841319E-02 ( -25.30%)
   displ. norm   :     0.9107478 α      lambda       -0.1231962E-01
   maximum displ.:     0.5039098 α      in ANC's #14, #18, #20, ...

........................................................................
.............................. CYCLE   23 ..............................
........................................................................
   1   -271.5384774 -0.271538E+03  0.121E-01    0.01       0.0  T
   2   -270.7385910  0.799886E+00  0.183E+00    0.01       1.0  T
   3   -271.3291937 -0.590603E+00  0.942E-01    0.01       1.0  T
   4   -271.1609018  0.168292E+00  0.131E+00    0.04       1.0  T
   5   -271.5149212 -0.354019E+00  0.332E-01    0.02       1.0  T
   6   -270.8877720  0.627149E+00  0.166E+00    0.03       1.0  T
   7   -271.5205811 -0.632809E+00  0.278E-01    0.00       1.0  T
   8   -271.5361856 -0.156045E-01  0.113E-01    0.01       1.0  T
   9   -271.5378127 -0.162702E-02  0.658E-02    0.01       1.0  T
  10   -271.5384515 -0.638845E-03  0.363E-02    0.01       1.0  T
  11   -271.5385087 -0.572029E-04  0.265E-02    0.01       1.0  T
  12   -271.5385186 -0.994319E-05  0.212E-02    0.01       1.0  T
  13   -271.5385357 -0.170288E-04  0.169E-02    0.01       1.0  T
  14   -271.5385756 -0.399463E-04  0.982E-03    0.01       1.0  T
  15   -271.5385836 -0.802858E-05  0.777E-03    0.01       1.1  T
  16   -271.5385919 -0.822079E-05  0.469E-03    0.01       1.8  T
  17   -271.5385952 -0.329852E-05  0.238E-03    0.01       3.5  T
  18   -271.5385959 -0.757668E-06  0.146E-03    0.01       5.6  T
  19   -271.5385964 -0.462197E-06  0.491E-04    0.01      16.7  T
  20   -271.5385964 -0.207793E-07  0.356E-04    0.01      23.1  T
     SCC iter.                  ...        0 min,  1.038 sec
     gradient                   ...        0 min,  0.227 sec
 * total energy  :  -267.1312023 Eh     change       -0.1171272E-01 Eh
   gradient norm :     0.0136032 Eh/α   predicted    -0.1126913E-01 (  -3.79%)
   displ. norm   :     0.9380437 α      lambda       -0.1159442E-01
   maximum displ.:     0.5284253 α      in ANC's #14, #18, #20, ...

........................................................................
.............................. CYCLE   24 ..............................
........................................................................
   1   -271.5604428 -0.271560E+03  0.117E-01    0.01       0.0  T
   2   -271.1553951  0.405048E+00  0.130E+00    0.00       1.0  T
   3   -271.3998769 -0.244482E+00  0.821E-01    0.01       1.0  T
   4   -270.9416014  0.458275E+00  0.168E+00    0.01       1.0  T
   5   -270.2355945  0.706007E+00  0.243E+00    0.04       1.0  T
   6   -271.5274721 -0.129188E+01  0.388E-01    0.02       1.0  T
   7   -271.4882326  0.392394E-01  0.545E-01    0.00       1.0  T
   8   -271.5536611 -0.654285E-01  0.184E-01    0.01       1.0  T
   9   -271.5578823 -0.422125E-02  0.118E-01    0.01       1.0  T
  10   -271.5578996 -0.172236E-04  0.115E-01    0.01       1.0  T
  11   -271.5592527 -0.135314E-02  0.757E-02    0.01       1.0  T
  12   -271.5600861 -0.833458E-03  0.431E-02    0.01       1.0  T
  13   -271.5604524 -0.366237E-03  0.187E-02    0.01       1.0  T
  14   -271.5604563 -0.395189E-05  0.163E-02    0.01       1.0  T
  15   -271.5605016 -0.452952E-04  0.820E-03    0.01       1.0  T
  16   -271.5604781  0.235085E-04  0.122E-02    0.01       1.0  T
  17   -271.5604797 -0.162275E-05  0.113E-02    0.01       1.0  T
  18   -271.5604936 -0.138754E-04  0.775E-03    0.01       1.1  T
  19   -271.5605051 -0.114849E-04  0.350E-03    0.01       2.3  T
  20   -271.5605067 -0.157136E-05  0.214E-03    0.01       3.8  T
  21   -271.5605077 -0.101895E-05  0.189E-04    0.01      43.5  T
  22   -271.5605077  0.454124E-07  0.455E-04    0.01      18.1  T
  23   -271.5605077 -0.393890E-07  0.213E-04    0.01      38.6  T
     SCC iter.                  ...        0 min,  1.193 sec
     gradient                   ...        0 min,  0.227 sec
 * total energy  :  -267.1422648 Eh     change       -0.1106250E-01 Eh
   gradient norm :     0.0136674 Eh/α   predicted    -0.1089838E-01 (  -1.48%)
   displ. norm   :     0.9439921 α      lambda       -0.1080134E-01
   maximum displ.:     0.5412832 α      in ANC's #14, #18, #20, ...

........................................................................
.............................. CYCLE   25 ..............................
........................................................................
   1   -271.5833749 -0.271583E+03  0.112E-01    0.01       0.0  T
   2   -271.4816725  0.101702E+00  0.644E-01    0.02       1.0  T
   3   -271.3130776  0.168595E+00  0.105E+00    0.02       1.0  T
   4   -270.4826636  0.830414E+00  0.221E+00    0.01       1.0  T
   5   -270.9265120 -0.443848E+00  0.175E+00    0.00       1.0  T
   6   -271.5413808 -0.614869E+00  0.432E-01    0.02       1.0  T
   7   -271.5545685 -0.131877E-01  0.354E-01    0.00       1.0  T
   8   -271.5726193 -0.180508E-01  0.206E-01    0.00       1.0  T
   9   -271.5820146 -0.939535E-02  0.832E-02    0.01       1.0  T
  10   -271.5830245 -0.100989E-02  0.427E-02    0.01       1.0  T
  11   -271.5827946  0.229904E-03  0.491E-02    0.01       1.0  T
  12   -271.5831072 -0.312585E-03  0.339E-02    0.01       1.0  T
  13   -271.5833250 -0.217802E-03  0.175E-02    0.01       1.0  T
  14   -271.5833618 -0.368133E-04  0.125E-02    0.01       1.0  T
  15   -271.5833916 -0.297536E-04  0.489E-03    0.01       1.7  T
  16   -271.5833958 -0.428795E-05  0.208E-03    0.01       3.9  T
  17   -271.5833964 -0.525128E-06  0.145E-03    0.01       5.7  T
  18   -271.5833966 -0.258005E-06  0.969E-04    0.01       8.5  T
  19   -271.5833968 -0.177675E-06  0.407E-04    0.01      20.2  T
     SCC iter.                  ...        0 min,  0.988 sec
     gradient                   ...        0 min,  0.229 sec
 * total energy  :  -267.1525592 Eh     change       -0.1029435E-01 Eh
   gradient norm :     0.0127468 Eh/α   predicted    -0.1021337E-01 (  -0.79%)
   displ. norm   :     0.9465570 α      lambda       -0.1005249E-01
   maximum displ.:     0.5503607 α      in ANC's #14, #18, #20, ...

........................................................................
.............................. CYCLE   26 ..............................
........................................................................
   1   -271.6063389 -0.271606E+03  0.108E-01    0.01       0.0  T
   2   -271.5922435  0.140954E-01  0.248E-01    0.00       1.0  T
   3   -271.0677363  0.524507E+00  0.146E+00    0.04       1.0  T
   4   -270.9804203  0.873161E-01  0.172E+00    0.03       1.0  T
   5   -271.3351932 -0.354773E+00  0.109E+00    0.02       1.0  T
   6   -271.5809099 -0.245717E+00  0.335E-01    0.01       1.0  T
   7   -271.6028536 -0.219437E-01  0.123E-01    0.00       1.0  T
   8   -271.6042033 -0.134971E-02  0.940E-02    0.01       1.0  T
   9   -271.6061788 -0.197554E-02  0.285E-02    0.01       1.0  T
  10   -271.6062729 -0.940919E-04  0.183E-02    0.01       1.0  T
  11   -271.6062795 -0.655097E-05  0.177E-02    0.01       1.0  T
  12   -271.6063413 -0.618750E-04  0.665E-03    0.01       1.2  T
  13   -271.6063496 -0.823526E-05  0.226E-03    0.01       3.6  T
  14   -271.6063496  0.597129E-08  0.223E-03    0.01       3.7  T
  15   -271.6063507 -0.113827E-05  0.594E-04    0.01      13.8  T
  16   -271.6063507 -0.316679E-07  0.432E-04    0.01      19.0  T
  17   -271.6063507  0.221594E-07  0.505E-04    0.01      16.3  T
     SCC iter.                  ...        0 min,  0.882 sec
     gradient                   ...        0 min,  0.228 sec
 * total energy  :  -267.1620992 Eh     change       -0.9540056E-02 Eh
   gradient norm :     0.0111695 Eh/α   predicted    -0.9529669E-02 (  -0.11%)
   displ. norm   :     0.9468209 α      lambda       -0.9268580E-02
   maximum displ.:     0.5571631 α      in ANC's #14, #18, #20, ...

........................................................................
.............................. CYCLE   27 ..............................
........................................................................
   1   -271.6284206 -0.271628E+03  0.105E-01    0.01       0.0  T
   2   -271.6126488  0.157718E-01  0.274E-01    0.02       1.0  T
   3   -271.4614779  0.151171E+00  0.849E-01    0.02       1.0  T
   4   -269.8012328  0.166025E+01  0.275E+00    0.00       1.0  T
   5   -271.4158377 -0.161460E+01  0.961E-01    0.02       1.0  T
   6   -271.6081371 -0.192299E+00  0.301E-01    0.01       1.0  T
   7   -271.5788748  0.292623E-01  0.442E-01    0.00       1.0  T
   8   -271.6261106 -0.472358E-01  0.101E-01    0.01       1.0  T
   9   -271.6278692 -0.175868E-02  0.503E-02    0.01       1.0  T
  10   -271.6283517 -0.482476E-03  0.190E-02    0.01       1.0  T
  11   -271.6283765 -0.247826E-04  0.156E-02    0.01       1.0  T
  12   -271.6284216 -0.450715E-04  0.682E-03    0.01       1.2  T
  13   -271.6284283 -0.675411E-05  0.442E-03    0.01       1.9  T
  14   -271.6284329 -0.453605E-05  0.621E-04    0.01      13.2  T
  15   -271.6284329 -0.474114E-07  0.373E-04    0.01      22.0  T
  16   -271.6284329 -0.878771E-08  0.313E-04    0.01      26.3  T
     SCC iter.                  ...        0 min,  0.831 sec
     gradient                   ...        0 min,  0.229 sec
 * total energy  :  -267.1708946 Eh     change       -0.8795340E-02 Eh
   gradient norm :     0.0100052 Eh/α   predicted    -0.8788795E-02 (  -0.07%)
   displ. norm   :     0.9454604 α      lambda       -0.8470616E-02
   maximum displ.:     0.5614781 α      in ANC's #14, #18, #20, ...

........................................................................
.............................. CYCLE   28 ..............................
........................................................................
   1   -271.6494170 -0.271649E+03  0.101E-01    0.01       0.0  T
   2   -271.6296975  0.197195E-01  0.303E-01    0.02       1.0  T
[...]
  17: 20.94  18:  1.88  19: 53.63  20:  2.52  21: 67.22  22: 32.36  23: 44.77  24: 13.86
  25: 46.47  26: 26.74  27: 10.59  28:182.60  29:  0.23  30:  8.75  31: 32.03  32: 22.02
  33: 18.22  34: 18.54  35:  4.11  36: 58.59  37: 53.73  38:215.57  39:  0.14  40:  9.54
  41: 88.00  42: 11.49  43: 26.04  44:  1.86  45:313.74  46: 16.09  47: 14.48  48:249.20
  49:  0.04  50: 28.94  51: 42.18  52: 56.12  53: 44.11  54:  0.20  55: 15.25  56:131.43
  57: 12.10  58:  0.47  59: 50.43  60:105.80  61: 21.29  62:  1.50  63: 96.92  64:438.30
  65:  4.92  66:505.96  67:  0.34  68: 21.27  69:302.54  70:  6.49  71:664.30  72: 20.12
  73:  0.48  74:523.92  75:212.54  76: 61.71  77: 33.67  78:  4.77  79:945.75  80: 25.61
  81: 32.32  82: 48.06  83:169.61  84: 14.14  85:  7.20  86:215.36  87:  0.79  88:  8.84
  89:376.20  90:118.22  91:  4.84  92:131.96  93:214.48  94: 17.44  95:101.62  96:******
  97:529.69  98:922.71  99: 44.01 100:309.31 101:****** 102:146.87 103:  3.89 104:  0.78
 105:494.27 106: 13.22 107: 24.52 108: 70.84 109:  3.76 110:  5.38 111:****** 112: 34.78
 113:  9.56 114:  9.64 115: 70.33 116:  9.84 117:****** 118:333.09 119:****** 120: 12.43
 121:  4.60 122: 13.49 123: 63.02 124: 81.91 125:  2.72 126: 18.37 127: 20.35 128: 59.79
 129:  3.06 130:  0.09 131: 31.72 132:  2.32 133: 53.57 134: 21.64 135: 71.62 136:  2.68
 137:125.76 138: 24.16 139:****** 140:530.78 141:849.88 142: 20.29 143:  0.12 144: 71.63
 145: 77.29 146: 57.19 147: 41.08 148: 41.54 149:338.55 150: 94.77 151:  2.85 152:  6.85
 153:  4.95 154: 20.47 155:  2.11 156:192.43 157: 52.93 158: 34.36 159:  8.59 160:******
 161:  0.17 162: 47.01 163: 65.79 164:249.56 165:299.62 166:226.97 167:  8.11 168: 26.00
 169: 26.87 170: 22.61 171: 28.54 172:****** 173:237.45 174: 70.79 175:132.80 176: 24.28
 177: 70.08 178: 60.26 179: 27.06 180:  3.18 181:  3.64 182: 77.75 183:501.43 184: 15.85
 185:108.86 186:118.22 187:  9.85 188:  3.41 189:  0.60 190:736.61 191:****** 192: 42.06
 193: 60.72 194: 17.42 195:****** 196:423.23 197: 83.25 198: 45.88 199:  4.79 200: 65.26
 201:  3.59 202:  7.32 203:  8.18 204: 18.52 205: 41.57 206: 75.49 207: 20.86 208:  8.53
 209: 92.43 210: 24.04 211: 20.18 212:156.76 213:  4.34 214:****** 215:****** 216:190.35
 217:475.16 218:194.66 219: 10.56 220:****** 221:272.06 222:****** 223: 45.15 224:297.11
 225:  6.36 226:893.88 227:  1.24 228:145.41 229: 22.10 230: 20.62 231:230.49 232: 55.57
 233: 15.38 234:150.28 235:****** 236:  1.54 237:  2.80 238:  3.25 239: 81.35 240:  8.84
 241:****** 242: 27.20 243:****** 244:405.75 245:****** 246:****** 247:137.07 248: 28.91
 249:352.85 250:  9.37 251:821.50 252:  7.51 253:146.72 254: 35.03 255:  9.98 256: 49.69
 257: 17.48 258:  0.82 259: 10.09 260: 88.61 261:126.84 262: 95.16 263: 15.80 264:  5.99
 265: 17.02 266:  0.23 267:942.44 268:  2.10 269:  5.70 270:  9.96 271:118.75 272:758.01
 273: 18.75 274:395.13 275: 20.46 276:136.28 277:  6.88 278: 30.93 279:  5.91 280:  1.24
 281:114.62 282:168.64 283: 63.32 284:  5.51 285:****** 286:****** 287:171.00 288:  2.32
 289:****** 290: 22.79 291:****** 292:  1.40 293:100.75 294: 75.95 295:****** 296: 51.92
 297:  8.56 298:  9.79 299:****** 300: 34.41 301:349.45 302: 11.45 303:****** 304:103.07
 305:  0.28 306: 22.60 307:  6.13 308:185.94 309:122.13 310:114.92 311:818.69 312:  4.74
 313:  1.95 314:  0.02 315: 80.48 316: 26.62 317:156.99 318: 32.92 319:****** 320:  4.24
 321:107.26 322: 22.78 323: 60.11 324:180.85 325: 33.90 326: 38.01 327: 27.78 328:  1.89
 329:  4.49 330:  5.50 331:949.51 332: 96.82 333: 10.47 334: 39.96 335: 59.89 336:564.19
 337:359.98 338: 19.04 339: 60.83 340: 40.22 341: 17.27 342: 46.88 343: 19.59 344:297.20
 345:356.38 346:573.25 347: 80.85 348: 54.87 349: 36.80 350: 19.28 351:753.81 352: 17.27
 353: 59.94 354: 15.39 355:  3.62 356:  1.50 357: 57.90 358:177.30 359:****** 360:  6.01
 361:  0.03 362: 51.01 363:  9.97 364: 27.61 365: 36.88 366:100.77 367: 17.95 368:******
 369: 13.80 370: 80.45 371:154.50 372: 25.59 373:  9.81 374:104.12 375: 51.02 376: 32.35
 377: 14.50 378:117.03 379: 31.54 380: 27.96 381:968.94 382:201.60 383: 55.37 384:282.57
 385:  1.28 386: 45.50 387:893.44 388:310.77 389:****** 390:  1.84 391:186.48 392:******
 393:135.88 394:626.36 395:130.42 396:234.03 397:108.70 398:119.15 399:  5.50 400: 35.01
 401: 22.73 402: 83.77 403:226.14 404: 17.08 405: 85.98 406:139.87 407:****** 408:******
 409:****** 410:657.13 411:****** 412:996.13 413: 36.31 414: 65.27 415:519.51 416:651.06
 417:****** 418:164.79 419: 26.73 420:790.00 421:654.78 422:****** 423:161.86 424:  3.03
 425:****** 426:****** 427:****** 428:****** 429:190.61 430: 78.59 431:936.26 432:124.24
 433:****** 434:923.09 435:741.57 436:****** 437:****** 438:507.38 439: 67.30 440:448.70
 441:114.54 442:****** 443:****** 444:******
 Raman intensities (amu)
   1:  0.00   2:  0.00   3:  0.00   4:  0.00   5:  0.00   6:  0.00   7:  0.00   8:  0.00
   9:  0.00  10:  0.00  11:  0.00  12:  0.00  13:  0.00  14:  0.00  15:  0.00  16:  0.00
  17:  0.00  18:  0.00  19:  0.00  20:  0.00  21:  0.00  22:  0.00  23:  0.00  24:  0.00
  25:  0.00  26:  0.00  27:  0.00  28:  0.00  29:  0.00  30:  0.00  31:  0.00  32:  0.00
  33:  0.00  34:  0.00  35:  0.00  36:  0.00  37:  0.00  38:  0.00  39:  0.00  40:  0.00
  41:  0.00  42:  0.00  43:  0.00  44:  0.00  45:  0.00  46:  0.00  47:  0.00  48:  0.00
  49:  0.00  50:  0.00  51:  0.00  52:  0.00  53:  0.00  54:  0.00  55:  0.00  56:  0.00
  57:  0.00  58:  0.00  59:  0.00  60:  0.00  61:  0.00  62:  0.00  63:  0.00  64:  0.00
  65:  0.00  66:  0.00  67:  0.00  68:  0.00  69:  0.00  70:  0.00  71:  0.00  72:  0.00
  73:  0.00  74:  0.00  75:  0.00  76:  0.00  77:  0.00  78:  0.00  79:  0.00  80:  0.00
  81:  0.00  82:  0.00  83:  0.00  84:  0.00  85:  0.00  86:  0.00  87:  0.00  88:  0.00
  89:  0.00  90:  0.00  91:  0.00  92:  0.00  93:  0.00  94:  0.00  95:  0.00  96:  0.00
  97:  0.00  98:  0.00  99:  0.00 100:  0.00 101:  0.00 102:  0.00 103:  0.00 104:  0.00
 105:  0.00 106:  0.00 107:  0.00 108:  0.00 109:  0.00 110:  0.00 111:  0.00 112:  0.00
 113:  0.00 114:  0.00 115:  0.00 116:  0.00 117:  0.00 118:  0.00 119:  0.00 120:  0.00
 121:  0.00 122:  0.00 123:  0.00 124:  0.00 125:  0.00 126:  0.00 127:  0.00 128:  0.00
 129:  0.00 130:  0.00 131:  0.00 132:  0.00 133:  0.00 134:  0.00 135:  0.00 136:  0.00
 137:  0.00 138:  0.00 139:  0.00 140:  0.00 141:  0.00 142:  0.00 143:  0.00 144:  0.00
 145:  0.00 146:  0.00 147:  0.00 148:  0.00 149:  0.00 150:  0.00 151:  0.00 152:  0.00
 153:  0.00 154:  0.00 155:  0.00 156:  0.00 157:  0.00 158:  0.00 159:  0.00 160:  0.00
 161:  0.00 162:  0.00 163:  0.00 164:  0.00 165:  0.00 166:  0.00 167:  0.00 168:  0.00
 169:  0.00 170:  0.00 171:  0.00 172:  0.00 173:  0.00 174:  0.00 175:  0.00 176:  0.00
 177:  0.00 178:  0.00 179:  0.00 180:  0.00 181:  0.00 182:  0.00 183:  0.00 184:  0.00
 185:  0.00 186:  0.00 187:  0.00 188:  0.00 189:  0.00 190:  0.00 191:  0.00 192:  0.00
 193:  0.00 194:  0.00 195:  0.00 196:  0.00 197:  0.00 198:  0.00 199:  0.00 200:  0.00
 201:  0.00 202:  0.00 203:  0.00 204:  0.00 205:  0.00 206:  0.00 207:  0.00 208:  0.00
 209:  0.00 210:  0.00 211:  0.00 212:  0.00 213:  0.00 214:  0.00 215:  0.00 216:  0.00
 217:  0.00 218:  0.00 219:  0.00 220:  0.00 221:  0.00 222:  0.00 223:  0.00 224:  0.00
 225:  0.00 226:  0.00 227:  0.00 228:  0.00 229:  0.00 230:  0.00 231:  0.00 232:  0.00
 233:  0.00 234:  0.00 235:  0.00 236:  0.00 237:  0.00 238:  0.00 239:  0.00 240:  0.00
 241:  0.00 242:  0.00 243:  0.00 244:  0.00 245:  0.00 246:  0.00 247:  0.00 248:  0.00
 249:  0.00 250:  0.00 251:  0.00 252:  0.00 253:  0.00 254:  0.00 255:  0.00 256:  0.00
 257:  0.00 258:  0.00 259:  0.00 260:  0.00 261:  0.00 262:  0.00 263:  0.00 264:  0.00
 265:  0.00 266:  0.00 267:  0.00 268:  0.00 269:  0.00 270:  0.00 271:  0.00 272:  0.00
 273:  0.00 274:  0.00 275:  0.00 276:  0.00 277:  0.00 278:  0.00 279:  0.00 280:  0.00
 281:  0.00 282:  0.00 283:  0.00 284:  0.00 285:  0.00 286:  0.00 287:  0.00 288:  0.00
 289:  0.00 290:  0.00 291:  0.00 292:  0.00 293:  0.00 294:  0.00 295:  0.00 296:  0.00
 297:  0.00 298:  0.00 299:  0.00 300:  0.00 301:  0.00 302:  0.00 303:  0.00 304:  0.00
 305:  0.00 306:  0.00 307:  0.00 308:  0.00 309:  0.00 310:  0.00 311:  0.00 312:  0.00
 313:  0.00 314:  0.00 315:  0.00 316:  0.00 317:  0.00 318:  0.00 319:  0.00 320:  0.00
 321:  0.00 322:  0.00 323:  0.00 324:  0.00 325:  0.00 326:  0.00 327:  0.00 328:  0.00
 329:  0.00 330:  0.00 331:  0.00 332:  0.00 333:  0.00 334:  0.00 335:  0.00 336:  0.00
 337:  0.00 338:  0.00 339:  0.00 340:  0.00 341:  0.00 342:  0.00 343:  0.00 344:  0.00
 345:  0.00 346:  0.00 347:  0.00 348:  0.00 349:  0.00 350:  0.00 351:  0.00 352:  0.00
Refinement of some symmetry elements was terminated before convergence was reached.
Some symmetry elements may remain unidentified.
Molecule has no symmetry elements
It seems to be the C1 point group
 353:  0.00 354:  0.00 355:  0.00 356:  0.00 357:  0.00 358:  0.00 359:  0.00 360:  0.00
 361:  0.00 362:  0.00 363:  0.00 364:  0.00 365:  0.00 366:  0.00 367:  0.00 368:  0.00
 369:  0.00 370:  0.00 371:  0.00 372:  0.00 373:  0.00 374:  0.00 375:  0.00 376:  0.00
 377:  0.00 378:  0.00 379:  0.00 380:  0.00 381:  0.00 382:  0.00 383:  0.00 384:  0.00
 385:  0.00 386:  0.00 387:  0.00 388:  0.00 389:  0.00 390:  0.00 391:  0.00 392:  0.00
 393:  0.00 394:  0.00 395:  0.00 396:  0.00 397:  0.00 398:  0.00 399:  0.00 400:  0.00
 401:  0.00 402:  0.00 403:  0.00 404:  0.00 405:  0.00 406:  0.00 407:  0.00 408:  0.00
 409:  0.00 410:  0.00 411:  0.00 412:  0.00 413:  0.00 414:  0.00 415:  0.00 416:  0.00
 417:  0.00 418:  0.00 419:  0.00 420:  0.00 421:  0.00 422:  0.00 423:  0.00 424:  0.00
 425:  0.00 426:  0.00 427:  0.00 428:  0.00 429:  0.00 430:  0.00 431:  0.00 432:  0.00
 433:  0.00 434:  0.00 435:  0.00 436:  0.00 437:  0.00 438:  0.00 439:  0.00 440:  0.00
 441:  0.00 442:  0.00 443:  0.00 444:  0.00
 output can be read by thermo (or use thermo option).
 writing <g98.out> molden fake output.
 recommended (thermochemical) frequency scaling factor: 1.0
           -------------------------------------------------
          |             Thermodynamic Functions             |
           -------------------------------------------------

c1  symmetry found (for desy threshold:  0.10E+00) used in thermo
 inverting freq            1   4.7695197397210087     
 inverting freq            2   2.4671157958489407     

          ...................................................
          :                      SETUP                      :
          :.................................................:
          :  # frequencies                         438      :
          :  # imaginary freq.                       0      :
          :  linear?                             false      :
          :  only rotor calc.                    false      :
          :  symmetry                               c1      :
          :  rotational number                       1      :
          :  scaling factor                  1.0000000      :
          :  rotor cutoff                   50.0000000 cm⁻¹ :
          :  imag. cutoff                  -20.0000000 cm⁻¹ :
          :.................................................:

    mode    ω/cm⁻¹     T·S(HO)/kcal·mol⁻¹    T·S(FR)/kcal·mol⁻¹   T·S(vib)
   ------------------------------------------------------------------------
       1      4.77    -2.82709 (  0.01%)    -1.75265 ( 99.99%)    -1.75274
       2      2.47    -3.21764 (  0.00%)    -1.94792 (100.00%)    -1.94793
       3      3.98    -2.93464 (  0.00%)    -1.80642 (100.00%)    -1.80647
       4      4.43    -2.87091 (  0.01%)    -1.77456 ( 99.99%)    -1.77462
       5      7.91    -2.52758 (  0.06%)    -1.60288 ( 99.94%)    -1.60346
       6      8.23    -2.50358 (  0.07%)    -1.59089 ( 99.93%)    -1.59156
       7     10.33    -2.36948 (  0.18%)    -1.52382 ( 99.82%)    -1.52536
       8     12.62    -2.25079 (  0.40%)    -1.46446 ( 99.60%)    -1.46764
       9     13.95    -2.19124 (  0.60%)    -1.43468 ( 99.40%)    -1.43924
      10     19.73    -1.98588 (  2.37%)    -1.33195 ( 97.63%)    -1.34744
      11     21.18    -1.94414 (  3.12%)    -1.31106 ( 96.88%)    -1.33079
      12     26.81    -1.80450 (  7.64%)    -1.24116 ( 92.36%)    -1.28418
      13     29.35    -1.75104 ( 10.61%)    -1.21439 ( 89.39%)    -1.27133
      14     29.90    -1.73993 ( 11.34%)    -1.20882 ( 88.66%)    -1.26907
      15     31.92    -1.70138 ( 14.24%)    -1.18951 ( 85.76%)    -1.26241
      16     35.71    -1.63505 ( 20.64%)    -1.15628 ( 79.36%)    -1.25511
      17     35.72    -1.63493 ( 20.66%)    -1.15622 ( 79.34%)    -1.25510
      18     48.02    -1.46013 ( 45.97%)    -1.06852 ( 54.03%)    -1.24854
      19     49.20    -1.44587 ( 48.38%)    -1.06136 ( 51.62%)    -1.24738
      20     57.69    -1.35201 ( 63.93%)    -1.01417 ( 36.07%)    -1.23015
      21     62.21    -1.30762 ( 70.56%)    -0.99182 ( 29.44%)    -1.21464
      22     67.31    -1.26136 ( 76.66%)    -0.96850 ( 23.34%)    -1.19299
      23     70.08    -1.23765 ( 79.42%)    -0.95653 ( 20.58%)    -1.17980
      24     75.46    -1.19428 ( 83.84%)    -0.93463 ( 16.16%)    -1.15232
      25     82.92    -1.13906 ( 88.33%)    -0.90668 ( 11.67%)    -1.11193
      26     98.15    -1.04075 ( 93.69%)    -0.85674 (  6.31%)    -1.02914
      27    101.11    -1.02351 ( 94.36%)    -0.84795 (  5.64%)    -1.01360
      28    102.98    -1.01286 ( 94.73%)    -0.84252 (  5.27%)    -1.00389
      29    108.86    -0.98068 ( 95.74%)    -0.82607 (  4.26%)    -0.97409
      30    110.88    -0.97001 ( 96.03%)    -0.82061 (  3.97%)    -0.96408
      31    119.14    -0.92854 ( 96.99%)    -0.79934 (  3.01%)    -0.92466
      32    121.17    -0.91879 ( 97.18%)    -0.79433 (  2.82%)    -0.91528
      33    121.41    -0.91767 ( 97.20%)    -0.79375 (  2.80%)    -0.91420
      34    123.06    -0.90987 ( 97.35%)    -0.78974 (  2.65%)    -0.90669
      35    125.26    -0.89967 ( 97.52%)    -0.78448 (  2.48%)    -0.89682
      36    130.65    -0.87550 ( 97.90%)    -0.77201 (  2.10%)    -0.87333
      37    135.71    -0.85373 ( 98.19%)    -0.76075 (  1.81%)    -0.85205
      38    144.88    -0.81644 ( 98.60%)    -0.74138 (  1.40%)    -0.81539
      39    187.37    -0.67194 ( 99.50%)    -0.66520 (  0.50%)    -0.67191
      40    191.08    -0.66109 ( 99.53%)    -0.65938 (  0.47%)    -0.66108
      41    191.72    -0.65926 ( 99.54%)    -0.65840 (  0.46%)    -0.65925
      42    193.99    -0.65275 ( 99.56%)    -0.65491 (  0.44%)    -0.65276
      43    194.04    -0.65262 ( 99.56%)    -0.65483 (  0.44%)    -0.65263
      44    207.21    -0.61661 ( 99.66%)    -0.63538 (  0.34%)    -0.61667
      45    211.96    -0.60426 ( 99.69%)    -0.62866 (  0.31%)    -0.60434
      46    214.43    -0.59797 ( 99.71%)    -0.62523 (  0.29%)    -0.59805
      47    217.55    -0.59015 ( 99.72%)    -0.62095 (  0.28%)    -0.59024
      48    223.61    -0.57534 ( 99.75%)    -0.61282 (  0.25%)    -0.57543
      49    224.65    -0.57283 ( 99.76%)    -0.61144 (  0.24%)    -0.57292
      50    224.90    -0.57225 ( 99.76%)    -0.61112 (  0.24%)    -0.57234
      51    226.20    -0.56913 ( 99.76%)    -0.60940 (  0.24%)    -0.56923
      52    229.66    -0.56100 ( 99.78%)    -0.60491 (  0.22%)    -0.56110
      53    230.76    -0.55845 ( 99.78%)    -0.60350 (  0.22%)    -0.55855
      54    238.04    -0.54187 ( 99.81%)    -0.59428 (  0.19%)    -0.54197
      55    241.51    -0.53421 ( 99.82%)    -0.59001 (  0.18%)    -0.53431
      56    244.20    -0.52835 ( 99.82%)    -0.58672 (  0.18%)    -0.52845
      57    245.10    -0.52641 ( 99.83%)    -0.58564 (  0.17%)    -0.52651
      58    247.04    -0.52223 ( 99.83%)    -0.58329 (  0.17%)    -0.52234
      59    247.21    -0.52188 ( 99.83%)    -0.58309 (  0.17%)    -0.52198
      60    249.06    -0.51795 ( 99.84%)    -0.58088 (  0.16%)    -0.51806
      61    250.47    -0.51498 ( 99.84%)    -0.57921 (  0.16%)    -0.51508
      62    250.64    -0.51463 ( 99.84%)    -0.57901 (  0.16%)    -0.51473
      63    250.89    -0.51411 ( 99.84%)    -0.57871 (  0.16%)    -0.51421
      64    251.44    -0.51296 ( 99.84%)    -0.57807 (  0.16%)    -0.51306
      65    251.69    -0.51243 ( 99.84%)    -0.57777 (  0.16%)    -0.51254
      66    267.39    -0.48092 ( 99.88%)    -0.55984 (  0.12%)    -0.48101
      67    267.51    -0.48068 ( 99.88%)    -0.55971 (  0.12%)    -0.48078
      68    269.53    -0.47681 ( 99.88%)    -0.55749 (  0.12%)    -0.47691
      69    269.96    -0.47598 ( 99.88%)    -0.55701 (  0.12%)    -0.47607
      70    272.30    -0.47155 ( 99.89%)    -0.55446 (  0.11%)    -0.47164
      71    272.42    -0.47132 ( 99.89%)    -0.55432 (  0.11%)    -0.47141
      72    273.83    -0.46867 ( 99.89%)    -0.55280 (  0.11%)    -0.46876
      73    273.96    -0.46843 ( 99.89%)    -0.55266 (  0.11%)    -0.46852
      74    282.16    -0.45335 ( 99.90%)    -0.54392 (  0.10%)    -0.45344
      75    283.94    -0.45015 ( 99.90%)    -0.54205 (  0.10%)    -0.45024
      76    284.93    -0.44838 ( 99.91%)    -0.54102 (  0.09%)    -0.44847
      77    285.32    -0.44769 ( 99.91%)    -0.54062 (  0.09%)    -0.44778
   ------------------------------------------------------------------------

   temp. (K)  partition function   enthalpy   heat capacity  entropy
                                   cal/mol     cal/K/mol   cal/K/mol   J/K/mol
 298.15  VIB  0.584E+42            49987.136    329.238    313.210
         ROT  0.152E+10              888.752      2.981     44.999
         INT  0.890E+51            50875.888    332.219    358.210
         TR   0.582E+29             1481.254      4.968     47.837
         TOT                       52357.1421   337.1872   406.0469  1698.9004

       T/K    H(0)-H(T)+PV         H(T)/Eh          T*S/Eh         G(T)/Eh
   ------------------------------------------------------------------------
    298.15    0.834364E-01    0.111544E+01    0.192926E+00    0.922519E+00
   ------------------------------------------------------------------------

         :::::::::::::::::::::::::::::::::::::::::::::::::::::
         ::                  THERMODYNAMIC                  ::
         :::::::::::::::::::::::::::::::::::::::::::::::::::::
         :: total free energy        -266.302821519691 Eh   ::
         ::.................................................::
         :: total energy             -267.225340429849 Eh   ::
         :: zero point energy           1.032008492136 Eh   ::
         :: G(RRHO) w/o ZPVE           -0.109489581978 Eh   ::
         :: G(RRHO) contrib.            0.922518910157 Eh   ::
         :::::::::::::::::::::::::::::::::::::::::::::::::::::

optimized geometry written to: xtbopt.xyz


           -------------------------------------------------
          | TOTAL ENERGY             -267.225340429849 Eh   |
          | TOTAL ENTHALPY           -266.109895520761 Eh   |
          | TOTAL FREE ENERGY        -266.302821519691 Eh   |
          | GRADIENT NORM               0.000507991326 Eh/α |
          | HOMO-LUMO GAP               0.004259363490 eV   |
           -------------------------------------------------

------------------------------------------------------------------------
 * finished run on 2021/11/19 at 12:45:41.145     
------------------------------------------------------------------------
 total:
 * wall-time:     0 d,  0 h, 17 min, 28.526 sec
 *  cpu-time:     0 d,  0 h, 17 min, 28.531 sec
 * ratio c/w:     1.000 speedup
 SCF:
 * wall-time:     0 d,  0 h,  0 min,  5.107 sec
 *  cpu-time:     0 d,  0 h,  0 min,  5.107 sec
 * ratio c/w:     1.000 speedup
 ANC optimizer:
 * wall-time:     0 d,  0 h,  2 min, 39.142 sec
 *  cpu-time:     0 d,  0 h,  2 min, 39.137 sec
 * ratio c/w:     1.000 speedup
 analytical hessian:
 * wall-time:     0 d,  0 h, 12 min, 40.669 sec
 *  cpu-time:     0 d,  0 h, 12 min, 40.677 sec
 * ratio c/w:     1.000 speedup

