148
 energy: -266.005524225393 gnorm: 0.720896270666 xtb: 6.4.1 (bd6e46d)
Co       24.39195800000000    0.04122900000000   -0.01254500000000
C        26.72094900000000   -3.10556400000000    1.31014400000000
C        27.63705700000000   -2.16135600000000    1.25986200000000
C        27.22587700000000   -1.10745200000000    0.33857000000000
C        27.84474800000000    0.01689400000000   -0.00784000000000
C        27.14070500000000    1.23684200000000   -0.37194500000000
C        27.46881600000000    2.19689700000000   -1.21941900000000
C        26.43403600000000    3.21318200000000   -1.23631600000000
C        25.49776800000000    2.83672000000000   -0.38942500000000
N        25.89975800000000    1.60370900000000    0.17439200000000
C        24.23669400000000    3.48172000000000   -0.01027300000000
C        23.14147700000000    2.84693700000000    0.34048700000000
C        22.06785100000000    3.16489300000000    1.30951500000000
C        21.23028800000000    2.16813900000000    1.23234900000000
C        21.66858600000000    1.16445600000000    0.25189700000000
N        22.77352400000000    1.60330900000000   -0.23239500000000
C        21.05775100000000   -0.08881500000000   -0.16165100000000
C        21.72191100000000   -1.19332100000000   -0.41607600000000
C        21.34806300000000   -2.25626300000000   -1.37360300000000
C        22.29681000000000   -3.15001900000000   -1.28458400000000
C        23.28253400000000   -2.71256900000000   -0.30170600000000
N        22.92948800000000   -1.56676400000000    0.19509100000000
C        24.51342200000000   -3.36863900000000    0.14401500000000
C        25.63646300000000   -2.72277800000000    0.41113600000000
N        25.96506300000000   -1.47533700000000   -0.18726700000000
H        26.78121100000000   -4.01534400000000    1.92769100000000
H        28.55338400000000   -2.20130600000000    1.83791000000000
H        28.39618100000000    2.21369300000000   -1.82056200000000
H        26.45093500000000    4.11787100000000   -1.84893800000000
H        24.18897100000000    4.57652200000000   -0.01405000000000
H        22.01503000000000    4.04361800000000    1.93450800000000
H        20.31865800000000    2.13246900000000    1.84967300000000
H        19.95950000000000   -0.08590400000000   -0.26092200000000
H        20.47920700000000   -2.30872800000000   -2.02255300000000
H        22.29396400000000   -4.06632700000000   -1.88334300000000
H        24.47794000000000   -4.46444100000000    0.25594000000000
Co       59.36988200000000   -0.00614700000000   -0.01697800000000
C        57.04089100000000    2.84064500000000    1.86652700000000
C        56.12478400000000    1.92215600000000    1.64195300000000
C        56.53596400000000    1.05745900000000    0.54113900000000
C        55.91709300000000    0.01689400000000   -0.00784000000000
C        56.62113500000000   -1.11433100000000   -0.59194300000000
C        56.29302500000000   -1.90050300000000   -1.60280900000000
C        57.32780400000000   -2.89601200000000   -1.80795000000000
C        58.26407300000000   -2.68319600000000   -0.90592000000000
N        57.86208200000000   -1.57618400000000   -0.12314800000000
C        59.52514700000000   -3.38733700000000   -0.65300600000000
C        60.62036400000000   -2.82864400000000   -0.19057300000000
C        61.69399000000000   -3.32084900000000    0.70264900000000
C        62.53155300000001   -2.32708200000000    0.81173400000000
C        62.09325500000000   -1.15893400000000    0.03449900000000
N        60.98831700000000   -1.50032600000000   -0.52280000000000
C        62.70409000000001    0.14930200000000   -0.13937100000000
C        62.03992900000000    1.28183500000000   -0.18447700000000
C        62.41377800000000    2.50396100000000   -0.92819200000000
C        61.46503100000001    3.36568800000000   -0.67491300000000
C        60.47930700000000    2.75349300000000    0.20975000000000
N        60.83235300000000    1.53541500000000    0.48536000000000
C        59.24841900000000    3.31548800000000    0.76944500000000
C        58.12537800000000    2.63128300000000    0.91211200000000
N        57.79677700000001    1.51650800000000    0.09267800000000
H        56.98062900000001    3.62007000000000    2.64213100000000
H        55.20845700000000    1.85417500000000    2.21737900000000
H        55.36566000000001   -1.80548600000000   -2.19663400000000
H        57.31090500000000   -3.67134700000000   -2.57777000000000
H        59.57287000000001   -4.46243500000000   -0.85982000000000
H        61.74681100000000   -4.30026600000000    1.15377600000000
H        63.44318300000000   -2.40655400000000    1.42496000000000
H        63.80234000000001    0.16485700000000   -0.23745800000000
H        63.28263400000001    2.67590500000000   -1.55614400000000
H        61.46787700000000    4.37716900000000   -1.09329100000000
H        59.28390100000000    4.37150400000000    1.08271400000000
C        30.45919600000000    0.01689400000000   -0.00784000000000
C        31.67540100000000    0.01689400000000   -0.00784000000000
C        41.27281800000001    0.01689400000000   -0.00784000000000
C        42.48902300000001    0.01689400000000   -0.00784000000000
C        52.08644000000000    0.01689400000000   -0.00784000000000
C        53.30264500000000    0.01689400000000   -0.00784000000000
Co       36.50560500000000    0.02969500000000    0.00564600000000
C        34.22579500000001   -3.23175200000000   -0.90402000000000
C        33.26958500000000   -2.33240200000000   -1.00604600000000
C        33.66195900000000   -1.17009700000000   -0.20353000000000
C        33.02684300000000   -0.01882400000000    0.00873600000000
C        33.71230000000000    1.25577500000000    0.23496500000000
C        33.37701000000000    2.33437500000000    0.93920500000000
C        34.40155100000000    3.35369200000000    0.84862400000000
C        35.35214800000000    2.85676700000000    0.07525900000000
N        34.97515400000000    1.54016200000000   -0.34088400000000
C        36.59928800000000    3.46846900000000   -0.34160600000000
C        37.70084000000000    2.80121200000000   -0.67337800000000
C        38.69438600000001    3.05319600000000   -1.70754800000000
C        39.58826900000000    2.09233700000000   -1.60606400000000
C        39.20857100000001    1.18045300000000   -0.50208700000000
N        38.11365600000000    1.62977200000000    0.00528000000000
C        39.86577800000000   -0.01882400000000    0.00873600000000
C        39.24236700000001   -1.08800600000000    0.47025200000000
C        39.62107900000001   -2.02012200000000    1.54572800000000
C        38.68041100000001   -2.93426800000000    1.63159400000000
C        37.67210900000000   -2.63848900000000    0.63416700000000
N        38.00988400000000   -1.58511100000000   -0.01512800000000
C        36.41971600000001   -3.34549600000000    0.30297400000000
C        35.30583900000000   -2.74880000000000   -0.04436800000000
N        34.92372700000001   -1.46604200000000    0.37331500000000
H        34.22613900000000   -4.22282600000000   -1.39525400000000
H        32.36105100000000   -2.45409600000000   -1.58719400000000
H        32.45215800000000    2.45272700000000    1.51613100000000
H        34.42884600000000    4.34285600000000    1.30527400000000
H        36.68522800000001    4.56584700000000   -0.40362900000000
H        38.72705800000000    3.85941200000000   -2.43437200000000
H        40.48133100000000    1.97936900000000   -2.23983800000000
H        40.53583000000000   -1.94571500000000    2.15589800000000
H        38.69945700000000   -3.74787600000000    2.33986100000000
H        36.45820100000000   -4.44545500000000    0.36201000000000
Co       47.31922700000000    0.02969500000000    0.00564600000000
C        45.03941700000000   -3.23175200000000   -0.90402000000000
C        44.08320700000000   -2.33240200000000   -1.00604600000000
C        44.47558100000000   -1.17009700000000   -0.20353000000000
C        43.84046500000000   -0.01882400000000    0.00873600000000
C        44.52592200000000    1.25577500000000    0.23496500000000
C        44.19063200000000    2.33437500000000    0.93920500000000
C        45.21517300000000    3.35369200000000    0.84862400000000
C        46.16577000000001    2.85676700000000    0.07525900000000
N        45.78877600000001    1.54016200000000   -0.34088400000000
C        47.41291000000000    3.46846900000000   -0.34160600000000
C        48.51446200000000    2.80121200000000   -0.67337800000000
C        49.50800800000000    3.05319600000000   -1.70754800000000
C        50.40189100000000    2.09233700000000   -1.60606400000000
C        50.02219300000000    1.18045300000000   -0.50208700000000
N        48.92727800000001    1.62977200000000    0.00528000000000
C        50.67940000000000   -0.01882400000000    0.00873600000000
C        50.05598900000000   -1.08800600000000    0.47025200000000
C        50.43470100000000   -2.02012200000000    1.54572800000000
C        49.49403300000000   -2.93426800000000    1.63159400000000
C        48.48573100000000   -2.63848900000000    0.63416700000000
N        48.82350600000000   -1.58511100000000   -0.01512800000000
C        47.23333800000000   -3.34549600000000    0.30297400000000
C        46.11946100000000   -2.74880000000000   -0.04436800000000
N        45.73734900000000   -1.46604200000000    0.37331500000000
H        45.03976100000000   -4.22282600000000   -1.39525400000000
H        43.17467300000000   -2.45409600000000   -1.58719400000000
H        43.26578000000000    2.45272700000000    1.51613100000000
H        45.24246800000000    4.34285600000000    1.30527400000000
H        47.49885000000000    4.56584700000000   -0.40362900000000
H        49.54068000000000    3.85941200000000   -2.43437200000000
H        51.29495300000001    1.97936900000000   -2.23983800000000
H        51.34945100000001   -1.94571500000000    2.15589800000000
H        49.51307900000000   -3.74787600000000    2.33986100000000
H        47.27182200000001   -4.44545500000000    0.36201000000000
148
 energy: -266.266237709614 gnorm: 0.401293746436 xtb: 6.4.1 (bd6e46d)
Co       24.40445180574950    0.03801283514067   -0.01177937344131
C        26.72216240497473   -3.11463721890755    1.29974794348907
C        27.65391251009999   -2.16156320851348    1.25460685428275
C        27.22479165045245   -1.10929597373973    0.34425120022148
C        27.83511471091007    0.04036310830494   -0.00582477335975
C        27.12874346804822    1.23202894813142   -0.36396349332053
C        27.48221342763082    2.22666511759762   -1.23706728972403
C        26.46621627014099    3.21501402529398   -1.24933215173370
C        25.49112151804680    2.80869203114539   -0.38284138791469
N        25.86691031242910    1.57051415843330    0.16929622365136
C        24.25791151788081    3.47840220890255   -0.01023900779327
C        23.13226552555171    2.82845387745780    0.34103288113646
C        22.06777087488940    3.17295296413738    1.28988245777586
C        21.20234138781053    2.16087144657261    1.23432094086143
C        21.66475611502094    1.16339603351566    0.27033320367951
N        22.81877592346400    1.57145559728647   -0.20537648953986
C        21.04516363913375   -0.06552754894512   -0.15433109354867
C        21.72688287909584   -1.19535309892222   -0.42165055968389
C        21.33922804294252   -2.25705514454662   -1.35747889024140
C        22.30403908774505   -3.17314799959448   -1.28007805712038
C        23.29420329530331   -2.72014805351032   -0.31103333100277
N        22.95055969205415   -1.53289509217710    0.16118626467579
C        24.49480148190555   -3.37420349651840    0.13570514145063
C        25.64140748219300   -2.70377362433779    0.41503528792466
N        25.95065188605400   -1.45803046936516   -0.14974286119408
H        26.77140135380539   -4.00942035920186    1.91810154793012
H        28.55935284773676   -2.19083069821017    1.83472856135631
H        28.39418029751245    2.22430037561395   -1.82287250572762
H        26.45923361273250    4.11402109191381   -1.85006417275297
H        24.20799941406544    4.57062434080876   -0.00627769495383
H        22.02315947257611    4.04174440663873    1.92651780054875
H        20.31274557806503    2.12202130301470    1.84844038351110
H        19.96065366670854   -0.07586760546111   -0.26711455089532
H        20.48134298884878   -2.29815940597992   -2.01337576820707
H        22.30650424037016   -4.07154909253753   -1.87909858498202
H        24.47257488243635   -4.45945888792402    0.25561525905773
Co       59.35740857478473   -0.00308337999803   -0.01564578687843
C        57.03969085226238    2.85150168221443    1.85800478978875
C        56.10799154109876    1.92333916891114    1.63685632746482
C        56.53722968105732    1.05820790925537    0.54718584484704
C        55.92747938684483   -0.00680996620159   -0.00965530454294
C        56.63330457735542   -1.11106427246441   -0.58315882913775
C        56.27969368709937   -1.92647024644069   -1.62565489412385
C        57.29558877745440   -2.89538061317125   -1.82109050243824
C        58.27073895858293   -2.65682986513236   -0.89425920125897
N        57.89497345271848   -1.54279700309306   -0.12189845250311
C        59.50395571818190   -3.38407410816970   -0.65237709950233
C        60.62957836448889   -2.81056762286620   -0.18662658844259
C        61.69408121461301   -3.32512784226600    0.68186733908861
C        62.55950148473816   -2.32032145460149    0.81500855566480
C        62.09706038778980   -1.16130314764340    0.05278538229484
N        60.94307954402169   -1.47404710452497   -0.49038186773738
C        62.71665637751285    0.12505800037660   -0.13650213870509
C        62.03493331245376    1.28487074148044   -0.18958526200308
C        62.42261097362580    2.50175704126180   -0.91221937047585
C        61.45780687056148    3.38758346498567   -0.66621692613467
C        60.46763790177026    2.76264878390262    0.20197678747471
N        60.81130738589351    1.50844469865120    0.44578028350401
C        59.26703586841463    3.32249116611660    0.76230458512548
C        58.12043160756576    2.61188923277216    0.91239889443890
N        57.81129857636216    1.49252306208358    0.12634622200448
H        56.99043190669074    3.61604020642498    2.63160619717520
H        55.20251455938594    1.84450745937926    2.21229796369260
H        55.36768258713630   -1.81547681824132   -2.20089779917413
H        57.30260104644663   -3.66735115845477   -2.57819768643823
H        59.55384436221450   -4.45808382195591   -0.85109856434061
H        61.73869101215388   -4.29695173170078    1.14626618856780
H        63.44909746430481   -2.39606310132339    1.42567988461946
H        63.80117494182462    0.15614099938437   -0.24541141400879
H        63.28050015907289    2.66382048627592   -1.54910001216210
H        61.45533662658267    4.38151844376432   -1.08816304359357
H        59.28925583139849    4.36666771650304    1.08145595714948
C        30.42162672221102    0.01573797531874   -0.00847131694382
C        31.64384250757137    0.02667834907862   -0.01079071386601
C        41.27007813721355    0.02529054020602   -0.00547165275005
C        42.48267915240316    0.02636368962214   -0.00960543842488
C        52.11336477665137    0.02499445013146   -0.00308897669022
C        53.33351761481303    0.01668079368635   -0.00832185177343
Co       36.49471825080327    0.03117919745401    0.00521391046055
C        34.22624853684079   -3.25053477739080   -0.89493496908831
C        33.26267791345800   -2.33190557633008   -0.99510456719700
C        33.68574242030441   -1.18088654087188   -0.20755810281827
C        33.03357670214509    0.00300423633637    0.00590546412527
C        33.74140241993882    1.25751501032013    0.23192331702084
C        33.36692927751616    2.36243918558604    0.95006705443549
C        34.37503837567182    3.35444274010329    0.85547611134587
C        35.36396592412233    2.83242117955916    0.07132158501164
N        35.00980215810044    1.51600495743153   -0.32068252156412
C        36.58310585940649    3.46638794254076   -0.34375237522075
C        37.70860713947827    2.78663324246377   -0.67396541916848
C        38.70284667875943    3.06109120589817   -1.69199951993080
C        39.61113496226304    2.08028418908266   -1.60330430405012
C        39.20923117135060    1.17756262256017   -0.51959789957818
N        38.06875140570600    1.59916392938225   -0.01926041404294
C        39.87511158422224   -0.00001267331818   -0.00072938544950
C        39.22761773249955   -1.09920141954709    0.47730720991971
C        39.63406725088679   -2.02015218360866    1.53320172286465
C        38.67675184798884   -2.95206075830175    1.62903187783941
C        37.65908884640888   -2.64337116013463    0.64399145329038
N        37.98462534775359   -1.53843756065606    0.00302909291242
C        36.44116504628371   -3.35210434384730    0.31339763178572
C        35.29493287378602   -2.73352440430202   -0.05280672589388
N        34.94668158974155   -1.44299468404273    0.33198604321457
H        34.23206555727986   -4.21927776211184   -1.39049942530183
H        32.36186173979479   -2.44240232487767   -1.58123624910986
H        32.45127631890430    2.45802690740704    1.51740653998953
H        34.41595370357106    4.33594428118848    1.30766846521022
H        36.66475342108924    4.55822485370822   -0.41043372010533
H        38.71898420628983    3.85740083448656   -2.42425781148639
H        40.48295369017703    1.97149404002460   -2.23591868983300
H        40.52988948770793   -1.93975221505627    2.14588325733964
H        38.69080756618519   -3.75498248398188    2.34001726845983
H        36.46534593322893   -4.44223840670978    0.35961066342752
Co       47.30807521488553    0.03128656219619    0.00498344454731
C        45.03936543752886   -3.25124261308487   -0.89486700601628
C        44.07664567391811   -2.33274571596607   -0.99456222572821
C        44.50309203973685   -1.18274866234739   -0.20562014185754
C        43.85531823035282    0.00233888127167    0.00637796492061
C        44.55805651083524    1.25941236751987    0.23148690266889
C        44.18114402795332    2.36242979543755    0.94982054490348
C        45.18889167424962    3.35495646668177    0.85530907680667
C        46.17814938688954    2.83313424518986    0.07126397808284
N        45.82475442378050    1.51683203251907   -0.32048787452060
C        47.39694235096198    3.46617765574853   -0.34333020872254
C        48.52298187745833    2.78585612117190   -0.67361309531465
C        49.51652776677215    3.06071629667535   -1.69201435359255
C        50.42511872825769    2.08005833778658   -1.60389370815564
C        50.02533440017965    1.17539980940761   -0.52111826796441
N        48.88452817741076    1.59829485004738   -0.01912760403931
C        50.69656924332987   -0.00061625209821   -0.00071477721085
C        50.04546664772174   -1.09673695594991    0.47734855694074
C        50.44844809560632   -2.01997123875551    1.53341706899296
C        49.49057729395646   -2.95106086465175    1.62926796586785
C        48.47388186082316   -2.64153999532000    0.64413189769554
N        48.79942456468829   -1.53792667595082    0.00324527297510
C        47.25426075461288   -3.35216240235967    0.31247262347328
C        46.10957607060635   -2.73444353651315   -0.05242093344531
N        45.76196094593836   -1.44340037262289    0.33213565282042
H        45.04544786502756   -4.21955817749954   -1.39065894894773
H        43.17574889668492   -2.44236247997848   -1.58125964601199
H        43.26512800922610    2.45780185361964    1.51735490989118
H        45.22948131928123    4.33625716499742    1.30758700091589
H        47.47860740922710    4.55811920606155   -0.41028732744014
H        49.53252646812151    3.85732124122286   -2.42415851860962
H        51.29681354598550    1.97159456358227   -2.23611174205244
H        51.34388223862518   -1.94001274201337    2.14597566024117
H        49.50431960089165   -3.75461635035379    2.33990099158457
H        47.27927555909881   -4.44225239117120    0.35849387422005
148
 energy: -266.432861891162 gnorm: 0.177630616928 xtb: 6.4.1 (bd6e46d)
Co       24.41478560979611    0.03744163458257   -0.00916337094679
C        26.72034962460218   -3.11839356560344    1.28660812822100
C        27.66855367565929   -2.16064813971451    1.24614848492301
C        27.22040782248804   -1.10846482769771    0.35495307500120
C        27.82340780770358    0.06281155383015   -0.01125006598743
C        27.11808693433414    1.22158389436438   -0.36096296734809
C        27.49073260536372    2.25660427791863   -1.24551552345087
C        26.49969470146777    3.21179992527951   -1.24987282698792
C        25.48305718771022    2.77588449356245   -0.37529600647344
N        25.83481533304264    1.53324939590788    0.14427808469173
C        24.28270984645110    3.46632989626893   -0.01070087170359
C        23.13378065346373    2.79881545940788    0.35028139492476
C        22.07407939094598    3.17314620305015    1.26428558486666
C        21.17879901040821    2.15721663098143    1.22556734498970
C        21.66203059203777    1.15979875949491    0.29106301785858
N        22.87113988161893    1.53375775448109   -0.16383139232308
C        21.03950742527615   -0.04288070291543   -0.14505589028191
C        21.73987238129760   -1.18993292184428   -0.43669239598652
C        21.33733652134208   -2.25433689319964   -1.33770394320787
C        22.30766979617709   -3.19210093032356   -1.26687894119774
C        23.30754310294261   -2.72396487939252   -0.32225270863395
N        22.97675254542559   -1.48727076867993    0.11312775706611
C        24.47764255309776   -3.37198796617850    0.12611814523678
C        25.64102004569267   -2.67628506773369    0.42414132976511
N        25.93280487315084   -1.43721650199539   -0.10386414943885
H        26.76000408397921   -4.00300957601513    1.90339935487219
H        28.56796600551964   -2.17936891546561    1.82668018985962
H        28.39248902343371    2.23328272612562   -1.82146169366070
H        26.46339786867198    4.10787154675433   -1.84435622050643
H        24.22778426803582    4.55617428457511   -0.00549499632776
H        22.03169964595624    4.03612035787744    1.91089748942184
H        20.30635247111967    2.11117717042111    1.84143880740069
H        19.96443110651300   -0.06938844339867   -0.26578742146350
H        20.48567059009028   -2.28721056952895   -1.99843328911349
H        22.31928692837698   -4.07753549980414   -1.86922961223540
H        24.47268173937674   -4.45028553957820    0.24939472019567
Co       59.34707134163789   -0.00303898506688   -0.01294854988312
C        57.04154838372126    2.85761246597314    1.84578602472343
C        56.09349504743872    1.92387437295192    1.62832438060125
C        56.54201041377765    1.05551157883642    0.55726258868731
C        55.94020831269609   -0.02723751390668   -0.02070479679044
C        56.64428535216708   -1.10127907267290   -0.57851696888647
C        56.27131551679404   -1.95434893611316   -1.63957653845761
C        57.26216080954367   -2.89218849481308   -1.82101397552599
C        58.27885748789188   -2.62612674334208   -0.88070077641829
N        57.92723938639067   -1.50166419630802   -0.13957154074261
C        59.47918561351517   -3.37220919762328   -0.65057280450314
C        60.62806851174073   -2.78317744322784   -0.17201699300865
C        61.68777033373095   -3.32055546923789    0.65670426173118
C        62.58304979189464   -2.31508504449377    0.80709892499713
C        62.09981889026466   -1.16160643212956    0.07382135633968
N        60.89070339899296   -1.44471463030017   -0.44254399473536
C        62.72233241593030    0.10107609319961   -0.13159150300500
C        62.02195518313344    1.28233329564547   -0.20539135985052
C        62.42450095943921    2.49540193812103   -0.89331792131826
C        61.45417267163528    3.40375772626280   -0.64976449306163
C        60.45431076068620    2.76852614555947    0.19165525004968
N        60.78510946534755    1.47252689924454    0.39005939052730
C        59.28426994670392    3.32219478446159    0.75248875123494
C        58.12090484152920    2.58331820873389    0.91625861898663
N        57.82950115440273    1.46379552590241    0.16754613729556
H        57.00180536317763    3.61249100317859    2.61592689770807
H        55.19395538706201    1.83473864210094    2.20213306572238
H        55.36948924833506   -1.82456769711040   -2.20116288237753
H        57.29846074573744   -3.66241192918199   -2.57142728461337
H        59.53408998954482   -4.44408029294901   -0.84764948575666
H        61.73014778984736   -4.28851546862566    1.13198879746397
H        63.45549615375066   -2.38408788441232    1.42082464101980
H        63.79740884838902    0.14952861751924   -0.24530025169864
H        63.27617285967828    2.65027074014790   -1.53647374673499
H        61.44255120871732    4.38556532852298   -1.07738963730184
H        59.28917778482753    4.35888297859960    1.07362114248504
C        30.38775286610034    0.02162986063223   -0.00519104313589
C        31.61177155781720    0.03651557433020   -0.00979121993126
C        41.26809398620118    0.02851200323411   -0.00273145777930
C        42.48442354151076    0.03369953191503   -0.01132716788206
C        52.14478466777256    0.02468236948287   -0.00082530004648
C        53.36798087901984    0.00946906837328   -0.00327885195327
Co       36.48727473785907    0.03373536542077    0.00333615799806
C        34.23108125323234   -3.26333587608818   -0.88287115951078
C        33.25949397705656   -2.32649082583443   -0.97994627636645
C        33.70927381771610   -1.18234099144598   -0.21688857468124
C        33.03603441994142    0.02729639239319    0.00519116139067
C        33.77167384120747    1.25224103923222    0.22993180629107
C        33.36021644674142    2.38968866358955    0.95229116977877
C        34.34725781830230    3.34889495420265    0.85336950501167
C        35.37804421693060    2.80308268497389    0.06863909629637
N        35.04494293416905    1.48765454695019   -0.28038111413805
C        36.56325702299095    3.45766085299406   -0.34524597280116
C        37.70763805891773    2.76063792316361   -0.68178494676187
C        38.70734405448679    3.06251113154451   -1.67202954240641
C        39.63079811056537    2.06939344959011   -1.58954994337757
C        39.20803270441336    1.16979674631349   -0.53860644259677
N        38.01535333409289    1.56102695806943   -0.05591064644928
C        39.88004499323603    0.01725445448070   -0.01158994457487
C        39.20503698230940   -1.10128589620748    0.49008299628620
C        39.63939112061691   -2.01583919659572    1.51549445840876
C        38.67409724385597   -2.96693136983333    1.61573673921049
C        37.64339915399710   -2.64459233951183    0.65485209429605
N        37.95515435906127   -1.47911803182305    0.03574491488449
C        36.46148727597443   -3.34920391853514    0.32388918794438
C        35.29254878733846   -2.71318293530462   -0.06899343924869
N        34.97136191903233   -1.41741281330015    0.27927858114598
H        34.23857492621851   -4.21594325376868   -1.38021514832585
H        32.36311151615060   -2.42835666734979   -1.56865258028682
H        32.45016218962235    2.46049380568368    1.51399118898571
H        34.40431833145388    4.32554039434261    1.30481585423234
H        36.64210896584817    4.54425287971035   -0.41119908910221
H        38.71042063284098    3.85417307142258   -2.40660799616509
H        40.48556415752002    1.96341935193511   -2.22641402271847
H        40.52218499723569   -1.93460503344902    2.13000479721665
H        38.68104442822970   -3.76204473062320    2.33341435570697
H        36.46713837684664   -4.43324929325522    0.36284476715412
Co       47.30225194547088    0.03378937517205    0.00295664941927
C        45.04437009486433   -3.26546758253078   -0.88253572191565
C        44.07508326383886   -2.32782096601089   -0.97878749642235
C        44.53522879798317   -1.18680947451470   -0.21364670270811
C        43.87412523923165    0.02724932826304    0.00458113409567
C        44.59568388307742    1.25726549615269    0.22822142512564
C        44.17595835037434    2.39014430861578    0.95146011663958
C        45.16175235772481    3.35067352687060    0.85295900230998
C        46.19401590651719    2.80600238539566    0.06850391570894
N        45.86360598307319    1.49067667036689   -0.28022275443825
C        47.37840795582543    3.45704204300280   -0.34404398916425
C        48.52385130049216    2.75771839312043   -0.68095725381322
C        49.52128085697313    3.06110127504091   -1.67205312947096
C        50.44591819065261    2.06853913512692   -1.59108758599263
C        50.03095121031544    1.16505756677056   -0.54086062328220
N        48.83585449640135    1.55812936198739   -0.05530280156689
C        50.71599718439307    0.01655022661973   -0.01087571595274
C        50.03088343383659   -1.09539197115324    0.49047094972601
C        50.45554727694034   -2.01541001671752    1.51616524098803
C        49.48833750384350   -2.96430693996742    1.61635117377343
C        48.46048214616955   -2.63969221355497    0.65484420528819
N        48.77341454637763   -1.47694706842891    0.03529927823424
C        47.27544103345396   -3.34980689468587    0.32190504886661
C        46.10908859982039   -2.71668333860677   -0.06789744865014
N        45.79048752728053   -1.41963995135313    0.27975459571271
H        45.05182267382469   -4.21705912384156   -1.38055185830096
H        43.17794740942794   -2.42759495672933   -1.56801328040236
H        43.26499297006070    2.45959796102886    1.51333949858946
H        45.21774004907236    4.32661364599437    1.30484948637192
H        47.45721125827570    4.54381879707546   -0.41056502933905
H        49.52379555682993    3.85369145677042   -2.40617961812586
H        51.30027936911291    1.96383138921277   -2.22745619146946
H        51.33734393177008   -1.93544088482415    2.13075774708337
H        49.49433533155209   -3.76091125569361    2.33304959984502
H        47.28278773806738   -4.43359377428996    0.36016183431504
148