148
 energy: -267.225340433320 gnorm: 0.000508006764 xtb: 6.4.1 (bd6e46d)
Co       25.63121244776172    0.01678144433075    0.08023808013754
C        28.18292700145038   -2.71673981691072    2.00108864042540
C        29.11458597685790   -1.88096301646196    1.48716581035872
C        28.40028758125253   -0.86547132784348    0.77516564556156
C        29.02512218026801    0.23458824342543    0.18096312038652
C        28.29103932825456    1.32753807452428   -0.28458577536912
C        28.89447374236387    2.55776714223814   -0.69630288261937
C        27.88168572424044    3.42378913078178   -0.92918633406755
C        26.66741694848262    2.69882978869993   -0.70743523168619
N        26.93117142801011    1.41539496759484   -0.30940559374134
C        25.41590228023518    3.21918147906975   -0.96458707475439
C        24.27077951057283    2.45077135724861   -0.97058638579934
C        23.00321117470900    2.92521822081350   -1.44419514086994
C        22.17024247329082    1.86120029996324   -1.44497501783959
C        22.92133781529333    0.75384758842623   -0.92899700495136
N        24.20540192255149    1.12461729103600   -0.64612000451237
C        22.37310013646382   -0.48727223926192   -0.67851398626902
C        23.04843236404165   -1.47492373637945    0.00848900872595
C        22.42949666507233   -2.68607961042201    0.46310532918516
C        23.34660388423616   -3.32546645345931    1.22219337492893
C        24.53428374263279   -2.52294102244472    1.19006983311764
N        24.34005061959314   -1.39300533586498    0.44651136761428
C        25.72575863358557   -2.90074180974724    1.77330038047707
C        26.91053867955906   -2.22545910714164    1.56663121700740
N        27.05596546371980   -1.07761613934622    0.83288166606984
H        28.32441096787291   -3.59427995020286    2.60149331213185
H        30.18130520895054   -1.91274351165554    1.59345808635480
H        29.95129315002823    2.71691525375658   -0.77964503572823
H        27.93091564176223    4.44823979472411   -1.24323674505361
H        25.34157176686283    4.25605764649750   -1.25521489793801
H        22.80836565847412    3.93488902319964   -1.75020272888010
H        21.14061260901677    1.81072037229924   -1.74211946130733
H        21.34680886021999   -0.66478046693145   -0.96138422099699
H        21.42131678712573   -2.97478927707368    0.23688421488429
H        23.25719482846524   -4.25743766978160    1.74605932560042
H        25.74850696476627   -3.80896713325912    2.35615397406032
Co       58.14892143629444    0.02857400644600    0.07141475045684
C        55.61737581516501    2.83059052535908    1.91883343651684
C        54.67938432536126    1.99555619398886    1.41534220461074
C        55.38656859003735    0.95488836115961    0.73315002233095
C        54.75309411136080   -0.15520602204268    0.16785703530799
C        55.47805101932450   -1.26640893466935   -0.26810881600446
C        54.86448385556146   -2.50152490250496   -0.64904044074451
C        55.87013986797115   -3.38096295573532   -0.86184876346475
C        57.09035035115316   -2.66050159063282   -0.65882905718347
N        56.83712432553909   -1.36590093621669   -0.29101954146828
C        58.33704976361872   -3.19597849674886   -0.90814269601743
C        59.48793942912219   -2.43659056412766   -0.93408924132477
C        60.74987400407725   -2.92932413904249   -1.40391851053239
C        61.59119301120032   -1.87207546358827   -1.42648619231109
C        60.85115733309432   -0.75017392211836   -0.92626384078175
N        59.56481068725326   -1.10541985967386   -0.63384307767419
C        61.41202841015808    0.48849976715097   -0.69215580802550
C        60.74724558759406    1.49128822935336   -0.01686717020863
C        61.37927563406090    2.70051350910861    0.42474778322235
C        60.46712646601653    3.36077167809965    1.17193929090284
C        59.26960369719676    2.57283268861875    1.14482032457370
N        59.45343126780338    1.43019838575177    0.41791482845727
C        58.07905535752379    2.97586770915203    1.71266837087167
C        56.88692755121217    2.31330599886574    1.50690524019893
N        56.73295175136358    1.15233416335096    0.79609818000307
H        55.48201826297741    3.72299313574515    2.49837764126631
H        53.61224642515575    2.04399027302673    1.51034051671830
H        53.80643457470114   -2.65429855526346   -0.72861535340419
H        55.81234148947539   -4.41219299875353   -1.15131497408600
H        58.40241508399014   -4.23937459352465   -1.17679759941697
H        60.93592137903002   -3.94567815384315   -1.69276679876230
H        62.61996682538941   -1.83510988268642   -1.72854207591507
H        62.44001161400766    0.65178991473393   -0.97744357492291
H        62.39189563510870    2.97388381213725    0.19919286194527
H        60.56567994038277    4.29844370394038    1.68388323757607
H        58.06409441914556    3.89384936851681    2.28033517172809
C        30.42557473835020    0.26862063502484    0.12828950220358
C        31.63698076276455    0.26459863479265    0.07373204775372
C        41.28205266218750    0.03668545514656   -0.08227063787496
C        42.49452253118102    0.01521370242140   -0.07912893392232
C        52.14054262157741   -0.17914607433537    0.07577118742677
C        53.35230687301143   -0.18130249997095    0.12026359887126
Co       36.45742757240465    0.14273056507813   -0.11190274992769
C        33.91512313387083   -3.21965761532040    0.02393185948429
C        32.97621263851786   -2.24739091090933   -0.02099858924807
C        33.68207641566710   -1.00226279003296   -0.01185249989062
C        33.03733251575076    0.23632086164753    0.01015003111698
C        33.74768847921690    1.43614854998748   -0.04833765482481
C        33.11205583976815    2.71794371115475   -0.04470586235838
C        34.09086132842074    3.63204665934334   -0.23166217728349
C        35.31619025165769    2.89938451557196   -0.33152127922863
N        35.09770950737214    1.55405084008975   -0.19291012128160
C        36.53384452733774    3.49555698222262   -0.57752944188792
C        37.72539521364827    2.80483353613536   -0.61372378625876
C        38.98846893390790    3.43362142230386   -0.85319825992832
C        39.92879211907666    2.47248080968807   -0.70891061842243
C        39.22988602619400    1.26723977439999   -0.38237052001069
N        37.88273654297643    1.46872796606352   -0.35313749691309
C        39.88046586706820    0.06540528429493   -0.09602954073659
C        39.17321499584990   -1.11238692958377    0.15215829920477
C        39.81435534172734   -2.36131573271026    0.42954770080161
C        38.83324179793018   -3.28999141979447    0.49177520729984
C        37.60206895033975   -2.59538853475385    0.26885025642528
N        37.81953991725458   -1.25516303197062    0.08612459086777
C        36.37873348931922   -3.22701602660980    0.21109080803225
C        35.18371557017398   -2.55808723935119    0.06121394792166
N        35.03020731367503   -1.19729026993829    0.01123080968518
H        33.78299056041731   -4.28404017553660    0.03735908232638
H        31.90880187078106   -2.33953680801964   -0.06634330944452
H        32.05954912568296    2.87153221140335    0.08899470517775
H        34.01307834053881    4.69990060146133   -0.29638623589586
H        36.55726205776763    4.56315490106633   -0.73559018736842
H        39.11659388599701    4.47142430026165   -1.09210869025282
H        40.99270951911024    2.54558619283022   -0.81964547489242
H        40.87143820243627   -2.48475444661869    0.55954361624889
H        38.91344087112959   -4.34433213123111    0.67198637050313
H        36.35406027921032   -4.30217857705393    0.30444171768381
Co       47.31934838970262   -0.07832497524698   -0.08818345603281
C        44.80011121354259   -3.39969632250342   -0.72798937004193
C        43.85682599541720   -2.43657052828801   -0.62097626517688
C        44.55114277770213   -1.21940028939015   -0.33089928791562
C        43.89621928252091   -0.01137152741969   -0.08345428939930
C        44.59921175016426    1.17456650965632    0.13669203069361
C        43.95369855547850    2.42777279961521    0.38271567813424
C        44.93192516879198    3.36065192533524    0.42510725146219
C        46.16554942257047    2.66490590751682    0.22023031200479
N        45.95259835304569    1.31983963040696    0.07027168366653
C        47.38627900079076    3.29941360199072    0.14235140591332
C        48.58318261675946    2.63141474347724    0.00371480199073
C        49.84891813868961    3.29642836059896   -0.06014178050166
C        50.79139302934672    2.32681230339529   -0.08320539194858
C        50.09049804233915    1.07984729195107   -0.03418396237727
N        48.74177494611315    1.27030544708558   -0.00868251662594
C        50.73977737409790   -0.15516582132294    0.02148218485886
C        50.03336309149839   -1.35871664999867    0.00789048219840
C        50.67397595677377   -2.63725989475463    0.05476658990866
C        49.69791578236186   -3.56107541407326   -0.09486411507808
C        48.46946904676950   -2.83691321665371   -0.21624310705077
N        48.68326936575210   -1.48662666479650   -0.12612170645862
C        47.25389702974974   -3.44551009427945   -0.44085498810205
C        46.06048600822406   -2.75991316576019   -0.50397506140439
N        45.89863075288538   -1.41631343783762   -0.28898724328070
H        44.67576594551664   -4.44521750170363   -0.93282277586910
H        42.79366650830963   -2.51632413491662   -0.73424611330336
H        42.89601086803437    2.55131730402992    0.50769965821566
H        44.84796956737544    4.41867499970711    0.58028142533323
H        47.40702920447941    4.37675975151328    0.20710605636329
H        49.97685696615313    4.36124939528412   -0.07843968417522
H        51.85819667428424    2.42162409040851   -0.13715149731790
H        51.72758258479599   -2.78187906822014    0.18975801621488
H        49.77949465043900   -4.63028216821198   -0.12174203227157
H        47.23410691916448   -4.51803240608754   -0.56171426718160
