      -----------------------------------------------------------      
     |                   =====================                   |     
     |                           x T B                           |     
     |                   =====================                   |     
     |                         S. Grimme                         |     
     |          Mulliken Center for Theoretical Chemistry        |     
     |                    University of Bonn                     |     
      -----------------------------------------------------------      

   * xtb version 6.4.1 (bd6e46d) compiled by 'conda@4901f00b25ba' on 2021-06-10

   xtb is free software: you can redistribute it and/or modify it under
   the terms of the GNU Lesser General Public License as published by
   the Free Software Foundation, either version 3 of the License, or
   (at your option) any later version.
   
   xtb is distributed in the hope that it will be useful,
   but WITHOUT ANY WARRANTY; without even the implied warranty of
   MERCHANTABILITY or FITNESS FOR A PARTICULAR PURPOSE.  See the
   GNU Lesser General Public License for more details.
   
   Cite this work as:
   * C. Bannwarth, E. Caldeweyher, S. Ehlert, A. Hansen, P. Pracht,
     J. Seibert, S. Spicher, S. Grimme, WIREs Comput. Mol. Sci., 2020, 11,
     e01493. DOI: 10.1002/wcms.1493
   
   for GFN2-xTB:
   * C. Bannwarth, S. Ehlert and S. Grimme., J. Chem. Theory Comput., 2019,
     15, 1652-1671. DOI: 10.1021/acs.jctc.8b01176
   for GFN1-xTB:
   * S. Grimme, C. Bannwarth, P. Shushkov, J. Chem. Theory Comput., 2017,
     13, 1989-2009. DOI: 10.1021/acs.jctc.7b00118
   for GFN0-xTB:
   * P. Pracht, E. Caldeweyher, S. Ehlert, S. Grimme, ChemRxiv, 2019, preprint.
     DOI: 10.26434/chemrxiv.8326202.v1
   for GFN-FF:
   * S. Spicher and S. Grimme, Angew. Chem. Int. Ed., 2020, 59, 15665-15673.
     DOI: 10.1002/anie.202004239
   
   for DFT-D4:
   * E. Caldeweyher, C. Bannwarth and S. Grimme, J. Chem. Phys., 2017,
     147, 034112. DOI: 10.1063/1.4993215
   * E. Caldeweyher, S. Ehlert, A. Hansen, H. Neugebauer, S. Spicher,
     C. Bannwarth and S. Grimme, J. Chem. Phys., 2019, 150, 154122.
     DOI: 10.1063/1.5090222
   * E. Caldeweyher, J.-M. Mewes, S. Ehlert and S. Grimme, Phys. Chem. Chem. Phys.
     2020, 22, 8499-8512. DOI: 10.1039/D0CP00502A
   
   for sTDA-xTB:
   * S. Grimme and C. Bannwarth, J. Chem. Phys., 2016, 145, 054103.
     DOI: 10.1063/1.4959605
   
   in the mass-spec context:
   * V. Asgeirsson, C. Bauer and S. Grimme, Chem. Sci., 2017, 8, 4879.
     DOI: 10.1039/c7sc00601b
   * J. Koopman and S. Grimme, ACS Omega 2019, 4, 12, 15120-15133.
     DOI: 10.1021/acsomega.9b02011
   
   for metadynamics refer to:
   * S. Grimme, J. Chem. Theory Comput., 2019, 155, 2847-2862
     DOI: 10.1021/acs.jctc.9b00143
   
   for SPH calculations refer to:
   * S. Spicher and S. Grimme, J. Chem. Theory Comput., 2021, 17, 1701-1714
     DOI: 10.1021/acs.jctc.0c01306
   
   with help from (in alphabetical order)
   P. Atkinson, C. Bannwarth, F. Bohle, G. Brandenburg, E. Caldeweyher
   M. Checinski, S. Dohm, S. Ehlert, S. Ehrlich, I. Gerasimov, J. Koopman
   C. Lavigne, S. Lehtola, F. März, M. Müller, F. Musil, H. Neugebauer
   J. Pisarek, C. Plett, P. Pracht, J. Seibert, P. Shushkov, S. Spicher
   M. Stahn, M. Steiner, T. Strunk, J. Stückrath, T. Rose, and J. Unsleber
   
 * started run on 2021/11/20 at 08:36:40.367     

           -------------------------------------------------
          |                Calculation Setup                |
           -------------------------------------------------

          program call               : /home/jeff/miniconda3/bin/xtb input_structure_1.xyz --gfn 2 --ohess normal --parallel 1 --etemp 300 --chrg 0 --uhf 0 -I det_control.in
          hostname                   : jelfscompute1
          coordinate file            : input_structure_1.xyz
          omp threads                :                     1
          number of atoms            :                   259
          number of electrons        :                   876
          charge                     :                     0
          spin                       :                   0.0
          first test random number   :      0.05443247473415

   ID    Z sym.   atoms
    1   26 Fe     1, 37, 85, 120, 155, 190, 225
    2    6 C      2-9, 11-15, 17-21, 23, 24, 38-45, 47-51, 53-57, 59, 60,
                  73-84, 86-93, 95-99, 101-105, 107, 108, 121-128, 130-134,
                  136-140, 142, 143, 156-163, 165-169, 171-175, 177, 178,
                  191-198, 200-204, 206-210, 212, 213, 226-233, 235-239,
                  241-245, 247, 248
    3    7 N      10, 16, 22, 25, 46, 52, 58, 61, 94, 100, 106, 109, 129,
                  135, 141, 144, 164, 170, 176, 179, 199, 205, 211, 214, 234,
                  240, 246, 249
    4    1 H      26-36, 62-72, 110-119, 145-154, 180-189, 215-224, 250-259

molecular fragmentation (1/2 indicates fragments):
111111111111111111111111111111111111222222222222222222222222222222222222
222222222222222222222222222222222222222222222222222222222222222222222222
222222222222222222222222222222222222222222222222222222222222222222222222
2222222222222222222222222222222222222222222
# atoms in fragment 1/2:    36   223
 fragment masses (1/2) :      363.17     2318.13
CMA distance (Bohr)    :  73.707
constraining FC (au)   :  0.0500

           -------------------------------------------------
          |                 G F N 2 - x T B                 |
           -------------------------------------------------

        Reference                      10.1021/acs.jctc.8b01176
      * Hamiltonian:
        H0-scaling (s, p, d)           1.850000    2.230000    2.230000
        zeta-weighting                 0.500000
      * Dispersion:
        s8                             2.700000
        a1                             0.520000
        a2                             5.000000
        s9                             5.000000
      * Repulsion:
        kExp                           1.500000    1.000000
        rExp                           1.000000
      * Coulomb:
        alpha                          2.000000
        third order                    shell-resolved
        anisotropic                    true
        a3                             3.000000
        a5                             4.000000
        cn-shift                       1.200000
        cn-exp                         4.000000
        max-rad                        5.000000


          ...................................................
          :                      SETUP                      :
          :.................................................:
          :  # basis functions                 862          :
          :  # atomic orbitals                 855          :
          :  # shells                          453          :
          :  # electrons                       876          :
          :  max. iterations                   250          :
          :  Hamiltonian                  GFN2-xTB          :
          :  restarted?                      false          :
          :  GBSA solvation                  false          :
          :  PC potential                    false          :
          :  electronic temp.          300.0000000     K    :
          :  accuracy                    1.0000000          :
          :  -> integral cutoff          0.2500000E+02      :
          :  -> integral neglect         0.1000000E-07      :
          :  -> SCF convergence          0.1000000E-05 Eh   :
          :  -> wf. convergence          0.1000000E-03 e    :
          :  Broyden damping             0.4000000          :
          ...................................................

 iter      E             dE          RMSdq      gap      omega  full diag
   1   -466.5574598 -0.466557E+03  0.826E+00    0.12       0.0  T
   2   -436.1280124  0.304294E+02  0.120E+01    0.11       1.0  T
   3   -442.8901762 -0.676216E+01  0.783E+00    0.04       1.0  T
   4   -240.1059415  0.202784E+03  0.109E+01    0.05       1.0  T
   5   -408.9163484 -0.168810E+03  0.957E+00    0.01       1.0  T
   6   -431.9160137 -0.229997E+02  0.675E+00    0.01       1.0  T
   7   -412.8019267  0.191141E+02  0.761E+00    0.02       1.0  T
   8   -447.6374931 -0.348356E+02  0.655E+00    0.05       1.0  T
   9   -449.4895383 -0.185205E+01  0.646E+00    0.02       1.0  T
  10   -445.8325468  0.365699E+01  0.600E+00    0.14       1.0  T
  11   -455.4345595 -0.960201E+01  0.563E+00    0.07       1.0  T
  12   -457.4280657 -0.199351E+01  0.534E+00    0.01       1.0  T
  13   -462.2557626 -0.482770E+01  0.459E+00    0.03       1.0  T
  14   -455.2716289  0.698413E+01  0.570E+00    0.06       1.0  T
  15   -456.0175946 -0.745966E+00  0.561E+00    0.04       1.0  T
  16   -457.7409309 -0.172334E+01  0.519E+00    0.01       1.0  T
  17   -457.0969857  0.643945E+00  0.602E+00    0.04       1.0  T
  18   -463.2722502 -0.617526E+01  0.579E+00    0.06       1.0  T
  19   -454.7020097  0.857024E+01  0.699E+00    0.05       1.0  T
  20   -454.5781825  0.123827E+00  0.696E+00    0.10       1.0  T
  21   -454.0945126  0.483670E+00  0.692E+00    0.28       1.0  T
  22   -455.4594602 -0.136495E+01  0.666E+00    0.05       1.0  T
  23   -454.5905411  0.868919E+00  0.692E+00    0.03       1.0  T
  24   -455.6169304 -0.102639E+01  0.654E+00    0.04       1.0  T
  25   -462.4962327 -0.687930E+01  0.498E+00    0.00       1.0  T
  26   -459.2787150  0.321752E+01  0.584E+00    0.03       1.0  T
  27   -444.4122956  0.148664E+02  0.684E+00    0.16       1.0  T
  28   -451.9513435 -0.753905E+01  0.641E+00    0.01       1.0  T
  29   -442.4147563  0.953659E+01  0.677E+00    0.03       1.0  T
  30   -444.8752584 -0.246050E+01  0.666E+00    0.03       1.0  T
  31   -444.9349737 -0.597153E-01  0.667E+00    0.03       1.0  T
  32   -454.1351944 -0.920022E+01  0.577E+00    0.03       1.0  T
  33   -456.3115947 -0.217640E+01  0.615E+00    0.03       1.0  T
  34   -453.1922107  0.311938E+01  0.683E+00    0.08       1.0  T
  35   -456.6502118 -0.345800E+01  0.600E+00    0.02       1.0  T
  36   -456.9077021 -0.257490E+00  0.615E+00    0.01       1.0  T
  37   -459.7683227 -0.286062E+01  0.625E+00    0.01       1.0  T
  38   -459.0765057  0.691817E+00  0.629E+00    0.04       1.0  T
  39   -460.7342505 -0.165774E+01  0.635E+00    0.04       1.0  T
  40   -460.8266740 -0.924235E-01  0.629E+00    0.01       1.0  T
  41   -461.7873566 -0.960683E+00  0.627E+00    0.02       1.0  T
  42   -461.2085107  0.578846E+00  0.622E+00    0.01       1.0  T
  43   -462.4534025 -0.124489E+01  0.643E+00    0.02       1.0  T
  44   -462.5398952 -0.864927E-01  0.639E+00    0.01       1.0  T
  45   -462.4493645  0.905307E-01  0.636E+00    0.00       1.0  T
  46   -461.9566287  0.492736E+00  0.632E+00    0.00       1.0  T
  47   -462.0398565 -0.832279E-01  0.633E+00    0.01       1.0  T
  48   -460.8052499  0.123461E+01  0.621E+00    0.02       1.0  T
  49   -460.6309978  0.174252E+00  0.624E+00    0.03       1.0  T
  50   -460.4633198  0.167678E+00  0.624E+00    0.05       1.0  T
  51   -460.7230672 -0.259747E+00  0.638E+00    0.04       1.0  T
  52   -461.1145189 -0.391452E+00  0.582E+00    0.01       1.0  T
  53   -466.3416620 -0.522714E+01  0.445E+00    0.02       1.0  T
  54   -461.8314961  0.451017E+01  0.580E+00    0.00       1.0  T
  55   -465.0471254 -0.321563E+01  0.500E+00    0.01       1.0  T
  56   -465.3633540 -0.316229E+00  0.472E+00    0.01       1.0  T
  57   -462.4155610  0.294779E+01  0.519E+00    0.00       1.0  T
  58   -462.6576171 -0.242056E+00  0.492E+00    0.01       1.0  T
  59   -463.3689767 -0.711360E+00  0.493E+00    0.00       1.0  T
  60   -464.0947676 -0.725791E+00  0.478E+00    0.01       1.0  T
  61   -465.0846039 -0.989836E+00  0.474E+00    0.01       1.0  T
  62   -465.8040268 -0.719423E+00  0.464E+00    0.00       1.0  T
  63   -466.3846486 -0.580622E+00  0.453E+00    0.00       1.0  T
  64   -466.3853392 -0.690546E-03  0.449E+00    0.01       1.0  T
  65   -466.1013014  0.284038E+00  0.448E+00    0.00       1.0  T
  66   -466.7537138 -0.652412E+00  0.398E+00    0.02       1.0  T
  67   -467.5222948 -0.768581E+00  0.388E+00    0.02       1.0  T
  68   -467.5858508 -0.635561E-01  0.392E+00    0.01       1.0  T
  69   -467.3874506  0.198400E+00  0.396E+00    0.01       1.0  T
  70   -468.2124880 -0.825037E+00  0.440E+00    0.01       1.0  T
  71   -467.8984629  0.314025E+00  0.496E+00    0.00       1.0  T
  72   -467.2908335  0.607629E+00  0.518E+00    0.01       1.0  T
  73   -467.3476497 -0.568163E-01  0.516E+00    0.02       1.0  T
  74   -467.0969455  0.250704E+00  0.522E+00    0.01       1.0  T
  75   -467.6055117 -0.508566E+00  0.504E+00    0.02       1.0  T
  76   -467.2859417  0.319570E+00  0.512E+00    0.01       1.0  T
  77   -467.6795177 -0.393576E+00  0.496E+00    0.01       1.0  T
  78   -466.8637895  0.815728E+00  0.506E+00    0.00       1.0  T
  79   -464.5959315  0.226786E+01  0.544E+00    0.01       1.0  T
  80   -465.9021498 -0.130622E+01  0.544E+00    0.02       1.0  T
  81   -465.3756909  0.526459E+00  0.538E+00    0.02       1.0  T
  82   -465.2615986  0.114092E+00  0.538E+00    0.01       1.0  T
  83   -466.0701261 -0.808527E+00  0.519E+00    0.01       1.0  T
  84   -465.8082073  0.261919E+00  0.525E+00    0.02       1.0  T
  85   -465.8445031 -0.362958E-01  0.527E+00    0.00       1.0  T
  86   -466.3575175 -0.513014E+00  0.532E+00    0.01       1.0  T
  87   -466.1628928  0.194625E+00  0.540E+00    0.02       1.0  T
  88   -466.9158196 -0.752927E+00  0.519E+00    0.01       1.0  T
  89   -466.5737620  0.342058E+00  0.528E+00    0.00       1.0  T
  90   -466.7437436 -0.169982E+00  0.519E+00    0.01       1.0  T
  91   -464.7130023  0.203074E+01  0.583E+00    0.00       1.0  T
  92   -465.3868457 -0.673843E+00  0.567E+00    0.02       1.0  T
  93   -465.3564536  0.303921E-01  0.568E+00    0.02       1.0  T
  94   -465.3382441  0.182094E-01  0.569E+00    0.02       1.0  T
  95   -465.4300866 -0.918425E-01  0.568E+00    0.02       1.0  T
  96   -465.5315041 -0.101418E+00  0.568E+00    0.02       1.0  T
  97   -465.6394979 -0.107994E+00  0.579E+00    0.01       1.0  T
  98   -465.9277876 -0.288290E+00  0.573E+00    0.00       1.0  T
  99   -465.9602810 -0.324933E-01  0.572E+00    0.00       1.0  T
 100   -466.3149827 -0.354702E+00  0.562E+00    0.01       1.0  T
 101   -465.2051969  0.110979E+01  0.551E+00    0.03       1.0  T
 102   -464.8859667  0.319230E+00  0.531E+00    0.02       1.0  T
 103   -465.1825349 -0.296568E+00  0.506E+00    0.01       1.0  T
 104   -465.4659140 -0.283379E+00  0.488E+00    0.00       1.0  T
 105   -466.0099505 -0.544036E+00  0.460E+00    0.02       1.0  T
 106   -465.6608855  0.349065E+00  0.478E+00    0.00       1.0  T
 107   -464.6780482  0.982837E+00  0.504E+00    0.01       1.0  T
 108   -467.1730546 -0.249501E+01  0.441E+00    0.00       1.0  T
 109   -467.6294677 -0.456413E+00  0.430E+00    0.01       1.0  T
 110   -467.8053041 -0.175836E+00  0.418E+00    0.01       1.0  T
 111   -467.8719203 -0.666162E-01  0.385E+00    0.00       1.0  T
 112   -468.9632586 -0.109134E+01  0.372E+00    0.01       1.0  T
 113   -469.2656064 -0.302348E+00  0.354E+00    0.00       1.0  T
 114   -469.1927262  0.728801E-01  0.359E+00    0.01       1.0  T
 115   -468.4899344  0.702792E+00  0.386E+00    0.01       1.0  T
 116   -468.6465809 -0.156646E+00  0.380E+00    0.01       1.0  T
 117   -468.6237276  0.228533E-01  0.380E+00    0.01       1.0  T
 118   -469.2384905 -0.614763E+00  0.356E+00    0.00       1.0  T
 119   -469.2164924  0.219981E-01  0.357E+00    0.00       1.0  T
 120   -469.2048452  0.116472E-01  0.357E+00    0.00       1.0  T
 121   -469.2331398 -0.282946E-01  0.356E+00    0.00       1.0  T
 122   -469.2249506  0.818917E-02  0.355E+00    0.01       1.0  T
 123   -467.6982117  0.152674E+01  0.400E+00    0.01       1.0  T
 124   -467.8771057 -0.178894E+00  0.402E+00    0.00       1.0  T
 125   -467.9101548 -0.330491E-01  0.402E+00    0.01       1.0  T
 126   -468.8518264 -0.941672E+00  0.357E+00    0.02       1.0  T
 127   -469.2656150 -0.413789E+00  0.336E+00    0.01       1.0  T
 128   -468.8842562  0.381359E+00  0.351E+00    0.00       1.0  T
 129   -468.8163511  0.679051E-01  0.353E+00    0.01       1.0  T
 130   -468.8172784 -0.927341E-03  0.351E+00    0.01       1.0  T
 131   -470.1188041 -0.130153E+01  0.364E+00    0.02       1.0  T
 132   -470.0148370  0.103967E+00  0.373E+00    0.02       1.0  T
 133   -470.0858910 -0.710540E-01  0.360E+00    0.02       1.0  T
 134   -469.8482951  0.237596E+00  0.387E+00    0.01       1.0  T
 135   -470.1943156 -0.346021E+00  0.381E+00    0.01       1.0  T
 136   -470.4683661 -0.274050E+00  0.379E+00    0.01       1.0  T
 137   -470.4885877 -0.202216E-01  0.379E+00    0.01       1.0  T
 138   -470.4756586  0.129291E-01  0.380E+00    0.01       1.0  T
 139   -470.5221439 -0.464854E-01  0.380E+00    0.01       1.0  T
 140   -470.4938450  0.282989E-01  0.361E+00    0.00       1.0  T
 141   -470.4741537  0.196913E-01  0.309E+00    0.00       1.0  T
 142   -468.1683327  0.230582E+01  0.339E+00    0.00       1.0  T
 143   -466.0870523  0.208128E+01  0.427E+00    0.01       1.0  T
 144   -468.7993339 -0.271228E+01  0.314E+00    0.00       1.0  T
 145   -470.7697054 -0.197037E+01  0.271E+00    0.00       1.0  T
 146   -471.0646989 -0.294993E+00  0.333E+00    0.00       1.0  T
 147   -469.1695032  0.189520E+01  0.408E+00    0.01       1.0  T
 148   -466.5690429  0.260046E+01  0.480E+00    0.00       1.0  T
 149   -466.7028408 -0.133798E+00  0.479E+00    0.03       1.0  T
 150   -465.2104720  0.149237E+01  0.476E+00    0.00       1.0  T
 151   -463.1346370  0.207584E+01  0.540E+00    0.00       1.0  T
 152   -462.1928167  0.941820E+00  0.568E+00    0.01       1.0  T
 153   -461.9232181  0.269599E+00  0.576E+00    0.04       1.0  T
 154   -462.0000785 -0.768605E-01  0.573E+00    0.04       1.0  T
 155   -461.8988293  0.101249E+00  0.576E+00    0.05       1.0  T
 156   -462.0380844 -0.139255E+00  0.572E+00    0.04       1.0  T
 157   -462.0346902  0.339417E-02  0.572E+00    0.04       1.0  T
 158   -461.9841768  0.505134E-01  0.575E+00    0.07       1.0  T
 159   -461.8778208  0.106356E+00  0.579E+00    0.07       1.0  T
 160   -462.2240370 -0.346216E+00  0.568E+00    0.06       1.0  T
 161   -463.3497677 -0.112573E+01  0.535E+00    0.04       1.0  T
 162   -466.4197423 -0.306997E+01  0.437E+00    0.01       1.0  T
 163   -470.6020644 -0.418232E+01  0.264E+00    0.01       1.0  T
 164   -470.5645361  0.375283E-01  0.284E+00    0.01       1.0  T
 165   -469.4561337  0.110840E+01  0.313E+00    0.01       1.0  T
 166   -468.3439649  0.111217E+01  0.362E+00    0.01       1.0  T
 167   -467.5143761  0.829589E+00  0.399E+00    0.01       1.0  T
 168   -468.6852081 -0.117083E+01  0.350E+00    0.01       1.0  T
 169   -468.7999130 -0.114705E+00  0.351E+00    0.01       1.0  T
 170   -468.3595515  0.440361E+00  0.371E+00    0.00       1.0  T
 171   -470.6629700 -0.230342E+01  0.264E+00    0.01       1.0  T
 172   -470.8601590 -0.197189E+00  0.262E+00    0.00       1.0  T
 173   -470.4975546  0.362604E+00  0.252E+00    0.01       1.0  T
 174   -471.0473443 -0.549790E+00  0.214E+00    0.00       1.0  T
 175   -470.2588355  0.788509E+00  0.266E+00    0.00       1.0  T
 176   -471.1688029 -0.909967E+00  0.195E+00    0.01       1.0  T
 177   -471.1494304  0.193726E-01  0.201E+00    0.00       1.0  T
 178   -471.9114009 -0.761970E+00  0.173E+00    0.00       1.0  T
 179   -471.8419353  0.694656E-01  0.188E+00    0.01       1.0  T
 180   -471.7085893  0.133346E+00  0.187E+00    0.00       1.0  T
 181   -471.4403262  0.268263E+00  0.205E+00    0.01       1.0  T
 182   -471.2620630  0.178263E+00  0.211E+00    0.00       1.0  T
 183   -471.0861443  0.175919E+00  0.220E+00    0.00       1.0  T
 184   -471.9566820 -0.870538E+00  0.191E+00    0.00       1.0  T
 185   -471.9403206  0.163614E-01  0.169E+00    0.00       1.0  T
 186   -472.6220393 -0.681719E+00  0.145E+00    0.00       1.0  T
 187   -472.6046218  0.174175E-01  0.123E+00    0.00       1.0  T
 188   -472.4259975  0.178624E+00  0.137E+00    0.01       1.0  T
 189   -472.5388203 -0.112823E+00  0.107E+00    0.00       1.0  T
 190   -472.3732751  0.165545E+00  0.114E+00    0.00       1.0  T
 191   -472.4443663 -0.710911E-01  0.111E+00    0.00       1.0  T
 192   -472.6794205 -0.235054E+00  0.847E-01    0.00       1.0  T
 193   -472.8110905 -0.131670E+00  0.533E-01    0.00       1.0  T
 194   -472.7635187  0.475719E-01  0.581E-01    0.00       1.0  T
 195   -472.6699583  0.935603E-01  0.702E-01    0.00       1.0  T
 196   -472.6613127  0.864561E-02  0.715E-01    0.00       1.0  T
 197   -472.6781846 -0.168719E-01  0.750E-01    0.00       1.0  T
 198   -472.5602239  0.117961E+00  0.833E-01    0.00       1.0  T
 199   -472.5954853 -0.352614E-01  0.791E-01    0.00       1.0  T
 200   -472.6545823 -0.590970E-01  0.709E-01    0.00       1.0  T
 201   -472.6256072  0.289751E-01  0.750E-01    0.00       1.0  T
 202   -472.6103773  0.152299E-01  0.793E-01    0.00       1.0  T
 203   -472.5155315  0.948457E-01  0.921E-01    0.00       1.0  T
 204   -472.5876748 -0.721432E-01  0.837E-01    0.00       1.0  T
 205   -472.7069454 -0.119271E+00  0.640E-01    0.00       1.0  T
 206   -472.7896034 -0.826580E-01  0.447E-01    0.00       1.0  T
 207   -472.7899720 -0.368582E-03  0.429E-01    0.00       1.0  T
 208   -472.7778975  0.120745E-01  0.446E-01    0.00       1.0  T
 209   -472.8173043 -0.394069E-01  0.330E-01    0.00       1.0  T
 210   -472.8429474 -0.256431E-01  0.211E-01    0.00       1.0  T
 211   -472.8349117  0.803575E-02  0.246E-01    0.00       1.0  T
 212   -472.8453455 -0.104338E-01  0.174E-01    0.00       1.0  T
 213   -472.8543189 -0.897339E-02  0.887E-02    0.00       1.0  T
 214   -472.8544435 -0.124643E-03  0.874E-02    0.00       1.0  T
 215   -472.8543595  0.840730E-04  0.852E-02    0.00       1.0  T
 216   -472.8491897  0.516973E-02  0.156E-01    0.00       1.0  T
 217   -472.8424380  0.675171E-02  0.204E-01    0.00       1.0  T
 218   -472.8486645 -0.622650E-02  0.162E-01    0.00       1.0  T
 219   -472.8503330 -0.166848E-02  0.148E-01    0.00       1.0  T
 220   -472.8475366  0.279639E-02  0.167E-01    0.00       1.0  T
 221   -472.8499128 -0.237620E-02  0.140E-01    0.00       1.0  T
 222   -472.8549078 -0.499501E-02  0.801E-02    0.00       1.0  T
 223   -472.8559126 -0.100474E-02  0.563E-02    0.00       1.0  T
 224   -472.8560485 -0.135921E-03  0.499E-02    0.00       1.0  T
 225   -472.8564285 -0.380014E-03  0.319E-02    0.00       1.0  T
 226   -472.8564095  0.190415E-04  0.316E-02    0.00       1.0  T
 227   -472.8564524 -0.429238E-04  0.300E-02    0.00       1.0  T
 228   -472.8564644 -0.120092E-04  0.287E-02    0.00       1.0  T
 229   -472.8566258 -0.161374E-03  0.198E-02    0.00       1.0  T
 230   -472.8566850 -0.592826E-04  0.157E-02    0.00       1.0  T
 231   -472.8566763  0.874775E-05  0.159E-02    0.00       1.0  T
 232   -472.8566909 -0.146166E-04  0.145E-02    0.00       1.0  T
 233   -472.8567475 -0.565664E-04  0.803E-03    0.00       1.0  T
 234   -472.8567630 -0.155057E-04  0.419E-03    0.00       1.5  T
 235   -472.8567617  0.128105E-05  0.374E-03    0.00       1.7  T
 236   -472.8567569  0.480965E-05  0.471E-03    0.00       1.3  T
 237   -472.8567554  0.152219E-05  0.532E-03    0.00       1.2  T
 238   -472.8567609 -0.550175E-05  0.382E-03    0.00       1.6  T
 239   -472.8567605  0.364264E-06  0.390E-03    0.00       1.6  T
 240   -472.8567630 -0.253145E-05  0.289E-03    0.00       2.2  T
 241   -472.8567626  0.407427E-06  0.299E-03    0.00       2.1  T
 242   -472.8567649 -0.228249E-05  0.172E-03    0.00       3.6  T
 243   -472.8567656 -0.650893E-06  0.117E-03    0.00       5.3  T
 244   -472.8567658 -0.192529E-06  0.922E-04    0.00       6.7  T
 245   -472.8567660 -0.258645E-06  0.351E-04    0.00      17.7  T

   *** convergence criteria satisfied after 245 iterations ***

         #    Occupation            Energy/Eh            Energy/eV
      -------------------------------------------------------------
         1        2.0000           -0.6782977             -18.4574
       ...           ...                  ...                  ...
       432        1.4891           -0.3309516              -9.0057
       433        1.4749           -0.3309164              -9.0047
       434        1.1486           -0.3302197              -8.9857
       435        1.1400           -0.3302030              -8.9853
       436        1.1314           -0.3301864              -8.9848
       437        1.0929           -0.3301123              -8.9828
       438        1.0403           -0.3300119              -8.9801 (HOMO)
       439        0.9960           -0.3299278              -8.9778 (LUMO)
       440        0.9854           -0.3299076              -8.9772
       441        0.9677           -0.3298740              -8.9763
       442        0.9410           -0.3298230              -8.9749
       443        0.8920           -0.3297293              -8.9724
       ...           ...                  ...                  ...
       855                          1.4374726              39.1156
      -------------------------------------------------------------
                  HL-Gap            0.0000841 Eh            0.0023 eV
             Fermi-level           -0.3299353 Eh           -8.9780 eV

 SCC (total)                   0 d,  0 h,  0 min, 54.191 sec
 SCC setup                      ...        0 min,  0.012 sec (  0.022%)
 Dispersion                     ...        0 min,  0.026 sec (  0.047%)
 classical contributions        ...        0 min,  0.002 sec (  0.004%)
 integral evaluation            ...        0 min,  0.198 sec (  0.365%)
 iterations                     ...        0 min, 53.397 sec ( 98.535%)
 molecular gradient             ...        0 min,  0.527 sec (  0.972%)
 printout                       ...        0 min,  0.029 sec (  0.054%)

         :::::::::::::::::::::::::::::::::::::::::::::::::::::
         ::                     SUMMARY                     ::
         :::::::::::::::::::::::::::::::::::::::::::::::::::::
         :: total energy            -464.633958197657 Eh    ::
         :: gradient norm              0.948061099407 Eh/a0 ::
         :: HOMO-LUMO gap              0.002288651007 eV    ::
         ::.................................................::
         :: SCC energy              -472.856766015424 Eh    ::
         :: -> isotropic ES            0.020791525643 Eh    ::
         :: -> anisotropic ES          0.062715312259 Eh    ::
         :: -> anisotropic XC          0.289391570944 Eh    ::
         :: -> dispersion             -0.367648119939 Eh    ::
         :: repulsion energy           8.221331979372 Eh    ::
         :: add. restraining           0.000000000000 Eh    ::
         :: total charge              -0.000000000000 e     ::
         :::::::::::::::::::::::::::::::::::::::::::::::::::::

      ----------------------------------------------------------- 
     |                   =====================                   |
     |                        A N C O P T                        |
     |                   =====================                   |
     |               Approximate Normal Coordinate               |
     |                Rational Function Optimizer                |
      ----------------------------------------------------------- 

          ...................................................
          :                      SETUP                      :
          :.................................................:
          :   optimization level            normal          :
          :   max. optcycles                   777          :
          :   ANC micro-cycles                  20          :
          :   degrees of freedom               771          :
          :.................................................:
          :   RF solver                   davidson          :
          :   write xtbopt.log                true          :
          :   linear?                        false          :
          :   energy convergence         0.5000000E-05 Eh   :
          :   grad. convergence          0.1000000E-02 Eh/α :
          :   maximium RF displ.         1.0000000          :
          :   Hlow (freq-cutoff)         0.1000000E-01      :
          :   Hmax (freq-cutoff)         5.0000000          :
          :   S6 in model hess.         20.0000000          :
          ...................................................

generating ANC from model Hessian ...
Using Lindh-Hessian (1995)
 Shifting diagonal of input Hessian by    1.0026646016540502E-002
 Lowest  eigenvalues of input Hessian
    0.010000    0.010001    0.010001    0.010002    0.010004    0.010005
    0.010011    0.010012    0.010014    0.010017    0.010018    0.010021
    0.010023    0.010024    0.010025    0.000000    0.000000    0.000000
 Highest eigenvalues
    2.393223    2.512585    2.732932    2.732932    2.732932    2.732932


........................................................................
.............................. CYCLE    1 ..............................
........................................................................
   1   -472.8567658 -0.472857E+03  0.675E-04    0.00       0.0  T
   2   -472.8517770  0.498879E-02  0.104E-01    0.00       1.0  T
   3   -472.8567176 -0.494059E-02  0.104E-02    0.00       1.0  T
   4   -472.8561844  0.533206E-03  0.350E-02    0.00       1.0  T
   5   -472.8539149  0.226957E-02  0.768E-02    0.00       1.0  T
   6   -472.8566933 -0.277846E-02  0.127E-02    0.00       1.0  T
   7   -472.8544461  0.224719E-02  0.746E-02    0.00       1.0  T
   8   -472.8567301 -0.228399E-02  0.896E-03    0.00       1.0  T
   9   -472.8547826  0.194757E-02  0.679E-02    0.00       1.0  T
  10   -472.8566785 -0.189593E-02  0.142E-02    0.00       1.0  T
  11   -472.8565662  0.112335E-03  0.222E-02    0.00       1.0  T
  12   -472.8566284 -0.622468E-04  0.174E-02    0.00       1.0  T
  13   -472.8567304 -0.101963E-03  0.850E-03    0.00       1.0  T
  14   -472.8567472 -0.168754E-04  0.639E-03    0.00       1.0  T
  15   -472.8567638 -0.165629E-04  0.230E-03    0.00       2.7  T
  16   -472.8567656 -0.177843E-05  0.102E-03    0.00       6.1  T
  17   -472.8567660 -0.382704E-06  0.429E-04    0.00      14.5  T
  18   -472.8567660 -0.736113E-07  0.131E-04    0.00      47.4  T
     SCC iter.                  ...        0 min,  3.890 sec
     gradient                   ...        0 min,  0.521 sec
 * total energy  :  -464.6339582 Eh     change       -0.1796639E-07 Eh
   gradient norm :     0.9480616 Eh/α   predicted     0.0000000E+00 (-100.00%)
   displ. norm   :     0.5716654 α      lambda       -0.4552793E+00
   maximum displ.:     0.1985013 α      in ANC's #753, #262, #752, ...

........................................................................
.............................. CYCLE    2 ..............................
........................................................................
   1   -472.8049146 -0.472805E+03  0.482E-01    0.00       0.0  T
   2   -464.1858656  0.861905E+01  0.457E+00    0.00       1.0  T
   3   -463.4741414  0.711724E+00  0.524E+00    0.04       1.0  T
   4   -466.0988106 -0.262467E+01  0.389E+00    0.00       1.0  T
   5   -462.6856801  0.341313E+01  0.491E+00    0.02       1.0  T
   6   -462.1776967  0.507983E+00  0.526E+00    0.03       1.0  T
   7   -461.4662278  0.711469E+00  0.561E+00    0.00       1.0  T
   8   -464.5114777 -0.304525E+01  0.450E+00    0.01       1.0  T
   9   -462.2836904  0.222779E+01  0.540E+00    0.00       1.0  T
  10   -464.1895057 -0.190582E+01  0.491E+00    0.05       1.0  T
  11   -464.9769968 -0.787491E+00  0.469E+00    0.02       1.0  T
  12   -465.3497975 -0.372801E+00  0.464E+00    0.00       1.0  T
  13   -465.5402006 -0.190403E+00  0.451E+00    0.00       1.0  T
  14   -464.6489889  0.891212E+00  0.454E+00    0.01       1.0  T
  15   -467.1341216 -0.248513E+01  0.393E+00    0.03       1.0  T
  16   -470.3821026 -0.324798E+01  0.240E+00    0.01       1.0  T
  17   -472.2726103 -0.189051E+01  0.184E+00    0.01       1.0  T
  18   -472.2802588 -0.764848E-02  0.183E+00    0.01       1.0  T
  19   -472.1200637  0.160195E+00  0.214E+00    0.00       1.0  T
  20   -472.1260742 -0.601046E-02  0.214E+00    0.00       1.0  T
  21   -471.9569133  0.169161E+00  0.225E+00    0.00       1.0  T
  22   -471.8610983  0.958151E-01  0.220E+00    0.01       1.0  T
  23   -470.5624468  0.129865E+01  0.271E+00    0.00       1.0  T
  24   -471.1956455 -0.633199E+00  0.240E+00    0.00       1.0  T
  25   -470.7876902  0.407955E+00  0.265E+00    0.00       1.0  T
  26   -470.8307651 -0.430749E-01  0.246E+00    0.00       1.0  T
  27   -471.2887090 -0.457944E+00  0.197E+00    0.00       1.0  T
  28   -469.9819561  0.130675E+01  0.262E+00    0.00       1.0  T
  29   -469.7292615  0.252695E+00  0.281E+00    0.00       1.0  T
  30   -469.7834452 -0.541837E-01  0.285E+00    0.00       1.0  T
  31   -470.0548160 -0.271371E+00  0.274E+00    0.00       1.0  T
  32   -471.5149433 -0.146013E+01  0.200E+00    0.00       1.0  T
  33   -471.7079272 -0.192984E+00  0.175E+00    0.00       1.0  T
  34   -472.1858432 -0.477916E+00  0.128E+00    0.00       1.0  T
  35   -472.5763088 -0.390466E+00  0.848E-01    0.00       1.0  T
  36   -472.1074287  0.468880E+00  0.136E+00    0.00       1.0  T
  37   -472.5943941 -0.486965E+00  0.781E-01    0.00       1.0  T
  38   -472.7190963 -0.124702E+00  0.566E-01    0.00       1.0  T
  39   -472.7268021 -0.770582E-02  0.522E-01    0.00       1.0  T
  40   -472.8054272 -0.786251E-01  0.283E-01    0.00       1.0  T
  41   -472.8130796 -0.765234E-02  0.236E-01    0.00       1.0  T
  42   -472.8250229 -0.119434E-01  0.154E-01    0.00       1.0  T
  43   -472.8299865 -0.496360E-02  0.102E-01    0.00       1.0  T
  44   -472.8320235 -0.203692E-02  0.694E-02    0.00       1.0  T
  45   -472.8316775  0.345945E-03  0.711E-02    0.00       1.0  T
  46   -472.8331496 -0.147207E-02  0.358E-02    0.00       1.0  T
  47   -472.8323527  0.796907E-03  0.545E-02    0.00       1.0  T
  48   -472.8330040 -0.651338E-03  0.392E-02    0.00       1.0  T
  49   -472.8334740 -0.469961E-03  0.206E-02    0.00       1.0  T
  50   -472.8335473 -0.732961E-04  0.138E-02    0.00       1.0  T
  51   -472.8335574 -0.101626E-04  0.111E-02    0.00       1.0  T
  52   -472.8336016 -0.441763E-04  0.344E-03    0.00       1.8  T
  53   -472.8335908  0.108067E-04  0.644E-03    0.00       1.0  T
  54   -472.8336040 -0.131604E-04  0.310E-03    0.00       2.0  T
  55   -472.8336051 -0.112620E-05  0.195E-03    0.00       3.2  T
  56   -472.8336063 -0.117514E-05  0.974E-04    0.00       6.4  T
  57   -472.8336065 -0.256382E-06  0.558E-04    0.00      11.1  T
  58   -472.8336066 -0.492276E-07  0.399E-04    0.00      15.6  T
     SCC iter.                  ...        0 min, 12.511 sec
     gradient                   ...        0 min,  0.520 sec
 * total energy  :  -464.9969364 Eh     change       -0.3629782E+00 Eh
   gradient norm :     0.5447000 Eh/α   predicted    -0.3020617E+00 ( -16.78%)
   displ. norm   :     0.6542627 α      lambda       -0.2984521E+00
   maximum displ.:     0.2022939 α      in ANC's #262, #753, #263, ...

........................................................................
.............................. CYCLE    3 ..............................
........................................................................
   1   -472.8421257 -0.472842E+03  0.970E-01    0.01       0.0  T
   2   -461.8388813  0.110032E+02  0.534E+00    0.00       1.0  T
   3   -463.0671453 -0.122826E+01  0.514E+00    0.02       1.0  T
   4   -458.7453238  0.432182E+01  0.606E+00    0.02       1.0  T
   5   -456.9652423  0.178008E+01  0.656E+00    0.11       1.0  T
   6   -460.8321917 -0.386695E+01  0.561E+00    0.04       1.0  T
   7   -464.8196767 -0.398749E+01  0.486E+00    0.01       1.0  T
   8   -463.1585942  0.166108E+01  0.541E+00    0.02       1.0  T
   9   -464.1556845 -0.997090E+00  0.483E+00    0.02       1.0  T
  10   -461.3815455  0.277414E+01  0.571E+00    0.00       1.0  T
  11   -469.6245769 -0.824303E+01  0.274E+00    0.01       1.0  T
  12   -468.5866754  0.103790E+01  0.320E+00    0.02       1.0  T
  13   -469.6796841 -0.109301E+01  0.293E+00    0.01       1.0  T
  14   -470.2888319 -0.609148E+00  0.267E+00    0.01       1.0  T
  15   -471.1075921 -0.818760E+00  0.226E+00    0.00       1.0  T
  16   -470.7887153  0.318877E+00  0.237E+00    0.00       1.0  T
  17   -469.3257800  0.146294E+01  0.295E+00    0.00       1.0  T
  18   -468.1408142  0.118497E+01  0.350E+00    0.05       1.0  T
  19   -467.3499612  0.790853E+00  0.379E+00    0.04       1.0  T
  20   -469.1127282 -0.176277E+01  0.318E+00    0.00       1.0  T
  21   -465.8665640  0.324616E+01  0.432E+00    0.02       1.0  T
  22   -465.3896560  0.476908E+00  0.443E+00    0.01       1.0  T
  23   -465.2828433  0.106813E+00  0.446E+00    0.00       1.0  T
  24   -465.8905411 -0.607698E+00  0.427E+00    0.01       1.0  T
  25   -466.6808365 -0.790295E+00  0.398E+00    0.01       1.0  T
  26   -466.5072926  0.173544E+00  0.404E+00    0.01       1.0  T
  27   -470.4276552 -0.392036E+01  0.240E+00    0.03       1.0  T
  28   -465.8133991  0.461426E+01  0.458E+00    0.03       1.0  T
  29   -465.1453896  0.668009E+00  0.473E+00    0.03       1.0  T
  30   -465.5480789 -0.402689E+00  0.450E+00    0.00       1.0  T
  31   -464.9908580  0.557221E+00  0.453E+00    0.01       1.0  T
  32   -468.9806881 -0.398983E+01  0.326E+00    0.01       1.0  T
  33   -470.0933730 -0.111268E+01  0.272E+00    0.02       1.0  T
  34   -469.5127063  0.580667E+00  0.305E+00    0.00       1.0  T
  35   -470.7493645 -0.123666E+01  0.232E+00    0.02       1.0  T
  36   -472.3735182 -0.162415E+01  0.116E+00    0.00       1.0  T
  37   -471.6409204  0.732598E+00  0.178E+00    0.00       1.0  T
  38   -470.6673683  0.973552E+00  0.226E+00    0.01       1.0  T
  39   -471.6976358 -0.103027E+01  0.166E+00    0.00       1.0  T
  40   -472.5481965 -0.850561E+00  0.926E-01    0.00       1.0  T
  41   -472.5669583 -0.187617E-01  0.854E-01    0.00       1.0  T
  42   -472.7979233 -0.230965E+00  0.408E-01    0.00       1.0  T
  43   -472.7949405  0.298286E-02  0.447E-01    0.00       1.0  T
  44   -472.8100715 -0.151310E-01  0.389E-01    0.00       1.0  T
  45   -472.7185891  0.914824E-01  0.625E-01    0.00       1.0  T
  46   -472.7593576 -0.407686E-01  0.532E-01    0.00       1.0  T
  47   -472.8207742 -0.614166E-01  0.370E-01    0.00       1.0  T
  48   -472.8253524 -0.457817E-02  0.356E-01    0.00       1.0  T
  49   -472.8587361 -0.333838E-01  0.194E-01    0.00       1.0  T
  50   -472.8546267  0.410941E-02  0.219E-01    0.00       1.0  T
  51   -472.8693487 -0.147220E-01  0.108E-01    0.00       1.0  T
  52   -472.8696951 -0.346338E-03  0.995E-02    0.00       1.0  T
  53   -472.8702998 -0.604702E-03  0.962E-02    0.00       1.0  T
  54   -472.8707839 -0.484107E-03  0.852E-02    0.00       1.0  T
  55   -472.8719137 -0.112984E-02  0.639E-02    0.00       1.0  T
  56   -472.8722882 -0.374453E-03  0.532E-02    0.00       1.0  T
  57   -472.8725372 -0.248983E-03  0.452E-02    0.00       1.0  T
  58   -472.8731896 -0.652461E-03  0.247E-02    0.00       1.0  T
  59   -472.8732396 -0.499330E-04  0.222E-02    0.00       1.0  T
  60   -472.8733075 -0.679025E-04  0.177E-02    0.00       1.0  T
  61   -472.8734025 -0.949989E-04  0.856E-03    0.00       1.0  T
  62   -472.8734086 -0.611220E-05  0.787E-03    0.00       1.0  T
  63   -472.8734211 -0.125756E-04  0.680E-03    0.00       1.0  T
  64   -472.8734229 -0.172737E-05  0.545E-03    0.00       1.1  T
  65   -472.8734266 -0.376085E-05  0.454E-03    0.00       1.4  T
  66   -472.8734303 -0.362780E-05  0.293E-03    0.00       2.1  T
  67   -472.8734266  0.361809E-05  0.396E-03    0.00       1.6  T
  68   -472.8734267 -0.441560E-07  0.405E-03    0.00       1.5  T
  69   -472.8734287 -0.202503E-05  0.346E-03    0.00       1.8  T
  70   -472.8734300 -0.132508E-05  0.289E-03    0.00       2.2  T
  71   -472.8734317 -0.171055E-05  0.208E-03    0.00       3.0  T
  72   -472.8734327 -0.964221E-06  0.127E-03    0.00       4.9  T
  73   -472.8734329 -0.205284E-06  0.999E-04    0.00       6.2  T
  74   -472.8734332 -0.255091E-06  0.526E-04    0.00      11.8  T
     SCC iter.                  ...        0 min, 15.977 sec
     gradient                   ...        0 min,  0.521 sec
 * total energy  :  -465.2192868 Eh     change       -0.2223504E+00 Eh
   gradient norm :     0.2364576 Eh/α   predicted    -0.2131037E+00 (  -4.16%)
   displ. norm   :     0.7431893 α      lambda       -0.1470869E+00
   maximum displ.:     0.2619690 α      in ANC's #262, #257, #263, ...

........................................................................
.............................. CYCLE    4 ..............................
........................................................................
   1   -472.9334501 -0.472933E+03  0.167E+00    0.03       0.0  T
   2   -467.1859854  0.574746E+01  0.451E+00    0.02       1.0  T
   3   -425.8978054  0.412882E+02  0.906E+00    0.10       1.0  T
   4   -466.1978789 -0.403001E+02  0.465E+00    0.03       1.0  T
   5   -459.9608910  0.623699E+01  0.580E+00    0.01       1.0  T
   6   -461.2891815 -0.132829E+01  0.583E+00    0.03       1.0  T
   7   -467.4193632 -0.613018E+01  0.389E+00    0.01       1.0  T
   8   -468.1483604 -0.728997E+00  0.359E+00    0.01       1.0  T
   9   -465.0112680  0.313709E+01  0.478E+00    0.01       1.0  T
  10   -469.1475822 -0.413631E+01  0.310E+00    0.00       1.0  T
  11   -467.2644941  0.188309E+01  0.368E+00    0.02       1.0  T
  12   -470.2035408 -0.293905E+01  0.278E+00    0.00       1.0  T
  13   -469.7967471  0.406794E+00  0.274E+00    0.03       1.0  T
  14   -470.2753725 -0.478625E+00  0.260E+00    0.01       1.0  T
  15   -471.5886201 -0.131325E+01  0.186E+00    0.00       1.0  T
  16   -471.6566128 -0.679927E-01  0.174E+00    0.01       1.0  T
  17   -471.5564281  0.100185E+00  0.182E+00    0.01       1.0  T
  18   -471.7499943 -0.193566E+00  0.173E+00    0.02       1.0  T
  19   -468.9830229  0.276697E+01  0.283E+00    0.01       1.0  T
  20   -470.7724405 -0.178942E+01  0.227E+00    0.01       1.0  T
  21   -470.9398136 -0.167373E+00  0.209E+00    0.01       1.0  T
  22   -472.4582243 -0.151841E+01  0.118E+00    0.00       1.0  T
  23   -472.1038122  0.354412E+00  0.170E+00    0.01       1.0  T
  24   -472.2145351 -0.110723E+00  0.165E+00    0.00       1.0  T
  25   -472.2268527 -0.123176E-01  0.171E+00    0.00       1.0  T
  26   -472.5347108 -0.307858E+00  0.155E+00    0.00       1.0  T
  27   -472.6260785 -0.913677E-01  0.149E+00    0.00       1.0  T
  28   -472.6211254  0.495311E-02  0.149E+00    0.00       1.0  T
  29   -472.3256365  0.295489E+00  0.156E+00    0.01       1.0  T
  30   -472.0572141  0.268422E+00  0.171E+00    0.00       1.0  T
  31   -472.3494984 -0.292284E+00  0.151E+00    0.01       1.0  T
  32   -472.0091763  0.340322E+00  0.165E+00    0.00       1.0  T
  33   -472.1191916 -0.110015E+00  0.161E+00    0.00       1.0  T
  34   -472.4054810 -0.286289E+00  0.156E+00    0.00       1.0  T
  35   -472.6395216 -0.234041E+00  0.137E+00    0.00       1.0  T
  36   -472.6574180 -0.178964E-01  0.102E+00    0.01       1.0  T
  37   -472.7778334 -0.120415E+00  0.744E-01    0.00       1.0  T
  38   -472.6560019  0.121832E+00  0.888E-01    0.00       1.0  T
  39   -472.7807856 -0.124784E+00  0.803E-01    0.00       1.0  T
  40   -472.9549666 -0.174181E+00  0.360E-01    0.00       1.0  T
  41   -472.9455332  0.943341E-02  0.446E-01    0.00       1.0  T
  42   -472.9419366  0.359658E-02  0.352E-01    0.00       1.0  T
  43   -472.8932471  0.486896E-01  0.403E-01    0.00       1.0  T
  44   -472.9268327 -0.335856E-01  0.300E-01    0.00       1.0  T
  45   -472.9400080 -0.131753E-01  0.261E-01    0.00       1.0  T
  46   -472.9458711 -0.586312E-02  0.221E-01    0.00       1.0  T
  47   -472.9609393 -0.150682E-01  0.124E-01    0.00       1.0  T
  48   -472.9638373 -0.289803E-02  0.901E-02    0.00       1.0  T
  49   -472.9625946  0.124275E-02  0.979E-02    0.00       1.0  T
  50   -472.9665102 -0.391564E-02  0.394E-02    0.00       1.0  T
  51   -472.9667238 -0.213593E-03  0.281E-02    0.00       1.0  T
  52   -472.9666054  0.118356E-03  0.312E-02    0.00       1.0  T
  53   -472.9666969 -0.914213E-04  0.279E-02    0.00       1.0  T
  54   -472.9669561 -0.259276E-03  0.149E-02    0.00       1.0  T
  55   -472.9670072 -0.510308E-04  0.102E-02    0.00       1.0  T
  56   -472.9670268 -0.196115E-04  0.767E-03    0.00       1.0  T
  57   -472.9670453 -0.184783E-04  0.378E-03    0.00       1.6  T
  58   -472.9670480 -0.275402E-05  0.263E-03    0.00       2.4  T
  59   -472.9670497 -0.171599E-05  0.164E-03    0.00       3.8  T
  60   -472.9670502 -0.423963E-06  0.130E-03    0.00       4.8  T
  61   -472.9670500  0.167271E-06  0.139E-03    0.00       4.5  T
  62   -472.9670508 -0.775155E-06  0.529E-04    0.00      11.7  T
  63   -472.9670507  0.892176E-07  0.655E-04    0.00       9.5  T
     SCC iter.                  ...        0 min, 13.579 sec
     gradient                   ...        0 min,  0.519 sec
 * total energy  :  -465.3397168 Eh     change       -0.1204300E+00 Eh
   gradient norm :     0.1351898 Eh/α   predicted    -0.1141638E+00 (  -5.20%)
   displ. norm   :     0.8280010 α      lambda       -0.1054978E+00
   maximum displ.:     0.2793985 α      in ANC's #262, #131, #257, ...

........................................................................
.............................. CYCLE    5 ..............................
........................................................................
   1   -473.0213771 -0.473021E+03  0.206E+00    0.05       0.0  T
   2   -466.4925943  0.652878E+01  0.569E+00    0.01       1.0  T
   3   -440.1665134  0.263261E+02  0.817E+00    0.00       1.0  T
   4   -459.5511700 -0.193847E+02  0.595E+00    0.09       1.0  T
   5   -462.4116985 -0.286053E+01  0.530E+00    0.04       1.0  T
   6   -459.1448023  0.326690E+01  0.561E+00    0.02       1.0  T
   7   -465.1566502 -0.601185E+01  0.437E+00    0.03       1.0  T
   8   -463.6206787  0.153597E+01  0.504E+00    0.05       1.0  T
   9   -465.8521325 -0.223145E+01  0.445E+00    0.00       1.0  T
  10   -470.3676110 -0.451548E+01  0.283E+00    0.01       1.0  T
  11   -467.7435903  0.262402E+01  0.398E+00    0.02       1.0  T
  12   -471.2234882 -0.347990E+01  0.263E+00    0.03       1.0  T
  13   -471.0038953  0.219593E+00  0.249E+00    0.01       1.0  T
  14   -471.4889516 -0.485056E+00  0.218E+00    0.00       1.0  T
  15   -470.5322173  0.956734E+00  0.259E+00    0.02       1.0  T
  16   -471.1224768 -0.590260E+00  0.225E+00    0.00       1.0  T
  17   -469.8187858  0.130369E+01  0.308E+00    0.02       1.0  T
  18   -469.6079906  0.210795E+00  0.311E+00    0.04       1.0  T
  19   -470.2609662 -0.652976E+00  0.283E+00    0.03       1.0  T
  20   -470.0670067  0.193960E+00  0.258E+00    0.00       1.0  T
  21   -470.2937432 -0.226737E+00  0.275E+00    0.00       1.0  T
  22   -471.4073233 -0.111358E+01  0.235E+00    0.01       1.0  T
  23   -471.2895281  0.117795E+00  0.218E+00    0.01       1.0  T
  24   -471.9140865 -0.624558E+00  0.180E+00    0.01       1.0  T
  25   -472.1203648 -0.206278E+00  0.166E+00    0.00       1.0  T
  26   -471.2993718  0.820993E+00  0.207E+00    0.00       1.0  T
  27   -472.3620195 -0.106265E+01  0.147E+00    0.01       1.0  T
  28   -472.8711560 -0.509136E+00  0.113E+00    0.00       1.0  T
  29   -472.7897401  0.814159E-01  0.130E+00    0.01       1.0  T
  30   -472.7850743  0.466579E-02  0.131E+00    0.00       1.0  T
  31   -472.6599824  0.125092E+00  0.132E+00    0.00       1.0  T
  32   -472.5677072  0.922752E-01  0.130E+00    0.00       1.0  T
  33   -472.5689048 -0.119757E-02  0.142E+00    0.00       1.0  T
  34   -472.4175770  0.151328E+00  0.153E+00    0.00       1.0  T
  35   -472.9254870 -0.507910E+00  0.910E-01    0.00       1.0  T
  36   -473.0225097 -0.970227E-01  0.663E-01    0.00       1.0  T
  37   -472.8547167  0.167793E+00  0.928E-01    0.01       1.0  T
  38   -473.0085480 -0.153831E+00  0.612E-01    0.01       1.0  T
  39   -473.0356059 -0.270580E-01  0.378E-01    0.01       1.0  T
  40   -473.0383579 -0.275195E-02  0.327E-01    0.01       1.0  T
  41   -473.0435146 -0.515669E-02  0.253E-01    0.01       1.0  T
  42   -473.0469263 -0.341170E-02  0.206E-01    0.01       1.0  T
  43   -473.0484616 -0.153533E-02  0.180E-01    0.00       1.0  T
  44   -473.0505046 -0.204295E-02  0.163E-01    0.01       1.0  T
  45   -473.0536403 -0.313577E-02  0.131E-01    0.01       1.0  T
  46   -473.0518912  0.174912E-02  0.153E-01    0.01       1.0  T
  47   -473.0584938 -0.660261E-02  0.771E-02    0.01       1.0  T
  48   -473.0579947  0.499095E-03  0.814E-02    0.01       1.0  T
  49   -473.0588121 -0.817352E-03  0.690E-02    0.01       1.0  T
  50   -473.0585497  0.262338E-03  0.664E-02    0.01       1.0  T
  51   -473.0598379 -0.128817E-02  0.355E-02    0.01       1.0  T
  52   -473.0599118 -0.739098E-04  0.310E-02    0.01       1.0  T
  53   -473.0599345 -0.226818E-04  0.297E-02    0.01       1.0  T
  54   -473.0600925 -0.157953E-03  0.134E-02    0.01       1.0  T
  55   -473.0600917  0.732519E-06  0.118E-02    0.01       1.0  T
  56   -473.0601145 -0.227496E-04  0.808E-03    0.01       1.0  T
  57   -473.0601028  0.116825E-04  0.762E-03    0.01       1.0  T
  58   -473.0601179 -0.151466E-04  0.468E-03    0.01       1.3  T
  59   -473.0601201 -0.220894E-05  0.345E-03    0.01       1.8  T
  60   -473.0601243 -0.415135E-05  0.169E-03    0.01       3.7  T
  61   -473.0601251 -0.759610E-06  0.101E-03    0.01       6.2  T
  62   -473.0601254 -0.389837E-06  0.482E-04    0.01      12.9  T
  63   -473.0601255 -0.323180E-07  0.369E-04    0.01      16.9  T
     SCC iter.                  ...        0 min, 13.597 sec
     gradient                   ...        0 min,  0.518 sec
 * total energy  :  -465.4333715 Eh     change       -0.9365467E-01 Eh
   gradient norm :     0.1160040 Eh/α   predicted    -0.8891371E-01 (  -5.06%)
   displ. norm   :     0.8808894 α      lambda       -0.9050449E-01
   maximum displ.:     0.2767200 α      in ANC's #262, #131, #135, ...

........................................................................
.............................. CYCLE    6 ..............................
........................................................................
   1   -473.1104947 -0.473110E+03  0.214E+00    0.07       0.0  T
   2   -462.5213552  0.105891E+02  0.638E+00    0.01       1.0  T
   3   -442.3820993  0.201393E+02  0.804E+00    0.03       1.0  T
   4   -458.1001713 -0.157181E+02  0.599E+00    0.03       1.0  T
   5   -462.9472065 -0.484704E+01  0.541E+00    0.02       1.0  T
   6   -458.6664754  0.428073E+01  0.653E+00    0.04       1.0  T
   7   -465.6802804 -0.701380E+01  0.486E+00    0.04       1.0  T
   8   -469.7928728 -0.411259E+01  0.336E+00    0.01       1.0  T
   9   -467.9382843  0.185459E+01  0.408E+00    0.03       1.0  T
  10   -470.2590833 -0.232080E+01  0.301E+00    0.01       1.0  T
  11   -470.6649876 -0.405904E+00  0.270E+00    0.00       1.0  T
  12   -470.9654338 -0.300446E+00  0.263E+00    0.01       1.0  T
  13   -470.9584840  0.694977E-02  0.265E+00    0.00       1.0  T
  14   -470.7952153  0.163269E+00  0.278E+00    0.01       1.0  T
  15   -469.9640213  0.831194E+00  0.313E+00    0.03       1.0  T
  16   -469.8832895  0.807318E-01  0.317E+00    0.03       1.0  T
  17   -470.0249817 -0.141692E+00  0.310E+00    0.02       1.0  T
  18   -470.1282950 -0.103313E+00  0.303E+00    0.00       1.0  T
  19   -469.8355934  0.292702E+00  0.318E+00    0.00       1.0  T
  20   -469.8842963 -0.487029E-01  0.315E+00    0.01       1.0  T
  21   -470.9598699 -0.107557E+01  0.275E+00    0.01       1.0  T
  22   -470.1678847  0.791985E+00  0.310E+00    0.01       1.0  T
  23   -469.0939188  0.107397E+01  0.342E+00    0.06       1.0  T
  24   -469.1400409 -0.461221E-01  0.322E+00    0.06       1.0  T
  25   -466.1492986  0.299074E+01  0.480E+00    0.04       1.0  T
  26   -465.6126770  0.536622E+00  0.488E+00    0.01       1.0  T
  27   -466.2448741 -0.632197E+00  0.472E+00    0.04       1.0  T
  28   -468.5510795 -0.230621E+01  0.393E+00    0.03       1.0  T
  29   -466.4582562  0.209282E+01  0.444E+00    0.03       1.0  T
  30   -471.0765722 -0.461832E+01  0.268E+00    0.01       1.0  T
  31   -471.9126486 -0.836076E+00  0.232E+00    0.02       1.0  T
  32   -471.8362342  0.764144E-01  0.223E+00    0.00       1.0  T
  33   -472.2590894 -0.422855E+00  0.170E+00    0.01       1.0  T
  34   -471.2837055  0.975384E+00  0.235E+00    0.02       1.0  T
  35   -471.9878459 -0.704140E+00  0.214E+00    0.02       1.0  T
  36   -471.6097454  0.378100E+00  0.224E+00    0.00       1.0  T
  37   -472.0978582 -0.488113E+00  0.184E+00    0.01       1.0  T
  38   -472.2195149 -0.121657E+00  0.170E+00    0.00       1.0  T
  39   -472.0187915  0.200723E+00  0.165E+00    0.00       1.0  T
  40   -472.2138457 -0.195054E+00  0.154E+00    0.00       1.0  T
  41   -472.2517319 -0.378862E-01  0.145E+00    0.01       1.0  T
  42   -472.5358737 -0.284142E+00  0.140E+00    0.01       1.0  T
  43   -472.7653074 -0.229434E+00  0.115E+00    0.00       1.0  T
  44   -472.8274515 -0.621441E-01  0.110E+00    0.01       1.0  T
  45   -472.9809302 -0.153479E+00  0.864E-01    0.00       1.0  T
  46   -472.8897730  0.911572E-01  0.944E-01    0.01       1.0  T
  47   -472.9844686 -0.946956E-01  0.897E-01    0.00       1.0  T
  48   -472.8074670  0.177002E+00  0.123E+00    0.01       1.0  T
  49   -472.8588653 -0.513983E-01  0.993E-01    0.00       1.0  T
  50   -472.9571967 -0.983314E-01  0.722E-01    0.00       1.0  T
  51   -473.0578094 -0.100613E+00  0.549E-01    0.01       1.0  T
  52   -473.0485217  0.928771E-02  0.573E-01    0.01       1.0  T
  53   -473.0794188 -0.308971E-01  0.485E-01    0.01       1.0  T
  54   -473.0625517  0.168671E-01  0.550E-01    0.01       1.0  T
  55   -473.1176295 -0.550778E-01  0.390E-01    0.01       1.0  T
  56   -473.1005709  0.170586E-01  0.436E-01    0.01       1.0  T
  57   -473.1202199 -0.196490E-01  0.359E-01    0.01       1.0  T
  58   -473.1339179 -0.136980E-01  0.294E-01    0.02       1.0  T
  59   -473.1429870 -0.906907E-02  0.224E-01    0.02       1.0  T
  60   -473.1442868 -0.129982E-02  0.182E-01    0.02       1.0  T
  61   -473.1471968 -0.291004E-02  0.124E-01    0.02       1.0  T
  62   -473.1485802 -0.138332E-02  0.911E-02    0.02       1.0  T
  63   -473.1497264 -0.114623E-02  0.646E-02    0.02       1.0  T
  64   -473.1503685 -0.642133E-03  0.459E-02    0.02       1.0  T
  65   -473.1504496 -0.811081E-04  0.358E-02    0.02       1.0  T
  66   -473.1506288 -0.179199E-03  0.205E-02    0.02       1.0  T
  67   -473.1506652 -0.363448E-04  0.174E-02    0.02       1.0  T
  68   -473.1507258 -0.606615E-04  0.108E-02    0.02       1.0  T
  69   -473.1507375 -0.117015E-04  0.939E-03    0.02       1.0  T
  70   -473.1507341  0.342852E-05  0.973E-03    0.02       1.0  T
  71   -473.1507470 -0.129141E-04  0.768E-03    0.02       1.0  T
  72   -473.1507619 -0.148596E-04  0.374E-03    0.02       1.7  T
  73   -473.1507638 -0.195061E-05  0.221E-03    0.02       2.8  T
  74   -473.1507645 -0.698927E-06  0.113E-03    0.02       5.5  T
  75   -473.1507648 -0.235947E-06  0.104E-03    0.02       6.0  T
  76   -473.1507646  0.108918E-06  0.990E-04    0.02       6.3  T
  77   -473.1507649 -0.256769E-06  0.464E-04    0.02      13.4  T
     SCC iter.                  ...        0 min, 16.621 sec
     gradient                   ...        0 min,  0.519 sec
 * total energy  :  -465.5162950 Eh     change       -0.8292353E-01 Eh
   gradient norm :     0.1025325 Eh/α   predicted    -0.8036777E-01 (  -3.08%)
   displ. norm   :     0.9104429 α      lambda       -0.8027212E-01
   maximum displ.:     0.2912636 α      in ANC's #131, #262, #138, ...

........................................................................
.............................. CYCLE    7 ..............................
........................................................................
   1   -473.2070106 -0.473207E+03  0.190E+00    0.09       0.0  T
   2   -462.6193666  0.105876E+02  0.672E+00    0.02       1.0  T
   3   -444.5948802  0.180245E+02  0.771E+00    0.02       1.0  T
   4   -456.1145003 -0.115196E+02  0.705E+00    0.27       1.0  T
   5   -464.5042053 -0.838970E+01  0.538E+00    0.01       1.0  T
   6   -462.1546802  0.234953E+01  0.576E+00    0.01       1.0  T
   7   -470.1605992 -0.800592E+01  0.300E+00    0.01       1.0  T
   8   -470.9757292 -0.815130E+00  0.261E+00    0.00       1.0  T
   9   -469.4021167  0.157361E+01  0.335E+00    0.04       1.0  T
  10   -471.0831021 -0.168099E+01  0.273E+00    0.01       1.0  T
  11   -472.1443380 -0.106124E+01  0.192E+00    0.01       1.0  T
  12   -471.3142126  0.830125E+00  0.222E+00    0.02       1.0  T
  13   -471.3094890  0.472363E-02  0.227E+00    0.02       1.0  T
  14   -472.7378163 -0.142833E+01  0.135E+00    0.00       1.0  T
  15   -467.4783684  0.525945E+01  0.422E+00    0.02       1.0  T
  16   -469.8693246 -0.239096E+01  0.323E+00    0.02       1.0  T
  17   -469.9017420 -0.324173E-01  0.324E+00    0.01       1.0  T
  18   -470.4340174 -0.532275E+00  0.297E+00    0.02       1.0  T
  19   -471.5534065 -0.111939E+01  0.224E+00    0.01       1.0  T
  20   -471.6596533 -0.106247E+00  0.226E+00    0.03       1.0  T
  21   -471.2157510  0.443902E+00  0.258E+00    0.01       1.0  T
  22   -470.6121657  0.603585E+00  0.268E+00    0.04       1.0  T
  23   -470.2266220  0.385544E+00  0.288E+00    0.02       1.0  T
  24   -470.7881400 -0.561518E+00  0.284E+00    0.01       1.0  T
  25   -470.9193611 -0.131221E+00  0.285E+00    0.01       1.0  T
  26   -471.1840141 -0.264653E+00  0.251E+00    0.01       1.0  T
  27   -472.0789399 -0.894926E+00  0.246E+00    0.01       1.0  T
  28   -471.9325831  0.146357E+00  0.239E+00    0.02       1.0  T
  29   -471.5335267  0.399056E+00  0.225E+00    0.01       1.0  T
  30   -472.5802591 -0.104673E+01  0.177E+00    0.01       1.0  T
  31   -472.9694455 -0.389186E+00  0.167E+00    0.02       1.0  T
  32   -473.0591255 -0.896800E-01  0.156E+00    0.03       1.0  T
  33   -473.1957627 -0.136637E+00  0.157E+00    0.06       1.0  T
  34   -473.2107279 -0.149652E-01  0.143E+00    0.06       1.0  T
  35   -473.2084755  0.225243E-02  0.108E+00    0.05       1.0  T
  36   -473.2171750 -0.869947E-02  0.609E-01    0.04       1.0  T
  37   -473.2219251 -0.475014E-02  0.440E-01    0.04       1.0  T
  38   -473.2318317 -0.990656E-02  0.299E-01    0.04       1.0  T
  39   -473.2256394  0.619227E-02  0.304E-01    0.03       1.0  T
  40   -473.2381907 -0.125513E-01  0.162E-01    0.04       1.0  T
  41   -473.2275919  0.105988E-01  0.198E-01    0.03       1.0  T
  42   -473.2331334 -0.554151E-02  0.183E-01    0.04       1.0  T
  43   -473.2348101 -0.167675E-02  0.127E-01    0.04       1.0  T
  44   -473.2399969 -0.518677E-02  0.915E-02    0.04       1.0  T
  45   -473.2408020 -0.805128E-03  0.450E-02    0.04       1.0  T
  46   -473.2414012 -0.599190E-03  0.364E-02    0.04       1.0  T
  47   -473.2414853 -0.840764E-04  0.285E-02    0.04       1.0  T
  48   -473.2415645 -0.792151E-04  0.224E-02    0.04       1.0  T
  49   -473.2416617 -0.971618E-04  0.130E-02    0.04       1.0  T
  50   -473.2416754 -0.137145E-04  0.117E-02    0.04       1.0  T
  51   -473.2416795 -0.406209E-05  0.109E-02    0.04       1.0  T
  52   -473.2416869 -0.743201E-05  0.936E-03    0.04       1.0  T
  53   -473.2416891 -0.224552E-05  0.764E-03    0.04       1.0  T
  54   -473.2416919 -0.272777E-05  0.687E-03    0.04       1.0  T
  55   -473.2416934 -0.148806E-05  0.617E-03    0.04       1.0  T
  56   -473.2416931  0.265899E-06  0.533E-03    0.04       1.2  T
  57   -473.2416938 -0.669150E-06  0.431E-03    0.04       1.4  T
  58   -473.2416945 -0.767469E-06  0.318E-03    0.04       2.0  T
  59   -473.2416936  0.946744E-06  0.295E-03    0.04       2.1  T
  60   -473.2416940 -0.389122E-06  0.258E-03    0.04       2.4  T
  61   -473.2416947 -0.707362E-06  0.194E-03    0.04       3.2  T
  62   -473.2416946  0.759372E-07  0.149E-03    0.04       4.2  T
  63   -473.2416948 -0.225273E-06  0.107E-03    0.04       5.8  T
  64   -473.2416951 -0.305684E-06  0.523E-04    0.04      11.9  T
  65   -473.2416952 -0.389219E-07  0.330E-04    0.04      18.8  T
     SCC iter.                  ...        0 min, 14.010 sec
     gradient                   ...        0 min,  0.521 sec
 * total energy  :  -465.5912349 Eh     change       -0.7493989E-01 Eh
   gradient norm :     0.0884435 Eh/α   predicted    -0.7340509E-01 (  -2.05%)
   displ. norm   :     0.9372277 α      lambda       -0.7326550E-01
   maximum displ.:     0.3022522 α      in ANC's #131, #83, #138, ...

........................................................................
.............................. CYCLE    8 ..............................
........................................................................
   1   -473.3039559 -0.473304E+03  0.140E+00    0.10       0.0  T
   2   -464.8436448  0.846031E+01  0.683E+00    0.02       1.0  T
   3   -458.4052600  0.643838E+01  0.588E+00    0.02       1.0  T
   4   -461.9768216 -0.357156E+01  0.608E+00    0.01       1.0  T
   5   -462.1655571 -0.188735E+00  0.624E+00    0.00       1.0  T
   6   -466.7362321 -0.457068E+01  0.457E+00    0.04       1.0  T
   7   -469.7910304 -0.305480E+01  0.350E+00    0.05       1.0  T
   8   -470.2676369 -0.476606E+00  0.323E+00    0.01       1.0  T
   9   -470.5315859 -0.263949E+00  0.310E+00    0.01       1.0  T
  10   -471.7161799 -0.118459E+01  0.237E+00    0.02       1.0  T
  11   -471.3853497  0.330830E+00  0.265E+00    0.00       1.0  T
  12   -470.9563362  0.429013E+00  0.294E+00    0.04       1.0  T
  13   -470.9831623 -0.268261E-01  0.298E+00    0.04       1.0  T
  14   -470.9754816  0.768074E-02  0.299E+00    0.03       1.0  T
  15   -471.1944095 -0.218928E+00  0.267E+00    0.02       1.0  T
  16   -470.7478384  0.446571E+00  0.323E+00    0.02       1.0  T
  17   -470.9502892 -0.202451E+00  0.298E+00    0.02       1.0  T
  18   -469.7022016  0.124809E+01  0.340E+00    0.00       1.0  T
  19   -470.5262305 -0.824029E+00  0.311E+00    0.00       1.0  T
  20   -471.2731936 -0.746963E+00  0.256E+00    0.00       1.0  T
  21   -471.0737979  0.199396E+00  0.311E+00    0.02       1.0  T
  22   -471.5634493 -0.489651E+00  0.335E+00    0.01       1.0  T
  23   -469.9197459  0.164370E+01  0.384E+00    0.01       1.0  T
  24   -470.8432696 -0.923524E+00  0.337E+00    0.04       1.0  T
  25   -471.0785580 -0.235288E+00  0.327E+00    0.05       1.0  T
  26   -471.1349245 -0.563665E-01  0.305E+00    0.03       1.0  T
  27   -471.6147308 -0.479806E+00  0.278E+00    0.01       1.0  T
  28   -472.2679740 -0.653243E+00  0.294E+00    0.02       1.0  T
  29   -472.1410748  0.126899E+00  0.265E+00    0.00       1.0  T
  30   -472.6881622 -0.547087E+00  0.236E+00    0.00       1.0  T
  31   -472.5787929  0.109369E+00  0.257E+00    0.00       1.0  T
  32   -472.5814037 -0.261075E-02  0.257E+00    0.00       1.0  T
  33   -472.6989492 -0.117545E+00  0.234E+00    0.00       1.0  T
  34   -473.1948281 -0.495879E+00  0.203E+00    0.03       1.0  T
  35   -473.2437177 -0.488896E-01  0.190E+00    0.04       1.0  T
  36   -472.8715092  0.372209E+00  0.180E+00    0.02       1.0  T
  37   -472.7868651  0.846441E-01  0.161E+00    0.02       1.0  T
  38   -473.2657565 -0.478891E+00  0.146E+00    0.05       1.0  T
  39   -473.1967270  0.690294E-01  0.125E+00    0.02       1.0  T
  40   -473.1613686  0.353584E-01  0.106E+00    0.02       1.0  T
  41   -473.2059376 -0.445689E-01  0.811E-01    0.04       1.0  T
  42   -473.2375275 -0.315900E-01  0.637E-01    0.04       1.0  T
  43   -473.2812857 -0.437581E-01  0.838E-01    0.04       1.0  T
  44   -473.2852508 -0.396513E-02  0.833E-01    0.04       1.0  T
  45   -473.2605598  0.246910E-01  0.657E-01    0.04       1.0  T
  46   -473.3075473 -0.469874E-01  0.755E-01    0.05       1.0  T
  47   -473.3153904 -0.784317E-02  0.596E-01    0.05       1.0  T
  48   -473.3243333 -0.894284E-02  0.589E-01    0.05       1.0  T
  49   -473.3186624  0.567086E-02  0.509E-01    0.05       1.0  T
  50   -473.3217535 -0.309107E-02  0.466E-01    0.05       1.0  T
  51   -473.3249531 -0.319958E-02  0.407E-01    0.05       1.0  T
  52   -473.3127037  0.122493E-01  0.372E-01    0.04       1.0  T
  53   -473.3169475 -0.424372E-02  0.290E-01    0.05       1.0  T
  54   -473.3246449 -0.769741E-02  0.224E-01    0.05       1.0  T
  55   -473.3226312  0.201363E-02  0.183E-01    0.05       1.0  T
  56   -473.3253145 -0.268324E-02  0.135E-01    0.05       1.0  T
  57   -473.3264842 -0.116972E-02  0.106E-01    0.06       1.0  T
  58   -473.3256801  0.804095E-03  0.837E-02    0.05       1.0  T
  59   -473.3267342 -0.105412E-02  0.486E-02    0.06       1.0  T
  60   -473.3269169 -0.182681E-03  0.328E-02    0.06       1.0  T
  61   -473.3269032  0.136498E-04  0.278E-02    0.06       1.0  T
  62   -473.3269510 -0.478163E-04  0.259E-02    0.06       1.0  T
  63   -473.3269198  0.312730E-04  0.256E-02    0.06       1.0  T
  64   -473.3269618 -0.420515E-04  0.197E-02    0.06       1.0  T
  65   -473.3269766 -0.147491E-04  0.172E-02    0.06       1.0  T
  66   -473.3270157 -0.391260E-04  0.108E-02    0.06       1.0  T
  67   -473.3270209 -0.515555E-05  0.702E-03    0.06       1.0  T
  68   -473.3270226 -0.173871E-05  0.495E-03    0.06       1.3  T
  69   -473.3270218  0.793014E-06  0.461E-03    0.06       1.3  T
  70   -473.3270226 -0.803653E-06  0.373E-03    0.06       1.7  T
  71   -473.3270233 -0.699535E-06  0.296E-03    0.06       2.1  T
  72   -473.3270242 -0.855882E-06  0.203E-03    0.06       3.1  T
  73   -473.3270246 -0.436039E-06  0.110E-03    0.06       5.7  T
  74   -473.3270247 -0.129478E-06  0.674E-04    0.06       9.2  T
  75   -473.3270248 -0.332110E-07  0.362E-04    0.06      17.2  T
     SCC iter.                  ...        0 min, 16.159 sec
     gradient                   ...        0 min,  0.520 sec
 * total energy  :  -465.6615012 Eh     change       -0.7026631E-01 Eh
   gradient norm :     0.0808781 Eh/α   predicted    -0.6881081E-01 (  -2.07%)
   displ. norm   :     0.9687668 α      lambda       -0.7141746E-01
   maximum displ.:     0.3249793 α      in ANC's #83, #131, #28, ...

........................................................................
.............................. CYCLE    9 ..............................
........................................................................
   1   -473.3894092 -0.473389E+03  0.924E-01    0.10       0.0  T
   2   -470.5815233  0.280789E+01  0.544E+00    0.01       1.0  T
   3   -461.6245684  0.895695E+01  0.662E+00    0.03       1.0  T
   4   -466.0144901 -0.438992E+01  0.502E+00    0.01       1.0  T
   5   -465.8493865  0.165104E+00  0.508E+00    0.01       1.0  T
   6   -465.9091065 -0.597200E-01  0.507E+00    0.01       1.0  T
   7   -464.0081520  0.190095E+01  0.547E+00    0.01       1.0  T
   8   -465.6839492 -0.167580E+01  0.516E+00    0.01       1.0  T
   9   -465.5991374  0.848118E-01  0.519E+00    0.01       1.0  T
  10   -465.8501523 -0.251015E+00  0.509E+00    0.00       1.0  T
  11   -462.6200111  0.323014E+01  0.605E+00    0.01       1.0  T
  12   -463.7416878 -0.112168E+01  0.600E+00    0.01       1.0  T
  13   -464.7407361 -0.999048E+00  0.576E+00    0.01       1.0  T
  14   -464.9291502 -0.188414E+00  0.564E+00    0.08       1.0  T
  15   -463.0081942  0.192096E+01  0.601E+00    0.03       1.0  T
  16   -459.3675840  0.364061E+01  0.689E+00    0.10       1.0  T
  17   -457.9233065  0.144428E+01  0.680E+00    0.00       1.0  T
  18   -459.1542007 -0.123089E+01  0.687E+00    0.09       1.0  T
  19   -460.2718858 -0.111769E+01  0.670E+00    0.04       1.0  T
  20   -458.6070420  0.166484E+01  0.665E+00    0.01       1.0  T
  21   -458.9621748 -0.355133E+00  0.675E+00    0.06       1.0  T
  22   -456.9348660  0.202731E+01  0.661E+00    0.01       1.0  T
  23   -459.6273892 -0.269252E+01  0.600E+00    0.02       1.0  T
  24   -459.7053515 -0.779623E-01  0.599E+00    0.02       1.0  T
  25   -461.1802557 -0.147490E+01  0.569E+00    0.00       1.0  T
  26   -456.9372567  0.424300E+01  0.664E+00    0.08       1.0  T
  27   -460.0364876 -0.309923E+01  0.606E+00    0.04       1.0  T
  28   -461.0801473 -0.104366E+01  0.593E+00    0.04       1.0  T
  29   -462.7678872 -0.168774E+01  0.563E+00    0.03       1.0  T
  30   -466.1592046 -0.339132E+01  0.563E+00    0.03       1.0  T
  31   -465.8322147  0.326990E+00  0.568E+00    0.03       1.0  T
  32   -466.2684095 -0.436195E+00  0.547E+00    0.01       1.0  T
  33   -467.0631513 -0.794742E+00  0.537E+00    0.02       1.0  T
  34   -465.9883463  0.107481E+01  0.554E+00    0.01       1.0  T
  35   -466.4526153 -0.464269E+00  0.548E+00    0.04       1.0  T
  36   -466.8871617 -0.434546E+00  0.535E+00    0.03       1.0  T
  37   -466.9283806 -0.412189E-01  0.534E+00    0.03       1.0  T
  38   -465.6398671  0.128851E+01  0.583E+00    0.02       1.0  T
  39   -466.0776000 -0.437733E+00  0.587E+00    0.04       1.0  T
  40   -467.8119763 -0.173438E+01  0.515E+00    0.01       1.0  T
  41   -469.0592494 -0.124727E+01  0.478E+00    0.00       1.0  T
  42   -467.9023110  0.115694E+01  0.490E+00    0.00       1.0  T
  43   -467.7786565  0.123655E+00  0.484E+00    0.03       1.0  T
  44   -467.7991554 -0.204989E-01  0.483E+00    0.02       1.0  T
  45   -466.9809891  0.818166E+00  0.500E+00    0.02       1.0  T
  46   -466.9499639  0.310252E-01  0.506E+00    0.02       1.0  T
  47   -467.2204229 -0.270459E+00  0.498E+00    0.01       1.0  T
  48   -467.3130966 -0.926737E-01  0.496E+00    0.01       1.0  T
  49   -466.9562562  0.356840E+00  0.504E+00    0.01       1.0  T
  50   -468.0127391 -0.105648E+01  0.475E+00    0.02       1.0  T
  51   -468.6167552 -0.604016E+00  0.444E+00    0.03       1.0  T
  52   -469.5423777 -0.925623E+00  0.398E+00    0.01       1.0  T
  53   -470.2474274 -0.705050E+00  0.383E+00    0.01       1.0  T
  54   -470.6714565 -0.424029E+00  0.362E+00    0.07       1.0  T
  55   -470.5077537  0.163703E+00  0.388E+00    0.04       1.0  T
  56   -468.5796857  0.192807E+01  0.485E+00    0.02       1.0  T
  57   -468.2706019  0.309084E+00  0.495E+00    0.03       1.0  T
  58   -468.6881839 -0.417582E+00  0.480E+00    0.01       1.0  T
  59   -469.1380171 -0.449833E+00  0.464E+00    0.01       1.0  T
  60   -469.4165379 -0.278521E+00  0.452E+00    0.01       1.0  T
  61   -469.6319148 -0.215377E+00  0.440E+00    0.01       1.0  T
  62   -470.4353708 -0.803456E+00  0.409E+00    0.01       1.0  T
  63   -472.1391046 -0.170373E+01  0.332E+00    0.02       1.0  T
  64   -466.9421922  0.519691E+01  0.480E+00    0.03       1.0  T
  65   -466.6011389  0.341053E+00  0.452E+00    0.03       1.0  T
  66   -471.8240099 -0.522287E+01  0.327E+00    0.03       1.0  T
  67   -471.3297958  0.494214E+00  0.299E+00    0.02       1.0  T
  68   -471.3770145 -0.472186E-01  0.298E+00    0.02       1.0  T
  69   -469.5558777  0.182114E+01  0.324E+00    0.01       1.0  T
  70   -469.9030982 -0.347221E+00  0.329E+00    0.04       1.0  T
  71   -471.5721007 -0.166900E+01  0.264E+00    0.03       1.0  T
  72   -471.6493634 -0.772627E-01  0.244E+00    0.03       1.0  T
  73   -472.5273167 -0.877953E+00  0.215E+00    0.01       1.0  T
  74   -472.6015134 -0.741967E-01  0.175E+00    0.01       1.0  T
  75   -473.2427877 -0.641274E+00  0.157E+00    0.05       1.0  T
  76   -472.9614323  0.281355E+00  0.139E+00    0.01       1.0  T
  77   -473.1201790 -0.158747E+00  0.137E+00    0.03       1.0  T
  78   -473.0048778  0.115301E+00  0.141E+00    0.01       1.0  T
  79   -473.1321202 -0.127242E+00  0.127E+00    0.03       1.0  T
  80   -472.9994152  0.132705E+00  0.118E+00    0.01       1.0  T
  81   -473.1278749 -0.128460E+00  0.113E+00    0.03       1.0  T
  82   -473.0527885  0.750864E-01  0.107E+00    0.01       1.0  T
  83   -473.1590164 -0.106228E+00  0.952E-01    0.03       1.0  T
  84   -473.0728567  0.861597E-01  0.114E+00    0.01       1.0  T
  85   -473.0766815 -0.382476E-02  0.124E+00    0.01       1.0  T
  86   -473.2954594 -0.218778E+00  0.103E+00    0.05       1.0  T
  87   -473.3558016 -0.603423E-01  0.890E-01    0.06       1.0  T
  88   -473.3693357 -0.135341E-01  0.731E-01    0.07       1.0  T
  89   -473.3358264  0.335094E-01  0.614E-01    0.06       1.0  T
  90   -473.3643616 -0.285352E-01  0.587E-01    0.07       1.0  T
  91   -473.3622828  0.207885E-02  0.604E-01    0.06       1.0  T
  92   -473.3614465  0.836281E-03  0.601E-01    0.06       1.0  T
  93   -473.3609679  0.478586E-03  0.583E-01    0.06       1.0  T
  94   -473.3517515  0.921641E-02  0.604E-01    0.05       1.0  T
  95   -473.3547901 -0.303864E-02  0.632E-01    0.06       1.0  T
  96   -473.3657289 -0.109388E-01  0.633E-01    0.06       1.0  T
  97   -473.3652359  0.493028E-03  0.635E-01    0.06       1.0  T
  98   -473.3620560  0.317990E-02  0.634E-01    0.06       1.0  T
  99   -473.3624220 -0.366021E-03  0.633E-01    0.06       1.0  T
 100   -473.3616042  0.817839E-03  0.637E-01    0.06       1.0  T
 101   -473.3611302  0.473985E-03  0.620E-01    0.06       1.0  T
 102   -473.3663057 -0.517547E-02  0.564E-01    0.06       1.0  T
 103   -473.3577232  0.858242E-02  0.590E-01    0.07       1.0  T
 104   -473.3615210 -0.379780E-02  0.577E-01    0.06       1.0  T
 105   -473.3648664 -0.334536E-02  0.562E-01    0.06       1.0  T
 106   -473.3704122 -0.554577E-02  0.521E-01    0.07       1.0  T
 107   -473.3717203 -0.130808E-02  0.496E-01    0.07       1.0  T
 108   -473.3667271  0.499314E-02  0.514E-01    0.07       1.0  T
 109   -473.3671005 -0.373372E-03  0.504E-01    0.07       1.0  T
 110   -473.3636761  0.342437E-02  0.524E-01    0.07       1.0  T
 111   -473.3731679 -0.949177E-02  0.499E-01    0.07       1.0  T
 112   -473.3705633  0.260457E-02  0.506E-01    0.07       1.0  T
 113   -473.3846789 -0.141156E-01  0.458E-01    0.07       1.0  T
 114   -473.3810990  0.357986E-02  0.443E-01    0.07       1.0  T
 115   -473.3894863 -0.838730E-02  0.368E-01    0.07       1.0  T
 116   -473.3882546  0.123168E-02  0.326E-01    0.06       1.0  T
 117   -473.3941254 -0.587074E-02  0.250E-01    0.07       1.0  T
 118   -473.3955562 -0.143079E-02  0.209E-01    0.07       1.0  T
 119   -473.3983186 -0.276243E-02  0.160E-01    0.07       1.0  T
 120   -473.3990538 -0.735245E-03  0.135E-01    0.07       1.0  T
 121   -473.4000741 -0.102024E-02  0.116E-01    0.07       1.0  T
 122   -473.4008663 -0.792199E-03  0.943E-02    0.07       1.0  T
 123   -473.4010449 -0.178644E-03  0.775E-02    0.07       1.0  T
 124   -473.4012762 -0.231323E-03  0.637E-02    0.07       1.0  T
 125   -473.4015141 -0.237874E-03  0.516E-02    0.07       1.0  T
 126   -473.4015326 -0.185248E-04  0.427E-02    0.07       1.0  T
 127   -473.4016147 -0.820314E-04  0.359E-02    0.07       1.0  T
 128   -473.4016208 -0.615404E-05  0.292E-02    0.07       1.0  T
 129   -473.4016299 -0.910804E-05  0.239E-02    0.07       1.0  T
 130   -473.4016645 -0.346006E-04  0.178E-02    0.07       1.0  T
 131   -473.4016792 -0.146558E-04  0.142E-02    0.07       1.0  T
 132   -473.4016892 -0.100282E-04  0.117E-02    0.07       1.0  T
 133   -473.4016988 -0.953118E-05  0.100E-02    0.07       1.0  T
 134   -473.4017042 -0.545589E-05  0.894E-03    0.07       1.0  T
 135   -473.4017105 -0.625684E-05  0.764E-03    0.07       1.0  T
 136   -473.4017156 -0.516016E-05  0.633E-03    0.07       1.0  T
 137   -473.4017186 -0.294377E-05  0.502E-03    0.07       1.2  T
 138   -473.4017192 -0.649202E-06  0.425E-03    0.07       1.5  T
 139   -473.4017198 -0.544534E-06  0.339E-03    0.07       1.8  T
 140   -473.4017197  0.200686E-07  0.287E-03    0.07       2.2  T
 141   -473.4017203 -0.532793E-06  0.240E-03    0.07       2.6  T
 142   -473.4017207 -0.448142E-06  0.216E-03    0.07       2.9  T
 143   -473.4017213 -0.604651E-06  0.196E-03    0.07       3.2  T
 144   -473.4017210  0.344672E-06  0.209E-03    0.07       3.0  T
 145   -473.4017215 -0.473830E-06  0.180E-03    0.07       3.5  T
 146   -473.4017216 -0.120742E-06  0.168E-03    0.07       3.7  T
 147   -473.4017216 -0.283237E-07  0.151E-03    0.07       4.1  T
 148   -473.4017218 -0.182752E-06  0.114E-03    0.07       5.4  T
 149   -473.4017218 -0.498885E-07  0.953E-04    0.07       6.5  T
 150   -473.4017219 -0.125826E-07  0.827E-04    0.07       7.5  T
     SCC iter.                  ...        0 min, 32.399 sec
     gradient                   ...        0 min,  0.521 sec
 * total energy  :  -465.7322167 Eh     change       -0.7071547E-01 Eh
   gradient norm :     0.0816779 Eh/α   predicted    -0.6922170E-01 (  -2.11%)
   displ. norm   :     0.9834669 α      lambda       -0.7309312E-01
   maximum displ.:     0.3641394 α      in ANC's #83, #131, #28, ...

........................................................................
.............................. CYCLE   10 ..............................
........................................................................
   1   -473.4599047 -0.473460E+03  0.809E-01    0.11       0.0  T
   2   -473.2538083  0.206096E+00  0.250E+00    0.00       1.0  T
   3   -466.5632051  0.669060E+01  0.477E+00    0.04       1.0  T
   4   -471.2813366 -0.471813E+01  0.324E+00    0.07       1.0  T
   5   -471.1203939  0.160943E+00  0.337E+00    0.09       1.0  T
   6   -471.6496519 -0.529258E+00  0.279E+00    0.06       1.0  T
   7   -471.1472570  0.502395E+00  0.347E+00    0.07       1.0  T
   8   -472.0287497 -0.881493E+00  0.276E+00    0.08       1.0  T
   9   -467.9717917  0.405696E+01  0.465E+00    0.02       1.0  T
  10   -472.3965849 -0.442479E+01  0.195E+00    0.04       1.0  T
  11   -472.5636642 -0.167079E+00  0.215E+00    0.08       1.0  T
  12   -472.7836611 -0.219997E+00  0.191E+00    0.01       1.0  T
  13   -473.1038713 -0.320210E+00  0.133E+00    0.00       1.0  T
  14   -472.0905333  0.101334E+01  0.235E+00    0.04       1.0  T
  15   -473.4170170 -0.132648E+01  0.941E-01    0.05       1.0  T
  16   -473.1186908  0.298326E+00  0.157E+00    0.00       1.0  T
  17   -473.2630680 -0.144377E+00  0.134E+00    0.03       1.0  T
  18   -473.3434545 -0.803866E-01  0.113E+00    0.04       1.0  T
  19   -473.2491500  0.943046E-01  0.120E+00    0.02       1.0  T
  20   -473.3377457 -0.885958E-01  0.108E+00    0.04       1.0  T
  21   -473.3925189 -0.547731E-01  0.990E-01    0.06       1.0  T
  22   -473.4016592 -0.914032E-02  0.956E-01    0.07       1.0  T
  23   -473.3938740  0.778520E-02  0.980E-01    0.07       1.0  T
  24   -473.3740820  0.197920E-01  0.103E+00    0.06       1.0  T
  25   -473.3466296  0.274524E-01  0.107E+00    0.05       1.0  T
  26   -473.3512775 -0.464789E-02  0.105E+00    0.05       1.0  T
  27   -473.3581864 -0.690889E-02  0.105E+00    0.06       1.0  T
  28   -473.3618206 -0.363421E-02  0.105E+00    0.06       1.0  T
  29   -473.3989036 -0.370830E-01  0.975E-01    0.07       1.0  T
  30   -473.4058823 -0.697870E-02  0.802E-01    0.08       1.0  T
  31   -473.4455844 -0.397021E-01  0.527E-01    0.08       1.0  T
  32   -473.4569859 -0.114015E-01  0.476E-01    0.08       1.0  T
  33   -473.4645697 -0.758385E-02  0.375E-01    0.09       1.0  T
  34   -473.4564671  0.810265E-02  0.359E-01    0.08       1.0  T
  35   -473.4599849 -0.351782E-02  0.368E-01    0.08       1.0  T
  36   -473.4644462 -0.446128E-02  0.357E-01    0.09       1.0  T
  37   -473.4615468  0.289938E-02  0.360E-01    0.08       1.0  T
[...]
 297:  0.00 298:  0.00 299:  0.00 300:  0.00 301:  0.00 302:  0.00 303:  0.00 304:  0.00
 305:  0.00 306:  0.00 307:  0.00 308:  0.00 309:  0.00 310:  0.00 311:  0.00 312:  0.00
 313:  0.00 314:  0.00 315:  0.00 316:  0.00 317:  0.00 318:  0.00 319:  0.00 320:  0.00
 321:  0.00 322:  0.00 323:  0.00 324:  0.00 325:  0.00 326:  0.00 327:  0.00 328:  0.00
 329:  0.00 330:  0.00 331:  0.00 332:  0.00 333:  0.00 334:  0.00 335:  0.00 336:  0.00
 337:  0.00 338:  0.00 339:  0.00 340:  0.00 341:  0.00 342:  0.00 343:  0.00 344:  0.00
 345:  0.00 346:  0.00 347:  0.00 348:  0.00 349:  0.00 350:  0.00 351:  0.00 352:  0.00
 353:  0.00 354:  0.00 355:  0.00 356:  0.00 357:  0.00 358:  0.00 359:  0.00 360:  0.00
 361:  0.00 362:  0.00 363:  0.00 364:  0.00 365:  0.00 366:  0.00 367:  0.00 368:  0.00
 369:  0.00 370:  0.00 371:  0.00 372:  0.00 373:  0.00 374:  0.00 375:  0.00 376:  0.00
 377:  0.00 378:  0.00 379:  0.00 380:  0.00 381:  0.00 382:  0.00 383:  0.00 384:  0.00
 385:  0.00 386:  0.00 387:  0.00 388:  0.00 389:  0.00 390:  0.00 391:  0.00 392:  0.00
 393:  0.00 394:  0.00 395:  0.00 396:  0.00 397:  0.00 398:  0.00 399:  0.00 400:  0.00
 401:  0.00 402:  0.00 403:  0.00 404:  0.00 405:  0.00 406:  0.00 407:  0.00 408:  0.00
 409:  0.00 410:  0.00 411:  0.00 412:  0.00 413:  0.00 414:  0.00 415:  0.00 416:  0.00
 417:  0.00 418:  0.00 419:  0.00 420:  0.00 421:  0.00 422:  0.00 423:  0.00 424:  0.00
 425:  0.00 426:  0.00 427:  0.00 428:  0.00 429:  0.00 430:  0.00 431:  0.00 432:  0.00
 433:  0.00 434:  0.00 435:  0.00 436:  0.00 437:  0.00 438:  0.00 439:  0.00 440:  0.00
 441:  0.00 442:  0.00 443:  0.00 444:  0.00 445:  0.00 446:  0.00 447:  0.00 448:  0.00
 449:  0.00 450:  0.00 451:  0.00 452:  0.00 453:  0.00 454:  0.00 455:  0.00 456:  0.00
 457:  0.00 458:  0.00 459:  0.00 460:  0.00 461:  0.00 462:  0.00 463:  0.00 464:  0.00
 465:  0.00 466:  0.00 467:  0.00 468:  0.00 469:  0.00 470:  0.00 471:  0.00 472:  0.00
 473:  0.00 474:  0.00 475:  0.00 476:  0.00 477:  0.00 478:  0.00 479:  0.00 480:  0.00
 481:  0.00 482:  0.00 483:  0.00 484:  0.00 485:  0.00 486:  0.00 487:  0.00 488:  0.00
 489:  0.00 490:  0.00 491:  0.00 492:  0.00 493:  0.00 494:  0.00 495:  0.00 496:  0.00
 497:  0.00 498:  0.00 499:  0.00 500:  0.00 501:  0.00 502:  0.00 503:  0.00 504:  0.00
 505:  0.00 506:  0.00 507:  0.00 508:  0.00 509:  0.00 510:  0.00 511:  0.00 512:  0.00
 513:  0.00 514:  0.00 515:  0.00 516:  0.00 517:  0.00 518:  0.00 519:  0.00 520:  0.00
 521:  0.00 522:  0.00 523:  0.00 524:  0.00 525:  0.00 526:  0.00 527:  0.00 528:  0.00
 529:  0.00 530:  0.00 531:  0.00 532:  0.00 533:  0.00 534:  0.00 535:  0.00 536:  0.00
 537:  0.00 538:  0.00 539:  0.00 540:  0.00 541:  0.00 542:  0.00 543:  0.00 544:  0.00
 545:  0.00 546:  0.00 547:  0.00 548:  0.00 549:  0.00 550:  0.00 551:  0.00 552:  0.00
 553:  0.00 554:  0.00 555:  0.00 556:  0.00 557:  0.00 558:  0.00 559:  0.00 560:  0.00
 561:  0.00 562:  0.00 563:  0.00 564:  0.00 565:  0.00 566:  0.00 567:  0.00 568:  0.00
 569:  0.00 570:  0.00 571:  0.00 572:  0.00 573:  0.00 574:  0.00 575:  0.00 576:  0.00
 577:  0.00 578:  0.00 579:  0.00 580:  0.00 581:  0.00 582:  0.00 583:  0.00 584:  0.00
 585:  0.00 586:  0.00 587:  0.00 588:  0.00 589:  0.00 590:  0.00 591:  0.00 592:  0.00
 593:  0.00 594:  0.00 595:  0.00 596:  0.00 597:  0.00 598:  0.00 599:  0.00 600:  0.00
 601:  0.00 602:  0.00 603:  0.00 604:  0.00 605:  0.00 606:  0.00 607:  0.00 608:  0.00
 609:  0.00 610:  0.00 611:  0.00 612:  0.00 613:  0.00 614:  0.00 615:  0.00 616:  0.00
 617:  0.00 618:  0.00 619:  0.00 620:  0.00 621:  0.00 622:  0.00 623:  0.00 624:  0.00
 625:  0.00 626:  0.00 627:  0.00 628:  0.00 629:  0.00 630:  0.00 631:  0.00 632:  0.00
 633:  0.00 634:  0.00 635:  0.00 636:  0.00 637:  0.00 638:  0.00 639:  0.00 640:  0.00
 641:  0.00 642:  0.00 643:  0.00 644:  0.00 645:  0.00 646:  0.00 647:  0.00 648:  0.00
 649:  0.00 650:  0.00 651:  0.00 652:  0.00 653:  0.00 654:  0.00 655:  0.00 656:  0.00
 657:  0.00 658:  0.00 659:  0.00 660:  0.00 661:  0.00 662:  0.00 663:  0.00 664:  0.00
 665:  0.00 666:  0.00 667:  0.00 668:  0.00 669:  0.00 670:  0.00 671:  0.00 672:  0.00
 673:  0.00 674:  0.00 675:  0.00 676:  0.00 677:  0.00 678:  0.00 679:  0.00 680:  0.00
 681:  0.00 682:  0.00 683:  0.00 684:  0.00 685:  0.00 686:  0.00 687:  0.00 688:  0.00
 689:  0.00 690:  0.00 691:  0.00 692:  0.00 693:  0.00 694:  0.00 695:  0.00 696:  0.00
 697:  0.00 698:  0.00 699:  0.00 700:  0.00 701:  0.00 702:  0.00 703:  0.00 704:  0.00
 705:  0.00 706:  0.00 707:  0.00 708:  0.00 709:  0.00 710:  0.00 711:  0.00 712:  0.00
 713:  0.00 714:  0.00 715:  0.00 716:  0.00 717:  0.00 718:  0.00 719:  0.00 720:  0.00
 721:  0.00 722:  0.00 723:  0.00 724:  0.00 725:  0.00 726:  0.00 727:  0.00 728:  0.00
 729:  0.00 730:  0.00 731:  0.00 732:  0.00 733:  0.00 734:  0.00 735:  0.00 736:  0.00
 737:  0.00 738:  0.00 739:  0.00 740:  0.00 741:  0.00 742:  0.00 743:  0.00 744:  0.00
 745:  0.00 746:  0.00 747:  0.00 748:  0.00 749:  0.00 750:  0.00 751:  0.00 752:  0.00
 753:  0.00 754:  0.00 755:  0.00 756:  0.00 757:  0.00 758:  0.00 759:  0.00 760:  0.00
 761:  0.00 762:  0.00 763:  0.00 764:  0.00 765:  0.00 766:  0.00 767:  0.00 768:  0.00
 769:  0.00 770:  0.00 771:  0.00 772:  0.00 773:  0.00 774:  0.00 775:  0.00 776:  0.00
 777:  0.00
 output can be read by thermo (or use thermo option).
 writing <g98.out> molden fake output.
 recommended (thermochemical) frequency scaling factor: 1.0
           -------------------------------------------------
          |             Thermodynamic Functions             |
           -------------------------------------------------
 symmetry recognition skipped because # atoms >         200
 inverting freq            1   1.0330742191579485     

          ...................................................
          :                      SETUP                      :
          :.................................................:
          :  # frequencies                         770      :
          :  # imaginary freq.                       0      :
          :  linear?                             false      :
          :  only rotor calc.                    false      :
          :  symmetry                               C1      :
          :  rotational number                       1      :
          :  scaling factor                  1.0000000      :
          :  rotor cutoff                   50.0000000 cm⁻¹ :
          :  imag. cutoff                  -20.0000000 cm⁻¹ :
          :.................................................:

    mode    ω/cm⁻¹     T·S(HO)/kcal·mol⁻¹    T·S(FR)/kcal·mol⁻¹   T·S(vib)
   ------------------------------------------------------------------------
       1      1.03    -3.73340 (  0.00%)    -2.20581 (100.00%)    -2.20581
       2      1.47    -3.52258 (  0.00%)    -2.10040 (100.00%)    -2.10041
       3      2.35    -3.24566 (  0.00%)    -1.96194 (100.00%)    -1.96195
       4      4.16    -2.90854 (  0.00%)    -1.79338 (100.00%)    -1.79343
       5      4.19    -2.90427 (  0.00%)    -1.79125 (100.00%)    -1.79130
       6      5.92    -2.69906 (  0.02%)    -1.68864 ( 99.98%)    -1.68884
       7      6.16    -2.67515 (  0.02%)    -1.67668 ( 99.98%)    -1.67691
       8      7.41    -2.56627 (  0.05%)    -1.62223 ( 99.95%)    -1.62269
       9      7.59    -2.55153 (  0.05%)    -1.61487 ( 99.95%)    -1.61536
      10      9.78    -2.40145 (  0.15%)    -1.53981 ( 99.85%)    -1.54107
      11     10.39    -2.36563 (  0.19%)    -1.52190 ( 99.81%)    -1.52347
      12     11.70    -2.29535 (  0.30%)    -1.48675 ( 99.70%)    -1.48917
      13     11.97    -2.28210 (  0.33%)    -1.48013 ( 99.67%)    -1.48275
      14     13.75    -2.19991 (  0.57%)    -1.43902 ( 99.43%)    -1.44334
      15     14.49    -2.16887 (  0.70%)    -1.42349 ( 99.30%)    -1.42871
      16     15.28    -2.13755 (  0.86%)    -1.40783 ( 99.14%)    -1.41413
      17     16.05    -2.10811 (  1.05%)    -1.39310 ( 98.95%)    -1.40062
      18     22.45    -1.90967 (  3.90%)    -1.29381 ( 96.10%)    -1.31785
      19     22.86    -1.89894 (  4.18%)    -1.28843 ( 95.82%)    -1.31398
      20     23.44    -1.88401 (  4.61%)    -1.28096 ( 95.39%)    -1.30875
      21     24.88    -1.84884 (  5.77%)    -1.26336 ( 94.23%)    -1.29716
      22     28.23    -1.77406 (  9.22%)    -1.22592 ( 90.78%)    -1.27647
      23     30.63    -1.72578 ( 12.34%)    -1.20174 ( 87.66%)    -1.26642
      24     31.54    -1.70845 ( 13.67%)    -1.19306 ( 86.33%)    -1.26350
      25     33.24    -1.67733 ( 16.35%)    -1.17746 ( 83.65%)    -1.25918
      26     33.65    -1.67023 ( 17.01%)    -1.17391 ( 82.99%)    -1.25835
      27     36.02    -1.62996 ( 21.21%)    -1.15373 ( 78.79%)    -1.25475
      28     37.89    -1.60006 ( 24.79%)    -1.13873 ( 75.21%)    -1.25311
      29     38.35    -1.59289 ( 25.71%)    -1.13514 ( 74.29%)    -1.25282
      30     38.97    -1.58342 ( 26.95%)    -1.13039 ( 73.05%)    -1.25249
      31     41.42    -1.54743 ( 32.01%)    -1.11234 ( 67.99%)    -1.25161
      32     42.52    -1.53191 ( 34.34%)    -1.10455 ( 65.66%)    -1.25131
      33     43.26    -1.52171 ( 35.92%)    -1.09944 ( 64.08%)    -1.25110
      34     48.79    -1.45073 ( 47.56%)    -1.06380 ( 52.44%)    -1.24780
      35     49.42    -1.44317 ( 48.84%)    -1.06000 ( 51.16%)    -1.24712
      36     54.19    -1.38887 ( 57.98%)    -1.03271 ( 42.02%)    -1.23921
      37     56.02    -1.36930 ( 61.18%)    -1.02286 ( 38.82%)    -1.23481
      38     59.35    -1.33530 ( 66.50%)    -1.00575 ( 33.50%)    -1.22492
      39     64.45    -1.28688 ( 73.40%)    -0.98137 ( 26.60%)    -1.20562
      40     66.87    -1.26515 ( 76.19%)    -0.97041 ( 23.81%)    -1.19497
      41     69.72    -1.24064 ( 79.09%)    -0.95804 ( 20.91%)    -1.18153
      42     70.45    -1.23456 ( 79.76%)    -0.95498 ( 20.24%)    -1.17798
      43     71.04    -1.22970 ( 80.29%)    -0.95252 ( 19.71%)    -1.17507
      44     75.00    -1.19784 ( 83.51%)    -0.93643 ( 16.49%)    -1.15472
      45     79.87    -1.16102 ( 86.69%)    -0.91780 ( 13.31%)    -1.12864
      46     83.15    -1.13747 ( 88.44%)    -0.90588 ( 11.56%)    -1.11070
      47     93.20    -1.07090 ( 92.35%)    -0.87208 (  7.65%)    -1.05569
      48     93.44    -1.06936 ( 92.42%)    -0.87130 (  7.58%)    -1.05435
      49     93.56    -1.06866 ( 92.46%)    -0.87094 (  7.54%)    -1.05375
      50     94.25    -1.06434 ( 92.66%)    -0.86875 (  7.34%)    -1.04999
      51     95.67    -1.05564 ( 93.06%)    -0.86432 (  6.94%)    -1.04236
      52     97.81    -1.04280 ( 93.61%)    -0.85779 (  6.39%)    -1.03098
      53    101.01    -1.02405 ( 94.34%)    -0.84823 (  5.66%)    -1.01409
      54    105.41    -0.99930 ( 95.18%)    -0.83559 (  4.82%)    -0.99141
      55    111.67    -0.96589 ( 96.14%)    -0.81850 (  3.86%)    -0.96020
      56    115.63    -0.94579 ( 96.62%)    -0.80820 (  3.38%)    -0.94114
      57    118.36    -0.93229 ( 96.91%)    -0.80127 (  3.09%)    -0.92825
      58    125.09    -0.90048 ( 97.51%)    -0.78490 (  2.49%)    -0.89761
      59    125.15    -0.90021 ( 97.52%)    -0.78476 (  2.48%)    -0.89734
      60    125.79    -0.89728 ( 97.56%)    -0.78325 (  2.44%)    -0.89450
      61    126.74    -0.89294 ( 97.63%)    -0.78101 (  2.37%)    -0.89029
      62    128.03    -0.88712 ( 97.73%)    -0.77801 (  2.27%)    -0.88464
      63    128.70    -0.88411 ( 97.77%)    -0.77646 (  2.23%)    -0.88172
      64    129.64    -0.87997 ( 97.83%)    -0.77432 (  2.17%)    -0.87768
      65    131.14    -0.87334 ( 97.93%)    -0.77089 (  2.07%)    -0.87122
      66    131.56    -0.87154 ( 97.96%)    -0.76996 (  2.04%)    -0.86947
      67    137.07    -0.84807 ( 98.26%)    -0.75781 (  1.74%)    -0.84650
      68    139.43    -0.83829 ( 98.37%)    -0.75274 (  1.63%)    -0.83690
      69    141.27    -0.83081 ( 98.46%)    -0.74885 (  1.54%)    -0.82954
      70    144.06    -0.81967 ( 98.57%)    -0.74306 (  1.43%)    -0.81857
      71    178.20    -0.69981 ( 99.38%)    -0.68006 (  0.62%)    -0.69969
      72    185.20    -0.67838 ( 99.47%)    -0.66864 (  0.53%)    -0.67833
      73    185.21    -0.67837 ( 99.47%)    -0.66864 (  0.53%)    -0.67832
      74    185.51    -0.67745 ( 99.48%)    -0.66815 (  0.52%)    -0.67740
      75    185.64    -0.67706 ( 99.48%)    -0.66794 (  0.52%)    -0.67702
      76    185.88    -0.67635 ( 99.48%)    -0.66756 (  0.52%)    -0.67630
      77    186.15    -0.67555 ( 99.48%)    -0.66713 (  0.52%)    -0.67551
      78    186.68    -0.67399 ( 99.49%)    -0.66629 (  0.51%)    -0.67395
      79    190.64    -0.66237 ( 99.53%)    -0.66007 (  0.47%)    -0.66236
      80    204.15    -0.62473 ( 99.64%)    -0.63978 (  0.36%)    -0.62478
      81    204.81    -0.62298 ( 99.65%)    -0.63884 (  0.35%)    -0.62304
      82    205.85    -0.62021 ( 99.65%)    -0.63733 (  0.35%)    -0.62027
      83    206.78    -0.61775 ( 99.66%)    -0.63600 (  0.34%)    -0.61781
      84    207.17    -0.61672 ( 99.66%)    -0.63544 (  0.34%)    -0.61678
      85    208.05    -0.61439 ( 99.67%)    -0.63417 (  0.33%)    -0.61445
      86    208.48    -0.61328 ( 99.67%)    -0.63357 (  0.33%)    -0.61334
      87    208.70    -0.61271 ( 99.67%)    -0.63326 (  0.33%)    -0.61278
      88    209.13    -0.61158 ( 99.67%)    -0.63265 (  0.33%)    -0.61165
      89    209.56    -0.61047 ( 99.68%)    -0.63204 (  0.32%)    -0.61054
      90    209.60    -0.61036 ( 99.68%)    -0.63198 (  0.32%)    -0.61043
      91    209.96    -0.60941 ( 99.68%)    -0.63147 (  0.32%)    -0.60948
      92    210.13    -0.60899 ( 99.68%)    -0.63124 (  0.32%)    -0.60906
      93    210.67    -0.60759 ( 99.68%)    -0.63047 (  0.32%)    -0.60766
      94    223.96    -0.57449 ( 99.75%)    -0.61235 (  0.25%)    -0.57458
      95    224.20    -0.57391 ( 99.75%)    -0.61203 (  0.25%)    -0.57401
      96    224.32    -0.57361 ( 99.75%)    -0.61187 (  0.25%)    -0.57371
      97    224.47    -0.57327 ( 99.75%)    -0.61168 (  0.25%)    -0.57336
      98    224.53    -0.57311 ( 99.75%)    -0.61159 (  0.25%)    -0.57321
      99    224.77    -0.57254 ( 99.76%)    -0.61128 (  0.24%)    -0.57263
     100    224.79    -0.57249 ( 99.76%)    -0.61125 (  0.24%)    -0.57259
     101    225.76    -0.57018 ( 99.76%)    -0.60998 (  0.24%)    -0.57028
     102    225.92    -0.56981 ( 99.76%)    -0.60978 (  0.24%)    -0.56991
     103    225.99    -0.56963 ( 99.76%)    -0.60967 (  0.24%)    -0.56972
     104    226.55    -0.56831 ( 99.76%)    -0.60894 (  0.24%)    -0.56840
     105    226.56    -0.56829 ( 99.76%)    -0.60893 (  0.24%)    -0.56838
     106    228.39    -0.56396 ( 99.77%)    -0.60654 (  0.23%)    -0.56406
     107    231.48    -0.55677 ( 99.78%)    -0.60257 (  0.22%)    -0.55687
     108    231.94    -0.55570 ( 99.78%)    -0.60197 (  0.22%)    -0.55580
     109    235.96    -0.54656 ( 99.80%)    -0.59690 (  0.20%)    -0.54666
     110    244.60    -0.52748 ( 99.83%)    -0.58624 (  0.17%)    -0.52758
     111    247.01    -0.52230 ( 99.83%)    -0.58333 (  0.17%)    -0.52241
     112    247.34    -0.52160 ( 99.83%)    -0.58293 (  0.17%)    -0.52170
     113    247.56    -0.52114 ( 99.83%)    -0.58268 (  0.17%)    -0.52124
     114    248.37    -0.51942 ( 99.84%)    -0.58171 (  0.16%)    -0.51952
     115    248.64    -0.51885 ( 99.84%)    -0.58139 (  0.16%)    -0.51895
     116    249.33    -0.51738 ( 99.84%)    -0.58056 (  0.16%)    -0.51748
     117    249.39    -0.51726 ( 99.84%)    -0.58049 (  0.16%)    -0.51736
     118    250.01    -0.51596 ( 99.84%)    -0.57976 (  0.16%)    -0.51606
     119    251.00    -0.51388 ( 99.84%)    -0.57859 (  0.16%)    -0.51398
     120    254.44    -0.50673 ( 99.85%)    -0.57455 (  0.15%)    -0.50683
     121    254.69    -0.50622 ( 99.85%)    -0.57426 (  0.15%)    -0.50632
     122    255.12    -0.50533 ( 99.85%)    -0.57376 (  0.15%)    -0.50543
     123    255.27    -0.50503 ( 99.85%)    -0.57358 (  0.15%)    -0.50513
     124    255.85    -0.50385 ( 99.85%)    -0.57291 (  0.15%)    -0.50395
     125    256.40    -0.50272 ( 99.86%)    -0.57228 (  0.14%)    -0.50282
     126    256.44    -0.50264 ( 99.86%)    -0.57223 (  0.14%)    -0.50274
     127    258.71    -0.49805 ( 99.86%)    -0.56962 (  0.14%)    -0.49815
     128    264.16    -0.48721 ( 99.87%)    -0.56344 (  0.13%)    -0.48730
     129    267.22    -0.48125 ( 99.88%)    -0.56003 (  0.12%)    -0.48134
     130    273.33    -0.46961 ( 99.89%)    -0.55334 (  0.11%)    -0.46970
     131    275.38    -0.46577 ( 99.89%)    -0.55112 (  0.11%)    -0.46586
     132    275.85    -0.46489 ( 99.89%)    -0.55061 (  0.11%)    -0.46498
     133    281.84    -0.45392 ( 99.90%)    -0.54425 (  0.10%)    -0.45401
     134    282.04    -0.45356 ( 99.90%)    -0.54404 (  0.10%)    -0.45365
     135    282.11    -0.45344 ( 99.90%)    -0.54397 (  0.10%)    -0.45353
     136    282.48    -0.45278 ( 99.90%)    -0.54359 (  0.10%)    -0.45287
     137    283.25    -0.45139 ( 99.90%)    -0.54278 (  0.10%)    -0.45148
     138    283.40    -0.45111 ( 99.90%)    -0.54262 (  0.10%)    -0.45120
     139    285.11    -0.44807 ( 99.91%)    -0.54084 (  0.09%)    -0.44816
   ------------------------------------------------------------------------

   temp. (K)  partition function   enthalpy   heat capacity  entropy
                                   cal/mol     cal/K/mol   cal/K/mol   J/K/mol
 298.15  VIB  0.645E+77            90630.089    588.557    572.549
         ROT  0.112E+11              888.752      2.981     48.973
         INT  0.725E+87            91518.842    591.538    621.522
         TR   0.134E+30             1481.254      4.968     49.499
         TOT                       93000.0957   596.5057   671.0207  2807.5505

       T/K    H(0)-H(T)+PV         H(T)/Eh          T*S/Eh         G(T)/Eh
   ------------------------------------------------------------------------
    298.15    0.148205E+00    0.194128E+01    0.318824E+00    0.162245E+01
   ------------------------------------------------------------------------

         :::::::::::::::::::::::::::::::::::::::::::::::::::::
         ::                  THERMODYNAMIC                  ::
         :::::::::::::::::::::::::::::::::::::::::::::::::::::
         :: total free energy        -464.697262032314 Eh   ::
         ::.................................................::
         :: total energy             -466.319715056061 Eh   ::
         :: zero point energy           1.793071507133 Eh   ::
         :: G(RRHO) w/o ZPVE           -0.170618483386 Eh   ::
         :: G(RRHO) contrib.            1.622453023747 Eh   ::
         :::::::::::::::::::::::::::::::::::::::::::::::::::::

optimized geometry written to: xtbopt.xyz


           -------------------------------------------------
          | TOTAL ENERGY             -466.319715056061 Eh   |
          | TOTAL ENTHALPY           -464.378438462774 Eh   |
          | TOTAL FREE ENERGY        -464.697262032314 Eh   |
          | GRADIENT NORM               0.000639951656 Eh/α |
          | HOMO-LUMO GAP               0.242903078344 eV   |
           -------------------------------------------------

------------------------------------------------------------------------
 * finished run on 2021/11/20 at 09:50:37.514     
------------------------------------------------------------------------
 total:
 * wall-time:     0 d,  1 h, 13 min, 57.147 sec
 *  cpu-time:     0 d,  1 h, 13 min, 57.191 sec
 * ratio c/w:     1.000 speedup
 SCF:
 * wall-time:     0 d,  0 h,  0 min, 54.195 sec
 *  cpu-time:     0 d,  0 h,  0 min, 54.196 sec
 * ratio c/w:     1.000 speedup
 ANC optimizer:
 * wall-time:     0 d,  0 h, 14 min, 47.925 sec
 *  cpu-time:     0 d,  0 h, 14 min, 47.925 sec
 * ratio c/w:     1.000 speedup
 analytical hessian:
 * wall-time:     0 d,  0 h, 58 min, 14.620 sec
 *  cpu-time:     0 d,  0 h, 58 min, 14.663 sec
 * ratio c/w:     1.000 speedup

