259
 energy: -464.633958215623 gnorm: 0.948061638787 xtb: 6.4.1 (bd6e46d)
Fe       50.04493300000000    0.04847000000000   -0.01590500000000
C        52.37392400000000   -3.09832400000000    1.30678400000000
C        53.29003100000000   -2.15411600000000    1.25650200000000
C        52.87885200000001   -1.10021200000000    0.33521000000000
C        53.49772200000000    0.02413400000000   -0.01120000000000
C        52.79368000000000    1.24408200000000   -0.37530500000000
C        53.12179000000000    2.20413700000000   -1.22277800000000
C        52.08701100000000    3.22042200000000   -1.23967600000000
C        51.15074300000001    2.84396000000000   -0.39278500000000
N        51.55273300000000    1.61094900000000    0.17103200000000
C        49.88966800000000    3.48896000000000   -0.01363300000000
C        48.79445100000000    2.85417700000000    0.33712700000000
C        47.72082600000001    3.17213300000000    1.30615500000000
C        46.88326300000000    2.17537900000000    1.22898900000000
C        47.32156000000000    1.17169600000000    0.24853700000000
N        48.42649800000000    1.61054900000000   -0.23575500000000
C        46.71072500000000   -0.08157500000000   -0.16501100000000
C        47.37488600000000   -1.18608100000000   -0.41943500000000
C        47.00103700000000   -2.24902300000000   -1.37696300000000
C        47.94978400000001   -3.14277900000000   -1.28794300000000
C        48.93550800000000   -2.70532900000000   -0.30506600000000
N        48.58246200000000   -1.55952400000000    0.19173200000000
C        50.16639600000000   -3.36139900000000    0.14065600000000
C        51.28943800000000   -2.71553800000000    0.40777600000000
N        51.61803800000001   -1.46809700000000   -0.19062700000000
H        52.43418600000000   -4.00810400000000    1.92433100000000
H        54.20635800000000   -2.19406500000000    1.83455000000000
H        54.04915600000000    2.22093300000000   -1.82392200000000
H        52.10391000000000    4.12511100000000   -1.85229800000000
H        49.84194600000000    4.58376300000000   -0.01741000000000
H        47.66800400000000    4.05085800000000    1.93114800000000
H        45.97163200000000    2.13971000000000    1.84631300000000
H        45.61247500000001   -0.07866400000000   -0.26428200000000
H        46.13218100000001   -2.30148800000000   -2.02591300000000
H        47.94693800000000   -4.05908700000000   -1.88670300000000
H        50.13091400000000   -4.45720100000000    0.25258000000000
Fe      117.46372200000002    0.00109300000000   -0.02033800000000
C       115.13473100000000    2.84788500000000    1.86316700000000
C       114.21862400000001    1.92939600000000    1.63859400000000
C       114.62980399999999    1.06469900000000    0.53778000000000
C       114.01093300000001    0.02413400000000   -0.01120000000000
C       114.71497500000000   -1.10709100000000   -0.59530300000000
C       114.38686500000001   -1.89326200000000   -1.60616900000000
C       115.42164400000000   -2.88877200000000   -1.81131000000000
C       116.35791300000000   -2.67595500000000   -0.90927900000000
N       115.95592200000000   -1.56894400000000   -0.12650800000000
C       117.61898700000002   -3.38009700000000   -0.65636600000000
C       118.71420400000000   -2.82140400000000   -0.19393300000000
C       119.78783000000000   -3.31360900000000    0.69928900000000
C       120.62539300000000   -2.31984200000000    0.80837400000000
C       120.18709500000000   -1.15169400000000    0.03113900000000
N       119.08215700000000   -1.49308600000000   -0.52616000000000
C       120.79793000000001    0.15654200000000   -0.14273000000000
C       120.13376900000000    1.28907500000000   -0.18783700000000
C       120.50761799999999    2.51120100000000   -0.93155200000000
C       119.55887100000001    3.37292800000000   -0.67827300000000
C       118.57314700000001    2.76073300000000    0.20639000000000
N       118.92619300000000    1.54265500000000    0.48200000000000
C       117.34225900000000    3.32272800000000    0.76608500000000
C       116.21921800000000    2.63852300000000    0.90875200000000
N       115.89061700000001    1.52374800000000    0.08931800000000
H       115.07446900000001    3.62731000000000    2.63877100000000
H       113.30229700000000    1.86141500000000    2.21401900000000
H       113.45950000000002   -1.79824600000000   -2.19999400000000
H       115.40474500000001   -3.66410600000000   -2.58112900000000
H       117.66671000000001   -4.45519500000000   -0.86317900000000
H       119.84065099999999   -4.29302600000000    1.15041600000000
H       121.53702300000000   -2.39931400000000    1.42160000000000
H       121.89618000000002    0.17209800000000   -0.24081800000000
H       121.37647400000002    2.68314500000000   -1.55950400000000
H       119.56171700000000    4.38440900000000   -1.09665100000000
H       117.37774100000000    4.37874400000000    1.07935400000000
C        56.11217000000001    0.02413400000000   -0.01120000000000
C        57.32837600000000    0.02413400000000   -0.01120000000000
C        66.92579200000000    0.02413400000000   -0.01120000000000
C        68.14199700000000    0.02413400000000   -0.01120000000000
C        77.73941400000000    0.02413400000000   -0.01120000000000
C        78.95561900000000    0.02413400000000   -0.01120000000000
C        88.55303600000002    0.02413400000000   -0.01120000000000
C        89.76924099999999    0.02413400000000   -0.01120000000000
C        99.36665800000002    0.02413400000000   -0.01120000000000
C       100.58286300000000    0.02413400000000   -0.01120000000000
C       110.18028000000000    0.02413400000000   -0.01120000000000
C       111.39648500000000    0.02413400000000   -0.01120000000000
Fe       62.15858000000001    0.03693500000000    0.00228600000000
C        59.87876900000001   -3.22451200000000   -0.90738000000000
C        58.92256000000000   -2.32516200000000   -1.00940600000000
C        59.31493400000000   -1.16285700000000   -0.20689000000000
C        58.67981700000001   -0.01158400000000    0.00537600000000
C        59.36527400000000    1.26301500000000    0.23160500000000
C        59.02998400000000    2.34161500000000    0.93584500000000
C        60.05452500000000    3.36093200000000    0.84526400000000
C        61.00512300000000    2.86400700000000    0.07189900000000
N        60.62812900000000    1.54740200000000   -0.34424400000000
C        62.25226200000000    3.47570900000000   -0.34496600000000
C        63.35381400000000    2.80845200000000   -0.67673800000000
C        64.34735999999999    3.06043600000000   -1.71090800000000
C        65.24124399999999    2.09957700000000   -1.60942400000000
C        64.86154600000000    1.18769300000000   -0.50544700000000
N        63.76663000000000    1.63701200000000    0.00192000000000
C        65.51875200000001   -0.01158400000000    0.00537600000000
C        64.89534100000000   -1.08076600000000    0.46689300000000
C        65.27405400000001   -2.01288200000000    1.54236800000000
C        64.33338500000001   -2.92702800000000    1.62823400000000
C        63.32508400000000   -2.63124900000000    0.63080700000000
N        63.66285900000000   -1.57787100000000   -0.01848800000000
C        62.07269000000001   -3.33825600000000    0.29961400000000
C        60.95881400000000   -2.74155900000000   -0.04772700000000
N        60.57670200000000   -1.45880200000000    0.36995500000000
H        59.87911400000000   -4.21558600000000   -1.39861400000000
H        58.01402500000000   -2.44685600000000   -1.59055400000000
H        58.10513200000000    2.45996700000000    1.51277100000000
H        60.08182000000000    4.35009600000000    1.30191400000000
H        62.33820200000001    4.57308700000000   -0.40698900000000
H        64.38003300000000    3.86665200000000   -2.43773200000000
H        66.13430500000000    1.98660900000000   -2.24319800000000
H        66.18880400000000   -1.93847500000000    2.15253800000000
H        64.35243199999999   -3.74063600000000    2.33650200000000
H        62.11117500000000   -4.43821500000000    0.35865000000000
Fe       72.97220200000000    0.03693500000000    0.00228600000000
C        70.69239100000000   -3.22451200000000   -0.90738000000000
C        69.73618200000000   -2.32516200000000   -1.00940600000000
C        70.12855600000000   -1.16285700000000   -0.20689000000000
C        69.49343900000000   -0.01158400000000    0.00537600000000
C        70.17889600000001    1.26301500000000    0.23160500000000
C        69.84360599999999    2.34161500000000    0.93584500000000
C        70.86814699999999    3.36093200000000    0.84526400000000
C        71.81874500000002    2.86400700000000    0.07189900000000
N        71.44175100000001    1.54740200000000   -0.34424400000000
C        73.06588400000001    3.47570900000000   -0.34496600000000
C        74.16743600000001    2.80845200000000   -0.67673800000000
C        75.16098200000000    3.06043600000000   -1.71090800000000
C        76.05486600000000    2.09957700000000   -1.60942400000000
C        75.67516700000000    1.18769300000000   -0.50544700000000
N        74.58025200000000    1.63701200000000    0.00192000000000
C        76.33237400000002   -0.01158400000000    0.00537600000000
C        75.70896300000000   -1.08076600000000    0.46689300000000
C        76.08767600000000   -2.01288200000000    1.54236800000000
C        75.14700700000000   -2.92702800000000    1.62823400000000
C        74.13870600000001   -2.63124900000000    0.63080700000000
N        74.47648000000001   -1.57787100000000   -0.01848800000000
C        72.88631200000000   -3.33825600000000    0.29961400000000
C        71.77243600000000   -2.74155900000000   -0.04772700000000
N        71.39032300000000   -1.45880200000000    0.36995500000000
H        70.69273600000001   -4.21558600000000   -1.39861400000000
H        68.82764700000001   -2.44685600000000   -1.59055400000000
H        68.91875400000001    2.45996700000000    1.51277100000000
H        70.89544200000000    4.35009600000000    1.30191400000000
H        73.15182400000000    4.57308700000000   -0.40698900000000
H        75.19365500000001    3.86665200000000   -2.43773200000000
H        76.94792700000001    1.98660900000000   -2.24319800000000
H        77.00242600000000   -1.93847500000000    2.15253800000000
H        75.16605300000002   -3.74063600000000    2.33650200000000
H        72.92479700000000   -4.43821500000000    0.35865000000000
Fe       83.78582400000001    0.03693500000000    0.00228600000000
C        81.50601300000001   -3.22451200000000   -0.90738000000000
C        80.54980399999999   -2.32516200000000   -1.00940600000000
C        80.94217800000000   -1.16285700000000   -0.20689000000000
C        80.30706100000000   -0.01158400000000    0.00537600000000
C        80.99251800000002    1.26301500000000    0.23160500000000
C        80.65722800000000    2.34161500000000    0.93584500000000
C        81.68176900000000    3.36093200000000    0.84526400000000
C        82.63236700000000    2.86400700000000    0.07189900000000
N        82.25537199999999    1.54740200000000   -0.34424400000000
C        83.87950600000002    3.47570900000000   -0.34496600000000
C        84.98105800000000    2.80845200000000   -0.67673800000000
C        85.97460400000001    3.06043600000000   -1.71090800000000
C        86.86848700000000    2.09957700000000   -1.60942400000000
C        86.48878900000001    1.18769300000000   -0.50544700000000
N        85.39387400000000    1.63701200000000    0.00192000000000
C        87.14599600000000   -0.01158400000000    0.00537600000000
C        86.52258500000001   -1.08076600000000    0.46689300000000
C        86.90129700000000   -2.01288200000000    1.54236800000000
C        85.96062900000000   -2.92702800000000    1.62823400000000
C        84.95232700000000   -2.63124900000000    0.63080700000000
N        85.29010200000002   -1.57787100000000   -0.01848800000000
C        83.69993400000000   -3.33825600000000    0.29961400000000
C        82.58605799999999   -2.74155900000000   -0.04772700000000
N        82.20394500000000   -1.45880200000000    0.36995500000000
H        81.50635699999999   -4.21558600000000   -1.39861400000000
H        79.64126899999999   -2.44685600000000   -1.59055400000000
H        79.73237600000000    2.45996700000000    1.51277100000000
H        81.70906400000000    4.35009600000000    1.30191400000000
H        83.96544600000000    4.57308700000000   -0.40698900000000
H        86.00727700000000    3.86665200000000   -2.43773200000000
H        87.76154900000000    1.98660900000000   -2.24319800000000
H        87.81604799999999   -1.93847500000000    2.15253800000000
H        85.97967500000001   -3.74063600000000    2.33650200000000
H        83.73841899999999   -4.43821500000000    0.35865000000000
Fe       94.59944500000000    0.03693500000000    0.00228600000000
C        92.31963500000002   -3.22451200000000   -0.90738000000000
C        91.36342500000001   -2.32516200000000   -1.00940600000000
C        91.75579900000000   -1.16285700000000   -0.20689000000000
C        91.12068300000000   -0.01158400000000    0.00537600000000
C        91.80614000000000    1.26301500000000    0.23160500000000
C        91.47085000000000    2.34161500000000    0.93584500000000
C        92.49539100000000    3.36093200000000    0.84526400000000
C        93.44598800000000    2.86400700000000    0.07189900000000
N        93.06899400000000    1.54740200000000   -0.34424400000000
C        94.69312800000000    3.47570900000000   -0.34496600000000
C        95.79468000000000    2.80845200000000   -0.67673800000000
C        96.78822600000001    3.06043600000000   -1.71090800000000
C        97.68210900000000    2.09957700000000   -1.60942400000000
C        97.30241100000002    1.18769300000000   -0.50544700000000
N        96.20749600000001    1.63701200000000    0.00192000000000
C        97.95961800000001   -0.01158400000000    0.00537600000000
C        97.33620700000000   -1.08076600000000    0.46689300000000
C        97.71491899999999   -2.01288200000000    1.54236800000000
C        96.77425100000001   -2.92702800000000    1.62823400000000
C        95.76594900000001   -2.63124900000000    0.63080700000000
N        96.10372400000000   -1.57787100000000   -0.01848800000000
C        94.51355599999999   -3.33825600000000    0.29961400000000
C        93.39967900000001   -2.74155900000000   -0.04772700000000
N        93.01756700000000   -1.45880200000000    0.36995500000000
H        92.31997900000000   -4.21558600000000   -1.39861400000000
H        90.45489100000000   -2.44685600000000   -1.59055400000000
H        90.54599800000000    2.45996700000000    1.51277100000000
H        92.52268599999999    4.35009600000000    1.30191400000000
H        94.77906800000000    4.57308700000000   -0.40698900000000
H        96.82089800000001    3.86665200000000   -2.43773200000000
H        98.57517100000000    1.98660900000000   -2.24319800000000
H        98.62967000000000   -1.93847500000000    2.15253800000000
H        96.79329700000000   -3.74063600000000    2.33650200000000
H        94.55204100000000   -4.43821500000000    0.35865000000000
Fe      105.41306700000000    0.03693500000000    0.00228600000000
C       103.13325700000000   -3.22451200000000   -0.90738000000000
C       102.17704700000000   -2.32516200000000   -1.00940600000000
C       102.56942100000001   -1.16285700000000   -0.20689000000000
C       101.93430499999999   -0.01158400000000    0.00537600000000
C       102.61976199999999    1.26301500000000    0.23160500000000
C       102.28447199999999    2.34161500000000    0.93584500000000
C       103.30901299999999    3.36093200000000    0.84526400000000
C       104.25961000000000    2.86400700000000    0.07189900000000
N       103.88261600000000    1.54740200000000   -0.34424400000000
C       105.50675000000000    3.47570900000000   -0.34496600000000
C       106.60830199999999    2.80845200000000   -0.67673800000000
C       107.60184800000002    3.06043600000000   -1.71090800000000
C       108.49573100000001    2.09957700000000   -1.60942400000000
C       108.11603300000002    1.18769300000000   -0.50544700000000
N       107.02111800000000    1.63701200000000    0.00192000000000
C       108.77324000000000   -0.01158400000000    0.00537600000000
C       108.14982900000000   -1.08076600000000    0.46689300000000
C       108.52854100000000   -2.01288200000000    1.54236800000000
C       107.58787200000002   -2.92702800000000    1.62823400000000
C       106.57957100000000   -2.63124900000000    0.63080700000000
N       106.91734599999999   -1.57787100000000   -0.01848800000000
C       105.32717800000000   -3.33825600000000    0.29961400000000
C       104.21330100000002   -2.74155900000000   -0.04772700000000
N       103.83118899999999   -1.45880200000000    0.36995500000000
H       103.13360100000000   -4.21558600000000   -1.39861400000000
H       101.26851300000000   -2.44685600000000   -1.59055400000000
H       101.35962000000001    2.45996700000000    1.51277100000000
H       103.33630800000000    4.35009600000000    1.30191400000000
H       105.59269000000000    4.57308700000000   -0.40698900000000
H       107.63452000000001    3.86665200000000   -2.43773200000000
H       109.38879300000001    1.98660900000000   -2.24319800000000
H       109.44329100000002   -1.93847500000000    2.15253800000000
H       107.60691900000000   -3.74063600000000    2.33650200000000
H       105.36566200000001   -4.43821500000000    0.35865000000000
259
 energy: -464.996936367574 gnorm: 0.544699965216 xtb: 6.4.1 (bd6e46d)
Fe       50.05406604063238    0.04695687724099   -0.01565969214678
C        52.37430826052874   -3.10692972337373    1.30051892796293
C        53.30463363685482   -2.15419375275174    1.25398345782640
C        52.87899171269097   -1.10440105687088    0.33960216494484
C        53.48940820407785    0.04396714070023   -0.01000587730517
C        52.78443494361679    1.23955318534744   -0.36729711069375
C        53.13336861875530    2.23086626458318   -1.24104686423084
C        52.11606740193552    3.22308007208327   -1.25349452252743
C        51.14505946117894    2.82277383121620   -0.38531766583532
N        51.53285828627982    1.59263300202078    0.17393642258446
C        49.90824239138765    3.48871845766458   -0.01451006903429
C        48.78310071849715    2.84025772323318    0.33821380261548
C        47.72235787799698    3.17977051872955    1.29192506873473
C        46.85851993563695    2.16838331249639    1.23275321916572
C        47.31447638687078    1.17324973445393    0.26350932785290
N        48.45624120869542    1.59547000828330   -0.22195257644628
C        46.69882204498771   -0.06050038516123   -0.15826353239343
C        47.37826252168404   -1.19076598855018   -0.42476053902438
C        46.99316905029544   -2.24822590251809   -1.36552777556812
C        47.95679576971433   -3.16342160484046   -1.28634851167722
C        48.94407745920884   -2.71696395695817   -0.31252345598755
N        48.59028289661231   -1.54053086014486    0.17159490284013
C        50.14911282803555   -3.36808778224392    0.13298004605272
C        51.29655351702804   -2.70073771442312    0.41057265961587
N        51.61352018544051   -1.46370150610956   -0.16572281383019
H        52.42687198212872   -4.00329184011130    1.91744243405455
H        54.21079004181481   -2.18605348989904    1.83247896517835
H        54.04705346364301    2.22874035479065   -1.82566314680248
H        52.10998183026417    4.12230398794089   -1.85374313685094
H        49.85590306226476    4.58011069952965   -0.01191425317750
H        47.67395907514124    4.04963682168869    1.92602397592966
H        45.96756093453422    2.13180612276617    1.84551852565855
H        45.61377889315984   -0.07159582428038   -0.26857154326808
H        46.13384718972236   -2.29332662473061   -2.01940271304646
H        47.95626001592782   -4.06284357343616   -1.88387415446281
H        50.12704084981898   -4.45346120597912    0.25240024325564
Fe      117.45456775959292    0.00258746322570   -0.01985385559485
C       115.13435328438850    2.85749574365503    1.85861148582332
C       114.20409039850153    1.92991332298987    1.63615137441209
C       114.62988528276250    1.06796826305753    0.54294532568897
C       114.02031780413535    0.00421893863168   -0.01333172254169
C       114.72442183683158   -1.10406530182376   -0.58653521548314
C       114.37535509716459   -1.91613563691415   -1.62907151711495
C       115.39252410086671   -2.88877769467763   -1.82537692024223
C       116.36363266040485   -2.65646347921993   -0.89798130911222
N       115.97592055031382   -1.55159966791396   -0.12015432150824
C       117.60041435005535   -3.37969995831803   -0.65720218689138
C       118.72555443782592   -2.80790408799211   -0.19029403399960
C       119.78629291721050   -3.31845915802864    0.68390918310947
C       120.65014858677843   -2.31367479011226    0.81334215845413
C       120.19416229274543   -1.15597881079185    0.04554716910600
N       119.05239362394651   -1.48085428263363   -0.50982805786406
C       120.80981711544159    0.13456728235371   -0.13999966557281
C       120.13036196310766    1.29467201331214   -0.19220513763126
C       120.51548283607175    2.50829208428357   -0.92047236114548
C       119.55184797209515    3.39291173330499   -0.67290221147274
C       118.56457977479768    2.77353867318697    0.20120277502218
N       118.91838876162171    1.52775375926166    0.45872934415878
C       117.35952801189373    3.33073425008579    0.75978825180979
C       116.21211996176112    2.62345346399625    0.90873553521413
N       115.89533247767487    1.51477537754195    0.11291996445011
H       115.08177765840789    3.62386714401696    2.63110399269465
H       113.29789174879906    1.85393559628873    2.21048213742178
H       113.46162188733959   -1.80558525242516   -2.20316970080673
H       115.39866845061539   -3.66106742828539   -2.58205185041624
H       117.65275375851962   -4.45263059419989   -0.85712545024418
H       119.83470331862664   -4.29088037063171    1.14560172168059
H       121.54109745337436   -2.39140033221464    1.42228047809028
H       121.89486844432882    0.16594421889199   -0.24634065591829
H       121.37481103643798    2.67391706345470   -1.55462511117741
H       119.55239758922744    4.38758105443747   -1.09317912907569
H       117.38160484467129    4.37510961406543    1.07848514510061
C        56.08240139746576    0.02308409414228   -0.01165802848398
C        57.30325106251617    0.03167065174232   -0.01377026677158
C        66.92269601420681    0.03008502307728   -0.00974374889945
C        68.13514364465021    0.03098329017176   -0.01285657753116
C        77.73619653914605    0.03012773675773   -0.00945535692284
C        78.94882300161450    0.03101906972159   -0.01281157304832
C        88.54976188670079    0.03013776034567   -0.00937368877208
C        89.76246897624576    0.03102479063857   -0.01280176092888
C        99.36332977254325    0.03013362912348   -0.00931043889277
C       100.57608643108789    0.03100786609467   -0.01280091926342
C       110.19939825641519    0.03028072733933   -0.00786261416599
C       111.41959991894298    0.02382761376917   -0.01134400924770
Fe       62.15149857484536    0.03890785229461    0.00069401375078
C        59.87964988671168   -3.24147944738191   -0.90245400775255
C        58.91558582631806   -2.32469842731245   -1.00217924796097
C        59.33461530721651   -1.17615219801532   -0.20971337185130
C        58.68716435428245    0.00702955433636    0.00384665334597
C        59.38962701885578    1.26519824268092    0.22804081353148
C        59.02064650025665    2.36731748835343    0.94791459023296
C        60.03050132496615    3.36282134407784    0.85349109067618
C        61.01479731020584    2.84483487214569    0.06677161103867
N        60.64777479276795    1.53581320231749   -0.33534464415235
C        62.23826889229082    3.47583369497599   -0.34596972554091
C        63.36329974411294    2.79761870708154   -0.67768605820970
C        64.35322809678168    3.06773588904366   -1.70034248946029
C        65.26127455476440    2.08855986520810   -1.60908160871957
C        64.86584498195610    1.18810266043011   -0.52017124119705
N        63.73817199616006    1.62347900968102   -0.01118323280097
C        65.52829698801770    0.00584682262519   -0.00337036002397
C        64.88350770832447   -1.09359403839914    0.47436642865505
C        65.28604378614648   -2.01118397814859    1.53400498326588
C        64.32977338168226   -2.94279792344838    1.62827808420696
C        63.31540916319772   -2.64072183352836    0.63955643668751
N        63.65186380869078   -1.54822904891070   -0.01030501064020
C        62.09275934548451   -3.34528709008943    0.30938553004517
C        60.94579937520422   -2.72927287057034   -0.05488083976248
N        60.58581062597038   -1.44887032876367    0.34405638625333
H        59.88344345875649   -4.21240302276382   -1.39533357140603
H        58.01442399507659   -2.43816261673576   -1.58665144077418
H        58.10442243369312    2.46399104629709    1.51402365401685
H        60.07213935801821    4.34506699027652    1.30417441657428
H        62.32293275651124    4.56750701722934   -0.41188849199966
H        64.37370312942066    3.86524012638158   -2.43081641662203
H        66.13490194465473    1.98099078761921   -2.24042352228905
H        66.18392175712924   -1.93397268807494    2.14520513051879
H        64.34603094144603   -3.74625169686769    2.33738531531716
H        62.11630569872134   -4.43556401223106    0.35684135461756
Fe       72.96521103026350    0.03870799563557    0.00121407681510
C        70.69277113804223   -3.24196707471663   -0.90252501610071
C        69.72930797193844   -2.32537173421397   -1.00197928380809
C        70.15027925941222   -1.17774815207809   -0.20784770630524
C        69.50486741667781    0.00661588192923    0.00416549285537
C        70.20499550860109    1.26683189581738    0.22727711289165
C        69.83459809120217    2.36738892117107    0.94784029228519
C        70.84411861141960    3.36321798579107    0.85336383917897
C        71.82850116899370    2.84527160142856    0.06658854494592
N        71.46179641077549    1.53636352729544   -0.33514026913406
C        73.05183291354788    3.47583517994579   -0.34574496179440
C        74.17715666227777    2.79757999054194   -0.67764004054646
C        75.16682197578488    3.06778241671898   -1.70043628208029
C        76.07492169328353    2.08857523722423   -1.60922650800872
C        75.67920415409358    1.18844953464388   -0.52036184443760
N        74.55194498379142    1.62350248929966   -0.01159769589686
C        76.34195857382991    0.00556146799288   -0.00316910409078
C        75.69738935959658   -1.09376812087951    0.47419268187289
C        76.09993170090119   -2.01131971981065    1.53404299943803
C        75.14346943334991   -2.94257418483449    1.62856384022830
C        74.12940110681525   -2.64001129338898    0.63973382510118
N        74.46554193128598   -1.54866000762964   -0.01028688662987
C        72.90581753515022   -3.34533890341833    0.30884575450616
C        71.75995484418229   -2.72969658488642   -0.05468268802264
N        71.39975832683645   -1.44913457326333    0.34379860703733
H        70.69690843841127   -4.21256783077845   -1.39545349656742
H        68.82813360082264   -2.43823443666020   -1.58675196083243
H        68.91814907053558    2.46391293576694    1.51411341444413
H        70.88572603271085    4.34520803589701    1.30421764589610
H        73.13658979472687    4.56753202944441   -0.41182654929375
H        75.18734186576029    3.86527724846684   -2.43082999989754
H        76.94853818209251    1.98099728028307   -2.24044659627986
H        76.99763420017025   -1.93401692896768    2.14523928764100
H        75.15964445971844   -3.74619403974517    2.33743436335693
H        72.92997134868106   -4.43558911181050    0.35633563060494
Fe       83.77884392422983    0.03863567163582    0.00130568765892
C        81.50628180405266   -3.24201147439663   -0.90253401785591
C        80.54294504711137   -2.32548110052618   -1.00202230801626
C        80.96394847973421   -1.17776548955996   -0.20770731121639
C        80.31844097607862    0.00658783365247    0.00410627928793
C        81.01863007739738    1.26695481756068    0.22721622141331
C        80.64825008459297    2.36740053678176    0.94788908589670
C        81.65770900047791    3.36324202265113    0.85335200256251
C        82.64210487909141    2.84526315917985    0.06655330860419
N        82.27538837998864    1.53637203288592   -0.33513015345298
C        83.86542924522698    3.47580510032960   -0.34570001770849
C        84.99083106004927    2.79757922650680   -0.67761550501687
C        85.98043677467284    3.06779433913334   -1.70045984797308
C        86.88854210933427    2.08858028440487   -1.60926251337301
C        86.49275081446403    1.18852630493354   -0.52040794463958
N        85.36561394613754    1.62351254789267   -0.01167110566369
C        87.15561172005106    0.00548916899932   -0.00312305644583
C        86.51108324621597   -1.09381528543243    0.47414940977855
C        86.91361376708082   -2.01134066966961    1.53404376877690
C        85.95710055739114   -2.94251637306083    1.62862759842946
C        84.94311612496672   -2.63984137933904    0.63977312704795
N        85.27917610579492   -1.54876574634037   -0.01028746841407
C        83.71928262222760   -3.34532382924399    0.30874418283848
C        82.57362365980210   -2.72971113187940   -0.05460655507615
N        82.21330563531471   -1.44906801050703    0.34378167831491
H        81.51050094415514   -4.21258716010383   -1.39546826547583
H        79.64175722548195   -2.43825895414363   -1.58679223992883
H        79.73176942345360    2.46392536399258    1.51414209558118
H        81.69934234485149    4.34521757975323    1.30422450556906
H        83.95020044599227    4.56752303198153   -0.41183520634467
H        86.00096850923264    3.86528863942383   -2.43083370646476
H        87.76216050595222    1.98099750007080   -2.24044990723366