259
 energy: -466.319715051217 gnorm: 0.000640085827 xtb: 6.4.1 (bd6e46d)
Fe       50.53598722701501    0.04012737761423   -0.01072433569073
C        52.96930898901757   -1.87401690401516    2.84263037510238
C        53.97859763160680   -1.35618330265418    2.10406215464015
C        53.36413897770797   -0.65031080948722    1.02182133370719
C        54.06318719872005    0.02449960160023    0.01775702658632
C        53.38515047600592    0.70832897702124   -0.99476595181189
C        54.02255629173704    1.41396805168343   -2.06396957634572
C        53.02979685278299    1.94815017075225   -2.81294626745220
C        51.79190171174722    1.55936531497618   -2.20091901358367
N        52.02981209076427    0.79401171175310   -1.08975317915245
C        50.56243986173445    1.93544401848592   -2.70576432047788
C        49.32236912209984    1.59432702607937   -2.20340779303691
C        48.09304132998501    2.02840187604085   -2.80719502613006
C        47.08805246052052    1.49797048232296   -2.07479592177374
C        47.70651023292636    0.74292492168462   -1.02393585854943
N        49.06654919385956    0.81188073118629   -1.11161408459202
C        47.02610185792250    0.03535052307645   -0.05311902339570
C        47.68586370589090   -0.66642320660478    0.93594752644427
C        47.04446882039867   -1.41738466756771    1.97596996220660
C        48.03293820607595   -1.93700910986986    2.73787638878382
C        49.27534611212690   -1.50306089829588    2.16112686964348
N        49.04371213154739   -0.72907754790059    1.05788905974974
C        50.50347219752351   -1.84228575340562    2.69335382809421
C        51.74468127517074   -1.47761095802444    2.20918709613744
N        52.00693779953389   -0.72176956696178    1.09708644156666
H        53.02849318928615   -2.46790093447347    3.73426977007058
H        55.03679484493257   -1.42375950658617    2.26421121400066
H        55.08349012356556    1.47006182900297   -2.20908434965345
H        53.10799334313442    2.54736827686510   -3.69945783799157
H        50.57342039136880    2.55744587809065   -3.58966955568088
H        48.03170144195769    2.65415770326440   -3.67684854138935
H        46.02867120513073    1.59481247899755   -2.21405124877460
H        45.94724032315855    0.03214988796351   -0.06664913590189
H        45.98230182280331   -1.51810108761146    2.08867522796079
H        47.95272620751272   -2.55638209241599    3.61052849393452
H        50.49352810086420   -2.45715196176657    3.58228490121542
Fe      116.99490876304591    0.04893556805188   -0.02163801359577
C       114.55994162433340    2.36099472686985    2.51746160823589
C       113.55128337445031    1.75584915605447    1.84777607516992
C       114.16667346755879    0.90508632079051    0.87584317456510
C       113.46845657545514    0.11550311228372   -0.04138465706514
C       114.14727318818295   -0.68565858739628   -0.96341789239803
C       113.51165668981771   -1.49319740564296   -1.95900903781794
C       114.50481116017158   -2.11920718003329   -2.63267618066205
C       115.74102569082797   -1.68786145509361   -2.04635311980346
N       115.50190585826968   -0.80087779639487   -1.02997739179766
C       116.96994231855003   -2.14846362503749   -2.47692522094077
C       118.20771758177098   -1.79047962350371   -1.98058100023234
C       119.43574806017226   -2.33626490547214   -2.48894531323558
C       120.43955690872207   -1.76020563030537   -1.79022989301277
C       119.82183608712411   -0.86216030078540   -0.85807893314861
N       118.46304046848179   -0.89385449588798   -0.98037046015690
C       120.50248196326729   -0.05822628914141    0.03440100428641
C       119.84402172137099    0.79282653357284    0.89938592842209
C       120.48553547632352    1.66313740635722    1.84174101774424
C       119.49737762445893    2.31500351190751    2.49459279292879
C       118.25497261557132    1.83945513050189    1.95155654776234
N       118.48657181084215    0.91236094522938    0.97355844615909
C       117.02640653507792    2.27675560102823    2.40545278875865
C       115.78533344720860    1.86914355625147    1.95652532570734
N       115.52394996311587    0.97282374914670    0.95399462987200
H       114.49984275162667    3.07153711161002    3.31913824309431
H       112.49275181041411    1.85452436028187    1.98758522500655
H       112.45194035072815   -1.54799121351749   -2.11342911684610
H       114.42741281766565   -2.80884161268756   -3.45094496955198
H       116.96048702377463   -2.86562251989368   -3.28550703274834
H       119.49703920927035   -3.06255323124528   -3.27656398002819
H       121.49775234816093   -1.91164756665266   -1.88149388988808
H       121.58070176094971   -0.09310778471509    0.05355328368177
H       121.54749057881784    1.74754159277928    1.96897128936648
H       119.57791956589958    3.04888731379160    3.27338982226785
H       117.03579150284159    3.00862355309227    3.20076829571760
C        55.46446610798677    0.01791102282050    0.02578863441355
C        56.67704122968770    0.01563489566313    0.02928999086012
C        66.54199824807043    0.01678911891955   -0.05007784852780
C        67.75492915154878    0.02669518777034   -0.05232539724101
C        77.62062039880664    0.09492093539616   -0.03038735938102
C        78.83365527885195    0.09403394746859   -0.03142105794527
C        88.69988634236255    0.03183127909806   -0.00263543184181
C        89.91304255747684    0.02066442429044   -0.00645365337398
C        99.77837373911906   -0.01203068596554   -0.04084335936123
C       100.99121057407663   -0.00856822992404   -0.03407045667797
C       110.85476040309479    0.11540471915914   -0.02904606741812
C       112.06731426638578    0.12286805919261   -0.03654738695265
Fe       61.60955660640037    0.01121885981125   -0.01319116553106
C        59.16017161064319   -2.90858092438004    1.77323484806254
C        58.15410265005414   -2.14743006280480    1.28241020897652
C        58.77289122029539   -1.03089128190050    0.63592939427013
C        58.07792358851091    0.01509632468808    0.02282908415407
C        58.76264234828590    1.06130519155451   -0.60188566834739
C        58.13347556792826    2.18049106219521   -1.23340287120256
C        59.13078402681693    2.93814348112939   -1.74697594359828
C        60.36260013322970    2.27965426348285   -1.42085350637888
N        60.11704804605380    1.13702033394805   -0.70601493101548
C        61.59361422351073    2.75976750924703   -1.82200775090984
C        62.83028767205801    2.21148622333575   -1.54499871663264
C        64.05497212099732    2.78153115637803   -2.02706849318158
C        65.06112258922307    2.01943473739028   -1.53789310964126
C        64.44468094894287    0.99220925567808   -0.75580316523525
N        63.08909431415448    1.10571979453316   -0.77820802702381
C        65.14164209182624    0.01196035715040   -0.04325735686731
C        64.45754327534793   -0.97131252672494    0.67758864048699
C        65.08758609050324   -2.00212110865179    1.44393189914533
C        64.09022179470089   -2.76776461143588    1.94549955281982
C        62.85719800259855   -2.19507055565259    1.48848741900617
N        63.10261133576046   -1.08598497282879    0.72227400271083
C        61.62496047116898   -2.74085393200942    1.78983963340478
C        60.38681410084871   -2.25465831191559    1.41907005778848
N        60.12906924266571   -1.11038175084876    0.71078174803078
H        59.09757086152796   -3.82733694203786    2.32383977262852
H        57.09556006321689   -2.31129019727175    1.33344450291439
H        57.07488469931999    2.34945010479024   -1.25898044820211
H        59.05877885109628    3.85747244501161   -2.29536058194882
H        61.58869342513231    3.66225510034385   -2.41684148700003
H        64.11652036524833    3.64879590044882   -2.65571856657171
H        66.11806588320218    2.11894324476637   -1.68812358908642
H        66.14696469540685   -2.10163464123025    1.57572884584925
H        64.16311049484887   -3.63879556066276    2.56769840373594
H        61.63024553580969   -3.64571587632778    2.38113171358785
Fe       72.68773983865059    0.06457753378004   -0.03633180473906
C        70.24649612323796   -3.25394800405197    0.82449537180880
C        69.23916554206241   -2.39334997487890    0.54683972616079
C        69.85387859200820   -1.13595126283241    0.25019111815847
C        69.15524501063753    0.03710543591345   -0.05046486473307
C        69.83763295731643    1.22125802216381   -0.34471925974546
C        69.20582466774636    2.47011507644799   -0.64176158007041
C        70.20198020558125    3.34764375245788   -0.90656181378877
C        71.43591650206791    2.63047708482418   -0.76381033288129
N        71.19228553775636    1.33059206451288   -0.40542173619357
C        72.66711926236226    3.21141216768251   -0.99525829444615
C        73.90582180986993    2.61414470344699   -0.86923294792285
C        75.13039019174920    3.30376971687397   -1.15591412477489
C        76.13797091043169    2.43855126577765   -0.89382977193967
C        75.52254328365633    1.22842520693888   -0.44249476537562
N        74.16643190772335    1.33759938608404   -0.44511254045724
C        76.22032001415485    0.08958909008027   -0.02962196169574
C        75.53665306853306   -1.05752103177448    0.38480061929407
C        76.16745402631011   -2.25634377887162    0.84502145118522
C        75.17140436735821   -3.13481225178602    1.10693418591402
C        73.93844574801328   -2.46465675791988    0.81078811640811
N        74.18239031382008   -1.18613439452232    0.38238741928741
C        72.70812789059248   -3.07978552137628    0.93174340729825
C        71.47020637142886   -2.51821357532390    0.68882509886159
N        71.20956248105423   -1.22389451964277    0.32264802791865
H        70.18626566350626   -4.29021046053728    1.09589070854204
H        68.18243735217365   -2.57378676326296    0.52893690419413
H        68.14624245922801    2.63387703826027   -0.63250260409798
H        70.12765748802262    4.38424403375150   -1.17324948183041
H        72.66057885021280    4.24560975727063   -1.30958570673263
H        75.19095842174967    4.31456032105258   -1.51057186639822
H        77.19546139168637    2.58181432866504   -0.99765723928365
H        77.22619847912483   -2.38313066471845    0.95648107941174
H        75.24505072383991   -4.14276756532938    1.46711131480536
H        72.71476944169414   -4.11258992551222    1.25058943600764
Fe       83.76633439571640    0.06466690257606   -0.00570135318660
C        81.28395862382460   -3.33145009477880   -0.06223672058384
C        80.28801705695783   -2.41579861617478   -0.10966857243155
C        80.91765496148692   -1.13236516065768   -0.05362876469260
C        80.23390682259902    0.08693605982748   -0.02710895230757
C        80.93212507698969    1.29766267354532    0.00792253078607
C        80.31749214403443    2.58856026766582    0.05802247864610
C        81.32541028127555    3.49190889985002    0.03019448318924
C        82.54927659624347    2.74660126479284   -0.03137629655882
N        82.28808132470412    1.40150992005531   -0.02813093131560
C        83.78766608973709    3.35145898192539   -0.11790861906821
C        85.01751522918376    2.72531597903851   -0.16755169804713
C        86.25013030307187    3.44847243918964   -0.28839421895567
C        87.24589741322457    2.53173287107097   -0.26509081146046
C        86.61589629645940    1.25542483898308   -0.12139592007560
N        85.26161603581809    1.37964687614736   -0.08244217245135
C        87.29960176168593    0.04151304255097   -0.00106305674263
C        86.60009037420004   -1.16294623485578    0.12239695591480
C        87.21313402302620   -2.44631336432811    0.27618392190972
C        86.20520923641305   -3.34949992871265    0.30628900120377
C        84.98254879560425   -2.61119102658183    0.17641135742835
N        85.24443437438369   -1.26950596059771    0.08205044601488
C        83.74505927126593   -3.22146925423530    0.12123284743818
C        82.51590660901282   -2.60113244481890    0.01518040920080
N        82.27164219833325   -1.25293075911455    0.00222111431219
H        81.21072921342865   -4.40173455784766   -0.07819921027002
H        79.23011472672873   -2.57248510725326   -0.18573181090470
H        79.26032809829194    2.75781426817114    0.11608172669785
H        81.26519648277295    4.56297349188042    0.04881046685944
H        83.79511827272687    4.43180442082968   -0.15298067090956
H        86.32387977274512    4.51498141794196   -0.37923053239838
H        88.30414695342840    2.68274461754134   -0.34574823104568
H        88.26927807386679   -2.61069067701743    0.35888282764140
H        86.26478045232970   -4.41606745916285    0.40641384485711
H        83.73775917503880   -4.30151146125391    0.16431221495099
Fe       94.84621610761849    0.00288562348204   -0.03234016856829
C        92.36985708957680   -3.32406906141363   -0.73918942165274
C        91.37182170583139   -2.42137666067634   -0.59229677030686
C        91.99941705080158   -1.17218565424123   -0.28854139272329
C        91.31334117511767    0.01469602462151   -0.01286706676623
C        92.01041303825902    1.19686654014157    0.25528336855487
C        91.39468621141452    2.45025746006148    0.56566870939928
C        92.40017212439746    3.34663668772039    0.69948943544081
C        93.62426893426412    2.63311519438043    0.47740923327290
N        93.36563555578685    1.31180922354004    0.22273023402268
C        94.85998599845092    3.24912713016147    0.49668940643787
C        96.09090305225557    2.64882444753191    0.32014934595479
C        97.32192984268140    3.38454454861218    0.34009301649864
C        98.31993891844354    2.48271606083158    0.18747590174464
C        97.69192838904260    1.20159365055050    0.08057112920951
N        96.33757770415269    1.31265655195722    0.14316611774061
C        98.37805740891133   -0.00999234634966   -0.04496590996395
C        97.68342469900037   -1.21637819149341   -0.17109308596880
C        98.30132032854456   -2.50133018721800   -0.28953296474962
C        97.29557695497438   -3.39531287247507   -0.43781576098749
C        96.06987991111446   -2.65110633261398   -0.40298743899283
N        96.32772412084951   -1.31753073662062   -0.22362211586426
C        94.83279643982591   -3.24262360882277   -0.56674374993745
C        93.60129421323153   -2.61875588026344   -0.53143492854761
N        93.35417292412070   -1.29610247350222   -0.27207936560443
H        92.29842185901516   -4.37005912253374   -0.96710959940085
H        90.31344941665773   -2.56407885115819   -0.68613614758319
H        90.33857367939498    2.59969688213158    0.67274866520261
H        92.33840671867129    4.39329125455235    0.92711857154544
H        94.86422052681324    4.31602914676070    0.67009936083988
H        97.39321498730655    4.44879042067304    0.45598477931104
H        99.37821358777941    2.64821922795944    0.13851511651752
H        99.35897435218089   -2.67402879853081   -0.25277252573760
H        97.35815239411674   -4.45945007457795   -0.55967991800001
H        94.82788423276946   -4.30923256977642   -0.74205909913329
Fe      105.92298063065587    0.04402111091598   -0.01179245838740
C       103.49904782801109   -2.97536650170465   -1.66454281165397
C       102.48654974419112   -2.17208324534871   -1.26203110614526
C       103.09552563361876   -1.04974231237670   -0.61655345025200
C       102.39150642637723    0.00242083731248   -0.02415766097114
C       103.06735391303495    1.06655452263420    0.58019388540127
C       102.42800242754754    2.16706919376778    1.23376845808708
C       103.41879332588888    2.98809411615103    1.65422332924393
C       104.65679722889838    2.38149946636741    1.25857949005517
N       104.42117956311075    1.19663599274225    0.61174977017538
C       105.88390530889458    2.96761931951790    1.49838237758900
C       107.12574692235671    2.46162272903139    1.16870597423597
C       108.34584414717081    3.16413395482540    1.44303120625048
C       109.35808069543785    2.37262443507400    1.01712091880427
C       108.74979048875295    1.18896684019315    0.49179741274138
N       107.39344362925395    1.25640362647283    0.57441490948005
C       109.45414717616104    0.09627886651839   -0.02119020523492
C       108.77927154752521   -1.01942994949574   -0.52456371356293
C       109.41964439538060   -2.18950382812014   -1.04261253038445
C       108.42896281581915   -3.01559893857761   -1.45298228395750
C       107.19005339268203   -2.34670850777815   -1.17877394615918
N       107.42513528783174   -1.12825172524940   -0.59795963609021
C       105.96237508896110   -2.89107724100011   -1.50005161351933
C       104.71986959953226   -2.33483183392070   -1.26853354616465
N       104.45223108815109   -1.14905346430687   -0.63659929846780
H       103.44429846352780   -3.91368209562683   -2.18195882747917
H       101.42965499540911   -2.30278826239457   -1.38717428740066
H       101.36764140741694    2.27132226959948    1.35406538363263
H       103.33849342323560    3.91796087816196    2.18341441634008
H       105.87092266949153    3.92711196178749    1.99602578464308
H       108.40046117485993    4.13347969962948    1.89974754997577
H       110.41434653520177    2.55604152104017    1.03897937355129
H       110.48066695367736   -2.34227097465884   -1.06800015170628
H       108.50986207813452   -3.98780953227501   -1.89950513121385
H       105.97542871230223   -3.85586792167051   -1.98728512303718
