 Entering Gaussian System
 *********************************************
 Gaussian 98:
 frequency output generated by the xtb code
 *********************************************
                         Standard orientation:
 --------------------------------------------------------------------
  Center     Atomic     Atomic              Coordinates (Angstroms)
  Number     Number      Type              X           Y           Z
 --------------------------------------------------------------------
    1         30             0       23.841989   -0.000584   -0.011977
    2          6             0       26.380153   -3.432022    0.020891
    3          6             0       27.332106   -2.467798    0.021951
    4          6             0       26.641118   -1.209959    0.010538
    5          6             0       27.277758    0.042240    0.006419
    6          6             0       26.610029    1.277943   -0.000988
    7          6             0       27.269808    2.552421   -0.000353
    8          6             0       26.294390    3.492908   -0.005827
    9          6             0       25.042450    2.790597   -0.010516
   10          7             0       25.266447    1.446263   -0.007479
   11          6             0       23.800419    3.402977   -0.017013
   12          6             0       22.574489    2.758605   -0.022538
   13          6             0       21.300164    3.424596   -0.029362
   14          6             0       20.354783    2.456210   -0.035066
   15          6             0       21.050828    1.197622   -0.031471
   16          7             0       22.392409    1.412022   -0.023388
   17          6             0       20.434189   -0.042929   -0.036034
   18          6             0       21.081422   -1.267831   -0.030450
   19          6             0       20.416913   -2.543278   -0.033699
   20          6             0       21.386063   -3.487852   -0.023010
   21          6             0       22.643381   -2.790383   -0.013543
   22          7             0       22.427854   -1.448741   -0.018897
   23          6             0       23.884927   -3.403952    0.000021
   24          6             0       25.111341   -2.760861    0.008090
   25          7             0       25.302024   -1.411354    0.002851
   26          1             0       26.510220   -4.497054    0.027749
   27          1             0       28.399101   -2.580298    0.030024
   28          1             0       28.333659    2.691162    0.004813
   29          1             0       26.398403    4.560743   -0.006394
   30          1             0       23.787863    4.484098   -0.018088
   31          1             0       21.166443    4.489407   -0.029653
   32          1             0       19.287091    2.564428   -0.040873
   33          1             0       19.353274   -0.056331   -0.043918
   34          1             0       19.352292   -2.678011   -0.042779
   35          1             0       21.278891   -4.555640   -0.021526
   36          1             0       23.899291   -4.485044    0.004303
   37         30             0       87.853370    0.030239   -0.008876
   38          6             0       85.322311    3.404966    0.641441
   39          6             0       84.368396    2.458903    0.465626
   40          6             0       85.056810    1.222207    0.228058
   41          6             0       84.417412   -0.007383   -0.001007
   42          6             0       85.082231   -1.223148   -0.230484
   43          6             0       84.419851   -2.474830   -0.463171
   44          6             0       85.393323   -3.400309   -0.641225
   45          6             0       86.646708   -2.711656   -0.517182
   46          7             0       86.425544   -1.390191   -0.267631
   47          6             0       87.887465   -3.314977   -0.636520
   48          6             0       89.114783   -2.683125   -0.524607
   49          6             0       90.387669   -3.339129   -0.654610
   50          6             0       91.335135   -2.388165   -0.482752
   51          6             0       90.641822   -1.150271   -0.247385
   52          7             0       89.299835   -1.359654   -0.278253
   53          6             0       91.261149    0.068605   -0.023552
   54          6             0       90.616547    1.273017    0.206878
   55          6             0       91.283796    2.525918    0.438101
   56          6             0       90.316678    3.454903    0.620331
   57          6             0       89.057820    2.770567    0.500244
   58          7             0       89.270477    1.451996    0.250027
   59          6             0       87.817582    3.374636    0.622583
   60          6             0       86.589779    2.744020    0.510261
   61          7             0       86.396321    1.418428    0.259893
   62          1             0       85.194446    4.451429    0.840914
   63          1             0       83.301597    2.570644    0.491797
   64          1             0       83.355568   -2.609602   -0.484309
   65          1             0       85.287451   -4.449706   -0.838599
   66          1             0       87.897640   -4.377558   -0.836069
   67          1             0       90.519091   -4.386005   -0.850773
   68          1             0       92.402571   -2.495636   -0.509172
   69          1             0       92.342094    0.080876   -0.028672
   70          1             0       92.348718    2.657484    0.455116
   71          1             0       90.426164    4.504102    0.817412
   72          1             0       87.805524    4.436908    0.823615
   73          6             0       28.675295    0.059059    0.008604
   74          6             0       29.895195    0.063454    0.010461
   75          6             0       31.231373    0.070772    0.007771
   76          6             0       32.455914    0.071539    0.006539
   77          6             0       33.791914    0.071195    0.003065
   78          6             0       35.011936    0.069741   -0.003778
   79          6             0       44.678891    0.036415   -0.022651
   80          6             0       45.899103    0.034725   -0.021439
   81          6             0       47.234649    0.032292   -0.021811
   82          6             0       48.459224    0.031992   -0.021336
   83          6             0       49.794755    0.032130   -0.020934
   84          6             0       51.014954    0.034088   -0.021373
   85          6             0       60.680278    0.042549   -0.023308
   86          6             0       61.900478    0.043011   -0.021281
   87          6             0       63.236005    0.044107   -0.021965
   88          6             0       64.460499    0.043559   -0.022742
   89          6             0       65.796050    0.040693   -0.023576
   90          6             0       67.016278    0.038974   -0.021998
   91          6             0       76.683145   -0.011265   -0.017756
   92          6             0       77.903195   -0.019509   -0.015591
   93          6             0       79.239257   -0.025440   -0.011131
   94          6             0       80.463631   -0.026851   -0.010562
   95          6             0       81.799810   -0.027766   -0.003091
   96          6             0       83.019714   -0.020623   -0.002780
   97         30             0       39.845293    0.052456   -0.017138
   98          6             0       37.340572   -3.376946    0.393671
   99          6             0       36.379366   -2.427567    0.286525
  100          6             0       37.058244   -1.172713    0.135413
  101          6             0       36.408854    0.064869   -0.008573
  102          6             0       37.066356    1.297416   -0.157403
  103          6             0       36.395724    2.556773   -0.306999
  104          6             0       37.363092    3.499050   -0.420976
  105          6             0       38.620068    2.812223   -0.340330
  106          7             0       38.408321    1.475212   -0.180738
  107          6             0       39.856949    3.429629   -0.414076
  108          6             0       41.089784    2.804325   -0.341562
  109          6             0       42.351406    3.482724   -0.422445
  110          6             0       43.312399    2.533499   -0.312618
  111          6             0       42.633143    1.278403   -0.164988
  112          7             0       41.292547    1.465460   -0.185038
  113          6             0       43.282351    0.040666   -0.021937
  114          6             0       42.625116   -1.192766    0.121415
  115          6             0       43.296133   -2.452756    0.265052
  116          6             0       42.328925   -3.395515    0.376050
  117          6             0       41.071755   -2.708285    0.300095
  118          7             0       41.283359   -1.370620    0.144970
  119          6             0       39.834853   -3.325062    0.376196
  120          6             0       38.601953   -2.698944    0.308350
  121          7             0       38.399003   -1.360168    0.151971
  122          1             0       37.220902   -4.435772    0.518810
  123          1             0       35.313517   -2.548537    0.305747
  124          1             0       35.330671    2.685130   -0.321582
  125          1             0       37.250291    4.558468   -0.547817
  126          1             0       39.860238    4.503468   -0.540485
  127          1             0       42.471413    4.541671   -0.546519
  128          1             0       44.378344    2.654570   -0.328321
  129          1             0       44.361247   -2.581176    0.277280
  130          1             0       42.441924   -4.455466    0.497919
  131          1             0       39.831272   -4.399085    0.501089
  132         30             0       55.847502    0.038179   -0.020634
  133          6             0       53.356541   -3.402951    0.381666
  134          6             0       52.391631   -2.457899    0.269912
  135          6             0       53.065685   -1.199909    0.123391
  136          6             0       52.411486    0.035094   -0.020765
  137          6             0       53.063451    1.271299   -0.164524
  138          6             0       52.387040    2.528115   -0.310424
  139          6             0       53.350179    3.475008   -0.421867
  140          6             0       54.610239    2.793474   -0.343657
  141          7             0       54.404457    1.455105   -0.186853
  142          6             0       55.844483    3.415801   -0.419017
  143          6             0       57.079876    2.795267   -0.347880
  144          6             0       58.338668    3.478539   -0.430922
  145          6             0       59.303524    2.533402   -0.319573
  146          6             0       58.629448    1.275956   -0.168720
  147          7             0       57.288135    1.457543   -0.189037
  148          6             0       59.283731    0.041380   -0.021441
  149          6             0       58.631863   -1.194410    0.126362
  150          6             0       59.308281   -2.450787    0.276299
  151          6             0       58.345111   -3.397607    0.388199
  152          6             0       57.085041   -2.716531    0.306095
  153          7             0       57.290844   -1.378380    0.147513
  154          6             0       55.850743   -3.339239    0.377945
  155          6             0       54.615323   -2.719152    0.303007
  156          7             0       54.407029   -1.381229    0.145817
  157          1             0       53.240939   -4.462365    0.505660
  158          1             0       51.326235   -2.583590    0.283473
  159          1             0       51.321400    2.651872   -0.323884
  160          1             0       53.232614    4.534300   -0.545326
  161          1             0       55.843476    4.489615   -0.545672
  162          1             0       58.454303    4.537697   -0.557285
  163          1             0       60.368925    2.658753   -0.335771
  164          1             0       60.373924   -2.574295    0.291814
  165          1             0       58.462664   -4.456581    0.514216
  166          1             0       55.851722   -4.413047    0.504680
  167         30             0       71.849478    0.014103   -0.019843
  168          6             0       69.337099   -3.410880    0.388383
  169          6             0       68.377929   -2.459935    0.277459
  170          6             0       69.059569   -1.206505    0.127069
  171          6             0       68.412841    0.031959   -0.020716
  172          6             0       69.072506    1.263648   -0.167611
  173          6             0       68.403884    2.524129   -0.318136
  174          6             0       69.372893    3.465255   -0.427347
  175          6             0       70.628748    2.776580   -0.343279
  176          7             0       70.414622    1.439507   -0.186503
  177          6             0       71.866854    3.392013   -0.410389
  178          6             0       73.098492    2.764482   -0.333315
  179          6             0       74.361283    3.441502   -0.405964
  180          6             0       75.320615    2.490608   -0.295703
  181          6             0       74.639254    1.235738   -0.156351
  182          7             0       73.298819    1.424912   -0.180770
  183          6             0       75.286114   -0.003865   -0.019988
  184          6             0       74.626258   -1.236661    0.116007
  185          6             0       75.294471   -2.498545    0.255446
  186          6             0       74.325294   -3.439257    0.366746
  187          6             0       73.069695   -2.749024    0.294500
  188          7             0       73.283979   -1.411730    0.140978
  189          6             0       71.831630   -3.363516    0.372635
  190          6             0       70.600034   -2.735263    0.304817
  191          7             0       70.399815   -1.396144    0.147083
  192          1             0       69.215051   -4.469345    0.514477
  193          1             0       67.311767   -2.578915    0.293847
  194          1             0       67.338991    2.653975   -0.335525
  195          1             0       69.261872    4.525005   -0.552801
  196          1             0       71.872629    4.466088   -0.534724
  197          1             0       74.483081    4.500767   -0.525243
  198          1             0       76.386718    2.610421   -0.306227
  199          1             0       76.359250   -2.629568    0.265156
  200          1             0       74.435928   -4.499717    0.486559
  201          1             0       71.826208   -4.437458    0.498103
 --------------------------------------------------------------------
     1 basis functions        1 primitive gaussians
     1 alpha electrons        1 beta electrons

 Harmonic frequencies (cm**-1), IR intensities (km*mol⁻¹),
 Raman scattering activities (A**4/amu), Raman depolarization ratios,
 reduced masses (AMU), force constants (mDyne/A) and normal coordinates:
                      1                      2                      3
                        a                      a                      a 
 Frequencies --    -1.7431                -1.0895                 1.3970
 Red. masses --    20.0503                19.9860                19.8110
 Frc consts  --     0.0000                 0.0000                 0.0000
 IR Inten    --     3.2871                 3.1317                 0.1218
 Raman Activ --     0.0000                 0.0000                 0.0000
 Depolar     --     0.0000                 0.0000                 0.0000
 Atom AN      X      Y      Z        X      Y      Z        X      Y      Z
   1  30     0.00  -0.13  -0.11     0.00  -0.15   0.14     0.00  -0.04  -0.18
   2   6     0.02  -0.05  -0.04     0.02  -0.05   0.05     0.00  -0.01  -0.05
   3   6     0.01  -0.04  -0.04     0.02  -0.04   0.04     0.00  -0.01  -0.04
   4   6     0.01  -0.04  -0.04     0.01  -0.05   0.05     0.00  -0.01  -0.04
   5   6    -0.00  -0.04  -0.04     0.00  -0.04   0.04    -0.00  -0.01  -0.03
   6   6    -0.01  -0.04  -0.04    -0.01  -0.05   0.05    -0.00  -0.01  -0.04
   7   6    -0.01  -0.04  -0.04    -0.02  -0.04   0.04    -0.00  -0.01  -0.03
   8   6    -0.02  -0.05  -0.04    -0.02  -0.05   0.05    -0.00  -0.01  -0.04
   9   6    -0.01  -0.05  -0.04    -0.02  -0.06   0.05    -0.00  -0.01  -0.06
  10   7    -0.01  -0.05  -0.05    -0.01  -0.06   0.06    -0.00  -0.02  -0.06
  11   6    -0.02  -0.06  -0.05    -0.02  -0.07   0.06    -0.00  -0.02  -0.07
  12   6    -0.01  -0.06  -0.05    -0.02  -0.07   0.06    -0.00  -0.02  -0.09
  13   6    -0.02  -0.07  -0.05    -0.02  -0.08   0.07    -0.00  -0.02  -0.10
  14   6    -0.01  -0.07  -0.05    -0.02  -0.09   0.07    -0.00  -0.02  -0.12
  15   6    -0.01  -0.07  -0.05    -0.01  -0.08   0.07    -0.00  -0.02  -0.11
  16   7    -0.01  -0.07  -0.05    -0.01  -0.08   0.07    -0.00  -0.02  -0.10
  17   6     0.00  -0.07  -0.05     0.00  -0.09   0.07     0.00  -0.02  -0.12
  18   6     0.01  -0.07  -0.05     0.01  -0.08   0.07     0.00  -0.02  -0.12
  19   6     0.01  -0.07  -0.06     0.02  -0.09   0.07     0.00  -0.02  -0.13
  20   6     0.02  -0.07  -0.05     0.02  -0.08   0.07     0.00  -0.02  -0.12
  21   6     0.01  -0.06  -0.05     0.02  -0.07   0.06     0.00  -0.02  -0.10
  22   7     0.01  -0.07  -0.05     0.01  -0.08   0.07     0.00  -0.02  -0.11
  23   6     0.02  -0.06  -0.05     0.02  -0.07   0.06     0.00  -0.02  -0.08
  24   6     0.01  -0.05  -0.04     0.02  -0.06   0.05     0.00  -0.01  -0.07
  25   7     0.01  -0.05  -0.05     0.01  -0.06   0.06     0.00  -0.02  -0.07
  26   1     0.01  -0.01  -0.01     0.01  -0.01   0.01     0.00  -0.00  -0.01
  27   1     0.00  -0.01  -0.01     0.00  -0.01   0.01     0.00  -0.00  -0.01
  28   1    -0.00  -0.01  -0.01    -0.00  -0.01   0.01    -0.00  -0.00  -0.00
  29   1    -0.01  -0.01  -0.01    -0.01  -0.01   0.01    -0.00  -0.00  -0.01
  30   1    -0.01  -0.02  -0.01    -0.01  -0.02   0.02    -0.00  -0.00  -0.02
  31   1    -0.01  -0.02  -0.01    -0.01  -0.02   0.02    -0.00  -0.01  -0.03
  32   1    -0.00  -0.02  -0.02    -0.00  -0.03   0.02    -0.00  -0.01  -0.04
  33   1     0.00  -0.02  -0.02     0.00  -0.03   0.02     0.00  -0.01  -0.04
  34   1     0.00  -0.02  -0.02     0.00  -0.03   0.02     0.00  -0.01  -0.04
  35   1     0.01  -0.02  -0.02     0.01  -0.02   0.02     0.00  -0.01  -0.03
  36   1     0.01  -0.02  -0.01     0.01  -0.02   0.02     0.00  -0.00  -0.02
  37  30     0.00  -0.16  -0.19    -0.00  -0.15   0.16    -0.00  -0.03   0.08
  38   6     0.03  -0.05  -0.06     0.01  -0.05   0.05    -0.00  -0.01   0.00
  39   6     0.02  -0.04  -0.05     0.01  -0.04   0.05    -0.00  -0.01  -0.01
  40   6     0.01  -0.05  -0.05     0.00  -0.05   0.05    -0.00  -0.01   0.00
  41   6    -0.00  -0.04  -0.04    -0.00  -0.04   0.04    -0.00  -0.01  -0.01
  42   6    -0.01  -0.05  -0.05    -0.01  -0.05   0.05     0.00  -0.01   0.00
  43   6    -0.02  -0.04  -0.04    -0.01  -0.04   0.04     0.00  -0.01  -0.00
  44   6    -0.03  -0.05  -0.05    -0.01  -0.05   0.05     0.00  -0.01   0.01
  45   6    -0.02  -0.06  -0.06    -0.01  -0.06   0.06     0.00  -0.01   0.02
  46   7    -0.01  -0.06  -0.07    -0.01  -0.06   0.06     0.00  -0.01   0.02
  47   6    -0.03  -0.07  -0.08    -0.01  -0.06   0.07     0.00  -0.01   0.03
  48   6    -0.02  -0.08  -0.09    -0.01  -0.07   0.07     0.00  -0.01   0.05
  49   6    -0.03  -0.08  -0.10    -0.01  -0.08   0.08     0.00  -0.02   0.06
  50   6    -0.02  -0.09  -0.11    -0.01  -0.08   0.09     0.00  -0.02   0.07
  51   6    -0.01  -0.09  -0.11    -0.01  -0.08   0.09     0.00  -0.02   0.06
  52   7    -0.01  -0.08  -0.10    -0.01  -0.08   0.08     0.00  -0.02   0.05
  53   6     0.00  -0.09  -0.11     0.00  -0.08   0.09     0.00  -0.02   0.07
  54   6     0.01  -0.09  -0.11     0.01  -0.08   0.09    -0.00  -0.01   0.06
  55   6     0.02  -0.09  -0.12     0.01  -0.08   0.09    -0.00  -0.02   0.07
  56   6     0.03  -0.08  -0.11     0.01  -0.08   0.08    -0.00  -0.01   0.06
  57   6     0.03  -0.07  -0.10     0.01  -0.07   0.08    -0.00  -0.01   0.04
  58   7     0.01  -0.08  -0.10     0.01  -0.08   0.08    -0.00  -0.01   0.05
  59   6     0.03  -0.06  -0.08     0.01  -0.06   0.07    -0.00  -0.01   0.03
  60   6     0.02  -0.06  -0.07     0.01  -0.06   0.06    -0.00  -0.01   0.02
  61   7     0.01  -0.06  -0.07     0.01  -0.06   0.06    -0.00  -0.01   0.02
  62   1     0.01  -0.01  -0.02     0.01  -0.01   0.01    -0.00  -0.00   0.00
  63   1     0.01  -0.01  -0.01     0.00  -0.01   0.01    -0.00  -0.00  -0.01
  64   1    -0.01  -0.01  -0.01    -0.00  -0.01   0.01     0.00  -0.00  -0.00
  65   1    -0.01  -0.01  -0.01    -0.01  -0.01   0.01     0.00  -0.00   0.00
  66   1    -0.01  -0.02  -0.02    -0.01  -0.02   0.02     0.00  -0.00   0.01
  67   1    -0.01  -0.02  -0.03    -0.01  -0.02   0.02     0.00  -0.00   0.02
  68   1    -0.01  -0.03  -0.04    -0.00  -0.03   0.03     0.00  -0.00   0.02
  69   1     0.00  -0.03  -0.04     0.00  -0.03   0.03     0.00  -0.00   0.02
  70   1     0.01  -0.03  -0.04     0.00  -0.03   0.03    -0.00  -0.00   0.02
  71   1     0.01  -0.02  -0.03     0.01  -0.02   0.02    -0.00  -0.00   0.02
  72   1     0.01  -0.02  -0.02     0.01  -0.02   0.02    -0.00  -0.00   0.01
  73   6    -0.00  -0.03  -0.03     0.00  -0.04   0.04    -0.00  -0.01  -0.01
  74   6    -0.00  -0.03  -0.03     0.00  -0.03   0.03    -0.00  -0.01   0.00
  75   6    -0.00  -0.02  -0.03     0.00  -0.02   0.03    -0.00  -0.01   0.02
  76   6    -0.00  -0.02  -0.02     0.00  -0.01   0.02    -0.00  -0.00   0.04
  77   6    -0.00  -0.01  -0.02    -0.00  -0.00   0.01    -0.00  -0.00   0.05
  78   6    -0.00  -0.00  -0.02    -0.00   0.00   0.01    -0.00   0.00   0.07
  79   6    -0.00   0.04   0.02     0.00   0.05  -0.04     0.00   0.01   0.11
  80   6    -0.00   0.04   0.02     0.00   0.06  -0.04     0.00   0.01   0.10
  81   6     0.00   0.05   0.03     0.00   0.06  -0.05     0.00   0.01   0.10
  82   6     0.00   0.05   0.03     0.00   0.07  -0.05     0.00   0.01   0.09
  83   6     0.00   0.05   0.04     0.00   0.07  -0.06     0.00   0.02   0.08
  84   6     0.00   0.06   0.04     0.00   0.07  -0.06     0.00   0.02   0.08
  85   6    -0.00   0.06   0.07     0.00   0.06  -0.07     0.00   0.02  -0.02
  86   6    -0.00   0.06   0.07     0.00   0.06  -0.06     0.00   0.02  -0.03
  87   6    -0.00   0.06   0.07     0.00   0.06  -0.06     0.00   0.01  -0.05
  88   6    -0.00   0.06   0.07     0.00   0.05  -0.06     0.00   0.01  -0.06
  89   6    -0.00   0.06   0.07     0.00   0.05  -0.05     0.00   0.01  -0.07
  90   6    -0.00   0.05   0.07     0.00   0.04  -0.05     0.00   0.01  -0.08
  91   6    -0.00   0.01   0.03    -0.00  -0.00  -0.00    -0.00  -0.00  -0.08
  92   6    -0.00   0.00   0.02    -0.00  -0.01   0.00    -0.00  -0.00  -0.07
  93   6    -0.00  -0.01   0.01    -0.00  -0.02   0.01    -0.00  -0.01  -0.06
  94   6    -0.00  -0.01  -0.00    -0.00  -0.02   0.02    -0.00  -0.01  -0.05
  95   6    -0.00  -0.02  -0.02    -0.00  -0.03   0.03    -0.00  -0.01  -0.03
  96   6    -0.00  -0.03  -0.03    -0.00  -0.04   0.04    -0.00  -0.01  -0.02
  97  30    -0.00   0.04  -0.00    -0.00   0.07  -0.04     0.00   0.02   0.24
  98   6     0.01   0.01  -0.01     0.02   0.01  -0.01     0.00   0.01   0.09
  99   6     0.01   0.00  -0.01     0.01   0.01  -0.00     0.00   0.00   0.08
 100   6     0.00   0.00  -0.01     0.01   0.01  -0.00     0.00   0.00   0.08
 101   6    -0.00   0.00  -0.01    -0.00   0.01   0.00    -0.00   0.00   0.08
 102   6    -0.00   0.00  -0.01    -0.01   0.01  -0.00    -0.00   0.00   0.09
 103   6    -0.01   0.00  -0.01    -0.01   0.01   0.00    -0.00   0.00   0.08
 104   6    -0.01   0.01  -0.01    -0.02   0.02  -0.00    -0.00   0.01   0.09
 105   6    -0.01   0.01  -0.01    -0.02   0.02  -0.01    -0.00   0.01   0.10
 106   7    -0.01   0.01  -0.01    -0.01   0.02  -0.01    -0.00   0.01   0.10
 107   6    -0.01   0.02  -0.00    -0.02   0.03  -0.01    -0.00   0.01   0.11
 108   6    -0.01   0.02   0.00    -0.02   0.03  -0.02    -0.00   0.01   0.11
 109   6    -0.01   0.03   0.01    -0.02   0.04  -0.02    -0.00   0.01   0.12
 110   6    -0.01   0.03   0.01    -0.01   0.05  -0.03    -0.00   0.01   0.11
 111   6    -0.00   0.03   0.01    -0.01   0.04  -0.03    -0.00   0.01   0.11
 112   7    -0.01   0.02   0.00    -0.01   0.04  -0.02    -0.00   0.01   0.12
 113   6    -0.00   0.03   0.01    -0.00   0.05  -0.03     0.00   0.01   0.11
 114   6     0.00   0.03   0.01     0.01   0.04  -0.03     0.00   0.01   0.11
 115   6     0.01   0.03   0.01     0.01   0.05  -0.03     0.00   0.01   0.11
 116   6     0.01   0.03   0.01     0.02   0.04  -0.03     0.00   0.01   0.11
 117   6     0.01   0.02   0.00     0.02   0.03  -0.02     0.00   0.01   0.11
 118   7     0.01   0.02   0.00     0.01   0.04  -0.03     0.00   0.01   0.11
 119   6     0.01   0.02  -0.00     0.02   0.03  -0.02     0.00   0.01   0.10
 120   6     0.01   0.01  -0.01     0.02   0.02  -0.01     0.00   0.01   0.10
 121   7     0.01   0.01  -0.01     0.01   0.02  -0.01     0.00   0.01   0.10
 122   1     0.01   0.00  -0.00     0.01   0.00  -0.00     0.00   0.00   0.03
 123   1     0.00  -0.00  -0.00     0.00   0.00   0.00     0.00   0.00   0.02
 124   1    -0.00  -0.00  -0.00    -0.00   0.00   0.00    -0.00   0.00   0.02
 125   1    -0.01   0.00  -0.00    -0.01   0.00   0.00    -0.00   0.00   0.03
 126   1    -0.01   0.00  -0.00    -0.01   0.01  -0.00    -0.00   0.00   0.03
 127   1    -0.01   0.01   0.00    -0.01   0.01  -0.01    -0.00   0.00   0.03
 128   1    -0.00   0.01   0.00    -0.00   0.01  -0.01    -0.00   0.00   0.03
 129   1     0.00   0.01   0.00     0.00   0.01  -0.01     0.00   0.00   0.03
 130   1     0.01   0.01   0.00     0.01   0.01  -0.01     0.00   0.00   0.03
 131   1     0.01   0.00  -0.00     0.01   0.01  -0.01     0.00   0.00   0.03
 132  30     0.00   0.14   0.13     0.00   0.15  -0.16     0.00   0.04   0.07
 133   6     0.00   0.06   0.05    -0.00   0.07  -0.07     0.00   0.02   0.06
 134   6     0.00   0.06   0.05    -0.00   0.07  -0.07     0.00   0.02   0.07
 135   6     0.00   0.06   0.05    -0.00   0.07  -0.07     0.00   0.02   0.06
 136   6    -0.00   0.06   0.05     0.00   0.07  -0.06     0.00   0.02   0.06
 137   6    -0.00   0.06   0.05     0.00   0.07  -0.06    -0.00   0.02   0.06
 138   6    -0.00   0.06   0.05     0.00   0.07  -0.06    -0.00   0.02   0.06
 139   6    -0.00   0.06   0.05     0.00   0.07  -0.07    -0.00   0.02   0.05
 140   6    -0.00   0.06   0.05     0.00   0.07  -0.07    -0.00   0.02   0.04
 141   7    -0.00   0.06   0.06     0.00   0.07  -0.07    -0.00   0.02   0.05
 142   6    -0.00   0.06   0.06     0.00   0.06  -0.07    -0.00   0.02   0.03
 143   6    -0.00   0.06   0.06     0.00   0.06  -0.07    -0.00   0.02   0.02
 144   6    -0.00   0.06   0.06     0.00   0.06  -0.07    -0.00   0.02   0.00
 145   6    -0.00   0.06   0.07     0.00   0.06  -0.07    -0.00   0.02  -0.01
 146   6    -0.00   0.06   0.06     0.00   0.06  -0.07    -0.00   0.02   0.00
 147   7    -0.00   0.07   0.07     0.00   0.07  -0.07    -0.00   0.02   0.02
 148   6    -0.00   0.06   0.07     0.00   0.06  -0.07     0.00   0.02  -0.01
 149   6     0.00   0.06   0.06    -0.00   0.06  -0.07     0.00   0.02   0.00
 150   6     0.00   0.06   0.07    -0.00   0.06  -0.07     0.00   0.02  -0.00
 151   6     0.00   0.06   0.06    -0.00   0.06  -0.07     0.00   0.02   0.01
 152   6     0.00   0.06   0.06    -0.00   0.06  -0.07     0.00   0.02   0.02
 153   7     0.00   0.07   0.07    -0.00   0.07  -0.08     0.00   0.02   0.02
 154   6     0.00   0.06   0.06    -0.00   0.06  -0.07     0.00   0.02   0.03
 155   6     0.00   0.06   0.05    -0.00   0.07  -0.07     0.00   0.02   0.05
 156   7     0.00   0.06   0.06    -0.00   0.07  -0.07     0.00   0.02   0.05
 157   1     0.00   0.02   0.01    -0.00   0.02  -0.02     0.00   0.00   0.02
 158   1     0.00   0.02   0.01    -0.00   0.02  -0.02     0.00   0.00   0.02
 159   1    -0.00   0.02   0.01     0.00   0.02  -0.02    -0.00   0.00   0.02
 160   1    -0.00   0.02   0.01     0.00   0.02  -0.02    -0.00   0.00   0.02
 161   1    -0.00   0.02   0.02     0.00   0.02  -0.02    -0.00   0.00   0.01
 162   1    -0.00   0.02   0.02     0.00   0.02  -0.02    -0.00   0.00   0.00
 163   1    -0.00   0.02   0.02     0.00   0.02  -0.02    -0.00   0.00  -0.01
 164   1     0.00   0.02   0.02    -0.00   0.02  -0.02     0.00   0.00  -0.00
 165   1     0.00   0.02   0.02    -0.00   0.02  -0.02     0.00   0.00   0.00
 166   1     0.00   0.02   0.02    -0.00   0.02  -0.02     0.00   0.00   0.01
 167  30    -0.00   0.08   0.13    -0.00   0.05  -0.07     0.00   0.00  -0.21
 168   6    -0.01   0.04   0.07    -0.02   0.03  -0.04    -0.00   0.00  -0.08
 169   6    -0.01   0.05   0.07    -0.01   0.04  -0.04    -0.00   0.01  -0.08
 170   6    -0.00   0.05   0.07    -0.01   0.03  -0.04    -0.00   0.01  -0.08
 171   6    -0.00   0.05   0.07    -0.00   0.04  -0.04     0.00   0.01  -0.08
 172   6     0.00   0.05   0.07     0.01   0.03  -0.04     0.00   0.00  -0.09
 173   6     0.01   0.05   0.07     0.01   0.04  -0.05     0.00   0.00  -0.09
 174   6     0.01   0.04   0.07     0.02   0.03  -0.05     0.00   0.00  -0.10
 175   6     0.01   0.04   0.06     0.01   0.03  -0.04     0.00   0.00  -0.10
 176   7     0.01   0.04   0.07     0.01   0.03  -0.04     0.00   0.00  -0.10
 177   6     0.01   0.03   0.06     0.02   0.02  -0.03     0.00  -0.00  -0.10
 178   6     0.01   0.03   0.05     0.01   0.01  -0.03     0.00  -0.00  -0.10
 179   6     0.01   0.02   0.05     0.02   0.01  -0.02     0.00  -0.00  -0.10
 180   6     0.01   0.02   0.04     0.01   0.00  -0.02     0.00  -0.00  -0.09
 181   6     0.00   0.02   0.04     0.01   0.01  -0.02     0.00  -0.00  -0.09
 182   7     0.01   0.03   0.06     0.01   0.01  -0.03     0.00  -0.00  -0.10
 183   6    -0.00   0.02   0.04    -0.00   0.00  -0.01    -0.00  -0.00  -0.08
 184   6    -0.01   0.02   0.04    -0.01   0.01  -0.01    -0.00  -0.00  -0.08
 185   6    -0.01   0.02   0.04    -0.01   0.00  -0.01    -0.00  -0.00  -0.08
 186   6    -0.01   0.02   0.05    -0.02   0.01  -0.01    -0.00  -0.00  -0.08
 187   6    -0.01   0.03   0.05    -0.01   0.02  -0.02    -0.00  -0.00  -0.08
 188   7    -0.01   0.03   0.05    -0.01   0.02  -0.02    -0.00  -0.00  -0.09
 189   6    -0.01   0.03   0.06    -0.02   0.02  -0.03    -0.00   0.00  -0.09
 190   6    -0.01   0.04   0.06    -0.02   0.03  -0.03    -0.00   0.00  -0.08
 191   7    -0.01   0.04   0.07    -0.01   0.03  -0.04    -0.00   0.00  -0.09
 192   1    -0.01   0.01   0.02    -0.01   0.01  -0.01    -0.00   0.00  -0.02
 193   1    -0.00   0.02   0.02    -0.00   0.01  -0.01    -0.00   0.00  -0.02
 194   1     0.00   0.02   0.02     0.00   0.01  -0.02     0.00   0.00  -0.03
 195   1     0.01   0.01   0.02     0.01   0.01  -0.01     0.00   0.00  -0.03
 196   1     0.01   0.01   0.02     0.01   0.01  -0.01     0.00  -0.00  -0.03
 197   1     0.01   0.01   0.01     0.01   0.00  -0.01     0.00  -0.00  -0.03
 198   1     0.00   0.00   0.01     0.00  -0.00  -0.00     0.00  -0.00  -0.03
 199   1    -0.00   0.00   0.01    -0.00  -0.00  -0.00    -0.00  -0.00  -0.02
 200   1    -0.01   0.01   0.01    -0.01   0.00  -0.00    -0.00  -0.00  -0.02
 201   1    -0.01   0.01   0.02    -0.01   0.01  -0.01    -0.00   0.00  -0.02
                      4                      5                      6
                        a                      a                      a 
 Frequencies --     2.2709                 3.2155                 3.4420
 Red. masses --    18.3563                11.4441                19.5673
 Frc consts  --     0.0000                 0.0000                 0.0000
 IR Inten    --     4.9565                 0.0320                 0.4390
 Raman Activ --     0.0000                 0.0000                 0.0000
 Depolar     --     0.0000                 0.0000                 0.0000
 Atom AN      X      Y      Z        X      Y      Z        X      Y      Z
   1  30     0.00  -0.13  -0.00    -0.00   0.00   0.01    -0.00   0.01   0.08
   2   6     0.05  -0.02   0.00    -0.00  -0.00   0.09    -0.01  -0.00  -0.01
   3   6     0.04  -0.00  -0.00    -0.00  -0.00   0.06    -0.01  -0.00  -0.02
   4   6     0.02  -0.01  -0.00    -0.00  -0.00   0.03    -0.00  -0.00  -0.01
   5   6     0.00  -0.00  -0.01     0.00  -0.00  -0.00     0.00  -0.00  -0.02
   6   6    -0.02  -0.01  -0.01     0.00  -0.00  -0.04     0.00  -0.00  -0.01
   7   6    -0.04  -0.00  -0.01     0.00  -0.00  -0.07     0.01  -0.00  -0.01
   8   6    -0.05  -0.02  -0.01     0.00  -0.00  -0.09     0.01  -0.00   0.00
   9   6    -0.04  -0.04  -0.01     0.00   0.00  -0.07     0.01   0.00   0.02
  10   7    -0.02  -0.04  -0.01     0.00   0.00  -0.04     0.00  -0.00   0.02
  11   6    -0.05  -0.06  -0.01     0.00   0.00  -0.09     0.01   0.00   0.04
  12   6    -0.04  -0.08  -0.00     0.00   0.00  -0.07     0.01   0.01   0.06
  13   6    -0.05  -0.09  -0.00     0.00   0.00  -0.08     0.01   0.01   0.08
  14   6    -0.04  -0.11  -0.00     0.00   0.01  -0.06     0.00   0.01   0.09
  15   6    -0.02  -0.10  -0.00     0.00   0.00  -0.03     0.00   0.01   0.08
  16   7    -0.02  -0.08  -0.00     0.00   0.00  -0.04     0.00   0.01   0.06
  17   6     0.00  -0.11   0.00    -0.00   0.01   0.01    -0.00   0.01   0.09
  18   6     0.02  -0.10   0.00    -0.00   0.00   0.04    -0.00   0.01   0.07
  19   6     0.04  -0.11   0.01    -0.00   0.01   0.08    -0.01   0.01   0.08
  20   6     0.05  -0.09   0.01    -0.00   0.00   0.10    -0.01   0.01   0.07
  21   6     0.04  -0.07   0.00    -0.00   0.00   0.08    -0.01   0.01   0.05
  22   7     0.02  -0.08   0.00    -0.00   0.00   0.05    -0.00   0.01   0.06
  23   6     0.05  -0.06   0.00    -0.00   0.00   0.09    -0.01   0.00   0.03
  24   6     0.04  -0.04   0.00    -0.00   0.00   0.08    -0.01   0.00   0.01
  25   7     0.02  -0.04  -0.00    -0.00   0.00   0.04    -0.00  -0.00   0.01
  26   1     0.02  -0.00   0.00    -0.00  -0.00   0.03    -0.00  -0.00  -0.00
  27   1     0.01   0.00  -0.00    -0.00  -0.00   0.02    -0.00  -0.00  -0.01
  28   1    -0.01   0.00  -0.00     0.00  -0.00  -0.02     0.00  -0.00  -0.01
  29   1    -0.02  -0.01  -0.00     0.00  -0.00  -0.04     0.00  -0.00   0.00
  30   1    -0.02  -0.02  -0.00     0.00   0.00  -0.03     0.00   0.00   0.01
  31   1    -0.02  -0.03  -0.00     0.00   0.00  -0.03     0.00   0.00   0.02
  32   1    -0.01  -0.04  -0.00     0.00   0.00  -0.02     0.00   0.00   0.03
  33   1     0.00  -0.04   0.00    -0.00   0.00   0.00    -0.00   0.00   0.03
  34   1     0.01  -0.04   0.00    -0.00   0.00   0.02    -0.00   0.00   0.03
  35   1     0.02  -0.03   0.00    -0.00   0.00   0.04    -0.00   0.00   0.02
  36   1     0.02  -0.02   0.00    -0.00   0.00   0.04    -0.00   0.00   0.01
  37  30    -0.00   0.12  -0.02     0.00  -0.01   0.01    -0.00  -0.01   0.06
  38   6    -0.05   0.01  -0.00     0.00  -0.02   0.09    -0.01  -0.00  -0.02
  39   6    -0.04  -0.00  -0.00     0.00  -0.01   0.06    -0.01  -0.00  -0.03
  40   6    -0.02   0.01  -0.01     0.00  -0.01   0.03    -0.00  -0.00  -0.02
  41   6    -0.00  -0.00  -0.01     0.00  -0.00  -0.00    -0.00  -0.01  -0.02
  42   6     0.02   0.01  -0.01    -0.00   0.00  -0.03     0.00  -0.01  -0.01
  43   6     0.04   0.00  -0.01    -0.00   0.01  -0.07     0.01  -0.01  -0.01
  44   6     0.05   0.02  -0.01    -0.00   0.01  -0.09     0.01  -0.01   0.00
  45   6     0.04   0.03  -0.01    -0.00   0.01  -0.07     0.01  -0.01   0.02
  46   7     0.02   0.03  -0.01    -0.00   0.00  -0.04     0.00  -0.01   0.01
  47   6     0.05   0.05  -0.01    -0.00   0.01  -0.08     0.01  -0.01   0.04
  48   6     0.04   0.07  -0.01    -0.00   0.01  -0.06     0.01  -0.01   0.05
  49   6     0.05   0.09  -0.02    -0.00   0.01  -0.08     0.01  -0.01   0.07
  50   6     0.03   0.10  -0.01    -0.00   0.00  -0.05     0.01  -0.01   0.08
  51   6     0.02   0.09  -0.01    -0.00  -0.00  -0.02     0.00  -0.01   0.07
  52   7     0.02   0.08  -0.01    -0.00   0.00  -0.03     0.00  -0.01   0.05
  53   6    -0.00   0.10  -0.01     0.00  -0.01   0.02     0.00  -0.00   0.07
  54   6    -0.02   0.09  -0.01     0.00  -0.01   0.05    -0.00  -0.00   0.06
  55   6    -0.04   0.10  -0.01     0.00  -0.02   0.08    -0.01  -0.00   0.07
  56   6    -0.05   0.08  -0.00     0.00  -0.02   0.10    -0.01  -0.00   0.05
  57   6    -0.04   0.07  -0.01     0.00  -0.02   0.08    -0.01  -0.00   0.03
  58   7    -0.02   0.08  -0.01     0.00  -0.01   0.05    -0.00  -0.00   0.04
  59   6    -0.05   0.05  -0.00     0.00  -0.02   0.10    -0.01  -0.00   0.02
  60   6    -0.04   0.03  -0.00     0.00  -0.02   0.08    -0.01  -0.00   0.00
  61   7    -0.02   0.03  -0.01     0.00  -0.01   0.04    -0.00  -0.00   0.00
  62   1    -0.02   0.00  -0.00     0.00  -0.01   0.03    -0.00  -0.00  -0.01
  63   1    -0.01  -0.01  -0.00     0.00  -0.00   0.02    -0.00  -0.00  -0.01
  64   1     0.01  -0.00  -0.00    -0.00   0.00  -0.02     0.00  -0.00  -0.01
  65   1     0.02   0.00  -0.00    -0.00   0.01  -0.04     0.00  -0.00   0.00
  66   1     0.02   0.02  -0.00    -0.00   0.01  -0.03     0.00  -0.00   0.01
  67   1     0.02   0.03  -0.01    -0.00   0.00  -0.03     0.00  -0.00   0.02
  68   1     0.01   0.03  -0.00    -0.00   0.00  -0.01     0.00  -0.00   0.03
  69   1    -0.00   0.03  -0.00     0.00  -0.00   0.01     0.00  -0.00   0.03
  70   1    -0.01   0.03  -0.00     0.00  -0.01   0.03    -0.00  -0.00   0.02
  71   1    -0.02   0.02  -0.00     0.00  -0.01   0.04    -0.00  -0.00   0.01
  72   1    -0.02   0.01  -0.00     0.00  -0.01   0.04    -0.00  -0.00   0.00
  73   6    -0.00   0.02  -0.01     0.00  -0.00  -0.00     0.00  -0.01  -0.04
  74   6    -0.00   0.03  -0.01     0.00  -0.00  -0.01     0.00  -0.01  -0.05
  75   6    -0.00   0.05  -0.01     0.00  -0.01  -0.01     0.00  -0.01  -0.07
  76   6    -0.00   0.06  -0.01     0.00  -0.01  -0.01     0.00  -0.01  -0.08
  77   6    -0.00   0.07  -0.01     0.00  -0.01  -0.01     0.00  -0.01  -0.09
  78   6    -0.00   0.08  -0.01     0.00  -0.01  -0.01     0.00  -0.02  -0.10
  79   6    -0.00   0.10  -0.00    -0.00  -0.00  -0.00     0.00  -0.01  -0.03
  80   6    -0.00   0.10  -0.00    -0.00  -0.00   0.00     0.00  -0.00  -0.01
  81   6    -0.00   0.09  -0.00    -0.00  -0.00   0.01     0.00  -0.00   0.02
  82   6    -0.00   0.08   0.00    -0.00  -0.00   0.01     0.00   0.00   0.04
  83   6    -0.00   0.07   0.00    -0.00   0.00   0.01     0.00   0.01   0.06
  84   6    -0.00   0.06   0.01    -0.00   0.00   0.01     0.00   0.01   0.08
  85   6    -0.00  -0.05   0.02    -0.00   0.01   0.01     0.00   0.02   0.08
  86   6    -0.00  -0.07   0.02    -0.00   0.01   0.01     0.00   0.02   0.07
  87   6    -0.00  -0.08   0.02    -0.00   0.01   0.00     0.00   0.02   0.05
  88   6    -0.00  -0.09   0.02    -0.00   0.01   0.00     0.00   0.01   0.03
  89   6    -0.00  -0.09   0.01    -0.00   0.01  -0.00     0.00   0.01   0.01
  90   6    -0.00  -0.10   0.01    -0.00   0.01  -0.01     0.00   0.01  -0.01
  91   6     0.00  -0.08  -0.00     0.00   0.00  -0.02     0.00  -0.01  -0.09
  92   6     0.00  -0.07  -0.00     0.00   0.00  -0.02     0.00  -0.01  -0.08
  93   6     0.00  -0.06  -0.00     0.00   0.00  -0.01    -0.00  -0.01  -0.07
  94   6     0.00  -0.05  -0.01     0.00   0.00  -0.01    -0.00  -0.01  -0.06
  95   6     0.00  -0.04  -0.01     0.00   0.00  -0.01    -0.00  -0.01  -0.05
  96   6     0.00  -0.02  -0.01     0.00  -0.00  -0.01    -0.00  -0.01  -0.04
  97  30    -0.00   0.21  -0.02     0.00  -0.01  -0.02     0.00  -0.03  -0.20
  98   6     0.01   0.09  -0.00     0.00   0.01   0.16     0.00  -0.02  -0.13
  99   6     0.01   0.08  -0.01     0.00   0.01   0.11     0.00  -0.02  -0.12
 100   6     0.00   0.08  -0.01     0.00   0.00   0.05    -0.00  -0.02  -0.11
 101   6    -0.00   0.08  -0.01     0.00  -0.01  -0.01     0.00  -0.02  -0.10
 102   6    -0.00   0.08  -0.01    -0.00  -0.01  -0.07     0.00  -0.01  -0.09
 103   6    -0.01   0.08  -0.02    -0.00  -0.02  -0.13    -0.00  -0.01  -0.09
 104   6    -0.01   0.08  -0.02    -0.00  -0.03  -0.18    -0.00  -0.01  -0.08
 105   6    -0.01   0.09  -0.02    -0.00  -0.02  -0.15     0.00  -0.01  -0.08
 106   7    -0.00   0.09  -0.01    -0.00  -0.02  -0.09    -0.00  -0.02  -0.09
 107   6    -0.01   0.09  -0.02    -0.00  -0.03  -0.18    -0.00  -0.01  -0.07
 108   6    -0.01   0.09  -0.01    -0.00  -0.02  -0.14    -0.00  -0.01  -0.06
 109   6    -0.01   0.10  -0.01    -0.00  -0.03  -0.17    -0.00  -0.01  -0.04
 110   6    -0.01   0.10  -0.01    -0.00  -0.02  -0.13    -0.00  -0.01  -0.04
 111   6    -0.00   0.10  -0.01    -0.00  -0.01  -0.06    -0.00  -0.01  -0.05
 112   7    -0.00   0.10  -0.01    -0.00  -0.02  -0.08     0.00  -0.01  -0.07
 113   6    -0.00   0.10  -0.01    -0.00  -0.00  -0.00     0.00  -0.01  -0.05
 114   6     0.00   0.10  -0.00     0.00   0.00   0.06     0.00  -0.01  -0.07
 115   6     0.01   0.10  -0.00     0.00   0.01   0.12     0.00  -0.01  -0.07
 116   6     0.01   0.10   0.00     0.00   0.01   0.16     0.00  -0.02  -0.09
 117   6     0.01   0.09  -0.00     0.00   0.01   0.13     0.00  -0.02  -0.10
 118   7     0.00   0.10  -0.00     0.00   0.00   0.07     0.00  -0.02  -0.09
 119   6     0.01   0.09  -0.00     0.00   0.01   0.16     0.00  -0.02  -0.12
 120   6     0.01   0.09  -0.00     0.00   0.01   0.13     0.00  -0.02  -0.12
 121   7     0.00   0.09  -0.01     0.00   0.00   0.06     0.00  -0.02  -0.11
 122   1     0.00   0.02  -0.00     0.00   0.01   0.06     0.00  -0.01  -0.04
 123   1     0.00   0.02  -0.00     0.00   0.00   0.03     0.00  -0.01  -0.04
 124   1    -0.00   0.02  -0.00    -0.00  -0.01  -0.04    -0.00  -0.00  -0.03
 125   1    -0.00   0.02  -0.01    -0.00  -0.01  -0.07    -0.00  -0.00  -0.02
 126   1    -0.00   0.03  -0.01    -0.00  -0.01  -0.07    -0.00  -0.00  -0.02
 127   1    -0.00   0.03  -0.00    -0.00  -0.01  -0.07    -0.00  -0.00  -0.01
 128   1    -0.00   0.03  -0.00    -0.00  -0.01  -0.04    -0.00  -0.00  -0.01
 129   1     0.00   0.03   0.00     0.00   0.00   0.04     0.00  -0.00  -0.02
 130   1     0.00   0.03   0.00     0.00   0.01   0.06     0.00  -0.00  -0.03
 131   1     0.00   0.03   0.00     0.00   0.01   0.06     0.00  -0.01  -0.04
 132  30    -0.00   0.01   0.04     0.00   0.01   0.04     0.00   0.04   0.25
 133   6    -0.04   0.03   0.01     0.00   0.00   0.02     0.00   0.01   0.10
 134   6    -0.03   0.05   0.01     0.00   0.00   0.02     0.00   0.01   0.10
 135   6    -0.02   0.04   0.01     0.00   0.00   0.02     0.00   0.01   0.10
 136   6    -0.00   0.05   0.01    -0.00   0.00   0.01     0.00   0.01   0.09
 137   6     0.01   0.04   0.01    -0.00   0.00   0.01    -0.00   0.01   0.10
 138   6     0.03   0.05   0.01    -0.00   0.00   0.01    -0.00   0.01   0.10
 139   6     0.04   0.03   0.01    -0.00   0.00   0.01    -0.00   0.02   0.11
 140   6     0.03   0.02   0.01    -0.00   0.00   0.01    -0.00   0.02   0.12
 141   7     0.02   0.02   0.01    -0.00   0.00   0.02    -0.00   0.02   0.12
 142   6     0.04   0.00   0.02    -0.00   0.00   0.02    -0.00   0.02   0.12
 143   6     0.03  -0.01   0.02    -0.00   0.01   0.02    -0.00   0.02   0.12
 144   6     0.04  -0.03   0.02    -0.00   0.01   0.02    -0.00   0.02   0.12
 145   6     0.03  -0.04   0.02    -0.00   0.01   0.01    -0.00   0.02   0.11
 146   6     0.01  -0.03   0.02    -0.00   0.01   0.01    -0.00   0.02   0.10
 147   7     0.02  -0.01   0.02    -0.00   0.01   0.02    -0.00   0.02   0.12
 148   6    -0.00  -0.04   0.02    -0.00   0.01   0.01     0.00   0.02   0.10
 149   6    -0.02  -0.03   0.02     0.00   0.01   0.01     0.00   0.02   0.10
 150   6    -0.03  -0.04   0.02     0.00   0.01   0.01     0.00   0.02   0.10
 151   6    -0.04  -0.03   0.02     0.00   0.01   0.01     0.00   0.02   0.11
 152   6    -0.03  -0.01   0.02     0.00   0.01   0.02     0.00   0.02   0.11
 153   7    -0.02  -0.01   0.02     0.00   0.01   0.02     0.00   0.02   0.12
 154   6    -0.04   0.00   0.02     0.00   0.00   0.02     0.00   0.02   0.11
 155   6    -0.03   0.02   0.02     0.00   0.00   0.02     0.00   0.02   0.11
 156   7    -0.02   0.02   0.01     0.00   0.00   0.02     0.00   0.02   0.11
 157   1    -0.02   0.01   0.00     0.00   0.00   0.01     0.00   0.00   0.03
 158   1    -0.01   0.02   0.00     0.00   0.00   0.01     0.00   0.00   0.03
 159   1     0.01   0.02   0.00    -0.00   0.00   0.00    -0.00   0.00   0.03
 160   1     0.02   0.01   0.00    -0.00   0.00   0.00    -0.00   0.00   0.03
 161   1     0.02   0.00   0.00    -0.00   0.00   0.00    -0.00   0.01   0.04
 162   1     0.02  -0.01   0.01    -0.00   0.00   0.00    -0.00   0.01   0.04
 163   1     0.01  -0.01   0.01    -0.00   0.00   0.00    -0.00   0.01   0.03
 164   1    -0.01  -0.01   0.01     0.00   0.00   0.00     0.00   0.01   0.03
 165   1    -0.02  -0.01   0.01     0.00   0.00   0.00     0.00   0.01   0.03
 166   1    -0.02   0.00   0.01     0.00   0.00   0.01     0.00   0.01   0.03
 167  30     0.00  -0.21   0.01    -0.00   0.01  -0.03     0.00  -0.00  -0.16
 168   6     0.01  -0.09  -0.00    -0.00  -0.01  -0.18    -0.00   0.01  -0.02
 169   6     0.00  -0.10   0.00    -0.00  -0.01  -0.13    -0.00   0.01  -0.02
 170   6     0.00  -0.09   0.00    -0.00  -0.00  -0.07    -0.00   0.00  -0.03
 171   6    -0.00  -0.09   0.01    -0.00   0.01  -0.01     0.00   0.00  -0.03
 172   6    -0.00  -0.09   0.01     0.00   0.01   0.05     0.00   0.00  -0.05
 173   6    -0.00  -0.09   0.02     0.00   0.02   0.11     0.00   0.00  -0.06
 174   6    -0.01  -0.09   0.02     0.00   0.03   0.16     0.00  -0.00  -0.08
 175   6    -0.00  -0.09   0.01     0.00   0.02   0.12     0.00  -0.00  -0.09
 176   7    -0.00  -0.10   0.01     0.00   0.01   0.06     0.00  -0.00  -0.08
 177   6    -0.01  -0.09   0.01     0.00   0.02   0.15     0.00  -0.00  -0.11
 178   6    -0.00  -0.09   0.01     0.00   0.02   0.12     0.00  -0.01  -0.11
 179   6    -0.01  -0.08   0.01     0.00   0.02   0.15     0.00  -0.01  -0.12
 180   6    -0.00  -0.08   0.01     0.00   0.02   0.11     0.00  -0.01  -0.11
 181   6    -0.00  -0.08   0.00     0.00   0.01   0.04     0.00  -0.01  -0.10
 182   7    -0.00  -0.09   0.01     0.00   0.01   0.06     0.00  -0.00  -0.10
 183   6     0.00  -0.08  -0.00     0.00   0.00  -0.02     0.00  -0.00  -0.09
 184   6     0.00  -0.09  -0.00    -0.00  -0.00  -0.08    -0.00  -0.00  -0.08
 185   6     0.00  -0.08  -0.01    -0.00  -0.01  -0.14    -0.00  -0.00  -0.07
 186   6     0.01  -0.09  -0.01    -0.00  -0.02  -0.19    -0.00  -0.00  -0.06
 187   6     0.00  -0.09  -0.01    -0.00  -0.01  -0.15    -0.00  -0.00  -0.06
 188   7     0.00  -0.09  -0.00    -0.00  -0.00  -0.09    -0.00  -0.00  -0.08
 189   6     0.01  -0.09  -0.01    -0.00  -0.02  -0.18    -0.00   0.00  -0.05
 190   6     0.00  -0.09  -0.00    -0.00  -0.01  -0.15    -0.00   0.00  -0.04
 191   7     0.00  -0.10   0.00    -0.00  -0.00  -0.09    -0.00   0.00  -0.05
 192   1     0.00  -0.03  -0.00    -0.00  -0.01  -0.07    -0.00   0.00  -0.01
 193   1     0.00  -0.03   0.00    -0.00  -0.00  -0.04    -0.00   0.00  -0.00
 194   1    -0.00  -0.03   0.01     0.00   0.01   0.03     0.00   0.00  -0.01
 195   1    -0.00  -0.03   0.01     0.00   0.01   0.06     0.00  -0.00  -0.03
 196   1    -0.00  -0.03   0.00     0.00   0.01   0.06     0.00  -0.00  -0.03
 197   1    -0.00  -0.02   0.00     0.00   0.01   0.06     0.00  -0.00  -0.04
 198   1    -0.00  -0.02   0.00     0.00   0.00   0.03     0.00  -0.00  -0.03
 199   1     0.00  -0.02  -0.00    -0.00  -0.00  -0.04    -0.00  -0.00  -0.02
 200   1     0.00  -0.03  -0.00    -0.00  -0.01  -0.07    -0.00  -0.00  -0.02
 201   1     0.00  -0.03  -0.00    -0.00  -0.01  -0.07    -0.00   0.00  -0.01
                      7                      8                      9
                        a                      a                      a 
 Frequencies --     3.9963                 4.5187                 4.7580
 Red. masses --    11.2505                11.2556                11.2687
 Frc consts  --     0.0000                 0.0000                 0.0000
 IR Inten    --     0.1186                 0.1022                 0.0195
 Raman Activ --     0.0000                 0.0000                 0.0000
 Depolar     --     0.0000                 0.0000                 0.0000
 Atom AN      X      Y      Z        X      Y      Z        X      Y      Z
   1  30     0.00   0.00   0.00     0.00  -0.00   0.01    -0.00   0.00  -0.00
   2   6    -0.00  -0.00  -0.12     0.00  -0.00  -0.17    -0.01  -0.00  -0.10
   3   6    -0.00  -0.00  -0.08     0.00  -0.00  -0.12    -0.00  -0.00  -0.07
   4   6    -0.00  -0.00  -0.04     0.00  -0.00  -0.06    -0.00  -0.00  -0.03
   5   6     0.00  -0.00   0.00     0.00  -0.00   0.00     0.00  -0.00   0.00
   6   6     0.00  -0.00   0.04    -0.00  -0.00   0.06     0.00  -0.00   0.04
   7   6     0.00  -0.00   0.09    -0.00  -0.00   0.12     0.00  -0.00   0.07
   8   6     0.00  -0.00   0.12    -0.00  -0.00   0.17     0.01  -0.00   0.10
   9   6     0.00   0.00   0.10    -0.00  -0.00   0.14     0.00   0.00   0.08
  10   7     0.00  -0.00   0.05    -0.00  -0.00   0.08     0.00  -0.00   0.04
  11   6     0.00   0.00   0.12    -0.00  -0.00   0.17     0.01   0.00   0.10
  12   6     0.00   0.00   0.10    -0.00  -0.00   0.14     0.00   0.00   0.08
  13   6     0.00   0.00   0.12    -0.00  -0.00   0.18     0.01   0.01   0.10
  14   6     0.00   0.00   0.09    -0.00  -0.00   0.13     0.00   0.01   0.07
  15   6     0.00   0.00   0.04    -0.00  -0.00   0.07     0.00   0.01   0.03
  16   7     0.00   0.00   0.05    -0.00  -0.00   0.08     0.00   0.00   0.04
  17   6     0.00   0.00   0.00     0.00  -0.00   0.00    -0.00   0.01  -0.00
  18   6    -0.00   0.00  -0.04     0.00  -0.00  -0.06    -0.00   0.01  -0.04
  19   6    -0.00   0.00  -0.08     0.00  -0.00  -0.12    -0.00   0.01  -0.07
  20   6    -0.00   0.00  -0.12     0.00  -0.00  -0.17    -0.01   0.01  -0.10
  21   6    -0.00   0.00  -0.09     0.00  -0.00  -0.13    -0.00   0.00  -0.08
  22   7    -0.00   0.00  -0.05     0.00  -0.00  -0.07    -0.00   0.00  -0.05
  23   6    -0.00   0.00  -0.11     0.00  -0.00  -0.17    -0.01   0.00  -0.10
  24   6    -0.00  -0.00  -0.09     0.00  -0.00  -0.13    -0.00  -0.00  -0.08
  25   7    -0.00  -0.00  -0.05     0.00  -0.00  -0.07    -0.00  -0.00  -0.04
  26   1    -0.00  -0.00  -0.04     0.00  -0.00  -0.06    -0.00  -0.00  -0.04
  27   1    -0.00  -0.00  -0.03     0.00  -0.00  -0.04    -0.00  -0.00  -0.02
  28   1     0.00  -0.00   0.03    -0.00   0.00   0.04     0.00  -0.00   0.02
  29   1     0.00  -0.00   0.04    -0.00  -0.00   0.06     0.00  -0.00   0.04
  30   1     0.00   0.00   0.04    -0.00  -0.00   0.06     0.00   0.00   0.04
  31   1     0.00   0.00   0.05    -0.00  -0.00   0.07     0.00   0.00   0.04
  32   1     0.00   0.00   0.03    -0.00  -0.00   0.04     0.00   0.00   0.02
  33   1     0.00   0.00   0.00     0.00  -0.00   0.00    -0.00   0.00  -0.00
  34   1    -0.00   0.00  -0.03     0.00  -0.00  -0.04    -0.00   0.00  -0.02
  35   1    -0.00   0.00  -0.04     0.00  -0.00  -0.06    -0.00   0.00  -0.04
  36   1    -0.00   0.00  -0.04     0.00  -0.00  -0.06    -0.00   0.00  -0.04
  37  30     0.00   0.00  -0.00    -0.00  -0.00   0.01     0.00   0.01  -0.00
  38   6    -0.00  -0.03   0.15     0.00   0.03  -0.16    -0.01  -0.01   0.03
  39   6    -0.00  -0.02   0.11     0.00   0.02  -0.12    -0.00  -0.01   0.02
  40   6    -0.00  -0.01   0.05     0.00   0.01  -0.06    -0.00  -0.00   0.01
  41   6    -0.00  -0.00  -0.00    -0.00   0.00   0.00    -0.00  -0.00   0.00
  42   6     0.00   0.01  -0.06    -0.00  -0.01   0.06     0.00  -0.00  -0.01
  43   6     0.00   0.02  -0.11    -0.00  -0.02   0.12     0.00  -0.00  -0.02
  44   6     0.00   0.03  -0.16    -0.00  -0.03   0.16     0.01   0.00  -0.02
  45   6     0.00   0.02  -0.13    -0.00  -0.02   0.13     0.00   0.00  -0.02
  46   7     0.00   0.01  -0.07    -0.00  -0.01   0.07     0.00   0.00  -0.01
  47   6     0.00   0.03  -0.15    -0.00  -0.03   0.16     0.01   0.01  -0.03
  48   6     0.00   0.02  -0.13    -0.00  -0.03   0.13     0.00   0.01  -0.02
  49   6     0.00   0.03  -0.16    -0.00  -0.03   0.17     0.01   0.01  -0.03
  50   6     0.00   0.02  -0.11    -0.00  -0.03   0.12     0.00   0.01  -0.02
  51   6     0.00   0.01  -0.06    -0.00  -0.01   0.06     0.00   0.01  -0.01
  52   7     0.00   0.01  -0.07    -0.00  -0.02   0.08     0.00   0.01  -0.01
  53   6    -0.00   0.00  -0.00     0.00  -0.00   0.01    -0.00   0.01  -0.00
  54   6    -0.00  -0.01   0.06     0.00   0.01  -0.05    -0.00   0.01   0.01
  55   6    -0.00  -0.02   0.11     0.00   0.02  -0.11    -0.00   0.01   0.01
  56   6    -0.00  -0.03   0.16     0.00   0.03  -0.16    -0.01   0.00   0.02
  57   6    -0.00  -0.02   0.12     0.00   0.02  -0.13    -0.00   0.00   0.02
  58   7    -0.00  -0.01   0.07     0.00   0.01  -0.07    -0.00   0.00   0.01
  59   6    -0.00  -0.03   0.15     0.00   0.03  -0.16    -0.01  -0.00   0.02
  60   6    -0.00  -0.02   0.12     0.00   0.02  -0.13    -0.00  -0.00   0.02
  61   7    -0.00  -0.01   0.07     0.00   0.01  -0.07    -0.00  -0.00   0.01
  62   1    -0.00  -0.01   0.06     0.00   0.01  -0.06    -0.00  -0.00   0.01
  63   1    -0.00  -0.01   0.03     0.00   0.01  -0.04    -0.00  -0.00   0.01
  64   1     0.00   0.01  -0.03    -0.00  -0.01   0.03     0.00  -0.00  -0.00
  65   1     0.00   0.01  -0.06    -0.00  -0.01   0.06     0.00   0.00  -0.01
  66   1     0.00   0.01  -0.06    -0.00  -0.01   0.06     0.00   0.00  -0.01
  67   1     0.00   0.01  -0.06    -0.00  -0.01   0.06     0.00   0.00  -0.01
  68   1     0.00   0.01  -0.03    -0.00  -0.01   0.04     0.00   0.00  -0.01
  69   1    -0.00   0.00  -0.00     0.00  -0.00   0.00    -0.00   0.00  -0.00
  70   1    -0.00  -0.01   0.03     0.00   0.01  -0.03    -0.00   0.00   0.00
  71   1    -0.00  -0.01   0.06     0.00   0.01  -0.06    -0.00   0.00   0.01
  72   1    -0.00  -0.01   0.06     0.00   0.01  -0.06    -0.00  -0.00   0.01
  73   6     0.00  -0.00   0.00     0.00  -0.00   0.00     0.00  -0.01   0.00
  74   6     0.00  -0.00   0.00     0.00   0.00   0.00     0.00  -0.01   0.00
  75   6     0.00  -0.00  -0.00     0.00   0.00  -0.00     0.00  -0.01   0.00
  76   6     0.00  -0.00  -0.00     0.00   0.00  -0.00     0.00  -0.01   0.00
  77   6     0.00  -0.00  -0.00     0.00   0.00  -0.00     0.00  -0.01   0.00
  78   6     0.00  -0.00  -0.00     0.00   0.00  -0.00     0.00  -0.01   0.00
  79   6     0.00  -0.00  -0.00    -0.00   0.00  -0.00    -0.00   0.00  -0.00
  80   6     0.00   0.00  -0.00    -0.00   0.00  -0.00    -0.00   0.00  -0.00
  81   6     0.00   0.00  -0.00    -0.00   0.00  -0.00    -0.00   0.00  -0.00
  82   6     0.00   0.00  -0.00    -0.00   0.00  -0.00    -0.00   0.01  -0.00
  83   6     0.00   0.00  -0.00    -0.00   0.00   0.00    -0.00   0.01  -0.00
  84   6     0.00   0.00  -0.00    -0.00   0.00   0.00    -0.00   0.01  -0.00
  85   6    -0.00   0.00   0.00    -0.00  -0.00   0.00     0.00   0.00  -0.00
  86   6    -0.00   0.00   0.00    -0.00  -0.00   0.00     0.00   0.00  -0.00
  87   6    -0.00   0.00   0.00    -0.00  -0.00   0.00     0.00   0.00  -0.00
  88   6    -0.00   0.00   0.00    -0.00  -0.00  -0.00     0.00   0.00   0.00
  89   6    -0.00   0.00   0.00    -0.00  -0.00  -0.00     0.00   0.00   0.00
  90   6    -0.00   0.00   0.00    -0.00  -0.00  -0.00     0.00  -0.00   0.00
  91   6    -0.00  -0.00   0.00     0.00   0.00  -0.00    -0.00  -0.01   0.00
  92   6    -0.00  -0.00  -0.00     0.00   0.00  -0.00    -0.00  -0.01   0.00
  93   6    -0.00  -0.00  -0.00     0.00   0.00  -0.00    -0.00  -0.01   0.00
  94   6    -0.00  -0.00  -0.00     0.00   0.00  -0.00    -0.00  -0.01   0.00
  95   6    -0.00  -0.00  -0.00     0.00   0.00  -0.00    -0.00  -0.01   0.00
  96   6    -0.00  -0.00  -0.00     0.00   0.00  -0.00    -0.00  -0.01   0.00
  97  30     0.00  -0.00  -0.01     0.00   0.00  -0.01     0.00  -0.01  -0.00
  98   6     0.00   0.00   0.03     0.00   0.01   0.06     0.00   0.01   0.16
  99   6     0.00  -0.00   0.02     0.00   0.01   0.04     0.00   0.01   0.12
 100   6     0.00  -0.00   0.01     0.00   0.00   0.02     0.00   0.00   0.06
 101   6     0.00  -0.00  -0.00     0.00   0.00  -0.00     0.00  -0.01   0.00
 102   6    -0.00  -0.00  -0.01    -0.00  -0.00  -0.03    -0.00  -0.01  -0.06
 103   6    -0.00  -0.01  -0.03    -0.00  -0.00  -0.05    -0.00  -0.02  -0.12
 104   6    -0.00  -0.01  -0.04    -0.00  -0.01  -0.07    -0.00  -0.03  -0.16
 105   6    -0.00  -0.01  -0.03    -0.00  -0.01  -0.05    -0.00  -0.02  -0.13
 106   7    -0.00  -0.00  -0.02    -0.00  -0.00  -0.03    -0.00  -0.01  -0.07
 107   6    -0.00  -0.01  -0.04    -0.00  -0.01  -0.07    -0.00  -0.02  -0.16
 108   6    -0.00  -0.00  -0.03    -0.00  -0.00  -0.06    -0.00  -0.02  -0.13
 109   6    -0.00  -0.01  -0.04    -0.00  -0.01  -0.07    -0.00  -0.02  -0.16
 110   6    -0.00  -0.00  -0.03    -0.00  -0.00  -0.05    -0.00  -0.01  -0.12
 111   6    -0.00  -0.00  -0.02    -0.00  -0.00  -0.03    -0.00  -0.01  -0.06
 112   7    -0.00  -0.00  -0.02    -0.00  -0.00  -0.03    -0.00  -0.01  -0.07
 113   6     0.00  -0.00  -0.00    -0.00   0.00  -0.00    -0.00  -0.00  -0.00
 114   6     0.00   0.00   0.01     0.00   0.00   0.02     0.00   0.01   0.06
 115   6     0.00   0.00   0.02     0.00   0.01   0.04     0.00   0.01   0.11
 116   6     0.00   0.00   0.03     0.00   0.01   0.06     0.00   0.02   0.16
 117   6     0.00   0.00   0.03     0.00   0.01   0.05     0.00   0.01   0.13
 118   7     0.00   0.00   0.01     0.00   0.00   0.03     0.00   0.01   0.07
 119   6     0.00   0.00   0.03     0.00   0.01   0.06     0.00   0.01   0.16
 120   6     0.00   0.00   0.02     0.00   0.01   0.05     0.00   0.01   0.13
 121   7     0.00  -0.00   0.01     0.00   0.00   0.02     0.00   0.00   0.07
 122   1     0.00   0.00   0.01     0.00   0.00   0.02     0.00   0.01   0.06
 123   1     0.00  -0.00   0.01     0.00   0.00   0.01     0.00   0.00   0.04
 124   1    -0.00  -0.00  -0.01    -0.00  -0.00  -0.01    -0.00  -0.01  -0.04
 125   1    -0.00  -0.00  -0.01    -0.00  -0.00  -0.02    -0.00  -0.01  -0.06
 126   1    -0.00  -0.00  -0.01    -0.00  -0.00  -0.03    -0.00  -0.01  -0.06
 127   1    -0.00  -0.00  -0.01    -0.00  -0.00  -0.03    -0.00  -0.01  -0.06
 128   1    -0.00  -0.00  -0.01    -0.00  -0.00  -0.02    -0.00  -0.00  -0.04
 129   1     0.00   0.00   0.01     0.00   0.00   0.01     0.00   0.00   0.03
 130   1     0.00   0.00   0.01     0.00   0.00   0.02     0.00   0.01   0.06
 131   1     0.00   0.00   0.01     0.00   0.00   0.02     0.00   0.01   0.06
 132  30    -0.00   0.01   0.00     0.00  -0.00   0.00     0.00   0.01  -0.00
 133   6     0.00   0.02   0.18    -0.00   0.01   0.06    -0.00  -0.01  -0.16
 134   6     0.00   0.02   0.13    -0.00   0.01   0.04    -0.00  -0.01  -0.11
 135   6     0.00   0.01   0.06    -0.00   0.00   0.02    -0.00  -0.00  -0.06
 136   6     0.00   0.00  -0.00    -0.00   0.00   0.00    -0.00   0.01  -0.00
 137   6    -0.00  -0.01  -0.07     0.00  -0.00  -0.02     0.00   0.01   0.05
 138   6    -0.00  -0.01  -0.13     0.00  -0.00  -0.04     0.00   0.02   0.11
 139   6    -0.00  -0.02  -0.18     0.00  -0.01  -0.06     0.00   0.02   0.16
 140   6    -0.00  -0.01  -0.15     0.00  -0.01  -0.04     0.00   0.02   0.12
 141   7    -0.00  -0.01  -0.08     0.00  -0.00  -0.02     0.00   0.01   0.07
 142   6    -0.00  -0.02  -0.18     0.00  -0.01  -0.05     0.00   0.02   0.15
 143   6    -0.00  -0.01  -0.14     0.00  -0.01  -0.04     0.00   0.02   0.13
 144   6    -0.00  -0.02  -0.18     0.00  -0.01  -0.05     0.00   0.02   0.16
 145   6    -0.00  -0.01  -0.13     0.00  -0.01  -0.04     0.00   0.02   0.11
 146   6    -0.00  -0.00  -0.06     0.00  -0.00  -0.02     0.00   0.01   0.06
 147   7    -0.00  -0.01  -0.08     0.00  -0.00  -0.02     0.00   0.01   0.07
 148   6    -0.00   0.00   0.00    -0.00  -0.00   0.00     0.00   0.01  -0.00
 149   6     0.00   0.01   0.07    -0.00   0.00   0.02    -0.00  -0.00  -0.06
 150   6     0.00   0.02   0.13    -0.00   0.00   0.04    -0.00  -0.01  -0.11
 151   6     0.00   0.02   0.18    -0.00   0.01   0.06    -0.00  -0.01  -0.16
 152   6     0.00   0.02   0.15    -0.00   0.00   0.05    -0.00  -0.01  -0.13
 153   7     0.00   0.01   0.08    -0.00   0.00   0.03    -0.00  -0.00  -0.07
 154   6     0.00   0.02   0.18    -0.00   0.01   0.06    -0.00  -0.01  -0.16
 155   6     0.00   0.02   0.15    -0.00   0.01   0.05    -0.00  -0.01  -0.13
 156   7     0.00   0.01   0.08    -0.00   0.00   0.03    -0.00  -0.00  -0.07
 157   1     0.00   0.01   0.07    -0.00   0.00   0.02    -0.00  -0.01  -0.06
 158   1     0.00   0.01   0.04    -0.00   0.00   0.01    -0.00  -0.00  -0.03
 159   1    -0.00  -0.00  -0.04     0.00  -0.00  -0.01     0.00   0.01   0.03
 160   1    -0.00  -0.01  -0.07     0.00  -0.00  -0.02     0.00   0.01   0.06
 161   1    -0.00  -0.01  -0.07     0.00  -0.00  -0.02     0.00   0.01   0.06
 162   1    -0.00  -0.01  -0.07     0.00  -0.00  -0.02     0.00   0.01   0.06
 163   1    -0.00  -0.00  -0.04     0.00  -0.00  -0.01     0.00   0.01   0.03
 164   1     0.00   0.01   0.04    -0.00   0.00   0.01    -0.00  -0.00  -0.03
 165   1     0.00   0.01   0.07    -0.00   0.00   0.02    -0.00  -0.01  -0.06
 166   1     0.00   0.01   0.07    -0.00   0.00   0.02    -0.00  -0.01  -0.06
 167  30    -0.00  -0.00   0.00     0.00  -0.00  -0.01    -0.00  -0.01   0.01
 168   6    -0.00   0.01   0.06     0.00  -0.01  -0.12    -0.00   0.01   0.12
 169   6    -0.00   0.01   0.05     0.00  -0.01  -0.09    -0.00   0.01   0.09
 170   6    -0.00   0.00   0.02     0.00  -0.01  -0.04    -0.00   0.00   0.04
 171   6    -0.00   0.00   0.00    -0.00  -0.00  -0.00     0.00  -0.00   0.00
 172   6     0.00  -0.00  -0.02    -0.00   0.00   0.04     0.00  -0.01  -0.04
 173   6     0.00  -0.00  -0.04    -0.00   0.01   0.08     0.00  -0.01  -0.08
 174   6     0.00  -0.01  -0.06    -0.00   0.01   0.11     0.00  -0.02  -0.12
 175   6     0.00  -0.01  -0.05    -0.00   0.01   0.09     0.00  -0.01  -0.09
 176   7     0.00  -0.00  -0.02    -0.00   0.01   0.05     0.00  -0.01  -0.05
 177   6     0.00  -0.01  -0.06    -0.00   0.01   0.11     0.00  -0.02  -0.12
 178   6     0.00  -0.01  -0.04    -0.00   0.01   0.09     0.00  -0.02  -0.09
 179   6     0.00  -0.01  -0.06    -0.00   0.01   0.11     0.00  -0.02  -0.12
 180   6     0.00  -0.01  -0.04    -0.00   0.01   0.08     0.00  -0.02  -0.09
 181   6     0.00  -0.00  -0.02    -0.00   0.01   0.04     0.00  -0.01  -0.04
 182   7     0.00  -0.00  -0.02    -0.00   0.01   0.05     0.00  -0.01  -0.05
 183   6    -0.00  -0.00   0.00     0.00   0.00  -0.00    -0.00  -0.01   0.00
 184   6    -0.00  -0.00   0.02     0.00  -0.00  -0.04    -0.00  -0.00   0.05
 185   6    -0.00   0.00   0.04     0.00  -0.01  -0.09    -0.00   0.00   0.09
 186   6    -0.00   0.00   0.06     0.00  -0.01  -0.12    -0.00   0.01   0.12
 187   6    -0.00   0.00   0.05     0.00  -0.01  -0.10    -0.00   0.01   0.10
 188   7    -0.00   0.00   0.03     0.00  -0.01  -0.05    -0.00  -0.00   0.06
 189   6    -0.00   0.01   0.06     0.00  -0.01  -0.12    -0.00   0.01   0.12
 190   6    -0.00   0.01   0.05     0.00  -0.01  -0.10    -0.00   0.01   0.10
 191   7    -0.00   0.00   0.03     0.00  -0.01  -0.05    -0.00   0.00   0.06
 192   1    -0.00   0.00   0.02     0.00  -0.01  -0.04    -0.00   0.00   0.05
 193   1    -0.00   0.00   0.01     0.00  -0.00  -0.03    -0.00   0.00   0.03
 194   1     0.00  -0.00  -0.01    -0.00   0.00   0.02     0.00  -0.00  -0.03
 195   1     0.00  -0.00  -0.02    -0.00   0.00   0.04     0.00  -0.01  -0.04
 196   1     0.00  -0.00  -0.02    -0.00   0.00   0.04     0.00  -0.01  -0.04
 197   1     0.00  -0.00  -0.02    -0.00   0.01   0.04     0.00  -0.01  -0.05
 198   1     0.00  -0.00  -0.01    -0.00   0.00   0.02     0.00  -0.01  -0.03
 199   1    -0.00   0.00   0.01     0.00  -0.00  -0.03    -0.00   0.00   0.03
 200   1    -0.00   0.00   0.02     0.00  -0.00  -0.04    -0.00   0.00   0.05
 201   1    -0.00   0.00   0.02     0.00  -0.01  -0.04    -0.00   0.00   0.05
                     10                     11                     12
                        a                      a                      a 
 Frequencies --     4.9655                 7.5841                 8.6599
 Red. masses --    15.7484                11.6086                11.6931
 Frc consts  --     0.0000                 0.0000                 0.0000
 IR Inten    --     0.0824                 0.1348                 0.0273
 Raman Activ --     0.0000                 0.0000                 0.0000
 Depolar     --     0.0000                 0.0000                 0.0000
 Atom AN      X      Y      Z        X      Y      Z        X      Y      Z
   1  30    -0.00   0.06  -0.01     0.01  -0.00   0.00    -0.00  -0.00   0.01
   2   6    -0.08  -0.03   0.01     0.07   0.05  -0.00    -0.01  -0.01  -0.08
   3   6    -0.06  -0.05   0.01     0.05   0.07  -0.01    -0.00  -0.01  -0.10
   4   6    -0.03  -0.04   0.01     0.03   0.06  -0.00    -0.00  -0.01  -0.08
   5   6    -0.00  -0.05   0.01     0.00   0.07  -0.01    -0.00  -0.01  -0.09
   6   6     0.03  -0.04   0.00    -0.02   0.06  -0.00     0.00  -0.01  -0.08
   7   6     0.06  -0.05  -0.00    -0.05   0.07  -0.01     0.00  -0.01  -0.10
   8   6     0.08  -0.03  -0.01    -0.07   0.05  -0.00     0.01  -0.00  -0.07
   9   6     0.06  -0.00  -0.01    -0.06   0.02  -0.00     0.00  -0.00  -0.04
  10   7     0.03  -0.01  -0.00    -0.03   0.03  -0.00     0.00  -0.00  -0.04
  11   6     0.07   0.02  -0.01    -0.07  -0.00   0.00     0.01  -0.00   0.00
  12   6     0.06   0.05  -0.01    -0.06  -0.03   0.00     0.00   0.00   0.04
  13   6     0.07   0.08  -0.02    -0.07  -0.05   0.01     0.00   0.00   0.09
  14   6     0.05   0.10  -0.02    -0.05  -0.07   0.01     0.00   0.01   0.12
  15   6     0.03   0.09  -0.01    -0.02  -0.06   0.01     0.00   0.00   0.10
  16   7     0.03   0.06  -0.01    -0.03  -0.03   0.00     0.00   0.00   0.06
  17   6    -0.00   0.10  -0.01     0.00  -0.07   0.01    -0.00   0.01   0.12
  18   6    -0.03   0.08  -0.01     0.03  -0.06   0.01    -0.00   0.00   0.10
  19   6    -0.06   0.10  -0.01     0.06  -0.07   0.01    -0.01   0.01   0.12
  20   6    -0.08   0.08  -0.00     0.08  -0.05   0.01    -0.01   0.00   0.08
  21   6    -0.06   0.05  -0.00     0.06  -0.03   0.00    -0.01   0.00   0.04
  22   7    -0.04   0.06  -0.00     0.04  -0.03   0.00    -0.00   0.00   0.06
  23   6    -0.08   0.02   0.00     0.07  -0.00   0.00    -0.01  -0.00  -0.00
  24   6    -0.06  -0.00   0.01     0.06   0.03  -0.00    -0.01  -0.00  -0.04
  25   7    -0.03  -0.01   0.00     0.03   0.03  -0.00    -0.00  -0.00  -0.04
  26   1    -0.03  -0.01   0.00     0.03   0.02  -0.00    -0.00  -0.00  -0.02
  27   1    -0.02  -0.02   0.00     0.02   0.03  -0.00    -0.00  -0.00  -0.04
  28   1     0.02  -0.02   0.00    -0.02   0.03  -0.00     0.00  -0.00  -0.04
  29   1     0.03  -0.01  -0.00    -0.03   0.02  -0.00     0.00  -0.00  -0.02
  30   1     0.03   0.01  -0.00    -0.03  -0.00   0.00     0.00  -0.00   0.00
  31   1     0.03   0.02  -0.01    -0.03  -0.02   0.00     0.00   0.00   0.03
  32   1     0.02   0.04  -0.01    -0.01  -0.03   0.00     0.00   0.00   0.05
  33   1    -0.00   0.04  -0.00     0.00  -0.03   0.00    -0.00   0.00   0.05
  34   1    -0.02   0.04  -0.00     0.02  -0.03   0.00    -0.00   0.00   0.04
  35   1    -0.03   0.02   0.00     0.03  -0.02   0.00    -0.00   0.00   0.02
  36   1    -0.03   0.01   0.00     0.03  -0.00  -0.00    -0.00  -0.00  -0.00
  37  30    -0.00   0.06  -0.01    -0.01   0.00  -0.00     0.00   0.01  -0.01
  38   6    -0.07  -0.03  -0.01    -0.08  -0.05   0.00     0.02   0.00   0.08
  39   6    -0.05  -0.05  -0.00    -0.05  -0.07   0.00     0.01   0.00   0.10
  40   6    -0.03  -0.03  -0.00    -0.03  -0.06   0.00     0.01   0.00   0.08
  41   6    -0.00  -0.05   0.00    -0.00  -0.07   0.00     0.00   0.00   0.09
  42   6     0.02  -0.04   0.00     0.02  -0.06   0.00    -0.01   0.00   0.08
  43   6     0.05  -0.05   0.01     0.05  -0.07   0.01    -0.01   0.00   0.10
  44   6     0.07  -0.03   0.01     0.07  -0.05   0.00    -0.02   0.00   0.08
  45   6     0.06  -0.00   0.01     0.06  -0.02   0.00    -0.02   0.00   0.04
  46   7     0.03  -0.01   0.00     0.03  -0.03   0.00    -0.01   0.00   0.05
  47   6     0.07   0.02   0.00     0.07   0.00   0.00    -0.02   0.00   0.00
  48   6     0.06   0.05  -0.00     0.06   0.03  -0.00    -0.02   0.00  -0.04
  49   6     0.07   0.08  -0.00     0.07   0.06  -0.00    -0.02   0.00  -0.09
  50   6     0.05   0.10  -0.01     0.05   0.08  -0.01    -0.01   0.00  -0.12
  51   6     0.02   0.08  -0.01     0.02   0.06  -0.01    -0.01   0.00  -0.10
  52   7     0.03   0.06  -0.01     0.03   0.04  -0.00    -0.01   0.00  -0.05
  53   6    -0.00   0.10  -0.02    -0.00   0.08  -0.01    -0.00   0.00  -0.12
  54   6    -0.03   0.08  -0.02    -0.03   0.06  -0.01     0.01   0.00  -0.10
  55   6    -0.05   0.10  -0.02    -0.06   0.08  -0.01     0.01   0.00  -0.12
  56   6    -0.07   0.08  -0.02    -0.08   0.06  -0.01     0.02   0.00  -0.08
  57   6    -0.06   0.05  -0.02    -0.06   0.03  -0.01     0.02   0.00  -0.04
  58   7    -0.03   0.06  -0.02    -0.04   0.04  -0.01     0.01   0.00  -0.05
  59   6    -0.07   0.03  -0.02    -0.07   0.00  -0.00     0.02   0.00   0.00
  60   6    -0.06  -0.00  -0.01    -0.06  -0.03  -0.00     0.02   0.00   0.04
  61   7    -0.03  -0.01  -0.01    -0.04  -0.03   0.00     0.01   0.00   0.05
  62   1    -0.03  -0.01  -0.00    -0.03  -0.02   0.00     0.01   0.00   0.02
  63   1    -0.02  -0.02  -0.00    -0.02  -0.03   0.00     0.00   0.00   0.04
  64   1     0.02  -0.02   0.00     0.02  -0.03   0.00    -0.00   0.00   0.04
  65   1     0.03  -0.01   0.00     0.03  -0.02   0.00    -0.01   0.00   0.02
  66   1     0.03   0.01   0.00     0.03   0.00   0.00    -0.01   0.00   0.00
  67   1     0.03   0.02   0.00     0.03   0.02  -0.00    -0.01   0.00  -0.03
  68   1     0.01   0.03  -0.00     0.02   0.03  -0.00    -0.00   0.00  -0.05
  69   1    -0.00   0.03  -0.01    -0.00   0.03  -0.00    -0.00   0.00  -0.05
  70   1    -0.02   0.03  -0.01    -0.02   0.03  -0.00     0.00   0.00  -0.04
  71   1    -0.03   0.02  -0.01    -0.03   0.02  -0.00     0.01   0.00  -0.02
  72   1    -0.03   0.01  -0.01    -0.03   0.00  -0.00     0.01   0.00   0.00
  73   6     0.00  -0.08   0.01     0.00   0.10  -0.01    -0.00  -0.01  -0.12
  74   6     0.00  -0.10   0.01     0.00   0.11  -0.01    -0.00  -0.01  -0.13
  75   6     0.00  -0.12   0.01     0.00   0.12  -0.01    -0.00  -0.01  -0.14
  76   6     0.00  -0.12   0.01     0.00   0.11  -0.01    -0.00  -0.01  -0.14
  77   6     0.00  -0.12   0.01     0.00   0.10  -0.01    -0.00  -0.01  -0.12
  78   6     0.00  -0.12   0.01     0.00   0.09  -0.01    -0.00  -0.01  -0.11
  79   6     0.00   0.01  -0.00     0.00  -0.11   0.01     0.00   0.01   0.11
  80   6     0.00   0.03  -0.00     0.00  -0.12   0.01     0.00   0.01   0.13
  81   6     0.00   0.05  -0.01     0.00  -0.13   0.01     0.00   0.01   0.13
  82   6     0.00   0.06  -0.01     0.00  -0.13   0.01     0.00   0.01   0.13
  83   6     0.00   0.07  -0.01     0.00  -0.12   0.01     0.00   0.01   0.12
  84   6     0.00   0.08  -0.01     0.00  -0.10   0.01     0.00   0.01   0.11
  85   6     0.00   0.08  -0.01     0.00   0.10  -0.01     0.00  -0.01  -0.11
  86   6     0.00   0.07  -0.01     0.00   0.12  -0.01     0.00  -0.01  -0.13
  87   6     0.00   0.06  -0.00    -0.00   0.13  -0.01     0.00  -0.01  -0.14
  88   6     0.00   0.04  -0.00    -0.00   0.13  -0.01     0.00  -0.01  -0.14
  89   6     0.00   0.02   0.00    -0.00   0.12  -0.01     0.00  -0.01  -0.13
  90   6     0.00   0.01   0.00    -0.00   0.11  -0.00     0.00  -0.01  -0.12
  91   6     0.00  -0.11   0.01    -0.00  -0.09   0.01     0.00   0.00   0.11
  92   6     0.00  -0.12   0.01    -0.00  -0.11   0.01     0.00   0.00   0.13
  93   6     0.00  -0.12   0.01    -0.00  -0.12   0.01     0.00   0.01   0.14
  94   6     0.00  -0.11   0.01    -0.00  -0.12   0.01     0.00   0.01   0.14
  95   6     0.00  -0.10   0.01    -0.00  -0.12   0.00     0.00   0.01   0.14
  96   6     0.00  -0.08   0.00    -0.00  -0.10   0.00     0.00   0.01   0.12
  97  30     0.00  -0.12   0.02     0.00  -0.02   0.00     0.00   0.00   0.01
  98   6     0.05  -0.09  -0.00    -0.07   0.04  -0.00    -0.00  -0.00  -0.06
  99   6     0.03  -0.10   0.00    -0.05   0.06  -0.00    -0.00  -0.01  -0.08
 100   6     0.02  -0.09   0.01    -0.02   0.05  -0.00    -0.00  -0.00  -0.06
 101   6     0.00  -0.10   0.01     0.00   0.06  -0.01    -0.00  -0.01  -0.08
 102   6    -0.02  -0.09   0.02     0.03   0.05  -0.00     0.00  -0.00  -0.06
 103   6    -0.03  -0.10   0.02     0.05   0.06  -0.01     0.00  -0.01  -0.08
 104   6    -0.05  -0.08   0.03     0.07   0.04  -0.01     0.00  -0.00  -0.06
 105   6    -0.04  -0.07   0.02     0.06   0.01  -0.00     0.00  -0.00  -0.03
 106   7    -0.02  -0.08   0.02     0.03   0.02  -0.00     0.00  -0.00  -0.03
 107   6    -0.05  -0.05   0.02     0.07  -0.01  -0.00     0.00   0.00   0.01
 108   6    -0.04  -0.03   0.02     0.06  -0.04   0.00     0.00   0.00   0.04
 109   6    -0.05  -0.02   0.02     0.07  -0.06   0.00     0.00   0.01   0.07
 110   6    -0.03  -0.01   0.01     0.05  -0.08   0.01     0.00   0.01   0.09
 111   6    -0.02  -0.01   0.01     0.03  -0.07   0.00     0.00   0.01   0.07
 112   7    -0.02  -0.04   0.01     0.03  -0.04   0.00     0.00   0.00   0.05
 113   6     0.00  -0.01   0.00     0.00  -0.08   0.01     0.00   0.01   0.09
 114   6     0.02  -0.02  -0.00    -0.02  -0.07   0.01    -0.00   0.01   0.07
 115   6     0.03  -0.01  -0.01    -0.05  -0.08   0.01    -0.00   0.01   0.09
 116   6     0.05  -0.02  -0.01    -0.07  -0.06   0.01    -0.00   0.01   0.07
 117   6     0.04  -0.04  -0.01    -0.06  -0.04   0.00    -0.00   0.00   0.04
 118   7     0.02  -0.04  -0.00    -0.03  -0.04   0.00    -0.00   0.00   0.05
 119   6     0.05  -0.05  -0.01    -0.07  -0.01   0.00    -0.00   0.00   0.01
 120   6     0.04  -0.07  -0.00    -0.06   0.01  -0.00    -0.00  -0.00  -0.03
 121   7     0.02  -0.08   0.00    -0.03   0.02  -0.00    -0.00  -0.00  -0.03
 122   1     0.02  -0.03  -0.00    -0.03   0.01  -0.00    -0.00  -0.00  -0.02
 123   1     0.01  -0.03   0.00    -0.02   0.02  -0.00    -0.00  -0.00  -0.03
 124   1    -0.01  -0.03   0.01     0.02   0.02  -0.00     0.00  -0.00  -0.03
 125   1    -0.02  -0.02   0.01     0.03   0.01  -0.00     0.00  -0.00  -0.02
 126   1    -0.02  -0.01   0.01     0.03  -0.00  -0.00     0.00   0.00   0.00
 127   1    -0.02  -0.00   0.01     0.03  -0.02   0.00     0.00   0.00   0.02
 128   1    -0.01   0.00   0.00     0.02  -0.03   0.00     0.00   0.00   0.03
 129   1     0.01   0.00  -0.00    -0.02  -0.03   0.00    -0.00   0.00   0.03
 130   1     0.02  -0.01  -0.00    -0.03  -0.02   0.00    -0.00   0.00   0.02
 131   1     0.02  -0.02  -0.00    -0.03  -0.00   0.00    -0.00   0.00   0.00
 132  30     0.00   0.19  -0.02     0.00   0.01  -0.01     0.00   0.00   0.00
 133   6    -0.00   0.08  -0.00     0.07  -0.05   0.00     0.00   0.01   0.06
 134   6    -0.00   0.08  -0.01     0.05  -0.07   0.00     0.00   0.01   0.09
 135   6     0.00   0.08  -0.01     0.03  -0.06   0.00     0.00   0.01   0.07
 136   6     0.00   0.08  -0.01     0.00  -0.07   0.00     0.00   0.01   0.08
 137   6     0.00   0.08  -0.01    -0.03  -0.06   0.00    -0.00   0.01   0.07
 138   6     0.00   0.08  -0.02    -0.05  -0.07   0.00    -0.00   0.01   0.09
 139   6     0.00   0.08  -0.02    -0.07  -0.05   0.00    -0.00   0.01   0.06
 140   6     0.00   0.08  -0.02    -0.06  -0.02   0.00    -0.00   0.00   0.03
 141   7     0.00   0.09  -0.02    -0.03  -0.03   0.00    -0.00   0.00   0.04
 142   6     0.00   0.08  -0.02    -0.07   0.00  -0.00    -0.00   0.00   0.00
 143   6     0.00   0.08  -0.02    -0.06   0.03  -0.00    -0.00  -0.00  -0.03
 144   6     0.00   0.08  -0.02    -0.07   0.06  -0.01    -0.00  -0.00  -0.06
 145   6     0.00   0.08  -0.01    -0.05   0.08  -0.01    -0.00  -0.00  -0.09
 146   6     0.00   0.08  -0.01    -0.03   0.06  -0.01    -0.00  -0.00  -0.07
 147   7     0.00   0.09  -0.01    -0.03   0.04  -0.00    -0.00  -0.00  -0.04
 148   6     0.00   0.08  -0.01     0.00   0.08  -0.01     0.00  -0.00  -0.08
 149   6     0.00   0.08  -0.01     0.03   0.06  -0.01     0.00  -0.00  -0.07
 150   6    -0.00   0.08  -0.00     0.05   0.08  -0.01     0.00  -0.00  -0.09
 151   6    -0.00   0.08  -0.00     0.07   0.06  -0.01     0.00  -0.00  -0.06
 152   6    -0.00   0.08  -0.00     0.06   0.03  -0.00     0.00  -0.00  -0.03
 153   7    -0.00   0.09  -0.01     0.03   0.04  -0.01     0.00  -0.00  -0.04
 154   6    -0.00   0.08  -0.00     0.07   0.00  -0.00     0.00   0.00   0.00
 155   6    -0.00   0.08  -0.00     0.06  -0.02  -0.00     0.00   0.00   0.03
 156   7     0.00   0.09  -0.01     0.03  -0.03   0.00     0.00   0.00   0.04
 157   1    -0.00   0.02  -0.00     0.03  -0.02   0.00     0.00   0.00   0.02
 158   1    -0.00   0.02  -0.00     0.02  -0.03   0.00     0.00   0.00   0.03
 159   1     0.00   0.02  -0.01    -0.02  -0.03   0.00    -0.00   0.00   0.03
 160   1     0.00   0.02  -0.01    -0.03  -0.02   0.00    -0.00   0.00   0.02
 161   1     0.00   0.02  -0.01    -0.03   0.00  -0.00    -0.00   0.00   0.00
 162   1     0.00   0.02  -0.01    -0.03   0.02  -0.00    -0.00  -0.00  -0.02
 163   1     0.00   0.02  -0.00    -0.02   0.03  -0.00    -0.00  -0.00  -0.03
 164   1    -0.00   0.02  -0.00     0.02   0.03  -0.00     0.00  -0.00  -0.03
 165   1    -0.00   0.02   0.00     0.03   0.02  -0.00     0.00  -0.00  -0.02
 166   1    -0.00   0.02  -0.00     0.03   0.00  -0.00     0.00   0.00   0.00
 167  30     0.00  -0.13   0.02    -0.00   0.02   0.01     0.00  -0.01  -0.02
 168   6    -0.04  -0.02  -0.00    -0.07   0.06  -0.00    -0.00  -0.01  -0.08
 169   6    -0.03  -0.01  -0.00    -0.05   0.08  -0.00    -0.00  -0.01  -0.10
 170   6    -0.02  -0.02   0.00    -0.03   0.07  -0.00    -0.00  -0.01  -0.08
 171   6     0.00  -0.01   0.01    -0.00   0.08  -0.00     0.00  -0.01  -0.09
 172   6     0.02  -0.02   0.01     0.03   0.07   0.00     0.00  -0.01  -0.08
 173   6     0.03  -0.01   0.02     0.05   0.08   0.00     0.00  -0.01  -0.09
 174   6     0.04  -0.02   0.02     0.07   0.06   0.00     0.01  -0.01  -0.07
 175   6     0.04  -0.04   0.02     0.06   0.03   0.00     0.00  -0.01  -0.04
 176   7     0.02  -0.04   0.02     0.03   0.04   0.00     0.00  -0.01  -0.05
 177   6     0.04  -0.05   0.02     0.07   0.01   0.01     0.00  -0.00  -0.01
 178   6     0.04  -0.07   0.02     0.06  -0.02   0.01     0.00  -0.00   0.03
 179   6     0.04  -0.08   0.02     0.07  -0.04   0.01     0.00  -0.00   0.06
 180   6     0.03  -0.10   0.02     0.05  -0.07   0.01     0.00   0.00   0.08
 181   6     0.02  -0.09   0.02     0.03  -0.05   0.01     0.00   0.00   0.06
 182   7     0.02  -0.08   0.02     0.03  -0.02   0.01     0.00  -0.00   0.03
 183   6     0.00  -0.10   0.01    -0.00  -0.06   0.01     0.00   0.00   0.08
 184   6    -0.02  -0.09   0.01    -0.03  -0.05   0.01    -0.00  -0.00   0.06
 185   6    -0.03  -0.10   0.01    -0.05  -0.06   0.00    -0.00   0.00   0.08
 186   6    -0.04  -0.09   0.00    -0.07  -0.04   0.00    -0.00  -0.00   0.05
 187   6    -0.03  -0.07   0.00    -0.06  -0.02   0.00    -0.00  -0.00   0.02
 188   7    -0.02  -0.08   0.01    -0.03  -0.02   0.00    -0.00  -0.00   0.03
 189   6    -0.04  -0.05  -0.00    -0.07   0.01   0.00    -0.00  -0.01  -0.01
 190   6    -0.03  -0.04   0.00    -0.06   0.03   0.00    -0.00  -0.01  -0.04
 191   7    -0.02  -0.04   0.00    -0.03   0.04   0.00    -0.00  -0.01  -0.05
 192   1    -0.02  -0.01  -0.00    -0.03   0.02  -0.00    -0.00  -0.00  -0.02
 193   1    -0.01   0.00  -0.00    -0.02   0.03  -0.00    -0.00  -0.00  -0.04
 194   1     0.01   0.00   0.00     0.02   0.03  -0.00     0.00  -0.00  -0.03
[...]
 156   7     0.00   0.00  -0.00    -0.00  -0.00   0.00     0.00   0.00  -0.00
 157   1     0.01   0.08  -0.01    -0.01  -0.06   0.01     0.03   0.25  -0.03
 158   1     0.11   0.01  -0.00    -0.08  -0.01   0.00     0.33   0.04  -0.00
 159   1     0.06  -0.01   0.00    -0.06   0.01  -0.00     0.22  -0.03   0.00
 160   1     0.00  -0.04   0.00    -0.00   0.04  -0.01     0.02  -0.16   0.02
 161   1    -0.00  -0.00   0.00     0.00  -0.00   0.00    -0.00   0.00  -0.00
 162   1     0.00   0.04  -0.00    -0.02  -0.16   0.02     0.03   0.25  -0.03
 163   1     0.05   0.01  -0.00    -0.22  -0.03   0.00     0.34   0.04  -0.01
 164   1     0.03  -0.00   0.00    -0.20   0.02  -0.00     0.27  -0.03   0.00
 165   1     0.00  -0.02   0.00    -0.02   0.15  -0.02     0.02  -0.20   0.02
 166   1    -0.00   0.00  -0.00     0.00   0.00  -0.00    -0.00  -0.00   0.00
 167  30    -0.00   0.00   0.00     0.00   0.00   0.00     0.00   0.00   0.00
 168   6     0.00   0.01  -0.00    -0.01  -0.08   0.01    -0.00  -0.00   0.00
 169   6     0.01   0.00  -0.00    -0.11  -0.01   0.00    -0.00  -0.00   0.00
 170   6     0.00  -0.00   0.00    -0.00   0.00  -0.00    -0.00   0.00  -0.00
 171   6     0.00  -0.00   0.00    -0.00  -0.00   0.00     0.00  -0.00   0.00
 172   6     0.00   0.00  -0.00    -0.00  -0.00   0.00     0.00   0.00   0.00
 173   6     0.01  -0.00   0.00    -0.10   0.01  -0.00     0.00  -0.00   0.00
 174   6     0.00  -0.01   0.00    -0.00   0.07  -0.01     0.00  -0.00   0.00
 175   6    -0.00  -0.00   0.00     0.00   0.00  -0.00    -0.00   0.00  -0.00
 176   7    -0.00   0.00  -0.00     0.00  -0.00   0.00    -0.00   0.00  -0.00
 177   6     0.00  -0.00   0.00    -0.00   0.00  -0.00    -0.00  -0.00   0.00
 178   6     0.00  -0.00   0.00     0.00  -0.00   0.00     0.00  -0.00   0.00
 179   6    -0.00  -0.00   0.00    -0.00  -0.00   0.00    -0.00  -0.03   0.00
 180   6    -0.00  -0.00   0.00    -0.00  -0.00   0.00    -0.04  -0.00   0.00
 181   6    -0.00   0.00  -0.00     0.00   0.00  -0.00    -0.00   0.00  -0.00
 182   7     0.00   0.00  -0.00    -0.00  -0.00   0.00     0.00   0.00  -0.00
 183   6    -0.00  -0.00   0.00     0.00  -0.00   0.00    -0.00  -0.00   0.00
 184   6    -0.00  -0.00   0.00     0.00   0.00  -0.00    -0.00  -0.00   0.00
 185   6    -0.00   0.00  -0.00     0.00  -0.00   0.00    -0.03   0.00  -0.00
 186   6    -0.00   0.00  -0.00     0.00  -0.00   0.00    -0.00   0.02  -0.00
 187   6     0.00   0.00  -0.00    -0.00  -0.00  -0.00     0.00   0.00  -0.00
 188   7     0.00  -0.00   0.00    -0.00   0.00  -0.00     0.00  -0.00   0.00
 189   6     0.00   0.00  -0.00    -0.00  -0.00   0.00    -0.00   0.00  -0.00
 190   6    -0.00   0.00  -0.00     0.00  -0.00   0.00     0.00  -0.00   0.00
 191   7    -0.00  -0.00   0.00     0.00   0.00  -0.00     0.00   0.00   0.00
 192   1    -0.00  -0.02   0.00     0.03   0.26  -0.03     0.00   0.01  -0.00
 193   1    -0.03  -0.00   0.00     0.36   0.04  -0.01     0.01   0.00  -0.00
 194   1    -0.03   0.00  -0.00     0.31  -0.04   0.01    -0.00   0.00  -0.00
 195   1    -0.00   0.03  -0.00     0.02  -0.23   0.03    -0.00   0.00  -0.00
 196   1     0.00   0.00  -0.00    -0.00  -0.00   0.00    -0.00   0.00  -0.00
 197   1     0.00   0.01  -0.00     0.00   0.01  -0.00     0.01   0.08  -0.01
 198   1     0.02   0.00  -0.00     0.01   0.00  -0.00     0.12   0.01  -0.00
 199   1     0.01  -0.00   0.00    -0.01   0.00  -0.00     0.11  -0.01   0.00
 200   1     0.00  -0.01   0.00    -0.00   0.01  -0.00     0.01  -0.08   0.01
 201   1     0.00  -0.00   0.00    -0.00   0.00  -0.00    -0.00  -0.00   0.00
                    595                    596                    597
                        a                      a                      a 
 Frequencies --  3166.1836              3166.3535              3166.4122
 Red. masses --     1.9685                 1.9682                 1.9683
 Frc consts  --     0.0000                 0.0000                 0.0000
 IR Inten    --     1.8188                27.1776                 1.1194
 Raman Activ --     0.0000                 0.0000                 0.0000
 Depolar     --     0.0000                 0.0000                 0.0000
 Atom AN      X      Y      Z        X      Y      Z        X      Y      Z
   1  30    -0.00  -0.00   0.00    -0.00  -0.00   0.00    -0.00  -0.00   0.00
   2   6     0.00  -0.01   0.00     0.00  -0.01   0.00     0.00  -0.01   0.00
   3   6     0.01  -0.00   0.00     0.01  -0.00   0.00     0.01  -0.00   0.00
   4   6     0.00   0.00  -0.00     0.00   0.00  -0.00     0.00   0.00  -0.00
   5   6     0.00   0.00   0.00     0.00   0.00  -0.00     0.00   0.00  -0.00
   6   6     0.00  -0.00   0.00     0.00  -0.00   0.00     0.00  -0.00   0.00
   7   6     0.01   0.00   0.00     0.01   0.00   0.00     0.01   0.00   0.00
   8   6     0.00   0.01  -0.00     0.00   0.01  -0.00     0.00   0.01  -0.00
   9   6    -0.00   0.00  -0.00    -0.00   0.00  -0.00    -0.00   0.00  -0.00
  10   7    -0.00  -0.00  -0.00    -0.00  -0.00  -0.00    -0.00  -0.00  -0.00
  11   6     0.00   0.00   0.00     0.00   0.00   0.00     0.00   0.00  -0.00
  12   6    -0.00  -0.00  -0.00     0.00   0.00  -0.00     0.00   0.00  -0.00
  13   6     0.00  -0.00  -0.00     0.00  -0.00   0.00    -0.00   0.00  -0.00
  14   6     0.00  -0.00   0.00     0.00  -0.00   0.00    -0.00  -0.00  -0.00
  15   6     0.00   0.00  -0.00     0.00   0.00  -0.00     0.00  -0.00  -0.00
  16   7    -0.00  -0.00  -0.00    -0.00  -0.00  -0.00     0.00  -0.00  -0.00
  17   6    -0.00   0.00  -0.00    -0.00   0.00  -0.00    -0.00   0.00  -0.00
  18   6     0.00  -0.00  -0.00     0.00  -0.00  -0.00     0.00   0.00  -0.00
  19   6     0.00   0.00   0.00     0.00   0.00   0.00    -0.00   0.00  -0.00
  20   6     0.00   0.00  -0.00     0.00   0.00  -0.00    -0.00  -0.00   0.00
  21   6    -0.00   0.00  -0.00    -0.00  -0.00  -0.00     0.00  -0.00   0.00
  22   7    -0.00   0.00  -0.00    -0.00   0.00  -0.00    -0.00   0.00   0.00
  23   6     0.00  -0.00   0.00    -0.00  -0.00   0.00    -0.00  -0.00   0.00
  24   6    -0.00  -0.00  -0.00    -0.00  -0.00  -0.00    -0.00  -0.00  -0.00
  25   7    -0.00   0.00  -0.00    -0.00   0.00  -0.00    -0.00   0.00  -0.00
  26   1    -0.00   0.02  -0.00    -0.00   0.02  -0.00    -0.00   0.02  -0.00
  27   1    -0.02   0.00  -0.00    -0.03   0.00  -0.00    -0.03   0.00  -0.00
  28   1    -0.04  -0.01  -0.00    -0.05  -0.01  -0.00    -0.04  -0.01  -0.00
  29   1    -0.00  -0.03   0.00    -0.00  -0.04   0.00    -0.00  -0.03   0.00
  30   1     0.00  -0.00   0.00     0.00  -0.00   0.00     0.00  -0.00  -0.00
  31   1    -0.00   0.00  -0.00    -0.00   0.00  -0.00     0.00  -0.00  -0.00
  32   1    -0.00   0.00  -0.00    -0.00   0.00  -0.00     0.00  -0.00   0.00
  33   1     0.00   0.00   0.00     0.00   0.00   0.00     0.00   0.00   0.00
  34   1    -0.00  -0.00  -0.00    -0.00  -0.00  -0.00     0.00   0.00   0.00
  35   1    -0.00  -0.00   0.00    -0.00  -0.00   0.00     0.00   0.00   0.00
  36   1     0.00   0.00  -0.00     0.00   0.00  -0.00     0.00   0.00  -0.00
  37  30     0.00   0.00  -0.00    -0.00   0.00   0.00     0.00  -0.00   0.00
  38   6     0.00  -0.00  -0.00    -0.00   0.00   0.00     0.00   0.00   0.00
  39   6     0.00  -0.00  -0.00     0.00  -0.00  -0.00    -0.00   0.00   0.00
  40   6    -0.00   0.00   0.00     0.00  -0.00   0.00    -0.00  -0.00  -0.00
  41   6    -0.00  -0.00   0.00     0.00   0.00  -0.00    -0.00   0.00   0.00
  42   6    -0.00  -0.00  -0.00     0.00   0.00  -0.00    -0.00   0.00   0.00
  43   6     0.00   0.00   0.00     0.00   0.00   0.00    -0.00  -0.00  -0.00
  44   6     0.00   0.00   0.00    -0.00  -0.00  -0.00     0.00  -0.00  -0.00
  45   6    -0.00  -0.00   0.00     0.00   0.00  -0.00    -0.00  -0.00   0.00
  46   7     0.00  -0.00  -0.00    -0.00   0.00   0.00     0.00  -0.00  -0.00
  47   6     0.00   0.00   0.00    -0.00  -0.00  -0.00     0.00  -0.00  -0.00
  48   6    -0.00   0.00   0.00     0.00   0.00   0.00    -0.00  -0.00  -0.00
  49   6    -0.00   0.00   0.00     0.00  -0.00  -0.00     0.00  -0.00  -0.00
  50   6    -0.00   0.00   0.00     0.00  -0.00  -0.00     0.00   0.00  -0.00
  51   6    -0.00  -0.00   0.00     0.00   0.00  -0.00    -0.00   0.00   0.00
  52   7     0.00  -0.00  -0.00    -0.00  -0.00  -0.00     0.00   0.00   0.00
  53   6    -0.00  -0.00   0.00     0.00  -0.00  -0.00     0.00   0.00  -0.00
  54   6    -0.00   0.00   0.00     0.00  -0.00   0.00    -0.00  -0.00  -0.00
  55   6    -0.00  -0.00  -0.00     0.00   0.00   0.00     0.00  -0.00   0.00
  56   6    -0.00  -0.00  -0.00     0.00   0.00   0.00     0.00   0.00   0.00
  57   6    -0.00  -0.00  -0.00     0.00  -0.00  -0.00    -0.00   0.00   0.00
  58   7     0.00   0.00   0.00    -0.00   0.00   0.00     0.00  -0.00  -0.00
  59   6     0.00  -0.00  -0.00    -0.00   0.00   0.00     0.00   0.00   0.00
  60   6    -0.00  -0.00  -0.00     0.00  -0.00  -0.00    -0.00   0.00   0.00
  61   7     0.00   0.00   0.00    -0.00  -0.00  -0.00     0.00   0.00   0.00
  62   1    -0.00   0.00   0.00     0.00  -0.00  -0.00     0.00  -0.00  -0.00
  63   1    -0.00   0.00   0.00    -0.00   0.00   0.00     0.01  -0.00  -0.00
  64   1    -0.00  -0.00  -0.00    -0.00  -0.00  -0.00     0.01   0.00   0.00
  65   1    -0.00  -0.00  -0.00     0.00   0.00   0.00     0.00   0.00   0.00
  66   1     0.00  -0.00  -0.00    -0.00   0.00   0.00    -0.00   0.00   0.00
  67   1     0.00  -0.00  -0.00    -0.00   0.00   0.00    -0.00   0.00   0.00
  68   1     0.00  -0.00  -0.00    -0.00   0.00   0.00    -0.00   0.00   0.00
  69   1     0.00   0.00  -0.00    -0.00  -0.00  -0.00    -0.00  -0.00   0.00
  70   1     0.00   0.00   0.00    -0.00  -0.00  -0.00    -0.00  -0.00  -0.00
  71   1     0.00   0.00   0.00    -0.00  -0.00  -0.00    -0.00  -0.00  -0.00
  72   1     0.00   0.00   0.00    -0.00  -0.00  -0.00     0.00  -0.00  -0.00
  73   6     0.00   0.00   0.00     0.00   0.00   0.00     0.00   0.00   0.00
  74   6    -0.00  -0.00  -0.00    -0.00  -0.00  -0.00    -0.00  -0.00  -0.00
  75   6     0.00  -0.00  -0.00     0.00   0.00  -0.00     0.00   0.00  -0.00
  76   6    -0.00  -0.00   0.00    -0.00  -0.00   0.00    -0.00  -0.00   0.00
  77   6     0.00  -0.00   0.00     0.00  -0.00   0.00     0.00  -0.00   0.00
  78   6     0.00   0.00  -0.00     0.00   0.00  -0.00     0.00   0.00  -0.00
  79   6    -0.00   0.00  -0.00    -0.00   0.00  -0.00     0.00   0.00  -0.00
  80   6    -0.00  -0.00   0.00    -0.00  -0.00   0.00    -0.00  -0.00   0.00
  81   6    -0.00  -0.00   0.00    -0.00  -0.00   0.00     0.00  -0.00  -0.00
  82   6     0.00   0.00  -0.00     0.00   0.00  -0.00    -0.00  -0.00   0.00
  83   6    -0.00   0.00  -0.00    -0.00   0.00  -0.00     0.00  -0.00   0.00
  84   6    -0.00  -0.00   0.00    -0.00  -0.00   0.00     0.00   0.00  -0.00
  85   6     0.00   0.00  -0.00    -0.00  -0.00   0.00    -0.00  -0.00  -0.00
  86   6     0.00   0.00  -0.00    -0.00   0.00  -0.00    -0.00  -0.00   0.00
  87   6    -0.00   0.00   0.00     0.00   0.00  -0.00     0.00   0.00  -0.00
  88   6     0.00  -0.00   0.00    -0.00   0.00  -0.00    -0.00  -0.00   0.00
  89   6     0.00  -0.00   0.00    -0.00   0.00  -0.00     0.00  -0.00   0.00
  90   6     0.00   0.00  -0.00    -0.00  -0.00   0.00    -0.00   0.00  -0.00
  91   6    -0.00  -0.00   0.00     0.00  -0.00   0.00    -0.00  -0.00   0.00
  92   6    -0.00  -0.00  -0.00     0.00   0.00  -0.00    -0.00  -0.00  -0.00
  93   6     0.00   0.00   0.00    -0.00  -0.00  -0.00     0.00  -0.00   0.00
  94   6    -0.00  -0.00  -0.00     0.00   0.00   0.00    -0.00  -0.00  -0.00
  95   6     0.00   0.00   0.00    -0.00  -0.00  -0.00     0.00   0.00   0.00
  96   6    -0.00  -0.00  -0.00     0.00   0.00   0.00    -0.00  -0.00  -0.00
  97  30    -0.00  -0.00  -0.00    -0.00  -0.00  -0.00    -0.00  -0.00  -0.00
  98   6     0.00   0.04  -0.01     0.01   0.09  -0.01     0.00   0.06  -0.01
  99   6     0.06   0.00  -0.00     0.13   0.01  -0.00     0.08   0.01  -0.00
 100   6     0.00  -0.00   0.00     0.00  -0.00   0.00     0.00  -0.00   0.00
 101   6     0.00   0.00  -0.00     0.00   0.00  -0.00     0.00   0.00  -0.00
 102   6     0.00   0.00  -0.00     0.00   0.00  -0.00     0.00   0.00  -0.00
 103   6     0.05  -0.00   0.00     0.11  -0.01   0.00     0.07  -0.01   0.00
 104   6     0.00  -0.04   0.00     0.00  -0.08   0.01     0.00  -0.05   0.01
 105   6    -0.00  -0.00   0.00    -0.00  -0.00   0.00    -0.00  -0.00   0.00
 106   7    -0.00   0.00  -0.00    -0.00   0.00  -0.00    -0.00   0.00  -0.00
 107   6     0.00  -0.00   0.00     0.00  -0.00   0.00     0.00  -0.00   0.00
 108   6     0.00  -0.00   0.00     0.00  -0.00   0.00     0.00  -0.00  -0.00
 109   6    -0.00  -0.02   0.00    -0.00  -0.02   0.00    -0.00  -0.00   0.00
 110   6    -0.03  -0.00   0.00    -0.03  -0.00   0.00    -0.00  -0.00   0.00
 111   6    -0.00   0.00  -0.00    -0.00   0.00  -0.00    -0.00   0.00   0.00
 112   7     0.00   0.00  -0.00     0.00   0.00  -0.00     0.00   0.00  -0.00
 113   6    -0.00   0.00  -0.00    -0.00   0.00  -0.00     0.00   0.00  -0.00
 114   6    -0.00  -0.00   0.00    -0.00  -0.00   0.00    -0.00  -0.00   0.00
 115   6    -0.03   0.00  -0.00    -0.04   0.00  -0.00    -0.00   0.00  -0.00
 116   6    -0.00   0.02  -0.00    -0.00   0.03  -0.00    -0.00   0.00  -0.00
 117   6     0.00   0.00  -0.00     0.00   0.00  -0.00     0.00   0.00   0.00
 118   7     0.00  -0.00   0.00     0.00  -0.00   0.00     0.00  -0.00   0.00
 119   6     0.00   0.00  -0.00     0.00   0.00  -0.00     0.00   0.00  -0.00
 120   6    -0.00   0.00  -0.00    -0.00   0.00  -0.00    -0.00   0.00  -0.00
 121   7    -0.00  -0.00   0.00    -0.00  -0.00   0.00    -0.00  -0.00   0.00
 122   1    -0.02  -0.14   0.02    -0.03  -0.30   0.04    -0.02  -0.20   0.02
 123   1    -0.19  -0.02   0.00    -0.41  -0.05   0.01    -0.27  -0.03   0.00
 124   1    -0.16   0.02  -0.00    -0.36   0.04  -0.00    -0.24   0.03  -0.00
 125   1    -0.01   0.11  -0.01    -0.03   0.25  -0.03    -0.02   0.17  -0.02
 126   1     0.00   0.00  -0.00     0.00   0.01  -0.00     0.00   0.00  -0.00
 127   1     0.01   0.06  -0.01     0.01   0.07  -0.01     0.00   0.00  -0.00
 128   1     0.09   0.01  -0.00     0.10   0.01  -0.00     0.00   0.00  -0.00
 129   1     0.10  -0.01   0.00     0.12  -0.01   0.00     0.01  -0.00   0.00
 130   1     0.01  -0.07   0.01     0.01  -0.09   0.01     0.00  -0.01   0.00
 131   1     0.00  -0.00   0.00     0.00  -0.01   0.00     0.00  -0.00   0.00
 132  30     0.00   0.00   0.00     0.00   0.00   0.00    -0.00  -0.00  -0.00
 133   6    -0.00  -0.09   0.01    -0.00  -0.03   0.00     0.00   0.06  -0.01
 134   6    -0.11  -0.01   0.00    -0.04  -0.00   0.00     0.08   0.01  -0.00
 135   6    -0.00   0.00  -0.00    -0.00   0.00  -0.00     0.00  -0.00   0.00
 136   6    -0.00  -0.00   0.00    -0.00  -0.00   0.00     0.00   0.00  -0.00
 137   6    -0.00  -0.00   0.00    -0.00  -0.00   0.00     0.00   0.00  -0.00
 138   6    -0.09   0.01  -0.00    -0.04   0.00  -0.00     0.07  -0.01   0.00
 139   6    -0.00   0.07  -0.01    -0.00   0.03  -0.00     0.00  -0.05   0.01
 140   6     0.00   0.00  -0.00     0.00   0.00  -0.00    -0.00  -0.00   0.00
 141   7     0.00  -0.00   0.00     0.00  -0.00   0.00    -0.00   0.00  -0.00
 142   6    -0.00   0.00  -0.00    -0.00  -0.00   0.00     0.00  -0.00   0.00
 143   6    -0.00   0.00  -0.00     0.00  -0.00   0.00     0.00  -0.00   0.00
 144   6     0.00   0.06  -0.01    -0.00  -0.04   0.01    -0.00  -0.04   0.00
 145   6     0.09   0.01  -0.00    -0.06  -0.00   0.00    -0.05  -0.00   0.00
 146   6     0.00  -0.00   0.00    -0.00   0.00  -0.00    -0.00   0.00  -0.00
 147   7    -0.00  -0.00   0.00     0.00   0.00  -0.00     0.00   0.00  -0.00
 148   6     0.00  -0.00   0.00    -0.00  -0.00   0.00     0.00   0.00  -0.00
 149   6     0.00   0.00  -0.00    -0.00  -0.00   0.00    -0.00  -0.00   0.00
 150   6     0.09  -0.01   0.00    -0.05   0.00  -0.00    -0.05   0.00  -0.00
 151   6     0.00  -0.07   0.01    -0.00   0.04  -0.00    -0.00   0.04  -0.00
 152   6    -0.00  -0.00   0.00     0.00   0.00  -0.00     0.00   0.00  -0.00
 153   7    -0.00   0.00  -0.00     0.00  -0.00   0.00     0.00  -0.00   0.00
 154   6    -0.00  -0.00   0.00    -0.00   0.00  -0.00     0.00   0.00  -0.00
 155   6     0.00  -0.00   0.00     0.00  -0.00   0.00    -0.00   0.00  -0.00
 156   7     0.00   0.00  -0.00     0.00   0.00  -0.00    -0.00  -0.00   0.00
 157   1     0.03   0.28  -0.03     0.01   0.10  -0.01    -0.02  -0.20   0.02
 158   1     0.37   0.04  -0.00     0.14   0.02  -0.00    -0.26  -0.03   0.00
 159   1     0.30  -0.03   0.00     0.11  -0.01   0.00    -0.22   0.03  -0.00
 160   1     0.02  -0.22   0.03     0.01  -0.08   0.01    -0.02   0.16  -0.02
 161   1     0.00  -0.01   0.00    -0.00   0.00  -0.00     0.00   0.01  -0.00
 162   1    -0.02  -0.20   0.02     0.02   0.14  -0.02     0.01   0.13  -0.02
 163   1    -0.28  -0.03   0.00     0.19   0.02  -0.00     0.18   0.02  -0.00
 164   1    -0.28   0.03  -0.00     0.17  -0.02   0.00     0.18  -0.02   0.00
 165   1    -0.02   0.21  -0.02     0.01  -0.13   0.02     0.01  -0.13   0.02
 166   1    -0.00   0.01  -0.00    -0.00  -0.00   0.00     0.00  -0.01   0.00
 167  30     0.00  -0.00  -0.00    -0.00   0.00   0.00     0.00  -0.00   0.00
 168   6     0.00   0.02  -0.00    -0.00  -0.02   0.00     0.00   0.01  -0.00
 169   6     0.03   0.00  -0.00    -0.03  -0.00   0.00     0.01   0.00  -0.00
 170   6     0.00  -0.00   0.00    -0.00   0.00  -0.00     0.00  -0.00   0.00
 171   6     0.00   0.00  -0.00    -0.00  -0.00   0.00    -0.00   0.00  -0.00
 172   6     0.00   0.00  -0.00    -0.00  -0.00   0.00     0.00   0.00  -0.00
 173   6     0.03  -0.00   0.00    -0.03   0.00  -0.00     0.01  -0.00   0.00
 174   6     0.00  -0.02   0.00    -0.00   0.02  -0.00     0.00  -0.01   0.00
 175   6    -0.00  -0.00   0.00     0.00   0.00  -0.00    -0.00  -0.00  -0.00
 176   7    -0.00   0.00  -0.00     0.00  -0.00   0.00    -0.00   0.00  -0.00
 177   6    -0.00  -0.00   0.00     0.00   0.00  -0.00    -0.00  -0.00   0.00
 178   6     0.00  -0.00   0.00    -0.00   0.00  -0.00     0.00  -0.00   0.00
 179   6    -0.00  -0.05   0.01     0.00   0.06  -0.01    -0.01  -0.08   0.01
 180   6    -0.07  -0.01   0.00     0.08   0.01  -0.00    -0.11  -0.01   0.00
 181   6    -0.00   0.00  -0.00     0.00  -0.00   0.00    -0.00   0.00  -0.00
 182   7     0.00   0.00  -0.00    -0.00  -0.00   0.00     0.00   0.00  -0.00
 183   6    -0.00  -0.00   0.00     0.00  -0.00  -0.00    -0.00  -0.00   0.00
 184   6    -0.00  -0.00   0.00     0.00   0.00  -0.00    -0.00  -0.00   0.00
 185   6    -0.07   0.01  -0.00     0.08  -0.01   0.00    -0.11   0.01  -0.00
 186   6    -0.00   0.05  -0.01     0.00  -0.06   0.01    -0.00   0.08  -0.01
 187   6     0.00   0.00  -0.00    -0.00  -0.00   0.00     0.00   0.00  -0.00
 188   7     0.00  -0.00   0.00    -0.00   0.00  -0.00     0.00  -0.00   0.00
 189   6    -0.00   0.00  -0.00     0.00  -0.00   0.00    -0.00   0.00  -0.00
 190   6    -0.00   0.00  -0.00     0.00  -0.00   0.00    -0.00   0.00   0.00
 191   7    -0.00  -0.00   0.00     0.00   0.00  -0.00    -0.00  -0.00   0.00
 192   1    -0.01  -0.08   0.01     0.01   0.07  -0.01    -0.00  -0.03   0.00
 193   1    -0.10  -0.01   0.00     0.10   0.01  -0.00    -0.04  -0.00   0.00
 194   1    -0.09   0.01  -0.00     0.09  -0.01   0.00    -0.03   0.00  -0.00
 195   1    -0.01   0.07  -0.01     0.01  -0.07   0.01    -0.00   0.03  -0.00
 196   1    -0.00   0.00  -0.00     0.00  -0.00   0.00    -0.00   0.01  -0.00
 197   1     0.02   0.16  -0.02    -0.02  -0.20   0.02     0.03   0.27  -0.03
 198   1     0.23   0.03  -0.00    -0.27  -0.03   0.00     0.37   0.04  -0.00
 199   1     0.23  -0.03   0.00    -0.27   0.03  -0.00     0.37  -0.05   0.00
 200   1     0.02  -0.16   0.02    -0.02   0.19  -0.02     0.03  -0.26   0.03
 201   1    -0.00  -0.00   0.00     0.00   0.00  -0.00    -0.00  -0.01   0.00
