201
 energy: -351.166505146558 gnorm: 1.752632084263 xtb: 6.4.1 (bd6e46d)
Zn       22.80709700000000    0.03646900000000   -0.01143500000000
C        25.13608800000000   -3.11032400000000    1.31125400000000
C        26.05219500000000   -2.16611700000000    1.26097200000000
C        25.64101600000000   -1.11221300000000    0.33968000000000
C        26.25988600000000    0.01213300000000   -0.00673000000000
C        25.55584400000000    1.23208200000000   -0.37083500000000
C        25.88395500000000    2.19213700000000   -1.21830900000000
C        24.84917500000000    3.20842200000000   -1.23520700000000
C        23.91290700000000    2.83196000000000   -0.38831500000000
N        24.31489700000000    1.59894900000000    0.17550200000000
C        22.65183300000000    3.47695900000000   -0.00916300000000
C        21.55661500000000    2.84217700000000    0.34159700000000
C        20.48299000000000    3.16013300000000    1.31062500000000
C        19.64542700000001    2.16337900000000    1.23345900000000
C        20.08372400000000    1.15969600000000    0.25300700000000
N        21.18866300000000    1.59854900000000   -0.23128600000000
C        19.47289000000000   -0.09357500000000   -0.16054100000000
C        20.13705000000000   -1.19808100000000   -0.41496600000000
C        19.76320200000000   -2.26102300000000   -1.37249300000000
C        20.71194900000000   -3.15477900000000   -1.28347400000000
C        21.69767300000000   -2.71732900000000   -0.30059600000000
N        21.34462700000000   -1.57152400000000    0.19620100000000
C        22.92856000000000   -3.37339900000000    0.14512500000000
C        24.05160200000000   -2.72753800000000    0.41224600000000
N        24.38020200000000   -1.48009700000000   -0.18615800000000
H        25.19635000000000   -4.02010500000000    1.92880000000000
H        26.96852300000000   -2.20606600000000    1.83902000000000
H        26.81132000000000    2.20893200000000   -1.81945200000000
H        24.86607400000000    4.11311100000000   -1.84782800000000
H        22.60411000000000    4.57176200000000   -0.01294100000000
H        20.43016800000000    4.03885800000000    1.93561700000000
H        18.73379700000000    2.12770900000000    1.85078300000000
H        18.37463900000000   -0.09066400000000   -0.25981200000000
H        18.89434600000000   -2.31348800000000   -2.02144300000000
H        20.70910300000000   -4.07108700000000   -1.88223300000000
H        22.89307800000000   -4.46920100000000    0.25705000000000
Zn       88.86141300000000   -0.01090700000000   -0.01586800000000
C        86.53242200000000    2.83588500000000    1.86763700000000
C        85.61631500000000    1.91739600000000    1.64306300000000
C        86.02749400000000    1.05269900000000    0.54224900000000
C        85.40862400000000    0.01213300000000   -0.00673000000000
C        86.11266600000000   -1.11909100000000   -0.59083300000000
C        85.78455599999999   -1.90526300000000   -1.60170000000000
C        86.81933500000000   -2.90077200000000   -1.80684000000000
C        87.75560299999999   -2.68795600000000   -0.90481000000000
N        87.35361300000000   -1.58094400000000   -0.12203800000000
C        89.01667800000000   -3.39209700000000   -0.65189600000000
C        90.11189500000002   -2.83340400000000   -0.18946300000000
C        91.18552000000000   -3.32561000000000    0.70375900000000
C        92.02308300000001   -2.33184300000000    0.81284400000000
C        91.58478599999999   -1.16369400000000    0.03560900000000
N        90.47984800000000   -1.50508600000000   -0.52169100000000
C        92.19562100000000    0.14454100000000   -0.13826100000000
C        91.53146000000000    1.27707500000000   -0.18336700000000
C        91.90530900000000    2.49920000000000   -0.92708200000000
C        90.95656200000001    3.36092800000000   -0.67380400000000
C        89.97083800000000    2.74873300000000    0.21086000000000
N        90.32388400000001    1.53065400000000    0.48647000000000
C        88.73994999999999    3.31072700000000    0.77055400000000
C        87.61690800000000    2.62652300000000    0.91322200000000
N        87.28830800000000    1.51174800000000    0.09378700000000
H        86.47216000000000    3.61530900000000    2.64324100000000
H        84.69998800000000    1.84941500000000    2.21848900000000
H        84.85719000000000   -1.81024600000000   -2.19552400000000
H        86.80243600000000   -3.67610700000000   -2.57666000000000
H        89.06440000000001   -4.46719500000000   -0.85871000000000
H        91.23834200000000   -4.30502600000000    1.15488600000000
H        92.93471400000001   -2.41131500000000    1.42606900000000
H        93.29387100000000    0.16009700000000   -0.23634800000000
H        92.77416500000000    2.67114400000000   -1.55503500000000
H        90.95940800000001    4.37240900000000   -1.09218100000000
H        88.77543200000000    4.36674400000000    1.08382300000000
C        29.23189800000000    0.02326500000000   -0.00268900000000
C        30.44743100000000   -0.00207900000000   -0.01316800000000
C        31.86894800000000   -0.02350200000000   -0.01734400000000
C        33.07750900000000   -0.02571300000000   -0.01723900000000
C        34.49858500000000   -0.00675400000000   -0.01786600000000
C        35.70972700000000    0.02326500000000   -0.00268900000000
C        44.80707400000000    0.02326500000000   -0.00268900000000
C        46.02260600000000   -0.00207900000000   -0.01316800000000
C        47.44412300000000   -0.02350200000000   -0.01734400000000
C        48.65268500000000   -0.02571300000000   -0.01723900000000
C        50.07376000000000   -0.00675400000000   -0.01786600000000
C        51.28490200000001    0.02326500000000   -0.00268900000000
C        60.38224900000001    0.02326500000000   -0.00268900000000
C        61.59778200000000   -0.00207900000000   -0.01316800000000
C        63.01929900000000   -0.02350200000000   -0.01734400000000
C        64.22786100000000   -0.02571300000000   -0.01723900000000
C        65.64893600000001   -0.00675400000000   -0.01786600000000
C        66.86007800000000    0.02326500000000   -0.00268900000000
C        75.95742500000000    0.02326500000000   -0.00268900000000
C        77.17295799999999   -0.00207900000000   -0.01316800000000
C        78.59447500000000   -0.02350200000000   -0.01734400000000
C        79.80303600000001   -0.02571300000000   -0.01723900000000
C        81.22411100000001   -0.00675400000000   -0.01786600000000
C        82.43525400000000    0.02326500000000   -0.00268900000000
Zn       40.29831700000000    0.03488200000000    0.00213900000000
C        38.01850600000000   -3.22656600000000   -0.90752600000000
C        37.06229700000000   -2.32721500000000   -1.00955300000000
C        37.45467100000000   -1.16491000000000   -0.20703700000000
C        36.81955500000001   -0.01363800000000    0.00522900000000
C        37.50501200000000    1.26096200000000    0.23145900000000
C        37.16972200000001    2.33956200000000    0.93569900000000
C        38.19426300000000    3.35887800000000    0.84511700000000
C        39.14486000000000    2.86195400000000    0.07175300000000
N        38.76786600000000    1.54534900000000   -0.34439000000000
C        40.39200000000000    3.47365500000000   -0.34511300000000
C        41.49355100000000    2.80639800000000   -0.67688400000000
C        42.48709800000000    3.05838300000000   -1.71105400000000
C        43.38098100000000    2.09752400000000   -1.60957000000000
C        43.00128300000001    1.18564000000000   -0.50559300000000
N        41.90636800000000    1.63495900000000    0.00177400000000
C        43.65849000000000   -0.01363800000000    0.00522900000000
C        43.03507800000000   -1.08282000000000    0.46674600000000
C        43.41379100000001   -2.01493500000000    1.54222200000000
C        42.47312200000000   -2.92908100000000    1.62808800000000
C        41.46482100000000   -2.63330200000000    0.63066100000000
N        41.80259600000000   -1.57992500000000   -0.01863400000000
C        40.21242800000001   -3.34031000000000    0.29946700000000
C        39.09855100000000   -2.74361300000000   -0.04787400000000
N        38.71643900000000   -1.46085600000000    0.36980900000000
H        38.01885100000000   -4.21764000000000   -1.39876100000000
H        36.15376300000000   -2.44890900000000   -1.59070100000000
H        36.24486900000000    2.45791300000000    1.51262500000000
H        38.22155800000000    4.34804300000000    1.30176800000000
H        40.47794000000000    4.57103300000000   -0.40713600000000
H        42.51977000000000    3.86459900000000   -2.43787800000000
H        44.27404200000000    1.98455500000000   -2.24334400000000
H        44.32854100000000   -1.94052900000000    2.15239100000000
H        42.49216900000000   -3.74268900000000    2.33635500000000
H        40.25091200000000   -4.44026900000000    0.35850400000000
Zn       55.87349300000000    0.03488200000000    0.00213900000000
C        53.59368200000000   -3.22656600000000   -0.90752600000000
C        52.63747300000000   -2.32721500000000   -1.00955300000000
C        53.02984700000000   -1.16491000000000   -0.20703700000000
C        52.39473000000000   -0.01363800000000    0.00522900000000
C        53.08018700000000    1.26096200000000    0.23145900000000
C        52.74489700000000    2.33956200000000    0.93569900000000
C        53.76943800000000    3.35887800000000    0.84511700000000
C        54.72003600000000    2.86195400000000    0.07175300000000
N        54.34304200000000    1.54534900000000   -0.34439000000000
C        55.96717500000000    3.47365500000000   -0.34511300000000
C        57.06872700000000    2.80639800000000   -0.67688400000000
C        58.06227300000000    3.05838300000000   -1.71105400000000
C        58.95615700000000    2.09752400000000   -1.60957000000000
C        58.57645800000000    1.18564000000000   -0.50559300000000
N        57.48154300000001    1.63495900000000    0.00177400000000
C        59.23366500000000   -0.01363800000000    0.00522900000000
C        58.61025400000000   -1.08282000000000    0.46674600000000
C        58.98896700000001   -2.01493500000000    1.54222200000000
C        58.04829800000000   -2.92908100000000    1.62808800000000
C        57.03999700000000   -2.63330200000000    0.63066100000000
N        57.37777100000000   -1.57992500000000   -0.01863400000000
C        55.78760300000000   -3.34031000000000    0.29946700000000
C        54.67372700000000   -2.74361300000000   -0.04787400000000
N        54.29161500000000   -1.46085600000000    0.36980900000000
H        53.59402700000000   -4.21764000000000   -1.39876100000000
H        51.72893800000000   -2.44890900000000   -1.59070100000000
H        51.82004500000000    2.45791300000000    1.51262500000000
H        53.79673300000001    4.34804300000000    1.30176800000000
H        56.05311500000000    4.57103300000000   -0.40713600000000
H        58.09494600000000    3.86459900000000   -2.43787800000000
H        59.84921800000000    1.98455500000000   -2.24334400000000
H        59.90371700000000   -1.94052900000000    2.15239100000000
H        58.06734400000000   -3.74268900000000    2.33635500000000
H        55.82608800000000   -4.44026900000000    0.35850400000000
Zn       71.44866800000000    0.03488200000000    0.00213900000000
C        69.16885700000000   -3.22656600000000   -0.90752600000000
C        68.21264800000000   -2.32721500000000   -1.00955300000000
C        68.60502200000001   -1.16491000000000   -0.20703700000000
C        67.96990599999999   -0.01363800000000    0.00522900000000
C        68.65536300000001    1.26096200000000    0.23145900000000
C        68.32007299999999    2.33956200000000    0.93569900000000
C        69.34461400000001    3.35887800000000    0.84511700000000
C        70.29521099999999    2.86195400000000    0.07175300000000
N        69.91821700000000    1.54534900000000   -0.34439000000000
C        71.54235100000000    3.47365500000000   -0.34511300000000
C        72.64390200000000    2.80639800000000   -0.67688400000000
C        73.63744900000000    3.05838300000000   -1.71105400000000
C        74.53133200000001    2.09752400000000   -1.60957000000000
C        74.15163400000000    1.18564000000000   -0.50559300000000
N        73.05671900000000    1.63495900000000    0.00177400000000
C        74.80884100000000   -0.01363800000000    0.00522900000000
C        74.18543000000000   -1.08282000000000    0.46674600000000
C        74.56414200000000   -2.01493500000000    1.54222200000000
C        73.62347300000000   -2.92908100000000    1.62808800000000
C        72.61517200000000   -2.63330200000000    0.63066100000000
N        72.95294699999999   -1.57992500000000   -0.01863400000000
C        71.36277900000000   -3.34031000000000    0.29946700000000
C        70.24890200000000   -2.74361300000000   -0.04787400000000
N        69.86678999999999   -1.46085600000000    0.36980900000000
H        69.16920200000000   -4.21764000000000   -1.39876100000000
H        67.30411400000000   -2.44890900000000   -1.59070100000000
H        67.39522100000001    2.45791300000000    1.51262500000000
H        69.37190900000000    4.34804300000000    1.30176800000000
H        71.62829100000000    4.57103300000000   -0.40713600000000
H        73.67012099999999    3.86459900000000   -2.43787800000000
H        75.42439400000001    1.98455500000000   -2.24334400000000
H        75.47889200000000   -1.94052900000000    2.15239100000000
H        73.64252000000002   -3.74268900000000    2.33635500000000
H        71.40126300000000   -4.44026900000000    0.35850400000000
201
 energy: -351.832142550957 gnorm: 0.704190070939 xtb: 6.4.1 (bd6e46d)
Zn       22.81257704365281    0.03690525744009   -0.01085486306636
C        25.13418133914352   -3.11669525948745    1.30756100337199
C        26.06106102807842   -2.16443902657510    1.25981913753476
C        25.63762517722911   -1.11549149601194    0.34348948336103
C        26.24780317922023    0.02428433311617   -0.00940393807748
C        25.54883813557535    1.22598261037187   -0.36337129581382
C        25.89125420331453    2.21074431528748   -1.23157000208723
C        24.86909567189922    3.21018620708715   -1.24561644514421
C        23.90631372018578    2.81843825174847   -0.38103443263992
N        24.30262856559851    1.59026572732675    0.17815079857547
C        22.66443682424488    3.47868037725305   -0.01088241996964
C        21.54673034124907    2.83203750714299    0.34317229803733
C        20.48745148443771    3.16593358577580    1.30174403871050
C        19.62882961511363    2.15652876912903    1.23597520624717
C        20.07724626558004    1.16032811672413    0.26251016720589
N        21.20781093426826    1.59090079126235   -0.22581542695359
C        19.46494234301245   -0.07825926059626   -0.15599790171967
C        20.14065633267662   -1.20398314336305   -0.41859233812743
C        19.75749165181147   -2.25757635085862   -1.36568551220230
C        20.71808209677990   -3.16863366629969   -1.28228047393300
C        21.70462585105121   -2.72611798752240   -0.30469464019132
N        21.34700310298253   -1.55814868815896    0.18541576081251
C        22.91444403269691   -3.37839919163215    0.13997442206992
C        24.05848612953070   -2.71656095496829    0.41277050749180
N        24.37846699897464   -1.48157994568971   -0.17250479535611
H        25.19256416327826   -4.01671408488490    1.92468463771138
H        26.96995598981112   -2.20174775889610    1.83745253185060
H        26.80865831767196    2.21221397113044   -1.81908510819362
H        24.86851375296407    4.11099241583846   -1.84763492150443
H        22.61049269835159    4.56998875103900   -0.01022957423692
H        20.43316939209839    4.03793788017633    1.93324918676691
H        18.73327557902019    2.12352634068385    1.84928008295774
H        18.37655687687369   -0.08767169023422   -0.26190087044455
H        18.89563660564466   -2.30912052277540   -2.01808102861251
H        20.71398251800162   -4.07171990454974   -1.87998801905306
H        22.89119784565492   -4.46629484561176    0.25729213801108
Zn       88.85593726182607   -0.01143866853791   -0.01538198055803
C        86.53433706412510    2.84282627124331    1.86518993305155
C        85.60745518664429    1.91595822157149    1.64160222630208
C        86.03092091461285    1.05523028120537    0.54659431735967
C        85.42069851541837    0.00075318926262   -0.01160585136011
C        86.11968251244363   -1.11445933703874   -0.58237456963790
C        85.77726498886564   -1.92108129405788   -1.61816621658183
C        86.79941984497131   -2.90057675982845   -1.81738770035746
C        87.76219946705564   -2.67602860250002   -0.89514438910483
N        87.36586894176300   -1.57290693093010   -0.11783502346679
C        89.00406817868604   -3.39347512238679   -0.65390748245185
C        90.12178094238860   -2.82372683514123   -0.18602834246765
C        91.18105291344428   -3.32965839332942    0.69395525274164
C        92.03968351948170   -2.32557321746859    0.81658079440423
C        91.59127411181285   -1.16607310035531    0.04483098595866
N        90.46069180232070   -1.49859366039219   -0.51489804144363
C        92.20356999151076    0.12863903748285   -0.13663373984376
C        91.52784884826482    1.28355156824818   -0.18583914866517
C        91.91101552661358    2.49454328367860   -0.92103285331933
C        90.95042397494062    3.37432174851241   -0.67005467659495
C        89.96388417434966    2.75813630791534    0.20846149150272
N        90.32151463792248    1.51950822468768    0.47338972204499
C        88.75406903245988    3.31660472478958    0.76641760854810
C        87.61002763590308    2.61564087614878    0.91170428398276
N        87.29006955336239    1.51067908168299    0.10749475188060
H        86.47594752381428    3.61274177487706    2.63856946712392
H        84.69855587373246    1.84546220032029    2.21614433722434
H        84.85985408651011   -1.81353486817101   -2.19577812482063
H        86.79999840289540   -3.67406237618675   -2.57608035584287
H        89.05802018906846   -4.46595768121138   -0.85572489527316
H        91.23534029081925   -4.30368307632378    1.15272948048592
H        92.93523668141015   -2.40692600306135    1.42536771186169
H        93.29195451743908    0.15754367891807   -0.23895032439147
H        92.77287422883521    2.66622784253025   -1.55254090869495
H        90.95452809942219    4.37261578786811   -1.08985645777833
H        88.77731326779598    4.36384869340351    1.08352098428684
C        29.23111041287026    0.02310249706049   -0.00246326549189
C        30.45572880323139   -0.00237599488110   -0.01298863403426
C        31.85554805983368   -0.02302813765569   -0.01737031604681
C        33.08045190845154   -0.02517028943357   -0.01724040359744
C        34.44468068318502   -0.00695021232724   -0.01771108536364
C        35.63542631170452    0.03171468859368   -0.00441848967102
C        44.87181344830277    0.02978852749244   -0.00261984522027
C        46.06906846498543   -0.00254054296127   -0.01264721233295
C        47.43504913743307   -0.02290339557852   -0.01788114569957
C        48.65923956349756   -0.02512905356643   -0.01726726385202
C        50.01974511916820   -0.00696153659332   -0.01769641176337
C        51.21086319211435    0.03166545622210   -0.00463323931603
C        60.44695038919036    0.02979052314460   -0.00250170898245
C        61.64430739721764   -0.00252193554168   -0.01261221404027
C        63.01019569140423   -0.02291512475239   -0.01790409109416
C        64.23443396005698   -0.02512655940002   -0.01725959875157
C        65.59496986340906   -0.00694697896817   -0.01769889541847
C        66.78593308983992    0.03164946576801   -0.00469395995825
C        76.02275739215973    0.02991933599356   -0.00218486698453
C        77.21922939479448   -0.00231634175114   -0.01247830877300
C        78.58981920133745   -0.02288632246869   -0.01795935123501
C        79.81493525276420   -0.02522613021580   -0.01749387193807
C        81.21466328307193   -0.00718143337897   -0.01758119998529
C        82.43753043722165    0.02284722145292   -0.00241746943017
Zn       40.29387141204505    0.03624076582707    0.00152249831005
C        38.02197629689016   -3.23923131577017   -0.90487129412631
C        37.05860952905173   -2.32386752306790   -1.00535855731571
C        37.49013618447133   -1.18548372287928   -0.21008075112052
C        36.88749030732900   -0.00261757016920    0.00605949742686
C        37.53656380770760    1.26671913832551    0.22893042546639
C        37.16475580205802    2.35675130088619    0.94427819671424
C        38.17830426497408    3.36073446582564    0.85119972278373
C        39.15372584530684    2.85041225884166    0.06617618224553
N        38.78195936557469    1.54227890402192   -0.34016928299364
C        40.38231889344481    3.47602488297322   -0.34466142028190
C        41.50072310739812    2.79979836251597   -0.67806962821871
C        42.48757479241047    3.06441364454482   -1.70495860754361
C        43.39337049276672    2.08813164310091   -1.60876666851379
C        42.99259962056152    1.19094190648554   -0.51756125917301
N        41.88472124143264    1.63145837236545   -0.00382245042516
C        43.61186909022389   -0.00212921533488   -0.00116040169446
C        43.00716117880824   -1.10145673299637    0.47651896779945
C        43.42122624680097   -2.00950633891654    1.53685014331091
C        42.46806505359836   -2.94063414714080    1.62777394945893
C        41.45682580428637   -2.64401622655986    0.63749202548793
N        41.79547445580251   -1.56226152397390   -0.01617306409037
C        40.22837970273583   -3.34652600260307    0.30638271862748
C        39.08735414902186   -2.73571601085486   -0.05278488851695
N        38.72367123150620   -1.45965550132771    0.35612142940265
H        38.02101298626911   -4.21472518474763   -1.39643653569638
H        36.15459567063947   -2.44378325180530   -1.58830220492870
H        36.24572737435705    2.45871324516344    1.51217092461706
H        38.21712930402699    4.34484086342633    1.30235737763069
H        40.47071322407229    4.56814566812006   -0.40947478378635
H        42.51632235474376    3.86364978103695   -2.43432880692187
H        44.27266865011180    1.98164690017048   -2.24079642867229
H        44.32484293782936   -1.93779082860167    2.14789391813309
H        42.48876545379849   -3.74516550791203    2.33631720868155
H        40.25315896870371   -4.43830735471023    0.35727554944779
Zn       55.86889277799527    0.03616635235841    0.00154593908158
C        53.59675459616737   -3.23935795907993   -0.90479651966728
C        52.63393769426321   -2.32418698072349   -1.00543983831951
C        53.06541984478724   -1.18537856961126   -0.20918344051416
C        52.46259033614774   -0.00285754345407    0.00600350874433
C        53.11184422843472    1.26699952701344    0.22849043353051
C        52.74005929089687    2.35669868784339    0.94430993082891
C        53.75347004217237    3.36084017150593    0.85112570570784
C        54.72904623953467    2.85058397298210    0.06616497850913
N        54.35689451077238    1.54220475136422   -0.34020143162421
C        55.95734414741813    3.47597887075439   -0.34451447385112
C        57.07598983710695    2.79976333254223   -0.67807480886020
C        58.06267660555744    3.06440493890563   -1.70497485635549
C        58.96854283460465    2.08808169802125   -1.60878677640998
C        58.56765662410302    1.19100897225204   -0.51769783214208
N        57.45997209947649    1.63150622814437   -0.00382458666889
C        59.18706036601309   -0.00224170923985   -0.00106261871552
C        58.58258859127059   -1.10139557646901    0.47660961919921
C        58.99659491473314   -2.00949034378464    1.53671335760957
C        58.04308523104318   -2.94040692188201    1.62794425494995
C        57.03234374725319   -2.64360409454588    0.63767726544971
N        57.37047520401425   -1.56266865279653   -0.01620444669017
C        55.80291204337355   -3.34655722202301    0.30595554475884
C        54.66301879041968   -2.73605298146990   -0.05259243876920
N        54.29872831947811   -1.45925466760899    0.35612257434738
H        53.59614978412461   -4.21474905564670   -1.39646844750456
H        51.72980270985148   -2.44379347305025   -1.58833954608450
H        51.82090104773233    2.45870672578245    1.51214528691563
H        53.79230367129835    4.34486943914799    1.30236722632836
H        56.04588645634750    4.56813563488819   -0.40942635856702
H        58.09149620544525    3.86365089243762   -2.43432441777953
H        59.84784744152370    1.98164788295795   -2.24078629220823
H        59.90005504598338   -1.93779980474179    2.14787825887859
H        58.06392971918611   -3.74514451024492    2.33630109546443
H        55.82834713312917   -4.43831313367351    0.35695272896802
Zn       71.44393766996342    0.03616847298716    0.00155397584855
C        69.17171008095227   -3.23941496535900   -0.90474410536129
C        68.20917412919978   -2.32434912872911   -1.00547366590280
C        68.64061831395409   -1.18518777824284   -0.20905186742872
C        68.03782940674512   -0.00293776260242    0.00596410818117
C        68.68708522198551    1.26697736164387    0.22846700390933
C        68.31530523804678    2.35673587517512    0.94434596489198
C        69.32858253695323    3.36087741475777    0.85109138402601
C        70.30431296598657    2.85065555574371    0.06609551923203
N        69.93199841384748    1.54215778593002   -0.34016437439133
C        71.53238699304038    3.47598643697316   -0.34437928208229
C        72.65134193461796    2.79970828089662   -0.67800244087021
C        73.63778102020210    3.06438067221577   -1.70498100907350
C        74.54375501739641    2.08804159954861   -1.60882541004805
C        74.14267327095767    1.19059979601469   -0.51841482025932
N        73.03518062897132    1.63148605336184   -0.00384754723373
C        74.76196373653404   -0.00264784861256   -0.00093822008288
C        74.15802334371071   -1.10089088812618    0.47684352107209
C        74.57198134860066   -2.00968722878569    1.53662832564212
C        73.61828278146898   -2.94013151487681    1.62814042092072
C        72.60777039647165   -2.64315443073350    0.63762504425661
N        72.94526081422688   -1.56291367381006   -0.01602486849681
C        71.37773365566389   -3.34665250211983    0.30565661273285
C        70.23842427062424   -2.73618986772333   -0.05243401839656
N        69.87393002922681   -1.45906261716752    0.35610926908663
H        69.17131146977351   -4.21475415451974   -1.39648637167277
H        67.30499279174656   -2.44380535717032   -1.58836080581429
H        67.39608298008073    2.45871612336936    1.51214394507808
H        69.36747214332107    4.34488100489795    1.30237217231500
H        71.62105330862089    4.56813964547649   -0.40939970283944
H        73.66666599182784    3.86364442289793   -2.43431535607494
H        75.42303170043660    1.98165513195212   -2.24078440055633
H        75.47525968992396   -1.93784009768098    2.14789072890660
H        73.63910540760948   -3.74510151186827    2.33630314495008
H        71.40353939703982   -4.43833835292672    0.35674103495691
201
 energy: -352.097950663676 gnorm: 0.339419952040 xtb: 6.4.1 (bd6e46d)
Zn       22.82059316469855    0.03672298128906   -0.00932423089718
C        25.13395395569564   -3.12293990859332    1.29782329917402
C        26.07313279329422   -2.16381000918975    1.25528316610694
C        25.63129221623774   -1.11710464031124    0.35210616913679
C        26.21955949607599    0.04493587147316   -0.01250028391354
C        25.53585270110090    1.22309426358617   -0.35849507566886
C        25.89828356351273    2.23531835821340   -1.24275946322027
C        24.89619584065465    3.20925320275527   -1.25176811447084
C        23.90207366628117    2.79753325003306   -0.37454339799246
N        24.28233246153173    1.57558716961937    0.17444564481191
C        22.68265745836278    3.47321719685117   -0.01168656600063
C        21.54109189869588    2.81505918548953    0.34578462788293
C        20.49007850811929    3.16900003732008    1.28301439224794
C        19.60795981075071    2.15192916782043    1.23379983226372
C        20.07138000769158    1.16066343147762    0.27832403587169
N        21.23820487987936    1.57238712784658   -0.20448619255130
C        19.45793247959716   -0.05904796059349   -0.14896322763811
C        20.14512196295976   -1.20433034356993   -0.42613790460827
C        19.75345910700218   -2.25652473058007   -1.35069576509541
C        20.72242882619664   -3.18606361226457   -1.27501194712091
C        21.71307034451382   -2.73470110824041   -0.31291868710261
N        21.35576854574034   -1.53457839029903    0.15700976751838
C        22.89896856069809   -3.38048934981882    0.13270079765620
C        24.06191392682544   -2.70258314840500    0.41536076868021
N        24.37312760395716   -1.48145149163313   -0.14530210388183
H        25.18442558911017   -4.01174565294830    1.91561333163343
H        26.97539611841263   -2.19257471449472    1.83406396779809
H        26.80642690805363    2.21930293636001   -1.81982740277330
H        24.87356383574283    4.10716992032019   -1.84675968658617
H        22.62533107278928    4.56280429160106   -0.00684414267402
H        20.43958303170391    4.03432463856712    1.92502697096336
H        18.72835584128546    2.11488387766875    1.84724373152099
H        18.37867271588719   -0.08116599071517   -0.26413210265664
H        18.89885667905977   -2.30047902521042   -2.00915197736495
H        20.72419526147967   -4.07624349118093   -1.87544535185793
H        22.88856483858988   -4.46106101254055    0.25577274278314
Zn       88.84793127651322   -0.01153842822989   -0.01384894205574
C        86.53457582680218    2.85076885614577    1.85679104453201
C        85.59537926473669    1.91620408721418    1.63701856682974
C        86.03722371179973    1.05527998455527    0.55533425799434
C        85.44874859711045   -0.01884459429887   -0.01850099729434
C        86.13260780346481   -1.11249726597021   -0.57705097665970