 Entering Gaussian System
 *********************************************
 Gaussian 98:
 frequency output generated by the xtb code
 *********************************************
                         Standard orientation:
 --------------------------------------------------------------------
  Center     Atomic     Atomic              Coordinates (Angstroms)
  Number     Number      Type              X           Y           Z
 --------------------------------------------------------------------
    1         30             0       17.884035   -0.003362   -0.008702
    2          6             0       20.418060   -3.438211    0.022103
    3          6             0       21.371127   -2.475085    0.022645
    4          6             0       20.681494   -1.216484    0.011817
    5          6             0       21.319881    0.034786    0.006173
    6          6             0       20.654136    1.271521   -0.001816
    7          6             0       21.315763    2.545032   -0.005176
    8          6             0       20.341689    3.486883   -0.009833
    9          6             0       19.088730    2.786289   -0.010476
   10          7             0       19.310734    1.441614   -0.005713
   11          6             0       17.847564    3.400402   -0.015951
   12          6             0       16.620830    2.757602   -0.020814
   13          6             0       15.347504    3.425233   -0.029999
   14          6             0       14.400828    2.458060   -0.035836
   15          6             0       15.095117    1.198643   -0.029696
   16          7             0       16.436962    1.411220   -0.020350
   17          6             0       14.476784   -0.041090   -0.033047
   18          6             0       15.122359   -1.266818   -0.026057
   19          6             0       14.456076   -2.541339   -0.028733
   20          6             0       15.423911   -3.487281   -0.018558
   21          6             0       16.682155   -2.791595   -0.009653
   22          7             0       16.468575   -1.449611   -0.014865
   23          6             0       17.922745   -3.407082    0.002745
   24          6             0       19.150032   -2.765599    0.010149
   25          7             0       19.342243   -1.416347    0.005027
   26          1             0       20.547005   -4.503306    0.028860
   27          1             0       22.437999   -2.588754    0.030245
   28          1             0       22.379945    2.682096   -0.003359
   29          1             0       20.447032    4.554716   -0.013036
   30          1             0       17.836465    4.481528   -0.017978
   31          1             0       15.215142    4.490219   -0.031919
   32          1             0       13.333348    2.567802   -0.043723
   33          1             0       13.395869   -0.053087   -0.041491
   34          1             0       13.391279   -2.674701   -0.037146
   35          1             0       15.315231   -4.554931   -0.017104
   36          1             0       17.935533   -4.488181    0.006342
   37         30             0       65.891517    0.029807   -0.008073
   38          6             0       63.365267    3.409968    0.634067
   39          6             0       62.410126    2.464970    0.459130
   40          6             0       63.096944    1.226905    0.224408
   41          6             0       62.455798   -0.002164   -0.001848
   42          6             0       63.118628   -1.219400   -0.229353
   43          6             0       62.454084   -2.470243   -0.460764
   44          6             0       63.426047   -3.397459   -0.638115
   45          6             0       64.680579   -2.710666   -0.514786
   46          7             0       64.461635   -1.388721   -0.266083
   47          6             0       65.920353   -3.315925   -0.634616
   48          6             0       67.148498   -2.685518   -0.523769
   49          6             0       68.420313   -3.343060   -0.655324
   50          6             0       69.369187   -2.393570   -0.482873
   51          6             0       68.677758   -1.155099   -0.245542
   52          7             0       67.335422   -1.362487   -0.276410
   53          6             0       69.298923    0.062347   -0.019215
   54          6             0       68.656149    1.267645    0.211674
   55          6             0       69.325351    2.519173    0.444408
   56          6             0       68.359653    3.450142    0.624230
   57          6             0       67.099774    2.768303    0.501361
   58          7             0       67.310326    1.449178    0.252165
   59          6             0       65.860549    3.375178    0.620038
   60          6             0       64.631858    2.746794    0.505695
   61          7             0       64.436698    1.421024    0.257203
   62          1             0       63.238554    4.457041    0.831399
   63          1             0       61.343455    2.578431    0.483648
   64          1             0       61.389625   -2.603258   -0.482001
   65          1             0       63.318455   -4.446789   -0.834488
   66          1             0       65.929009   -4.378603   -0.833595
   67          1             0       68.550205   -4.389834   -0.852994
   68          1             0       70.436417   -2.502535   -0.510332
   69          1             0       70.379881    0.072740   -0.023105
   70          1             0       70.390486    2.648730    0.463988
   71          1             0       68.470806    4.499203    0.821288
   72          1             0       65.850185    4.437656    0.820004
   73          6             0       22.717345    0.049211    0.006063
   74          6             0       23.937209    0.058845    0.005705
   75          6             0       25.273221    0.066546   -0.000189
   76          6             0       26.497620    0.067739    0.000470
   77          6             0       27.833513    0.068485   -0.003072
   78          6             0       29.053609    0.065712   -0.003927
   79          6             0       38.719828    0.041367   -0.024660
   80          6             0       39.940027    0.039040   -0.025826
   81          6             0       41.275566    0.036640   -0.025689
   82          6             0       42.500059    0.034526   -0.025657
   83          6             0       43.835600    0.031724   -0.022670
   84          6             0       45.055821    0.030733   -0.021945
   85          6             0       54.721904   -0.014119   -0.015636
   86          6             0       55.941943   -0.021720   -0.010133
   87          6             0       57.277924   -0.024080   -0.006053
   88          6             0       58.502179   -0.025302   -0.000597
   89          6             0       59.838291   -0.021183   -0.000768
   90          6             0       61.058198   -0.013504   -0.001887
   91         30             0       33.886935    0.053251   -0.015710
   92          6             0       31.384723   -3.378568    0.393188
   93          6             0       30.422859   -2.430135    0.283877
   94          6             0       31.100926   -1.174495    0.135379
   95          6             0       30.450436    0.062589   -0.007351
   96          6             0       31.106506    1.296277   -0.153102
   97          6             0       30.434484    2.555506   -0.298267
   98          6             0       31.400905    3.498751   -0.412199
   99          6             0       32.658635    2.812634   -0.335723
  100          7             0       32.448277    1.475135   -0.178430
  101          6             0       33.894963    3.431028   -0.410671
  102          6             0       35.128256    2.806450   -0.339478
  103          6             0       36.389211    3.486018   -0.419144
  104          6             0       37.351031    2.537488   -0.310214
  105          6             0       36.672898    1.281592   -0.164814
  106          7             0       35.332137    1.467528   -0.184754
  107          6             0       37.323284    0.044241   -0.023596
  108          6             0       36.667256   -1.189776    0.120213
  109          6             0       37.339373   -2.449107    0.263509
  110          6             0       36.373062   -3.392495    0.377284
  111          6             0       35.115353   -2.706301    0.302967
  112          7             0       35.325643   -1.368600    0.146265
  113          6             0       33.879072   -3.324186    0.380387
  114          6             0       32.645708   -2.699246    0.310886
  115          7             0       32.441804   -1.360604    0.154421
  116          1             0       31.265664   -4.437603    0.517519
  117          1             0       29.357020   -2.552122    0.300149
  118          1             0       29.369268    2.683293   -0.309482
  119          1             0       31.287049    4.558404   -0.536133
  120          1             0       33.897439    4.504959   -0.536197
  121          1             0       36.508277    4.545254   -0.541389
  122          1             0       38.416834    2.659602   -0.324904
  123          1             0       38.404544   -2.576912    0.273317
  124          1             0       36.487111   -4.452277    0.499854
  125          1             0       33.876446   -4.398045    0.506595
  126         30             0       49.888636    0.008711   -0.018239
  127          6             0       47.378051   -3.417768    0.386420
  128          6             0       46.418574   -2.466916    0.277203
  129          6             0       47.099708   -1.213221    0.127493
  130          6             0       46.452364    0.024967   -0.019875
  131          6             0       47.111409    1.257057   -0.166473
  132          6             0       46.442278    2.517080   -0.318037
  133          6             0       47.410877    3.458869   -0.425382
  134          6             0       48.666937    2.770992   -0.339765
  135          7             0       48.453440    1.433746   -0.183683
  136          6             0       49.904718    3.387218   -0.405907
  137          6             0       51.136555    2.759950   -0.330072
  138          6             0       52.399217    3.437026   -0.405429
  139          6             0       53.358800    2.486228   -0.296682
  140          6             0       52.677674    1.231425   -0.155172
  141          7             0       51.337191    1.420410   -0.177474
  142          6             0       53.324969   -0.007803   -0.017532
  143          6             0       52.665910   -1.240865    0.119477
  144          6             0       53.334932   -2.502049    0.261701
  145          6             0       52.366282   -3.443565    0.370808
  146          6             0       51.110211   -2.754388    0.295083
  147          7             0       51.323718   -1.416929    0.141697
  148          6             0       49.872391   -3.369708    0.370425
  149          6             0       48.640668   -2.741732    0.302636
  150          7             0       48.440020   -1.402485    0.146368
  151          1             0       47.256378   -4.476411    0.511709
  152          1             0       45.352499   -2.586145    0.294950
  153          1             0       45.377393    2.646214   -0.337419
  154          1             0       47.299474    4.518529   -0.550882
  155          1             0       49.910045    4.461373   -0.529443
  156          1             0       52.520861    4.496211   -0.525683
  157          1             0       54.424935    2.606050   -0.309982
  158          1             0       54.399844   -2.632148    0.274762
  159          1             0       52.477695   -4.503868    0.491609
  160          1             0       49.867246   -4.443808    0.494438
 --------------------------------------------------------------------
     1 basis functions        1 primitive gaussians
     1 alpha electrons        1 beta electrons

 Harmonic frequencies (cm**-1), IR intensities (km*mol⁻¹),
 Raman scattering activities (A**4/amu), Raman depolarization ratios,
 reduced masses (AMU), force constants (mDyne/A) and normal coordinates:
                      1                      2                      3
                        a                      a                      a 
 Frequencies --    -1.9026                -0.2740                 2.5519
 Red. masses --    19.1649                20.0595                11.9798
 Frc consts  --     0.0000                 0.0000                 0.0000
 IR Inten    --     1.2715                 2.4293                 0.0027
 Raman Activ --     0.0000                 0.0000                 0.0000
 Depolar     --     0.0000                 0.0000                 0.0000
 Atom AN      X      Y      Z        X      Y      Z        X      Y      Z
   1  30    -0.00   0.20   0.01     0.00  -0.01   0.20    -0.00   0.01   0.03
   2   6    -0.04   0.05   0.00     0.00  -0.00   0.05    -0.01  -0.00  -0.21
   3   6    -0.03   0.04   0.00     0.00  -0.00   0.04    -0.01  -0.01  -0.16
   4   6    -0.02   0.05   0.00     0.00  -0.00   0.05    -0.00  -0.00  -0.08
   5   6    -0.00   0.04   0.00     0.00  -0.00   0.05    -0.00  -0.00  -0.01
   6   6     0.02   0.05   0.00    -0.00  -0.00   0.06     0.00  -0.00   0.07
   7   6     0.03   0.04   0.00    -0.00  -0.00   0.05     0.01  -0.00   0.15
   8   6     0.04   0.06   0.00    -0.00  -0.00   0.06     0.01  -0.00   0.21
   9   6     0.03   0.07   0.00    -0.00  -0.00   0.08     0.01   0.00   0.18
  10   7     0.02   0.07   0.00    -0.00  -0.00   0.08     0.00   0.00   0.10
  11   6     0.04   0.09   0.00    -0.00  -0.00   0.09     0.01   0.00   0.22
  12   6     0.03   0.10   0.01    -0.00  -0.00   0.11     0.01   0.01   0.19
  13   6     0.04   0.12   0.01    -0.00  -0.00   0.12     0.01   0.01   0.24
  14   6     0.03   0.13   0.01    -0.00  -0.01   0.13     0.00   0.01   0.19
  15   6     0.01   0.12   0.01    -0.00  -0.00   0.12     0.00   0.01   0.10
  16   7     0.02   0.11   0.01    -0.00  -0.00   0.11     0.00   0.01   0.12
  17   6    -0.00   0.13   0.01    -0.00  -0.01   0.12    -0.00   0.01   0.03
  18   6    -0.02   0.12   0.01     0.00  -0.00   0.12    -0.00   0.01  -0.05
  19   6    -0.03   0.13   0.01     0.00  -0.01   0.12    -0.01   0.01  -0.13
  20   6    -0.04   0.12   0.01     0.00  -0.00   0.11    -0.01   0.01  -0.19
  21   6    -0.04   0.10   0.01     0.00  -0.00   0.10    -0.01   0.01  -0.15
  22   7    -0.02   0.11   0.01     0.00  -0.00   0.11    -0.00   0.01  -0.08
  23   6    -0.04   0.09   0.01     0.00  -0.00   0.08    -0.01   0.00  -0.20
  24   6    -0.04   0.07   0.00     0.00  -0.00   0.07    -0.01   0.00  -0.17
  25   7    -0.02   0.07   0.00     0.00  -0.00   0.07    -0.00  -0.00  -0.09
  26   1    -0.02   0.02   0.00     0.00  -0.00   0.01    -0.00  -0.00  -0.08
  27   1    -0.01   0.01   0.00     0.00  -0.00   0.01    -0.00  -0.00  -0.05
  28   1     0.01   0.01   0.00    -0.00  -0.00   0.01     0.00  -0.00   0.04
  29   1     0.02   0.02   0.00    -0.00  -0.00   0.02     0.00  -0.00   0.08
  30   1     0.02   0.03   0.00    -0.00  -0.00   0.03     0.00   0.00   0.08
  31   1     0.02   0.03   0.00    -0.00  -0.00   0.04     0.00   0.00   0.09
  32   1     0.01   0.04   0.00    -0.00  -0.00   0.04     0.00   0.00   0.06
  33   1    -0.00   0.04   0.00    -0.00  -0.00   0.04    -0.00   0.00   0.01
  34   1    -0.01   0.04   0.00     0.00  -0.00   0.04    -0.00   0.00  -0.04
  35   1    -0.02   0.03   0.00     0.00  -0.00   0.03    -0.00   0.00  -0.07
  36   1    -0.02   0.02   0.00     0.00  -0.00   0.02    -0.00   0.00  -0.08
  37  30    -0.00   0.20   0.01    -0.00  -0.01   0.21     0.00  -0.01  -0.03
  38   6    -0.04   0.05   0.00    -0.01  -0.00   0.06     0.01   0.02  -0.10
  39   6    -0.03   0.04   0.00    -0.00  -0.00   0.04     0.01   0.02  -0.07
  40   6    -0.02   0.05   0.00    -0.00  -0.00   0.05     0.00   0.01  -0.03
  41   6     0.00   0.04   0.00    -0.00  -0.00   0.04    -0.00   0.00   0.01
  42   6     0.02   0.05   0.00     0.00  -0.00   0.05    -0.00  -0.01   0.04
  43   6     0.03   0.04   0.00     0.00  -0.00   0.04    -0.01  -0.01   0.08
  44   6     0.04   0.06   0.00     0.00  -0.00   0.06    -0.01  -0.02   0.10
  45   6     0.03   0.07   0.00     0.00  -0.00   0.07    -0.01  -0.02   0.08
  46   7     0.02   0.07   0.00     0.00  -0.00   0.08    -0.00  -0.01   0.04
  47   6     0.04   0.09   0.00     0.00  -0.00   0.09    -0.01  -0.02   0.09
  48   6     0.03   0.10   0.00     0.00  -0.01   0.11    -0.01  -0.02   0.06
  49   6     0.04   0.12   0.01     0.01  -0.01   0.12    -0.01  -0.03   0.08
  50   6     0.03   0.13   0.01     0.00  -0.01   0.14    -0.01  -0.02   0.04
  51   6     0.01   0.12   0.01     0.00  -0.01   0.13    -0.00  -0.02   0.01
  52   7     0.02   0.11   0.00     0.00  -0.01   0.12    -0.00  -0.02   0.02
  53   6    -0.00   0.13   0.01     0.00  -0.01   0.14     0.00  -0.01  -0.03
  54   6    -0.02   0.12   0.00    -0.00  -0.01   0.13     0.00  -0.00  -0.07
  55   6    -0.03   0.13   0.00    -0.00  -0.01   0.14     0.01   0.00  -0.11
  56   6    -0.04   0.12   0.00    -0.01  -0.01   0.13     0.01   0.01  -0.13
  57   6    -0.03   0.10   0.00    -0.00  -0.01   0.11     0.01   0.01  -0.10
  58   7    -0.02   0.11   0.00    -0.00  -0.01   0.12     0.00   0.00  -0.07
  59   6    -0.04   0.09   0.00    -0.01  -0.01   0.09     0.01   0.02  -0.11
  60   6    -0.03   0.07   0.00    -0.00  -0.00   0.07     0.01   0.01  -0.09
  61   7    -0.02   0.07   0.00    -0.00  -0.00   0.08     0.00   0.01  -0.05
  62   1    -0.02   0.02  -0.00    -0.00  -0.00   0.02     0.00   0.01  -0.04
  63   1    -0.01   0.01   0.00    -0.00  -0.00   0.01     0.00   0.01  -0.02
  64   1     0.01   0.01   0.00     0.00   0.00   0.01    -0.00  -0.00   0.03
  65   1     0.02   0.02   0.00     0.00  -0.00   0.02    -0.00  -0.01   0.04
  66   1     0.02   0.03   0.00     0.00  -0.00   0.03    -0.00  -0.01   0.03
  67   1     0.02   0.03   0.00     0.00  -0.00   0.04    -0.00  -0.01   0.03
  68   1     0.01   0.04   0.00     0.00  -0.00   0.04    -0.00  -0.01   0.01
  69   1    -0.00   0.04   0.00     0.00  -0.00   0.04     0.00  -0.00  -0.01
  70   1    -0.01   0.04   0.00    -0.00  -0.00   0.04     0.00   0.00  -0.03
  71   1    -0.02   0.03   0.00    -0.00  -0.00   0.04     0.00   0.00  -0.05
  72   1    -0.02   0.03   0.00    -0.00  -0.00   0.03     0.00   0.01  -0.04
  73   6     0.00   0.02   0.00     0.00  -0.00   0.03     0.00  -0.01  -0.01
  74   6     0.00   0.01   0.00     0.00  -0.00   0.02     0.00  -0.01  -0.02
  75   6     0.00  -0.01  -0.00     0.00   0.00   0.00     0.00  -0.01  -0.02
  76   6     0.00  -0.02  -0.00     0.00   0.00  -0.01     0.00  -0.01  -0.03
  77   6     0.00  -0.03  -0.00     0.00   0.00  -0.02     0.00  -0.01  -0.03
  78   6     0.00  -0.04  -0.00     0.00   0.00  -0.03     0.00  -0.01  -0.03
  79   6     0.00  -0.10  -0.00    -0.00   0.01  -0.10     0.00  -0.00  -0.02
  80   6     0.00  -0.11  -0.00    -0.00   0.01  -0.10     0.00  -0.00  -0.01
  81   6     0.00  -0.11  -0.00    -0.00   0.01  -0.10     0.00  -0.00  -0.00
  82   6     0.00  -0.11  -0.00    -0.00   0.01  -0.11     0.00   0.00   0.00
  83   6     0.00  -0.11  -0.00    -0.00   0.01  -0.11     0.00   0.00   0.01
  84   6     0.00  -0.10  -0.00    -0.00   0.01  -0.10     0.00   0.01   0.01
  85   6     0.00  -0.04   0.00    -0.00   0.00  -0.05    -0.00   0.01   0.03
  86   6     0.00  -0.03   0.00    -0.00   0.00  -0.03    -0.00   0.01   0.03
  87   6     0.00  -0.02   0.00    -0.00   0.00  -0.02    -0.00   0.01   0.03
  88   6     0.00  -0.01   0.00    -0.00   0.00  -0.01    -0.00   0.01   0.02
  89   6     0.00   0.01   0.00    -0.00   0.00   0.01    -0.00   0.01   0.02
  90   6     0.00   0.03   0.00    -0.00   0.00   0.03    -0.00   0.00   0.01
  91  30     0.00  -0.17  -0.01     0.00   0.01  -0.17     0.00  -0.02  -0.07
  92   6    -0.02  -0.06  -0.01     0.00   0.00  -0.06     0.00  -0.01  -0.04
  93   6    -0.02  -0.05  -0.00     0.00   0.00  -0.05     0.00  -0.01  -0.04
  94   6    -0.01  -0.06  -0.00     0.00   0.00  -0.05     0.00  -0.01  -0.04
  95   6     0.00  -0.05  -0.00     0.00   0.00  -0.05     0.00  -0.01  -0.03
  96   6     0.01  -0.06  -0.01    -0.00   0.00  -0.05    -0.00  -0.01  -0.03
  97   6     0.02  -0.05  -0.01    -0.00   0.00  -0.05    -0.00  -0.01  -0.03
  98   6     0.02  -0.06  -0.01    -0.00   0.00  -0.06    -0.00  -0.01  -0.03
  99   6     0.02  -0.07  -0.01    -0.00   0.00  -0.07    -0.00  -0.01  -0.03
 100   7     0.01  -0.07  -0.01    -0.00   0.00  -0.07    -0.00  -0.01  -0.03
 101   6     0.02  -0.07  -0.01    -0.00   0.00  -0.07    -0.00  -0.01  -0.03
 102   6     0.02  -0.08  -0.01    -0.00   0.00  -0.08    -0.00  -0.01  -0.03
 103   6     0.02  -0.09  -0.01    -0.00   0.00  -0.09    -0.00  -0.01  -0.02
 104   6     0.02  -0.10  -0.01    -0.00   0.00  -0.09    -0.00  -0.01  -0.02
 105   6     0.01  -0.09  -0.01    -0.00   0.00  -0.09    -0.00  -0.01  -0.02
 106   7     0.01  -0.09  -0.01    -0.00   0.00  -0.09    -0.00  -0.01  -0.03
 107   6     0.00  -0.10  -0.01    -0.00   0.00  -0.09     0.00  -0.01  -0.02
 108   6    -0.01  -0.09  -0.01     0.00   0.00  -0.09     0.00  -0.01  -0.02
 109   6    -0.02  -0.10  -0.01     0.00   0.00  -0.09     0.00  -0.01  -0.02
 110   6    -0.02  -0.09  -0.01     0.00   0.00  -0.09     0.00  -0.01  -0.03
 111   6    -0.02  -0.08  -0.01     0.00   0.00  -0.08     0.00  -0.01  -0.03
 112   7    -0.01  -0.09  -0.01     0.00   0.00  -0.09     0.00  -0.01  -0.03
 113   6    -0.02  -0.07  -0.01     0.00   0.00  -0.07     0.00  -0.01  -0.04
 114   6    -0.02  -0.07  -0.01     0.00   0.00  -0.06     0.00  -0.01  -0.04
 115   7    -0.01  -0.07  -0.01     0.00   0.00  -0.07     0.00  -0.01  -0.04
 116   1    -0.01  -0.02  -0.00     0.00   0.00  -0.02     0.00  -0.00  -0.01
 117   1    -0.00  -0.01  -0.00     0.00   0.00  -0.01     0.00  -0.00  -0.01
 118   1     0.00  -0.01  -0.00    -0.00   0.00  -0.01    -0.00  -0.00  -0.01
 119   1     0.01  -0.02  -0.00    -0.00   0.00  -0.02    -0.00  -0.00  -0.01
 120   1     0.01  -0.02  -0.00    -0.00   0.00  -0.02    -0.00  -0.00  -0.01
 121   1     0.01  -0.03  -0.00    -0.00   0.00  -0.03    -0.00  -0.00  -0.01
 122   1     0.00  -0.03  -0.00    -0.00   0.00  -0.03    -0.00  -0.00  -0.01
 123   1    -0.00  -0.03  -0.00     0.00   0.00  -0.03     0.00  -0.00  -0.01
 124   1    -0.01  -0.03  -0.00     0.00   0.00  -0.03     0.00  -0.00  -0.01
 125   1    -0.01  -0.02  -0.00     0.00   0.00  -0.02     0.00  -0.00  -0.01
 126  30     0.00  -0.17  -0.01    -0.00   0.01  -0.19     0.00   0.02   0.07
 127   6     0.02  -0.09  -0.01    -0.00   0.01  -0.09     0.00   0.02   0.14
 128   6     0.02  -0.10  -0.01    -0.00   0.01  -0.10     0.00   0.02   0.10
 129   6     0.01  -0.09  -0.00    -0.00   0.01  -0.10     0.00   0.01   0.06
 130   6     0.00  -0.10  -0.00    -0.00   0.01  -0.10     0.00   0.01   0.02
 131   6    -0.01  -0.09  -0.00     0.00   0.00  -0.10    -0.00   0.00  -0.02
 132   6    -0.02  -0.10  -0.00     0.00   0.00  -0.11    -0.00  -0.00  -0.06
 133   6    -0.02  -0.09   0.00     0.00   0.00  -0.10    -0.00  -0.01  -0.09
 134   6    -0.02  -0.08  -0.00     0.00   0.00  -0.10    -0.00  -0.00  -0.06
 135   7    -0.01  -0.09  -0.00     0.00   0.00  -0.10    -0.00   0.00  -0.02
 136   6    -0.02  -0.07   0.00     0.00   0.00  -0.09    -0.00  -0.00  -0.08
 137   6    -0.02  -0.07   0.00     0.00   0.00  -0.08    -0.00   0.00  -0.06
 138   6    -0.02  -0.06   0.00     0.00   0.00  -0.07    -0.00  -0.00  -0.08
 139   6    -0.02  -0.05   0.00     0.00   0.00  -0.07    -0.00   0.00  -0.05
 140   6    -0.01  -0.06   0.00     0.00   0.00  -0.07    -0.00   0.01  -0.01
 141   7    -0.01  -0.07  -0.00     0.00   0.00  -0.08    -0.00   0.01  -0.01
 142   6     0.00  -0.05  -0.00    -0.00   0.00  -0.06    -0.00   0.01   0.03
 143   6     0.01  -0.06  -0.00    -0.00   0.00  -0.06     0.00   0.02   0.08
 144   6     0.02  -0.05  -0.00    -0.00   0.00  -0.06     0.00   0.02   0.12
 145   6     0.02  -0.06  -0.00    -0.00   0.00  -0.06     0.00   0.02   0.15
 146   6     0.02  -0.07  -0.00    -0.00   0.00  -0.07     0.00   0.02   0.12
 147   7     0.01  -0.07  -0.00    -0.00   0.00  -0.08     0.00   0.02   0.09
 148   6     0.02  -0.07  -0.01    -0.00   0.00  -0.08     0.00   0.02   0.14
 149   6     0.02  -0.08  -0.01    -0.00   0.00  -0.09     0.00   0.02   0.12
 150   7     0.01  -0.09  -0.00    -0.00   0.00  -0.10     0.00   0.02   0.08
 151   1     0.01  -0.03  -0.00    -0.00   0.00  -0.03     0.00   0.01   0.05
 152   1     0.00  -0.03  -0.00    -0.00   0.00  -0.03     0.00   0.00   0.03
 153   1    -0.00  -0.03  -0.00     0.00   0.00  -0.03    -0.00  -0.00  -0.02
 154   1    -0.01  -0.03   0.00     0.00   0.00  -0.03    -0.00  -0.00  -0.03
 155   1    -0.01  -0.02   0.00     0.00   0.00  -0.03    -0.00  -0.00  -0.03
 156   1    -0.01  -0.02   0.00     0.00   0.00  -0.02    -0.00  -0.00  -0.03
 157   1    -0.00  -0.01   0.00     0.00   0.00  -0.02    -0.00   0.00  -0.01
 158   1     0.00  -0.01  -0.00    -0.00   0.00  -0.01     0.00   0.01   0.04
 159   1     0.01  -0.02  -0.00    -0.00   0.00  -0.02     0.00   0.01   0.05
 160   1     0.01  -0.02  -0.00    -0.00   0.00  -0.02     0.00   0.01   0.05
                      4                      5                      6
                        a                      a                      a 
 Frequencies --     2.6537                 3.5440                 3.8535
 Red. masses --    18.2990                16.7656                11.2840
 Frc consts  --     0.0000                 0.0000                 0.0000
 IR Inten    --     0.0040                 0.3360                 0.0269
 Raman Activ --     0.0000                 0.0000                 0.0000
 Depolar     --     0.0000                 0.0000                 0.0000
 Atom AN      X      Y      Z        X      Y      Z        X      Y      Z
   1  30    -0.00   0.03   0.10    -0.00   0.08  -0.04     0.00  -0.01   0.00
   2   6    -0.02  -0.01   0.07    -0.07  -0.02  -0.00     0.01   0.00  -0.06
   3   6    -0.02  -0.01   0.03    -0.05  -0.04   0.01     0.00   0.00  -0.04
   4   6    -0.01  -0.01   0.02    -0.03  -0.02   0.00     0.00   0.00  -0.02
   5   6    -0.00  -0.01  -0.01    -0.00  -0.04   0.01     0.00   0.00  -0.00
   6   6     0.01  -0.01  -0.03     0.03  -0.02   0.01    -0.00   0.00   0.02
   7   6     0.02  -0.01  -0.06     0.05  -0.04   0.01    -0.00   0.00   0.04
   8   6     0.02  -0.01  -0.07     0.07  -0.02   0.01    -0.01   0.00   0.06
   9   6     0.02   0.00  -0.03     0.06   0.01  -0.00    -0.00  -0.00   0.05
  10   7     0.01   0.00  -0.01     0.03   0.00  -0.00    -0.00   0.00   0.03
  11   6     0.02   0.01  -0.03     0.07   0.03  -0.01    -0.01  -0.00   0.06
  12   6     0.02   0.02   0.01     0.06   0.06  -0.02    -0.00  -0.00   0.05
  13   6     0.02   0.03   0.01     0.07   0.09  -0.03    -0.01  -0.01   0.06
  14   6     0.02   0.03   0.05     0.05   0.11  -0.04    -0.00  -0.01   0.05
  15   6     0.01   0.03   0.06     0.02   0.09  -0.04    -0.00  -0.01   0.02
  16   7     0.01   0.02   0.04     0.03   0.07  -0.03    -0.00  -0.00   0.03
  17   6    -0.00   0.03   0.10    -0.00   0.10  -0.05     0.00  -0.01   0.00
  18   6    -0.01   0.03   0.11    -0.03   0.09  -0.04     0.00  -0.01  -0.02
  19   6    -0.02   0.03   0.15    -0.05   0.11  -0.05     0.00  -0.01  -0.04
  20   6    -0.02   0.03   0.15    -0.07   0.09  -0.04     0.01  -0.01  -0.06
  21   6    -0.02   0.02   0.12    -0.06   0.06  -0.03     0.01  -0.00  -0.05
  22   7    -0.01   0.02   0.10    -0.03   0.07  -0.03     0.00  -0.01  -0.03
  23   6    -0.02   0.01   0.11    -0.07   0.03  -0.02     0.01  -0.00  -0.06
  24   6    -0.02   0.00   0.08    -0.06   0.01  -0.01     0.01  -0.00  -0.05
  25   7    -0.01   0.00   0.05    -0.03   0.00  -0.01     0.00  -0.00  -0.03
  26   1    -0.01  -0.00   0.03    -0.03  -0.01  -0.00     0.00   0.00  -0.02
  27   1    -0.01  -0.01   0.01    -0.02  -0.02   0.00     0.00   0.00  -0.01
  28   1     0.01  -0.01  -0.02     0.02  -0.02   0.01    -0.00   0.00   0.01
  29   1     0.01  -0.00  -0.03     0.03  -0.01   0.00    -0.00   0.00   0.02
  30   1     0.01   0.00  -0.01     0.03   0.01  -0.00    -0.00  -0.00   0.02
  31   1     0.01   0.01  -0.00     0.03   0.03  -0.01    -0.00  -0.00   0.02
  32   1     0.00   0.01   0.02     0.02   0.04  -0.01    -0.00  -0.00   0.01
  33   1    -0.00   0.01   0.03    -0.00   0.04  -0.02     0.00  -0.00   0.00
  34   1    -0.01   0.01   0.05    -0.02   0.04  -0.02     0.00  -0.00  -0.01
  35   1    -0.01   0.01   0.05    -0.03   0.03  -0.01     0.00  -0.00  -0.02
  36   1    -0.01   0.00   0.04    -0.03   0.01  -0.01     0.00  -0.00  -0.02
  37  30     0.00  -0.03  -0.07     0.00  -0.08   0.03    -0.00   0.01  -0.01
  38   6     0.03  -0.00   0.04     0.06   0.01   0.01    -0.01  -0.04   0.18
  39   6     0.03   0.01   0.05     0.05   0.03  -0.00    -0.00  -0.03   0.13
  40   6     0.01   0.00   0.02     0.02   0.02  -0.00    -0.00  -0.01   0.07
  41   6     0.00   0.01   0.02     0.00   0.04  -0.01    -0.00  -0.00   0.00
  42   6    -0.01   0.01  -0.00    -0.02   0.02  -0.01     0.00   0.01  -0.07
  43   6    -0.02   0.01  -0.00    -0.05   0.04  -0.02     0.00   0.02  -0.13
  44   6    -0.03   0.01  -0.03    -0.06   0.02  -0.02     0.00   0.03  -0.18
  45   6    -0.03  -0.00  -0.04    -0.05  -0.01  -0.01     0.00   0.03  -0.15
  46   7    -0.01  -0.00  -0.02    -0.03  -0.00  -0.00     0.00   0.02  -0.08
  47   6    -0.03  -0.01  -0.06    -0.06  -0.03  -0.00     0.00   0.04  -0.18
  48   6    -0.03  -0.02  -0.08    -0.05  -0.06   0.01     0.00   0.03  -0.15
  49   6    -0.03  -0.03  -0.10    -0.06  -0.08   0.02     0.00   0.04  -0.19
  50   6    -0.02  -0.03  -0.11    -0.04  -0.10   0.03     0.00   0.03  -0.14
  51   6    -0.01  -0.03  -0.09    -0.02  -0.09   0.03     0.00   0.02  -0.07
  52   7    -0.01  -0.02  -0.07    -0.03  -0.07   0.02     0.00   0.02  -0.09
  53   6     0.00  -0.04  -0.09     0.00  -0.10   0.04    -0.00   0.01  -0.01
  54   6     0.01  -0.04  -0.07     0.02  -0.09   0.04    -0.00  -0.00   0.06
  55   6     0.03  -0.04  -0.06     0.05  -0.10   0.05    -0.00  -0.02   0.13
  56   6     0.03  -0.04  -0.04     0.06  -0.09   0.05    -0.01  -0.03   0.18
  57   6     0.03  -0.03  -0.03     0.05  -0.06   0.03    -0.00  -0.02   0.14
  58   7     0.02  -0.03  -0.04     0.03  -0.07   0.03    -0.00  -0.01   0.08
  59   6     0.03  -0.02   0.00     0.06  -0.04   0.03    -0.01  -0.03   0.18
  60   6     0.03  -0.01   0.01     0.05  -0.01   0.02    -0.00  -0.03   0.15
  61   7     0.02  -0.01   0.00     0.03  -0.01   0.01    -0.00  -0.01   0.08
  62   1     0.01  -0.00   0.02     0.02   0.00   0.00    -0.00  -0.01   0.07
  63   1     0.01   0.00   0.02     0.01   0.02  -0.00    -0.00  -0.01   0.04
  64   1    -0.01   0.01   0.00    -0.01   0.02  -0.01     0.00   0.01  -0.04
  65   1    -0.01   0.00  -0.01    -0.02   0.01  -0.01     0.00   0.01  -0.07
  66   1    -0.01  -0.00  -0.02    -0.02  -0.01  -0.00     0.00   0.01  -0.07
  67   1    -0.01  -0.01  -0.03    -0.02  -0.02   0.00     0.00   0.02  -0.07
  68   1    -0.01  -0.01  -0.04    -0.01  -0.04   0.01     0.00   0.01  -0.04
  69   1     0.00  -0.01  -0.03     0.00  -0.04   0.01    -0.00   0.00  -0.00
  70   1     0.01  -0.01  -0.02     0.01  -0.04   0.02    -0.00  -0.00   0.04
  71   1     0.01  -0.01  -0.01     0.02  -0.03   0.02    -0.00  -0.01   0.07
  72   1     0.01  -0.01   0.00     0.02  -0.01   0.01    -0.00  -0.01   0.07
  73   6    -0.00  -0.02  -0.03    -0.00  -0.07   0.02     0.00   0.01  -0.00
  74   6    -0.00  -0.03  -0.05    -0.00  -0.09   0.03     0.00   0.01  -0.00
  75   6    -0.00  -0.03  -0.07    -0.00  -0.10   0.03     0.00   0.01  -0.00
  76   6    -0.00  -0.04  -0.08    -0.00  -0.11   0.04     0.00   0.01  -0.00
  77   6    -0.00  -0.04  -0.09    -0.00  -0.12   0.04     0.00   0.01  -0.00
  78   6    -0.00  -0.04  -0.10    -0.00  -0.12   0.05     0.00   0.01  -0.00
  79   6     0.00  -0.01  -0.05    -0.00  -0.04   0.02    -0.00   0.00  -0.00
  80   6     0.00  -0.01  -0.04    -0.00  -0.02   0.01    -0.00   0.00   0.00
  81   6     0.00  -0.00  -0.02    -0.00  -0.01   0.01    -0.00  -0.00   0.00
  82   6     0.00   0.01   0.00    -0.00   0.01  -0.00    -0.00  -0.00   0.00
  83   6     0.00   0.01   0.02     0.00   0.03  -0.01    -0.00  -0.00   0.00
  84   6     0.00   0.02   0.04     0.00   0.04  -0.02    -0.00  -0.00   0.00
  85   6     0.00   0.04   0.10     0.00   0.11  -0.04    -0.00  -0.01   0.00
  86   6     0.00   0.04   0.09     0.00   0.11  -0.04    -0.00  -0.01   0.00
  87   6     0.00   0.04   0.08     0.00   0.11  -0.04     0.00  -0.01   0.00
  88   6     0.00   0.03   0.07     0.00   0.10  -0.03     0.00  -0.01   0.00
  89   6     0.00   0.03   0.06     0.00   0.08  -0.03     0.00  -0.01   0.00
  90   6     0.00   0.02   0.04     0.00   0.06  -0.02     0.00  -0.01   0.00
  91  30    -0.00  -0.07  -0.23    -0.00  -0.18   0.09     0.00   0.01  -0.01
  92   6     0.01  -0.04  -0.11     0.03  -0.10   0.06    -0.00   0.03   0.18
  93   6     0.01  -0.04  -0.11     0.02  -0.11   0.06    -0.00   0.02   0.13
  94   6     0.00  -0.04  -0.11     0.01  -0.10   0.05    -0.00   0.02   0.06
  95   6    -0.00  -0.04  -0.10    -0.00  -0.11   0.04     0.00   0.01  -0.00
  96   6    -0.00  -0.04  -0.11    -0.01  -0.10   0.04     0.00   0.00  -0.07
  97   6    -0.01  -0.04  -0.11    -0.02  -0.11   0.04     0.00  -0.01  -0.13
  98   6    -0.01  -0.04  -0.11    -0.03  -0.10   0.03     0.00  -0.01  -0.19
  99   6    -0.01  -0.03  -0.11    -0.02  -0.09   0.03     0.00  -0.01  -0.15
 100   7    -0.00  -0.04  -0.11    -0.01  -0.10   0.04     0.00  -0.00  -0.08
 101   6    -0.01  -0.03  -0.10    -0.03  -0.08   0.03     0.00  -0.02  -0.18
 102   6    -0.01  -0.03  -0.09    -0.02  -0.07   0.02     0.00  -0.01  -0.15
 103   6    -0.01  -0.02  -0.09    -0.03  -0.06   0.02     0.00  -0.02  -0.19
 104   6    -0.01  -0.02  -0.07    -0.02  -0.05   0.02     0.00  -0.01  -0.13
 105   6    -0.00  -0.02  -0.08    -0.01  -0.06   0.03     0.00  -0.00  -0.07
 106   7    -0.00  -0.03  -0.10    -0.01  -0.07   0.03     0.00  -0.00  -0.08
 107   6     0.00  -0.02  -0.07    -0.00  -0.05   0.03    -0.00   0.00  -0.00
 108   6     0.00  -0.02  -0.08     0.01  -0.05   0.04    -0.00   0.01   0.06
 109   6     0.01  -0.02  -0.08     0.02  -0.05   0.04    -0.00   0.02   0.13
 110   6     0.01  -0.02  -0.09     0.03  -0.06   0.05    -0.00   0.03   0.18
 111   6     0.01  -0.03  -0.09     0.02  -0.07   0.05    -0.00   0.02   0.14
 112   7     0.00  -0.03  -0.10     0.01  -0.07   0.04    -0.00   0.01   0.08
 113   6     0.01  -0.03  -0.10     0.03  -0.08   0.05    -0.00   0.03   0.18
 114   6     0.01  -0.03  -0.11     0.02  -0.09   0.05    -0.00   0.02   0.14
 115   7     0.00  -0.04  -0.11     0.01  -0.10   0.05    -0.00   0.02   0.08
 116   1     0.00  -0.01  -0.03     0.01  -0.03   0.02    -0.00   0.01   0.07
 117   1     0.00  -0.01  -0.03     0.01  -0.03   0.02    -0.00   0.01   0.04
 118   1    -0.00  -0.01  -0.03    -0.01  -0.03   0.01     0.00  -0.00  -0.04
 119   1    -0.00  -0.01  -0.03    -0.01  -0.03   0.01     0.00  -0.01  -0.07
 120   1    -0.00  -0.01  -0.03    -0.01  -0.02   0.01     0.00  -0.01  -0.07
 121   1    -0.00  -0.01  -0.03    -0.01  -0.02   0.00     0.00  -0.01  -0.07
 122   1    -0.00  -0.00  -0.02    -0.01  -0.01   0.00     0.00  -0.00  -0.04
 123   1     0.00  -0.00  -0.02     0.01  -0.01   0.01    -0.00   0.01   0.04
 124   1     0.00  -0.01  -0.03     0.01  -0.02   0.01    -0.00   0.01   0.07
 125   1     0.00  -0.01  -0.03     0.01  -0.02   0.02    -0.00   0.01   0.07
 126  30     0.00   0.07   0.21     0.00   0.18  -0.08    -0.00  -0.02   0.01
 127   6     0.01   0.02   0.03     0.03   0.06  -0.02    -0.00   0.00   0.07
 128   6     0.00   0.02   0.03     0.02   0.05  -0.02    -0.00   0.00   0.05
 129   6     0.00   0.02   0.05     0.01   0.06  -0.02    -0.00  -0.00   0.03
 130   6     0.00   0.02   0.06     0.00   0.05  -0.02    -0.00  -0.00   0.00
 131   6    -0.00   0.03   0.08    -0.01   0.06  -0.03     0.00  -0.01  -0.02
 132   6    -0.00   0.03   0.09    -0.02   0.05  -0.03     0.00  -0.01  -0.04
 133   6    -0.01   0.03   0.11    -0.03   0.06  -0.04     0.00  -0.01  -0.06
 134   6    -0.01   0.03   0.12    -0.02   0.07  -0.04     0.00  -0.01  -0.05
 135   7    -0.00   0.03   0.10    -0.01   0.07  -0.04     0.00  -0.01  -0.02
 136   6    -0.01   0.04   0.13    -0.03   0.08  -0.05     0.00  -0.01  -0.06
 137   6    -0.00   0.04   0.13    -0.02   0.09  -0.05     0.00  -0.01  -0.05
 138   6    -0.01   0.04   0.15    -0.03   0.10  -0.05     0.00  -0.02  -0.06
 139   6    -0.00   0.04   0.13    -0.02   0.10  -0.05     0.00  -0.01  -0.04
 140   6    -0.00   0.04   0.12    -0.01   0.10  -0.04     0.00  -0.01  -0.02
 141   7    -0.00   0.04   0.12    -0.01   0.10  -0.05     0.00  -0.01  -0.02
 142   6     0.00   0.04   0.10     0.00   0.10  -0.04    -0.00  -0.01   0.00
 143   6     0.00   0.04   0.09     0.01   0.10  -0.04    -0.00  -0.01   0.03
 144   6     0.00   0.04   0.08     0.02   0.10  -0.04    -0.00  -0.00   0.05
 145   6     0.01   0.04   0.07     0.03   0.10  -0.03    -0.00  -0.00   0.07
 146   6     0.01   0.03   0.07     0.02   0.09  -0.03    -0.00  -0.00   0.06
 147   7     0.00   0.04   0.09     0.01   0.10  -0.04    -0.00  -0.00   0.03
 148   6     0.01   0.03   0.06     0.03   0.08  -0.03    -0.00   0.00   0.07
 149   6     0.01   0.03   0.05     0.02   0.07  -0.02    -0.00   0.00   0.06
 150   7     0.00   0.03   0.07     0.01   0.07  -0.03    -0.00  -0.00   0.03
 151   1     0.00   0.01   0.01     0.01   0.02  -0.00    -0.00   0.00   0.03
 152   1     0.00   0.00   0.01     0.01   0.01  -0.00    -0.00   0.00   0.02
 153   1    -0.00   0.01   0.02    -0.01   0.01  -0.01     0.00  -0.00  -0.01
 154   1    -0.00   0.01   0.04    -0.01   0.02  -0.01     0.00  -0.00  -0.02
 155   1    -0.00   0.01   0.04    -0.01   0.02  -0.01     0.00  -0.00  -0.02
 156   1    -0.00   0.01   0.05    -0.01   0.03  -0.02     0.00  -0.01  -0.02
 157   1    -0.00   0.01   0.04    -0.01   0.03  -0.02     0.00  -0.00  -0.01
 158   1     0.00   0.01   0.02     0.01   0.03  -0.01    -0.00  -0.00   0.01
 159   1     0.00   0.01   0.02     0.01   0.03  -0.01    -0.00   0.00   0.03
 160   1     0.00   0.01   0.01     0.01   0.02  -0.01    -0.00   0.00   0.03
                      7                      8                      9
                        a                      a                      a 
 Frequencies --     4.5234                 7.2942                 7.9321
 Red. masses --    11.2426                11.5788                11.6708
 Frc consts  --     0.0000                 0.0000                 0.0000
 IR Inten    --     0.0015                 0.4274                 0.1222
 Raman Activ --     0.0000                 0.0000                 0.0000
 Depolar     --     0.0000                 0.0000                 0.0000
 Atom AN      X      Y      Z        X      Y      Z        X      Y      Z
   1  30    -0.00  -0.00   0.00    -0.00   0.00   0.00     0.00   0.00  -0.01
   2   6     0.00  -0.00  -0.06    -0.08  -0.06   0.00     0.00   0.00   0.08
   3   6     0.00  -0.00  -0.04    -0.06  -0.08   0.00     0.00   0.00   0.11
   4   6     0.00  -0.00  -0.02    -0.03  -0.07   0.00     0.00   0.00   0.09
   5   6     0.00  -0.00   0.00     0.00  -0.08   0.00     0.00   0.00   0.10
   6   6    -0.00  -0.00   0.02     0.03  -0.07  -0.00     0.00   0.00   0.09
   7   6    -0.00  -0.00   0.04     0.06  -0.08  -0.00    -0.00   0.00   0.11
   8   6    -0.00  -0.00   0.06     0.08  -0.06  -0.00    -0.00   0.00   0.08
   9   6    -0.00  -0.00   0.05     0.07  -0.03  -0.00    -0.00   0.00   0.04
  10   7    -0.00  -0.00   0.03     0.04  -0.04  -0.00     0.00   0.00   0.05
  11   6    -0.00  -0.00   0.06     0.08   0.00  -0.00    -0.00   0.00   0.00
  12   6    -0.00  -0.00   0.05     0.07   0.03  -0.00     0.00  -0.00  -0.05
  13   6    -0.00  -0.00   0.06     0.08   0.06  -0.00     0.00  -0.00  -0.09
  14   6    -0.00  -0.00   0.04     0.06   0.09  -0.00     0.00  -0.00  -0.13
  15   6    -0.00  -0.00   0.02     0.03   0.07  -0.00     0.00  -0.00  -0.11
  16   7    -0.00  -0.00   0.03     0.04   0.04  -0.00     0.00  -0.00  -0.06
  17   6     0.00  -0.00  -0.00    -0.00   0.08  -0.00     0.00  -0.00  -0.13
  18   6     0.00  -0.00  -0.02    -0.03   0.07   0.00     0.00  -0.00  -0.11
  19   6     0.00  -0.00  -0.04    -0.06   0.08   0.00     0.00  -0.00  -0.13
  20   6     0.00  -0.00  -0.06    -0.08   0.06   0.00     0.00  -0.00  -0.09
  21   6     0.00  -0.00  -0.05    -0.07   0.03   0.00     0.00  -0.00  -0.05
  22   7     0.00  -0.00  -0.03    -0.04   0.04   0.00     0.00  -0.00  -0.06
  23   6     0.00  -0.00  -0.06    -0.08   0.00   0.00     0.00   0.00   0.00
  24   6     0.00  -0.00  -0.05    -0.07  -0.03   0.00     0.00   0.00   0.04
  25   7     0.00  -0.00  -0.03    -0.04  -0.04   0.00     0.00   0.00   0.05
  26   1     0.00  -0.00  -0.02    -0.03  -0.02   0.00     0.00   0.00   0.03
  27   1     0.00  -0.00  -0.01    -0.02  -0.03   0.00     0.00   0.00   0.04
  28   1    -0.00  -0.00   0.01     0.02  -0.03  -0.00    -0.00   0.00   0.04
  29   1    -0.00  -0.00   0.02     0.03  -0.02  -0.00    -0.00   0.00   0.03
  30   1    -0.00  -0.00   0.02     0.03   0.00  -0.00    -0.00   0.00   0.00
  31   1    -0.00  -0.00   0.02     0.03   0.02  -0.00    -0.00  -0.00  -0.03
  32   1    -0.00  -0.00   0.01     0.02   0.03  -0.00     0.00  -0.00  -0.05
  33   1     0.00  -0.00  -0.00    -0.00   0.03  -0.00     0.00  -0.00  -0.05
  34   1     0.00  -0.00  -0.01    -0.02   0.03   0.00     0.00  -0.00  -0.05
  35   1     0.00  -0.00  -0.02    -0.03   0.02   0.00     0.00  -0.00  -0.03
  36   1     0.00  -0.00  -0.02    -0.03   0.00   0.00     0.00   0.00   0.00
  37  30    -0.00  -0.00   0.00    -0.00   0.01  -0.00    -0.00   0.00  -0.01
  38   6     0.00   0.02  -0.10    -0.08  -0.06   0.00     0.02  -0.00   0.09
  39   6     0.00   0.01  -0.07    -0.06  -0.08   0.00     0.01  -0.00   0.12
  40   6     0.00   0.01  -0.04    -0.03  -0.07   0.00     0.01  -0.00   0.09
  41   6    -0.00   0.00  -0.00    -0.00  -0.08   0.00    -0.00  -0.00   0.11
  42   6    -0.00  -0.01   0.04     0.03  -0.07   0.00    -0.01  -0.00   0.09
  43   6    -0.00  -0.01   0.07     0.06  -0.08   0.00    -0.01  -0.00   0.12
  44   6    -0.00  -0.02   0.10     0.08  -0.06   0.00    -0.02  -0.00   0.09
  45   6    -0.00  -0.02   0.08     0.07  -0.03   0.00    -0.01  -0.00   0.04
  46   7    -0.00  -0.01   0.04     0.04  -0.03   0.00    -0.01  -0.00   0.05
  47   6    -0.00  -0.02   0.10     0.08   0.00  -0.00    -0.02   0.00   0.00
  48   6    -0.00  -0.02   0.08     0.07   0.03  -0.00    -0.02   0.00  -0.05
  49   6    -0.00  -0.02   0.10     0.08   0.07  -0.00    -0.02   0.01  -0.09
  50   6    -0.00  -0.02   0.08     0.06   0.09  -0.01    -0.01   0.01  -0.13
  51   6    -0.00  -0.01   0.04     0.03   0.07  -0.00    -0.01   0.01  -0.11
  52   7    -0.00  -0.01   0.05     0.04   0.04  -0.00    -0.01   0.00  -0.06
  53   6     0.00  -0.00   0.00    -0.00   0.09  -0.01    -0.00   0.01  -0.13
  54   6     0.00   0.00  -0.03    -0.03   0.07  -0.00     0.01   0.01  -0.11
  55   6     0.00   0.01  -0.07    -0.06   0.09  -0.01     0.01   0.01  -0.13
  56   6     0.00   0.02  -0.10    -0.09   0.06  -0.00     0.02   0.01  -0.09
  57   6     0.00   0.01  -0.08    -0.07   0.03  -0.00     0.01   0.00  -0.04
  58   7     0.00   0.01  -0.04    -0.04   0.04  -0.00     0.01   0.00  -0.06
  59   6     0.00   0.02  -0.10    -0.08   0.00  -0.00     0.02   0.00   0.00
  60   6     0.00   0.01  -0.08    -0.07  -0.03   0.00     0.01  -0.00   0.05
  61   7     0.00   0.01  -0.04    -0.04  -0.04  -0.00     0.01  -0.00   0.05
  62   1     0.00   0.01  -0.04    -0.03  -0.02   0.00     0.01  -0.00   0.03
  63   1     0.00   0.00  -0.02    -0.02  -0.03   0.00     0.00  -0.00   0.04
  64   1    -0.00  -0.00   0.02     0.02  -0.03   0.00    -0.00  -0.00   0.04
  65   1    -0.00  -0.01   0.04     0.03  -0.02   0.00    -0.01  -0.00   0.03
  66   1    -0.00  -0.01   0.04     0.03   0.00  -0.00    -0.01   0.00   0.00
  67   1    -0.00  -0.01   0.04     0.03   0.02  -0.00    -0.01   0.00  -0.03
  68   1    -0.00  -0.01   0.02     0.02   0.03  -0.00    -0.00   0.00  -0.05
  69   1     0.00  -0.00   0.00    -0.00   0.03  -0.00    -0.00   0.00  -0.05
  70   1     0.00   0.00  -0.02    -0.02   0.03  -0.00     0.00   0.00  -0.05
  71   1     0.00   0.01  -0.04    -0.03   0.02  -0.00     0.01   0.00  -0.03
  72   1     0.00   0.01  -0.04    -0.03   0.00  -0.00     0.01   0.00   0.00
  73   6     0.00  -0.00   0.00     0.00  -0.11   0.00     0.00   0.00   0.13
  74   6     0.00  -0.00   0.00     0.00  -0.13   0.00     0.00   0.00   0.15
  75   6     0.00  -0.00   0.00     0.00  -0.14   0.00     0.00   0.00   0.15
  76   6     0.00  -0.00   0.00     0.00  -0.13   0.00     0.00   0.00   0.15
  77   6     0.00   0.00   0.00     0.00  -0.12   0.00     0.00   0.00   0.14
  78   6     0.00   0.00   0.00     0.00  -0.10   0.00     0.00   0.00   0.12
  79   6    -0.00   0.00  -0.00     0.00   0.12  -0.00    -0.00  -0.00  -0.13
  80   6    -0.00   0.00  -0.00     0.00   0.14  -0.00    -0.00  -0.00  -0.14
  81   6    -0.00   0.00  -0.00     0.00   0.15  -0.00    -0.00  -0.00  -0.15
  82   6    -0.00   0.00  -0.00     0.00   0.15  -0.00    -0.00  -0.00  -0.15
  83   6    -0.00   0.00  -0.00     0.00   0.14  -0.00    -0.00  -0.00  -0.15
  84   6    -0.00   0.00  -0.00     0.00   0.12   0.00    -0.00  -0.00  -0.13
  85   6     0.00   0.00  -0.00     0.00  -0.11   0.00    -0.00  -0.00   0.12
  86   6     0.00   0.00  -0.00     0.00  -0.13   0.00    -0.00   0.00   0.14
  87   6     0.00   0.00  -0.00     0.00  -0.14   0.00    -0.00   0.00   0.15
  88   6     0.00   0.00  -0.00     0.00  -0.14  -0.00    -0.00   0.00   0.16
  89   6    -0.00   0.00  -0.00    -0.00  -0.13  -0.00    -0.00   0.00   0.15
  90   6    -0.00   0.00  -0.00    -0.00  -0.11  -0.00    -0.00   0.00   0.14
  91  30     0.00   0.00   0.00     0.00   0.02  -0.00     0.00   0.00  -0.01
  92   6     0.00   0.02   0.16     0.08  -0.05   0.00     0.01   0.00   0.07
  93   6     0.00   0.01   0.11     0.06  -0.07   0.00     0.01   0.00   0.09
  94   6     0.00   0.01   0.06     0.03  -0.06  -0.00     0.00   0.00   0.07
  95   6     0.00   0.00   0.00     0.00  -0.07  -0.00     0.00   0.00   0.09
  96   6    -0.00  -0.01  -0.05    -0.03  -0.06  -0.00    -0.00   0.00   0.07
  97   6    -0.00  -0.01  -0.11    -0.06  -0.07  -0.00    -0.01   0.00   0.09
  98   6    -0.00  -0.02  -0.15    -0.08  -0.05  -0.00    -0.01   0.00   0.06
  99   6    -0.00  -0.01  -0.12    -0.06  -0.02  -0.00    -0.01   0.00   0.03
 100   7    -0.00  -0.01  -0.07    -0.03  -0.03  -0.00    -0.00   0.00   0.04
 101   6    -0.00  -0.02  -0.15    -0.08   0.01  -0.00    -0.01   0.00  -0.01
 102   6    -0.00  -0.01  -0.12    -0.06   0.04  -0.00    -0.01  -0.00  -0.04
 103   6    -0.00  -0.02  -0.15    -0.08   0.07  -0.00    -0.01  -0.00  -0.08
 104   6    -0.00  -0.01  -0.11    -0.06   0.09  -0.00    -0.01  -0.00  -0.10
 105   6    -0.00  -0.01  -0.05    -0.03   0.08  -0.00    -0.00  -0.00  -0.08
 106   7    -0.00  -0.01  -0.07    -0.03   0.05  -0.00    -0.00  -0.00  -0.05
 107   6    -0.00   0.00  -0.00     0.00   0.09  -0.00    -0.00  -0.00  -0.10
 108   6    -0.00   0.01   0.05     0.03   0.08  -0.00     0.00  -0.00  -0.08
 109   6     0.00   0.01   0.11     0.06   0.09   0.00     0.01  -0.00  -0.10
 110   6     0.00   0.02   0.15     0.08   0.07   0.00     0.01  -0.00  -0.08
 111   6     0.00   0.01   0.12     0.07   0.04   0.00     0.01  -0.00  -0.04
 112   7     0.00   0.01   0.07     0.04   0.05  -0.00     0.00  -0.00  -0.05
 113   6     0.00   0.02   0.15     0.08   0.01   0.00     0.01   0.00  -0.01
 114   6     0.00   0.01   0.12     0.07  -0.02   0.00     0.01   0.00   0.03
 115   7     0.00   0.01   0.07     0.04  -0.03  -0.00     0.00   0.00   0.04
 116   1     0.00   0.01   0.06     0.03  -0.01   0.00     0.00   0.00   0.02
 117   1     0.00   0.00   0.03     0.02  -0.03   0.00     0.00   0.00   0.04
 118   1    -0.00  -0.00  -0.03    -0.02  -0.03  -0.00    -0.00   0.00   0.03
 119   1    -0.00  -0.01  -0.06    -0.03  -0.01  -0.00    -0.00   0.00   0.02
 120   1    -0.00  -0.01  -0.06    -0.03   0.00  -0.00    -0.00   0.00  -0.00
 121   1    -0.00  -0.01  -0.06    -0.03   0.02  -0.00    -0.00  -0.00  -0.02
 122   1    -0.00  -0.00  -0.03    -0.02   0.03  -0.00    -0.00  -0.00  -0.04
 123   1     0.00   0.00   0.03     0.02   0.03   0.00     0.00  -0.00  -0.04
 124   1     0.00   0.01   0.06     0.03   0.02   0.00     0.00  -0.00  -0.02
 125   1     0.00   0.01   0.06     0.03   0.00   0.00     0.00   0.00  -0.00
 126  30     0.00   0.00  -0.00     0.00   0.01   0.01    -0.00  -0.01  -0.02
 127   6     0.00  -0.02  -0.20    -0.08   0.07   0.00    -0.01  -0.00  -0.08
 128   6     0.00  -0.02  -0.14    -0.06   0.09   0.00    -0.01  -0.00  -0.11
 129   6     0.00  -0.01  -0.07    -0.03   0.07   0.00    -0.00  -0.00  -0.09
 130   6    -0.00   0.00  -0.00     0.00   0.09   0.00    -0.00  -0.00  -0.10
 131   6    -0.00   0.01   0.07     0.03   0.07   0.00     0.00  -0.00  -0.09
 132   6    -0.00   0.02   0.14     0.06   0.09   0.00     0.01  -0.00  -0.11
 133   6    -0.00   0.02   0.19     0.08   0.07   0.01     0.01  -0.00  -0.08
 134   6    -0.00   0.02   0.16     0.07   0.04   0.00     0.01  -0.00  -0.05
 135   7    -0.00   0.01   0.09     0.04   0.04   0.00     0.00  -0.00  -0.06
 136   6    -0.00   0.02   0.19     0.08   0.01   0.01     0.01  -0.00  -0.01
 137   6    -0.00   0.02   0.16     0.07  -0.02   0.00     0.01  -0.00   0.02
 138   6    -0.00   0.02   0.20     0.08  -0.05   0.00     0.01  -0.00   0.06
 139   6    -0.00   0.02   0.14     0.06  -0.08   0.00     0.01  -0.00   0.09
 140   6    -0.00   0.01   0.07     0.03  -0.06   0.00     0.00  -0.00   0.07
 141   7    -0.00   0.01   0.09     0.04  -0.03   0.00     0.00  -0.00   0.03
 142   6     0.00   0.00  -0.00     0.00  -0.08   0.00    -0.00  -0.00   0.09
 143   6     0.00  -0.01  -0.07    -0.03  -0.06   0.00    -0.00  -0.00   0.07
 144   6     0.00  -0.01  -0.14    -0.06  -0.08   0.00    -0.01  -0.00   0.09
 145   6     0.00  -0.02  -0.20    -0.08  -0.05   0.00    -0.01  -0.00   0.06
 146   6     0.00  -0.02  -0.16    -0.06  -0.02   0.00    -0.01  -0.00   0.02
 147   7     0.00  -0.01  -0.09    -0.04  -0.03   0.00    -0.00  -0.00   0.03
 148   6     0.00  -0.02  -0.20    -0.08   0.01   0.00    -0.01  -0.00  -0.01
 149   6     0.00  -0.02  -0.16    -0.06   0.04   0.00    -0.01  -0.00  -0.05
 150   7     0.00  -0.01  -0.09    -0.04   0.04   0.00    -0.00  -0.00  -0.06
 151   1     0.00  -0.01  -0.08    -0.03   0.02   0.00    -0.00  -0.00  -0.03
 152   1     0.00  -0.01  -0.04    -0.02   0.03   0.00    -0.00  -0.00  -0.04
 153   1    -0.00   0.01   0.04     0.02   0.03   0.00     0.00  -0.00  -0.04
 154   1    -0.00   0.01   0.07     0.03   0.02   0.00     0.00  -0.00  -0.03
 155   1    -0.00   0.01   0.07     0.03   0.00   0.00     0.00  -0.00  -0.00
 156   1    -0.00   0.01   0.07     0.03  -0.02   0.00     0.00  -0.00   0.02
 157   1    -0.00   0.01   0.04     0.02  -0.03   0.00     0.00   0.00   0.03
 158   1     0.00  -0.00  -0.04    -0.02  -0.03   0.00    -0.00   0.00   0.03
 159   1     0.00  -0.01  -0.08    -0.03  -0.02   0.00    -0.00  -0.00   0.02
 160   1     0.00  -0.01  -0.07    -0.03   0.00   0.00    -0.00  -0.00  -0.00
                     10                     11                     12
                        a                      a                      a 
 Frequencies --    10.7988                16.2138                16.5234
 Red. masses --    13.4761                14.1665                13.9660
 Frc consts  --     0.0000                 0.0000                 0.0000
 IR Inten    --     0.2634                 1.6068                 3.0930
 Raman Activ --     0.0000                 0.0000                 0.0000
 Depolar     --     0.0000                 0.0000                 0.0000
 Atom AN      X      Y      Z        X      Y      Z        X      Y      Z
   1  30     0.00   0.00   0.02     0.00   0.04   0.03     0.00   0.03  -0.05
   2   6     0.01   0.01   0.12     0.07   0.07   0.06     0.06   0.06  -0.10
   3   6     0.01   0.01   0.15     0.05   0.08   0.07     0.04   0.07  -0.11
   4   6     0.00   0.01   0.12     0.02   0.07   0.05     0.02   0.06  -0.08
   5   6     0.00   0.01   0.13     0.00   0.08   0.05     0.00   0.07  -0.08
   6   6    -0.00   0.01   0.12    -0.02   0.07   0.05    -0.02   0.06  -0.08
   7   6    -0.01   0.01   0.15    -0.05   0.08   0.07    -0.04   0.07  -0.11
   8   6    -0.01   0.01   0.12    -0.06   0.06   0.06    -0.05   0.05  -0.10
   9   6    -0.01   0.01   0.07    -0.05   0.04   0.04    -0.04   0.03  -0.07
  10   7    -0.00   0.01   0.08    -0.03   0.05   0.04    -0.02   0.04  -0.07
  11   6    -0.01   0.00   0.02    -0.06   0.02   0.02    -0.05   0.01  -0.04
  12   6    -0.01  -0.00  -0.04    -0.05  -0.01  -0.01    -0.04  -0.01   0.01
  13   6    -0.01  -0.01  -0.10    -0.06  -0.03  -0.03    -0.05  -0.03   0.05
  14   6    -0.01  -0.01  -0.15    -0.04  -0.05  -0.06    -0.04  -0.04   0.10
  15   6    -0.00  -0.01  -0.12    -0.02  -0.04  -0.05    -0.02  -0.03   0.08
  16   7    -0.00  -0.00  -0.06    -0.03  -0.01  -0.02    -0.02  -0.01   0.03
  17   6     0.00  -0.01  -0.15     0.00  -0.05  -0.07     0.00  -0.04   0.11
  18   6     0.01  -0.01  -0.12     0.03  -0.04  -0.05     0.02  -0.03   0.08
  19   6     0.01  -0.01  -0.15     0.05  -0.05  -0.06     0.04  -0.04   0.10
  20   6     0.01  -0.01  -0.10     0.07  -0.03  -0.03     0.06  -0.02   0.05
  21   6     0.01  -0.00  -0.04     0.05  -0.01  -0.01     0.05  -0.00   0.01
  22   7     0.01  -0.00  -0.06     0.03  -0.01  -0.02     0.03  -0.01   0.03
  23   6     0.01   0.00   0.02     0.07   0.02   0.02     0.06   0.02  -0.04
  24   6     0.01   0.01   0.07     0.05   0.04   0.04     0.05   0.04  -0.07
  25   7     0.01   0.01   0.08     0.03   0.05   0.04     0.03   0.04  -0.07
  26   1     0.00   0.00   0.04     0.02   0.02   0.02     0.02   0.02  -0.03
  27   1     0.00   0.00   0.05     0.01   0.03   0.02     0.01   0.03  -0.04
  28   1    -0.00   0.00   0.05    -0.01   0.03   0.02    -0.01   0.03  -0.04
  29   1    -0.00   0.00   0.04    -0.02   0.02   0.02    -0.02   0.02  -0.03
  30   1    -0.00   0.00   0.01    -0.02   0.00   0.01    -0.02   0.00  -0.01
  31   1    -0.00  -0.00  -0.03    -0.02  -0.01  -0.01    -0.02  -0.01   0.01
  32   1    -0.00  -0.00  -0.06    -0.01  -0.02  -0.03    -0.01  -0.02   0.04
  33   1     0.00  -0.00  -0.06     0.00  -0.02  -0.03     0.00  -0.02   0.04
  34   1     0.00  -0.00  -0.06     0.02  -0.02  -0.03     0.01  -0.02   0.04
  35   1     0.00  -0.00  -0.03     0.03  -0.01  -0.01     0.02  -0.01   0.01
  36   1     0.00   0.00   0.01     0.02   0.01   0.01     0.02   0.00  -0.01
  37  30    -0.00  -0.01  -0.03    -0.00  -0.04   0.04    -0.00  -0.04  -0.03
  38   6    -0.03  -0.00  -0.12    -0.06  -0.07   0.10    -0.07  -0.05  -0.07
  39   6    -0.02  -0.00  -0.14    -0.04  -0.09   0.10    -0.05  -0.07  -0.07
  40   6    -0.01  -0.00  -0.11    -0.02  -0.07   0.08    -0.02  -0.06  -0.06
  41   6    -0.00  -0.01  -0.13    -0.00  -0.08   0.08    -0.00  -0.07  -0.06
  42   6     0.01  -0.00  -0.11     0.02  -0.07   0.08     0.02  -0.06  -0.06
  43   6     0.02  -0.00  -0.14     0.04  -0.09   0.10     0.05  -0.07  -0.07
  44   6     0.03  -0.00  -0.11     0.05  -0.07   0.10     0.07  -0.05  -0.07
  45   6     0.02  -0.00  -0.07     0.04  -0.05   0.07     0.05  -0.03  -0.05
  46   7     0.01  -0.00  -0.07     0.02  -0.05   0.06     0.03  -0.04  -0.05
  47   6     0.02   0.00  -0.02     0.05  -0.02   0.04     0.06  -0.01  -0.03
  48   6     0.02  -0.00   0.03     0.04   0.01  -0.01     0.05   0.01   0.01
  49   6     0.03  -0.00   0.09     0.05   0.04  -0.05     0.06   0.03   0.03
  50   6     0.02  -0.00   0.14     0.04   0.06  -0.10     0.05   0.04   0.06
  51   6     0.01  -0.00   0.11     0.02   0.05  -0.08     0.02   0.03   0.05
  52   7     0.01  -0.00   0.05     0.02   0.01  -0.03     0.03   0.01   0.02
  53   6     0.00  -0.00   0.14    -0.00   0.06  -0.10    -0.00   0.04   0.07
  54   6    -0.01  -0.00   0.11    -0.02   0.05  -0.08    -0.02   0.03   0.05
  55   6    -0.02  -0.00   0.14    -0.04   0.06  -0.10    -0.05   0.04   0.06
  56   6    -0.03  -0.00   0.09    -0.06   0.04  -0.05    -0.07   0.02   0.03
  57   6    -0.02  -0.00   0.03    -0.05   0.01  -0.01    -0.05   0.01   0.01
  58   7    -0.01  -0.00   0.05    -0.03   0.01  -0.03    -0.03   0.01   0.02
  59   6    -0.03   0.00  -0.02    -0.06  -0.02   0.04    -0.07  -0.01  -0.03
  60   6    -0.02  -0.00  -0.07    -0.04  -0.05   0.07    -0.05  -0.03  -0.05
  61   7    -0.01  -0.00  -0.08    -0.03  -0.05   0.06    -0.03  -0.04  -0.05
  62   1    -0.01   0.00  -0.04    -0.02  -0.02   0.03    -0.03  -0.02  -0.02
  63   1    -0.01  -0.00  -0.05    -0.01  -0.03   0.04    -0.01  -0.03  -0.03
  64   1     0.01  -0.00  -0.05     0.01  -0.03   0.04     0.01  -0.03  -0.03
  65   1     0.01   0.00  -0.04     0.02  -0.02   0.03     0.02  -0.02  -0.02
  66   1     0.01   0.00  -0.01     0.02  -0.01   0.01     0.02  -0.00  -0.01
  67   1     0.01  -0.00   0.03     0.02   0.01  -0.01     0.02   0.01   0.01
  68   1     0.01  -0.00   0.05     0.01   0.02  -0.04     0.01   0.02   0.03
  69   1     0.00  -0.00   0.06    -0.00   0.02  -0.04    -0.00   0.02   0.03
  70   1    -0.01  -0.00   0.05    -0.01   0.02  -0.04    -0.01   0.02   0.03
  71   1    -0.01  -0.00   0.03    -0.02   0.01  -0.01    -0.03   0.01   0.01
  72   1    -0.01   0.00  -0.01    -0.02  -0.01   0.01    -0.03  -0.00  -0.01
  73   6     0.00   0.02   0.15     0.00   0.10   0.05     0.00   0.09  -0.08
  74   6     0.00   0.02   0.16     0.00   0.09   0.03     0.00   0.08  -0.05
  75   6     0.00   0.02   0.15     0.00   0.08   0.01     0.00   0.07  -0.02
  76   6     0.00   0.02   0.13     0.00   0.04  -0.01     0.00   0.04   0.01
  77   6     0.00   0.01   0.10     0.00   0.01  -0.03     0.00   0.01   0.05
  78   6    -0.00   0.01   0.06     0.00  -0.02  -0.05     0.00  -0.01   0.07
  79   6    -0.00  -0.01  -0.07     0.00  -0.08   0.10    -0.00  -0.09  -0.10
  80   6    -0.00  -0.01  -0.04     0.00  -0.05   0.12    -0.00  -0.06  -0.13
  81   6    -0.00  -0.00  -0.02     0.00  -0.01   0.13    -0.00  -0.03  -0.14
  82   6    -0.00   0.00   0.01     0.00   0.03   0.12     0.00   0.01  -0.15
  83   6    -0.00   0.00   0.04     0.00   0.06   0.11     0.00   0.04  -0.14
  84   6    -0.00   0.01   0.06     0.00   0.09   0.09     0.00   0.07  -0.11
  85   6    -0.00  -0.01  -0.05    -0.00   0.02  -0.07    -0.00   0.01   0.06
  86   6    -0.00  -0.01  -0.09    -0.00  -0.01  -0.04    -0.00  -0.02   0.03
  87   6    -0.00  -0.01  -0.12    -0.00  -0.04  -0.02    -0.00  -0.04   0.01
  88   6    -0.00  -0.01  -0.14    -0.00  -0.07   0.01    -0.00  -0.07  -0.02
  89   6    -0.00  -0.01  -0.15    -0.00  -0.09   0.04    -0.00  -0.09  -0.04
  90   6    -0.00  -0.01  -0.15    -0.00  -0.10   0.07    -0.00  -0.09  -0.06
  91  30    -0.00  -0.01  -0.13    -0.00  -0.13  -0.05     0.00  -0.12   0.08
  92   6    -0.00  -0.00  -0.02    -0.03  -0.04  -0.07    -0.02  -0.03   0.10
  93   6    -0.00   0.00   0.01    -0.02  -0.04  -0.08    -0.01  -0.02   0.10
  94   6    -0.00   0.00   0.00    -0.01  -0.04  -0.06    -0.01  -0.03   0.08
  95   6    -0.00   0.00   0.02    -0.00  -0.03  -0.06     0.00  -0.02   0.08
  96   6    -0.00   0.00   0.00     0.01  -0.04  -0.06     0.01  -0.03   0.08
  97   6     0.00   0.00   0.01     0.02  -0.04  -0.08     0.02  -0.02   0.10
  98   6     0.00  -0.00  -0.02     0.03  -0.04  -0.08     0.02  -0.03   0.10
  99   6    -0.00  -0.01  -0.05     0.02  -0.05  -0.05     0.02  -0.04   0.07
 100   7    -0.00  -0.00  -0.03     0.01  -0.05  -0.05     0.01  -0.04   0.07
 101   6    -0.00  -0.01  -0.07     0.03  -0.06  -0.04     0.02  -0.05   0.05
 102   6    -0.00  -0.01  -0.08     0.02  -0.07  -0.00     0.02  -0.06   0.01
 103   6    -0.00  -0.01  -0.10     0.03  -0.07   0.02     0.02  -0.07  -0.02
 104   6    -0.00  -0.01  -0.10     0.02  -0.08   0.06     0.01  -0.08  -0.06
 105   6    -0.00  -0.01  -0.08     0.01  -0.07   0.05     0.01  -0.07  -0.04
 106   7    -0.00  -0.01  -0.08     0.01  -0.07   0.01     0.01  -0.07  -0.00
 107   6    -0.00  -0.01  -0.08     0.00  -0.08   0.07    -0.00  -0.08  -0.07
 108   6    -0.00  -0.01  -0.08    -0.01  -0.07   0.05    -0.01  -0.07  -0.04
 109   6    -0.00  -0.01  -0.10    -0.02  -0.08   0.06    -0.01  -0.08  -0.06
 110   6    -0.00  -0.01  -0.10    -0.03  -0.07   0.02    -0.02  -0.07  -0.02
 111   6    -0.00  -0.01  -0.09    -0.02  -0.07  -0.00    -0.02  -0.06   0.01
 112   7    -0.00  -0.01  -0.08    -0.01  -0.07   0.01    -0.01  -0.07  -0.00
 113   6    -0.00  -0.01  -0.07    -0.03  -0.06  -0.04    -0.02  -0.05   0.05
 114   6    -0.00  -0.01  -0.05    -0.02  -0.05  -0.05    -0.02  -0.04   0.07
 115   7    -0.00  -0.00  -0.03    -0.01  -0.05  -0.05    -0.01  -0.04   0.07
 116   1    -0.00  -0.00  -0.01    -0.01  -0.01  -0.02    -0.01  -0.01   0.03
 117   1    -0.00   0.00   0.01    -0.01  -0.01  -0.03    -0.00  -0.00   0.03
 118   1     0.00   0.00   0.01     0.01  -0.01  -0.03     0.00  -0.00   0.03
 119   1     0.00  -0.00  -0.01     0.01  -0.01  -0.02     0.01  -0.01   0.03
 120   1    -0.00  -0.00  -0.02     0.01  -0.02  -0.01     0.01  -0.01   0.02
 121   1    -0.00  -0.00  -0.03     0.01  -0.02   0.01     0.01  -0.02  -0.01
 122   1    -0.00  -0.00  -0.03     0.01  -0.02   0.02     0.00  -0.03  -0.03
 123   1    -0.00  -0.00  -0.03    -0.01  -0.02   0.02    -0.00  -0.03  -0.03
 124   1    -0.00  -0.00  -0.03    -0.01  -0.02   0.01    -0.01  -0.02  -0.01
 125   1    -0.00  -0.00  -0.02    -0.01  -0.02  -0.01    -0.01  -0.01   0.02
 126  30    -0.00   0.02   0.13     0.00   0.13  -0.07    -0.00   0.12   0.06
 127   6    -0.00   0.01   0.10    -0.02   0.08   0.02    -0.03   0.07  -0.02
 128   6    -0.00   0.01   0.09    -0.01   0.08   0.05    -0.02   0.07  -0.06
 129   6    -0.00   0.01   0.08    -0.01   0.08   0.04    -0.01   0.07  -0.05
 130   6    -0.00   0.01   0.07     0.00   0.09   0.06     0.00   0.07  -0.07
 131   6    -0.00   0.01   0.08     0.01   0.08   0.04     0.01   0.07  -0.05
 132   6    -0.00   0.01   0.09     0.01   0.08   0.05     0.02   0.07  -0.06
 133   6    -0.00   0.01   0.09     0.02   0.08   0.02     0.03   0.07  -0.02
 134   6    -0.00   0.01   0.08     0.02   0.06  -0.01     0.02   0.06   0.01
 135   7    -0.00   0.01   0.08     0.01   0.07   0.00     0.01   0.07  -0.01
 136   6    -0.00   0.01   0.07     0.02   0.05  -0.04     0.03   0.06   0.05
 137   6    -0.00   0.01   0.05     0.02   0.04  -0.06     0.02   0.05   0.07
 138   6    -0.00   0.00   0.03     0.02   0.03  -0.09     0.03   0.04   0.09
 139   6    -0.00   0.00  -0.00     0.02   0.03  -0.09     0.02   0.03   0.09
 140   6    -0.00   0.00   0.00     0.01   0.03  -0.07     0.01   0.04   0.07
 141   7    -0.00   0.01   0.04     0.01   0.05  -0.06     0.01   0.05   0.06
 142   6    -0.00  -0.00  -0.02     0.00   0.03  -0.07    -0.00   0.03   0.07
 143   6    -0.00   0.00   0.00    -0.01   0.03  -0.07    -0.01   0.04   0.07
 144   6    -0.00   0.00  -0.00    -0.01   0.03  -0.09    -0.02   0.03   0.09
 145   6    -0.00   0.00   0.03    -0.02   0.03  -0.09    -0.03   0.04   0.09
 146   6    -0.00   0.01   0.05    -0.02   0.04  -0.07    -0.02   0.05   0.07
 147   7    -0.00   0.01   0.04    -0.01   0.05  -0.06    -0.01   0.05   0.06
 148   6    -0.00   0.01   0.08    -0.02   0.05  -0.04    -0.03   0.06   0.05
 149   6    -0.00   0.01   0.09    -0.02   0.06  -0.01    -0.02   0.06   0.01
 150   7    -0.00   0.01   0.08    -0.01   0.07   0.00    -0.01   0.07  -0.01
 151   1    -0.00   0.00   0.03    -0.01   0.02   0.00    -0.01   0.02  -0.01
 152   1    -0.00   0.00   0.03    -0.00   0.03   0.02    -0.01   0.02  -0.03
 153   1    -0.00   0.00   0.03     0.00   0.03   0.02     0.01   0.02  -0.03
 154   1    -0.00   0.00   0.03     0.01   0.02   0.01     0.01   0.02  -0.01
 155   1    -0.00   0.00   0.02     0.01   0.02  -0.01     0.01   0.02   0.02
 156   1    -0.00   0.00   0.01     0.01   0.01  -0.03     0.01   0.01   0.03
 157   1    -0.00  -0.00  -0.01     0.00   0.01  -0.03     0.01   0.01   0.03
 158   1    -0.00  -0.00  -0.01    -0.00   0.01  -0.03    -0.01   0.01   0.03
 159   1    -0.00   0.00   0.01    -0.01   0.01  -0.03    -0.01   0.01   0.03
 160   1    -0.00   0.00   0.02    -0.01   0.02  -0.01    -0.01   0.02   0.02
                     13                     14                     15
                        a                      a                      a 
 Frequencies --    22.3590                23.1125                28.0001
 Red. masses --    12.2736                12.4954                11.7645
 Frc consts  --     0.0000                 0.0000                 0.0000
 IR Inten    --     0.3684                 1.9215                 0.0182
 Raman Activ --     0.0000                 0.0000                 0.0000
 Depolar     --     0.0000                 0.0000                 0.0000
 Atom AN      X      Y      Z        X      Y      Z        X      Y      Z
   1  30    -0.00  -0.04  -0.04     0.00   0.05  -0.04     0.00  -0.05  -0.00
   2   6    -0.05  -0.06  -0.07     0.07   0.07  -0.07    -0.05  -0.06  -0.00
   3   6    -0.04  -0.07  -0.06     0.05   0.09  -0.06    -0.04  -0.08  -0.00
   4   6    -0.02  -0.06  -0.05     0.02   0.07  -0.05    -0.02  -0.07  -0.00
   5   6     0.00  -0.07  -0.04    -0.00   0.09  -0.04     0.00  -0.08   0.00
   6   6     0.02  -0.06  -0.05    -0.02   0.07  -0.05     0.02  -0.07  -0.00
   7   6     0.04  -0.07  -0.06    -0.05   0.09  -0.06     0.04  -0.08  -0.00
   8   6     0.06  -0.06  -0.07    -0.06   0.07  -0.07     0.06  -0.06  -0.00
   9   6     0.04  -0.04  -0.05    -0.05   0.04  -0.06     0.05  -0.04  -0.00
  10   7     0.02  -0.04  -0.05    -0.03   0.05  -0.05     0.03  -0.05  -0.00
  11   6     0.06  -0.02  -0.04    -0.06   0.02  -0.04     0.06  -0.02  -0.00
  12   6     0.04   0.00  -0.01    -0.05  -0.00  -0.01     0.05   0.00  -0.00
  13   6     0.06   0.02   0.02    -0.07  -0.03   0.02     0.06   0.02  -0.00
  14   6     0.04   0.04   0.06    -0.05  -0.05   0.06     0.04   0.04   0.00
  15   6     0.02   0.03   0.05    -0.02  -0.03   0.05     0.02   0.03   0.00
  16   7     0.02   0.01   0.01    -0.03  -0.01   0.01     0.03   0.00   0.00
  17   6    -0.00   0.04   0.07     0.00  -0.04   0.07     0.00   0.04   0.00
  18   6    -0.02   0.03   0.05     0.02  -0.03   0.05    -0.02   0.03   0.00
  19   6    -0.04   0.04   0.06     0.05  -0.04   0.06    -0.04   0.04   0.00
  20   6    -0.06   0.02   0.03     0.07  -0.03   0.02    -0.06   0.02   0.00
  21   6    -0.05   0.00  -0.00     0.05  -0.00  -0.01    -0.04  -0.00  -0.00
  22   7    -0.03   0.01   0.01     0.03  -0.01   0.01    -0.02   0.00   0.00
  23   6    -0.05  -0.02  -0.04     0.07   0.02  -0.04    -0.05  -0.02  -0.00
  24   6    -0.04  -0.04  -0.05     0.05   0.05  -0.06    -0.04  -0.04  -0.00
  25   7    -0.02  -0.05  -0.05     0.03   0.05  -0.05    -0.02  -0.05  -0.00
  26   1    -0.02  -0.02  -0.02     0.02   0.02  -0.03    -0.02  -0.02  -0.00
  27   1    -0.01  -0.03  -0.02     0.01   0.03  -0.02    -0.01  -0.03  -0.00
  28   1     0.01  -0.03  -0.02    -0.01   0.03  -0.02     0.01  -0.03  -0.00
  29   1     0.02  -0.02  -0.03    -0.02   0.02  -0.03     0.02  -0.02  -0.00
  30   1     0.02  -0.00  -0.02    -0.02   0.01  -0.02     0.02  -0.01  -0.00
  31   1     0.02   0.01   0.01    -0.02  -0.01   0.01     0.02   0.01  -0.00
  32   1     0.01   0.02   0.03    -0.01  -0.02   0.03     0.01   0.02   0.00
  33   1    -0.00   0.02   0.03     0.00  -0.02   0.03     0.00   0.02   0.00
  34   1    -0.01   0.02   0.03     0.01  -0.02   0.03    -0.01   0.02   0.00
  35   1    -0.02   0.01   0.01     0.03  -0.01   0.01    -0.02   0.01   0.00
  36   1    -0.02  -0.01  -0.01     0.02   0.01  -0.02    -0.02  -0.01  -0.00
  37  30    -0.00  -0.04   0.05    -0.00   0.05   0.03    -0.00   0.04  -0.00
  38   6    -0.04  -0.06   0.09     0.07   0.07   0.04     0.05   0.06  -0.01
  39   6    -0.03  -0.07   0.08     0.05   0.09   0.04     0.03   0.07  -0.00
  40   6    -0.01  -0.06   0.06     0.03   0.08   0.03     0.02   0.06   0.00
  41   6     0.00  -0.06   0.04    -0.00   0.09   0.03    -0.00   0.07   0.01
  42   6     0.01  -0.06   0.06    -0.03   0.08   0.03    -0.02   0.06   0.00
  43   6     0.03  -0.07   0.08    -0.05   0.09   0.04    -0.04   0.07  -0.00
  44   6     0.04  -0.06   0.09    -0.07   0.07   0.04    -0.05   0.06  -0.01
  45   6     0.03  -0.04   0.07    -0.06   0.05   0.03    -0.04   0.04  -0.01
  46   7     0.02  -0.04   0.06    -0.03   0.05   0.03    -0.02   0.04  -0.00
  47   6     0.04  -0.02   0.05    -0.07   0.02   0.02    -0.05   0.02  -0.01
  48   6     0.03   0.00   0.01    -0.06  -0.00   0.00    -0.04   0.00  -0.00
  49   6     0.04   0.02  -0.03    -0.07  -0.03  -0.02    -0.05  -0.02   0.00
  50   6     0.03   0.04  -0.08    -0.05  -0.05  -0.03    -0.04  -0.04   0.01
  51   6     0.01   0.03  -0.07    -0.03  -0.03  -0.03    -0.02  -0.03   0.01
  52   7     0.02   0.01  -0.01    -0.03  -0.01  -0.01    -0.02  -0.00   0.00
  53   6    -0.00   0.05  -0.09     0.00  -0.04  -0.04    -0.00  -0.04   0.02
  54   6    -0.02   0.03  -0.07     0.03  -0.03  -0.03     0.02  -0.03   0.01
  55   6    -0.03   0.04  -0.08     0.05  -0.05  -0.03     0.04  -0.04   0.01
  56   6    -0.04   0.02  -0.03     0.07  -0.03  -0.01     0.05  -0.02   0.00
  57   6    -0.03   0.00   0.01     0.06  -0.00   0.00     0.04   0.00  -0.00
  58   7    -0.02   0.01  -0.02     0.03  -0.01  -0.01     0.02  -0.00   0.00
  59   6    -0.04  -0.02   0.05     0.07   0.02   0.02     0.05   0.02  -0.01
  60   6    -0.03  -0.04   0.07     0.06   0.05   0.03     0.04   0.04  -0.01
  61   7    -0.02  -0.04   0.06     0.03   0.06   0.03     0.02   0.04  -0.00
  62   1    -0.02  -0.02   0.03     0.03   0.02   0.01     0.02   0.02  -0.00
  63   1    -0.01  -0.02   0.03     0.02   0.03   0.01     0.01   0.02   0.00
  64   1     0.01  -0.02   0.03    -0.02   0.03   0.01    -0.01   0.02   0.00
  65   1     0.02  -0.02   0.03    -0.03   0.02   0.01    -0.02   0.02  -0.00
  66   1     0.02  -0.01   0.02    -0.03   0.01   0.01    -0.02   0.01  -0.00
  67   1     0.02   0.01  -0.01    -0.03  -0.01  -0.00    -0.02  -0.01  -0.00
  68   1     0.01   0.02  -0.03    -0.02  -0.02  -0.01    -0.01  -0.02   0.00
  69   1    -0.00   0.02  -0.04     0.00  -0.02  -0.02    -0.00  -0.02   0.01
  70   1    -0.01   0.02  -0.03     0.02  -0.02  -0.01     0.01  -0.02   0.00
  71   1    -0.02   0.01  -0.01     0.03  -0.01  -0.00     0.02  -0.01  -0.00
  72   1    -0.02  -0.01   0.02     0.03   0.01   0.01     0.02   0.01  -0.00
  73   6     0.00  -0.09  -0.01    -0.00   0.10  -0.01     0.00  -0.08   0.00
  74   6     0.00  -0.06   0.02    -0.00   0.07   0.03     0.00  -0.04   0.00
  75   6     0.00  -0.03   0.06     0.00   0.03   0.06     0.00   0.01   0.01
  76   6     0.00   0.02   0.09     0.00  -0.03   0.09     0.00   0.08   0.01
  77   6     0.00   0.05   0.11     0.00  -0.06   0.11     0.00   0.11   0.01
  78   6     0.00   0.08   0.11     0.00  -0.10   0.11     0.00   0.14   0.01
  79   6    -0.00  -0.03  -0.10     0.00   0.06  -0.06    -0.00  -0.15   0.01
  80   6    -0.00  -0.05  -0.07     0.00   0.08  -0.03     0.00  -0.10   0.01
  81   6    -0.00  -0.06  -0.03     0.00   0.09   0.00     0.00  -0.05   0.02
  82   6    -0.00  -0.07   0.01     0.00   0.08   0.04     0.00   0.04   0.02
  83   6    -0.00  -0.07   0.05     0.00   0.07   0.07     0.00   0.10   0.02
  84   6    -0.00  -0.06   0.09     0.00   0.05   0.09     0.00   0.15   0.01
  85   6     0.00   0.08  -0.13    -0.00  -0.11  -0.08    -0.00  -0.13   0.00
  86   6     0.00   0.06  -0.13    -0.00  -0.07  -0.07    -0.00  -0.11   0.01
  87   6     0.00   0.03  -0.11    -0.00  -0.02  -0.05    -0.00  -0.07   0.02
  88   6    -0.00  -0.01  -0.08    -0.00   0.04  -0.02    -0.00  -0.01   0.03
  89   6     0.00  -0.04  -0.03    -0.00   0.08   0.00    -0.00   0.03   0.03
  90   6     0.00  -0.07   0.01    -0.00   0.11   0.02    -0.00   0.07   0.02
  91  30     0.00   0.07  -0.02     0.00  -0.06  -0.02     0.00  -0.02  -0.00
  92   6    -0.03   0.06   0.08     0.07  -0.07   0.05    -0.11   0.08   0.01
  93   6    -0.02   0.08   0.11     0.05  -0.09   0.09    -0.08   0.11   0.01
  94   6    -0.01   0.07   0.09     0.02  -0.07   0.07    -0.04   0.09   0.01
  95   6     0.00   0.07   0.10     0.00  -0.09   0.09     0.00   0.11   0.01
  96   6     0.01   0.07   0.09    -0.02  -0.07   0.07     0.04   0.09   0.01
  97   6     0.02   0.08   0.11    -0.05  -0.09   0.09     0.08   0.11   0.01
  98   6     0.03   0.06   0.08    -0.07  -0.07   0.06     0.11   0.08   0.01
  99   6     0.03   0.04   0.03    -0.05  -0.05   0.02     0.09   0.03   0.00
 100   7     0.01   0.05   0.04    -0.03  -0.06   0.03     0.05   0.04   0.00
 101   6     0.03   0.03  -0.02    -0.07  -0.03  -0.02     0.11  -0.01  -0.01
 102   6     0.03   0.01  -0.06    -0.06  -0.01  -0.05     0.09  -0.05  -0.01
 103   6     0.03  -0.01  -0.10    -0.07   0.01  -0.08     0.11  -0.09  -0.01
 104   6     0.02  -0.02  -0.12    -0.05   0.03  -0.09     0.08  -0.13  -0.01
 105   6     0.01  -0.01  -0.09    -0.02   0.02  -0.07     0.04  -0.10  -0.01
 106   7     0.01   0.01  -0.06    -0.03  -0.00  -0.05     0.05  -0.06  -0.01
 107   6    -0.00  -0.02  -0.10     0.00   0.04  -0.07     0.00  -0.12  -0.00
 108   6    -0.01  -0.01  -0.09     0.02   0.02  -0.07    -0.04  -0.10  -0.01
 109   6    -0.02  -0.02  -0.12     0.05   0.03  -0.09    -0.08  -0.12  -0.01
 110   6    -0.03  -0.01  -0.10     0.07   0.01  -0.09    -0.11  -0.09  -0.01
 111   6    -0.03   0.01  -0.06     0.06  -0.01  -0.05    -0.09  -0.05  -0.01
 112   7    -0.01   0.01  -0.06     0.03  -0.00  -0.05    -0.05  -0.06  -0.01
 113   6    -0.03   0.03  -0.02     0.07  -0.03  -0.02    -0.11  -0.01  -0.01
 114   6    -0.03   0.05   0.03     0.05  -0.05   0.02    -0.09   0.03   0.00
 115   7    -0.01   0.05   0.04     0.03  -0.06   0.03    -0.05   0.04   0.00
 116   1    -0.01   0.02   0.02     0.03  -0.02   0.02    -0.04   0.02   0.00
 117   1    -0.01   0.03   0.04     0.01  -0.03   0.04    -0.02   0.04   0.00
 118   1     0.01   0.03   0.04    -0.01  -0.03   0.04     0.03   0.04   0.00
 119   1     0.01   0.02   0.02    -0.03  -0.02   0.02     0.04   0.02   0.00
 120   1     0.01   0.01  -0.01    -0.03  -0.01  -0.01     0.04  -0.00  -0.00
 121   1     0.01  -0.00  -0.03    -0.03   0.00  -0.03     0.04  -0.03  -0.00
 122   1     0.01  -0.01  -0.04    -0.02   0.02  -0.03     0.02  -0.05  -0.00
 123   1    -0.01  -0.01  -0.04     0.02   0.02  -0.03    -0.02  -0.05  -0.00
 124   1    -0.01  -0.00  -0.03     0.03   0.00  -0.03    -0.04  -0.03  -0.00
 125   1    -0.01   0.01  -0.01     0.03  -0.01  -0.01    -0.04  -0.00  -0.00
 126  30     0.00   0.04   0.03    -0.00  -0.08   0.01    -0.00   0.02  -0.01
 127   6     0.06  -0.02   0.11    -0.05   0.02   0.08    -0.11   0.09   0.01
 128   6     0.04  -0.03   0.12    -0.04   0.03   0.10    -0.08   0.12   0.01
 129   6     0.02  -0.02   0.09    -0.02   0.02   0.08    -0.04   0.10   0.01
 130   6    -0.00  -0.04   0.09    -0.00   0.03   0.08     0.00   0.12   0.01
 131   6    -0.02  -0.02   0.09     0.02   0.02   0.08     0.04   0.10   0.01
 132   6    -0.04  -0.03   0.12     0.04   0.03   0.10     0.08   0.12   0.01
 133   6    -0.06  -0.02   0.11     0.05   0.02   0.08     0.11   0.09   0.01
 134   6    -0.05   0.00   0.07     0.04  -0.01   0.04     0.09   0.05  -0.00
 135   7    -0.03  -0.00   0.07     0.02  -0.01   0.05     0.05   0.06   0.00
 136   6    -0.06   0.02   0.03     0.05  -0.03   0.00     0.11   0.01  -0.01
 137   6    -0.05   0.03  -0.02     0.04  -0.06  -0.03     0.09  -0.03  -0.01
 138   6    -0.06   0.05  -0.07     0.05  -0.08  -0.07     0.11  -0.07  -0.02
 139   6    -0.04   0.06  -0.11     0.04  -0.10  -0.09     0.08  -0.10  -0.02
 140   6    -0.02   0.05  -0.09     0.02  -0.08  -0.07     0.04  -0.08  -0.01
 141   7    -0.03   0.04  -0.04     0.02  -0.06  -0.04     0.05  -0.04  -0.01
 142   6     0.00   0.06  -0.11    -0.00  -0.10  -0.08    -0.00  -0.10  -0.01
 143   6     0.02   0.05  -0.09    -0.02  -0.08  -0.07    -0.04  -0.08  -0.01
 144   6     0.04   0.06  -0.11    -0.04  -0.10  -0.09    -0.08  -0.10  -0.02
 145   6     0.06   0.05  -0.07    -0.05  -0.08  -0.07    -0.11  -0.07  -0.02
 146   6     0.05   0.03  -0.02    -0.04  -0.06  -0.03    -0.09  -0.03  -0.02
 147   7     0.03   0.04  -0.04    -0.02  -0.06  -0.04    -0.05  -0.04  -0.01
 148   6     0.06   0.02   0.03    -0.05  -0.03   0.00    -0.11   0.01  -0.01
 149   6     0.05   0.00   0.07    -0.04  -0.01   0.04    -0.09   0.05  -0.00
 150   7     0.03  -0.00   0.07    -0.02  -0.00   0.05    -0.05   0.06   0.00
 151   1     0.02  -0.01   0.03    -0.02   0.01   0.02    -0.04   0.03   0.00
 152   1     0.01  -0.01   0.04    -0.01   0.02   0.04    -0.02   0.05   0.01
 153   1    -0.01  -0.01   0.04     0.01   0.02   0.04     0.02   0.05   0.01
 154   1    -0.02  -0.01   0.04     0.02   0.01   0.02     0.04   0.03   0.00
 155   1    -0.02   0.01   0.01     0.02  -0.01   0.00     0.04   0.00  -0.00
 156   1    -0.02   0.02  -0.02     0.02  -0.02  -0.02     0.04  -0.02  -0.01
 157   1    -0.01   0.02  -0.04     0.01  -0.03  -0.03     0.02  -0.04  -0.01
 158   1     0.01   0.02  -0.04    -0.01  -0.03  -0.03    -0.02  -0.04  -0.01
 159   1     0.02   0.02  -0.02    -0.02  -0.02  -0.02    -0.04  -0.02  -0.01
 160   1     0.02   0.01   0.01    -0.02  -0.01   0.00    -0.04   0.00  -0.00
                     16                     17                     18
                        a                      a                      a 
 Frequencies --    33.6717                35.7708                39.4586
 Red. masses --    12.5677                20.6160                10.9649
 Frc consts  --     0.0000                 0.0000                 0.0000
 IR Inten    --     3.3716                 0.2457                 0.0537
 Raman Activ --     0.0000                 0.0000                 0.0000
 Depolar     --     0.0000                 0.0000                 0.0000
 Atom AN      X      Y      Z        X      Y      Z        X      Y      Z
   1  30    -0.00  -0.01  -0.05    -0.26  -0.00  -0.00    -0.01  -0.00  -0.00
   2   6    -0.01  -0.01  -0.10    -0.11   0.00  -0.00    -0.00  -0.00  -0.02
   3   6    -0.00  -0.01  -0.05    -0.11   0.00  -0.00    -0.00  -0.00  -0.02
   4   6    -0.00  -0.01  -0.02    -0.10   0.00  -0.00    -0.00  -0.00  -0.01
   5   6    -0.00  -0.01   0.02    -0.10   0.00   0.00    -0.00  -0.00   0.00
   6   6     0.00  -0.01  -0.02    -0.10  -0.00   0.00    -0.00  -0.00   0.01
   7   6     0.00  -0.01  -0.05    -0.11   0.00   0.00    -0.00   0.00   0.02
   8   6     0.01  -0.01  -0.09    -0.11  -0.00   0.00    -0.00  -0.00   0.01
   9   6     0.00  -0.01  -0.08    -0.11  -0.01   0.00    -0.00  -0.00   0.01
  10   7     0.00  -0.01  -0.05    -0.11  -0.01   0.00    -0.00  -0.00   0.00
  11   6     0.01  -0.00  -0.09    -0.11  -0.01   0.00    -0.00  -0.00  -0.00
  12   6     0.00  -0.00  -0.03    -0.11  -0.00  -0.00    -0.00  -0.00  -0.01
  13   6     0.01   0.00   0.00    -0.11  -0.00  -0.00    -0.00  -0.00  -0.02
  14   6     0.00   0.00   0.07    -0.11  -0.00  -0.00    -0.00  -0.00  -0.02
  15   6     0.00   0.00   0.07    -0.12  -0.00  -0.00    -0.00  -0.00  -0.01
  16   7     0.00   0.00   0.00    -0.13  -0.00  -0.00    -0.00  -0.00  -0.01
  17   6    -0.00   0.00   0.11    -0.12  -0.00  -0.00    -0.00  -0.00   0.00
  18   6    -0.00   0.00   0.07    -0.12  -0.00  -0.00    -0.00  -0.00   0.01
[...]
  74   6    -0.00  -0.00   0.00    -0.00  -0.00   0.00    -0.00  -0.00   0.00
  75   6     0.00  -0.00   0.00     0.00  -0.00   0.00     0.00   0.00  -0.00
  76   6    -0.00   0.00  -0.00    -0.00  -0.00   0.00    -0.00   0.00  -0.00
  77   6    -0.00   0.00  -0.00     0.00  -0.00   0.00     0.00   0.00  -0.00
  78   6     0.00  -0.00   0.00     0.00   0.00  -0.00     0.00  -0.00   0.00
  79   6    -0.00  -0.00   0.00     0.00   0.00  -0.00     0.00  -0.00   0.00
  80   6     0.00   0.00  -0.00    -0.00  -0.00   0.00     0.00   0.00  -0.00
  81   6    -0.00   0.00  -0.00    -0.00  -0.00   0.00    -0.00   0.00  -0.00
  82   6     0.00   0.00  -0.00     0.00  -0.00   0.00    -0.00   0.00  -0.00
  83   6    -0.00   0.00  -0.00    -0.00  -0.00   0.00     0.00   0.00  -0.00
  84   6    -0.00  -0.00   0.00     0.00   0.00  -0.00     0.00  -0.00   0.00
  85   6    -0.00  -0.00   0.00    -0.00   0.00  -0.00     0.00   0.00  -0.00
  86   6    -0.00   0.00  -0.00    -0.00  -0.00   0.00     0.00   0.00   0.00
  87   6     0.00   0.00  -0.00     0.00  -0.00   0.00    -0.00  -0.00  -0.00
  88   6    -0.00  -0.00   0.00    -0.00   0.00  -0.00     0.00   0.00  -0.00
  89   6    -0.00  -0.00  -0.00     0.00  -0.00  -0.00    -0.00  -0.00   0.00
  90   6     0.00  -0.00  -0.00     0.00   0.00   0.00    -0.00  -0.00   0.00
  91  30     0.00   0.00  -0.00    -0.00  -0.00   0.00    -0.00   0.00  -0.00
  92   6    -0.00  -0.04   0.00     0.00   0.02  -0.00     0.00   0.08  -0.01
  93   6    -0.05  -0.00   0.00     0.03   0.00  -0.00     0.11   0.01  -0.00
  94   6    -0.00   0.00  -0.00     0.00  -0.00   0.00     0.00  -0.00   0.00
  95   6    -0.00  -0.00   0.00    -0.00   0.00  -0.00     0.00  -0.00   0.00
  96   6     0.00   0.00  -0.00    -0.00  -0.00   0.00     0.00   0.00  -0.00
  97   6     0.04  -0.00   0.00    -0.00   0.00  -0.00     0.12  -0.01   0.00
  98   6     0.00  -0.03   0.00    -0.00   0.00  -0.00     0.00  -0.09   0.01
  99   6    -0.00  -0.00   0.00     0.00  -0.00  -0.00    -0.00  -0.00   0.00
 100   7    -0.00   0.00  -0.00     0.00  -0.00   0.00    -0.00   0.00  -0.00
 101   6    -0.00  -0.00   0.00     0.00   0.00  -0.00     0.00  -0.00   0.00
 102   6     0.00  -0.00   0.00    -0.00   0.00  -0.00    -0.00   0.00  -0.00
 103   6    -0.01  -0.08   0.01     0.00   0.02  -0.00     0.00   0.01  -0.00
 104   6    -0.11  -0.01   0.00     0.03   0.00  -0.00     0.01   0.00  -0.00
 105   6    -0.00   0.00  -0.00     0.00  -0.00   0.00     0.00  -0.00   0.00
 106   7     0.00   0.00  -0.00    -0.00  -0.00   0.00    -0.00  -0.00   0.00
 107   6    -0.00  -0.00   0.00     0.00   0.00  -0.00    -0.00  -0.00   0.00
 108   6     0.00   0.00  -0.00    -0.00  -0.00   0.00     0.00   0.00  -0.00
 109   6     0.11  -0.01   0.00    -0.02   0.00  -0.00     0.03  -0.00   0.00
 110   6     0.00  -0.08   0.01    -0.00   0.02  -0.00     0.00  -0.02   0.00
 111   6    -0.00  -0.00   0.00     0.00   0.00  -0.00    -0.00  -0.00   0.00
 112   7    -0.00   0.00  -0.00     0.00  -0.00   0.00    -0.00   0.00  -0.00
 113   6     0.00  -0.00   0.00     0.00   0.00  -0.00     0.00   0.00  -0.00
 114   6     0.00  -0.00   0.00    -0.00   0.00  -0.00    -0.00   0.00  -0.00
 115   7     0.00   0.00  -0.00    -0.00  -0.00   0.00    -0.00  -0.00   0.00
 116   1     0.01   0.12  -0.01    -0.01  -0.07   0.01    -0.03  -0.26   0.03
 117   1     0.15   0.02  -0.00    -0.10  -0.01   0.00    -0.35  -0.04   0.01
 118   1    -0.13   0.02  -0.00     0.01  -0.00   0.00    -0.38   0.05  -0.00
 119   1    -0.01   0.10  -0.01     0.00  -0.01   0.00    -0.03   0.28  -0.03
 120   1    -0.00   0.01  -0.00     0.00  -0.00   0.00     0.00   0.00  -0.00
 121   1     0.03   0.26  -0.03    -0.01  -0.07   0.01    -0.00  -0.03   0.00
 122   1     0.35   0.04  -0.00    -0.09  -0.01   0.00    -0.05  -0.01   0.00
 123   1    -0.35   0.04  -0.00     0.07  -0.01   0.00    -0.09   0.01  -0.00
 124   1    -0.03   0.25  -0.03     0.01  -0.05   0.01    -0.01   0.06  -0.01
 125   1     0.00   0.01  -0.00     0.00  -0.00   0.00     0.00  -0.00   0.00
 126  30     0.00   0.00  -0.00     0.00  -0.00   0.00    -0.00   0.00  -0.00
 127   6    -0.01  -0.09   0.01     0.00   0.01  -0.00     0.00   0.01  -0.00
 128   6    -0.13  -0.01   0.00     0.02   0.00  -0.00     0.01   0.00  -0.00
 129   6    -0.00   0.00  -0.00     0.00  -0.00   0.00     0.00  -0.00   0.00
 130   6    -0.00  -0.00   0.00    -0.00   0.00  -0.00    -0.00  -0.00   0.00
 131   6     0.00   0.00  -0.00    -0.00  -0.00   0.00     0.00   0.00  -0.00
 132   6     0.08  -0.01   0.00    -0.03   0.00  -0.00     0.03  -0.00   0.00
 133   6     0.00  -0.06   0.01    -0.00   0.02  -0.00     0.00  -0.02   0.00
 134   6    -0.00  -0.00   0.00     0.00   0.00  -0.00    -0.00  -0.00   0.00
 135   7    -0.00   0.00  -0.00     0.00  -0.00   0.00    -0.00   0.00  -0.00
 136   6     0.00  -0.00   0.00    -0.00   0.00  -0.00     0.00   0.00  -0.00
 137   6     0.00  -0.00   0.00     0.00  -0.00   0.00    -0.00   0.00  -0.00
 138   6    -0.00  -0.04   0.00    -0.00  -0.01   0.00     0.01   0.09  -0.01
 139   6    -0.05  -0.00   0.00    -0.01  -0.00   0.00     0.12   0.01  -0.00
 140   6    -0.00   0.00  -0.00    -0.00   0.00  -0.00     0.00  -0.00   0.00
 141   7     0.00   0.00  -0.00     0.00   0.00  -0.00    -0.00  -0.00   0.00
 142   6    -0.00  -0.00   0.00    -0.00   0.00  -0.00     0.00   0.00  -0.00
 143   6     0.00   0.00  -0.00    -0.00  -0.00   0.00     0.00   0.00  -0.00
 144   6     0.03  -0.00   0.00    -0.02   0.00  -0.00     0.12  -0.01   0.00
 145   6     0.00  -0.03   0.00    -0.00   0.02  -0.00     0.00  -0.09   0.01
 146   6    -0.00  -0.00   0.00     0.00   0.00  -0.00    -0.00  -0.00   0.00
 147   7    -0.00   0.00  -0.00     0.00  -0.00   0.00    -0.00   0.00  -0.00
 148   6    -0.00  -0.00   0.00    -0.00   0.00  -0.00     0.00  -0.00   0.00
 149   6     0.00  -0.00   0.00    -0.00   0.00  -0.00    -0.00   0.00  -0.00
 150   7     0.00   0.00  -0.00    -0.00  -0.00   0.00    -0.00  -0.00   0.00
 151   1     0.03   0.29  -0.03    -0.01  -0.05   0.01    -0.00  -0.02   0.00
 152   1     0.41   0.05  -0.01    -0.07  -0.01   0.00    -0.04  -0.00   0.00
 153   1    -0.25   0.03  -0.00     0.08  -0.01   0.00    -0.09   0.01  -0.00
 154   1    -0.02   0.19  -0.02     0.01  -0.06   0.01    -0.01   0.07  -0.01
 155   1     0.00   0.01  -0.00    -0.00  -0.00   0.00     0.00  -0.00   0.00
 156   1     0.01   0.13  -0.01     0.00   0.02  -0.00    -0.03  -0.29   0.03
 157   1     0.16   0.02  -0.00     0.03   0.00  -0.00    -0.38  -0.04   0.00
 158   1    -0.11   0.01  -0.00     0.08  -0.01   0.00    -0.38   0.05  -0.00
 159   1    -0.01   0.08  -0.01     0.01  -0.06   0.01    -0.03   0.27  -0.03
 160   1    -0.00   0.01  -0.00    -0.00  -0.00   0.00     0.00   0.00  -0.00
                    472                    473                    474
                        a                      a                      a 
 Frequencies --  3165.9251              3166.2385              3166.3023
 Red. masses --     1.9683                 1.9684                 1.9683
 Frc consts  --     0.0000                 0.0000                 0.0000
 IR Inten    --     0.1332                 1.3696                 7.8209
 Raman Activ --     0.0000                 0.0000                 0.0000
 Depolar     --     0.0000                 0.0000                 0.0000
 Atom AN      X      Y      Z        X      Y      Z        X      Y      Z
   1  30    -0.00   0.00   0.00     0.00   0.00   0.00    -0.00   0.00   0.00
   2   6     0.00  -0.02   0.00     0.00  -0.00   0.00     0.00  -0.00   0.00
   3   6     0.03  -0.00   0.00     0.00  -0.00   0.00     0.00  -0.00   0.00
   4   6     0.00   0.00  -0.00    -0.00   0.00   0.00     0.00   0.00  -0.00
   5   6     0.00  -0.00   0.00    -0.00  -0.00  -0.00     0.00  -0.00   0.00
   6   6     0.00  -0.00   0.00    -0.00  -0.00  -0.00     0.00  -0.00   0.00
   7   6     0.02   0.00   0.00     0.00   0.00   0.00     0.00   0.00   0.00
   8   6     0.00   0.01  -0.00     0.00   0.00  -0.00     0.00   0.00  -0.00
   9   6    -0.00   0.00  -0.00    -0.00   0.00   0.00    -0.00   0.00  -0.00
  10   7    -0.00  -0.00  -0.00     0.00  -0.00   0.00    -0.00  -0.00  -0.00
  11   6     0.00   0.00  -0.00     0.00   0.00  -0.00     0.00  -0.00   0.00
  12   6     0.00   0.00  -0.00     0.00   0.00   0.00    -0.00  -0.00  -0.00
  13   6    -0.00   0.00  -0.00    -0.00   0.00  -0.00     0.00  -0.00   0.00
  14   6    -0.00   0.00  -0.00    -0.00   0.00  -0.00     0.00  -0.00   0.00
  15   6     0.00  -0.00  -0.00    -0.00  -0.00  -0.00     0.00   0.00   0.00
  16   7    -0.00  -0.00  -0.00     0.00  -0.00   0.00    -0.00   0.00  -0.00
  17   6    -0.00  -0.00  -0.00    -0.00  -0.00  -0.00     0.00   0.00   0.00
  18   6    -0.00   0.00   0.00    -0.00   0.00  -0.00     0.00  -0.00   0.00
  19   6    -0.00  -0.00  -0.00    -0.00  -0.00  -0.00     0.00   0.00   0.00
  20   6    -0.00  -0.00   0.00    -0.00  -0.00   0.00     0.00   0.00  -0.00
  21   6     0.00  -0.00   0.00     0.00  -0.00   0.00    -0.00   0.00  -0.00
  22   7    -0.00   0.00  -0.00     0.00   0.00   0.00    -0.00  -0.00  -0.00
  23   6     0.00  -0.00   0.00     0.00  -0.00   0.00     0.00   0.00   0.00
  24   6    -0.00  -0.00  -0.00    -0.00  -0.00  -0.00    -0.00  -0.00  -0.00
  25   7    -0.00   0.00  -0.00     0.00   0.00  -0.00    -0.00   0.00  -0.00
  26   1    -0.01   0.06  -0.00    -0.00   0.00  -0.00    -0.00   0.01  -0.00
  27   1    -0.08   0.01  -0.00    -0.00   0.00  -0.00    -0.01   0.00  -0.00
  28   1    -0.05  -0.01  -0.00    -0.00  -0.00  -0.00    -0.01  -0.00  -0.00
  29   1    -0.00  -0.04   0.00    -0.00  -0.00   0.00    -0.00  -0.01   0.00
  30   1     0.00  -0.00  -0.00    -0.00  -0.00   0.00     0.00   0.00   0.00
  31   1     0.00  -0.00  -0.00     0.00  -0.01   0.00    -0.00   0.01  -0.00
  32   1     0.00  -0.00   0.00     0.01  -0.00   0.00    -0.01   0.00  -0.00
  33   1     0.00  -0.00   0.00     0.00   0.00   0.00    -0.00  -0.00  -0.00
  34   1     0.00   0.00   0.00     0.01   0.00   0.00    -0.01  -0.00  -0.00
  35   1     0.00   0.00  -0.00     0.00   0.01  -0.00    -0.00  -0.01   0.00
  36   1     0.00   0.00  -0.00    -0.00   0.00  -0.00     0.00  -0.00   0.00
  37  30     0.00   0.00   0.00     0.00   0.00   0.00    -0.00   0.00   0.00
  38   6    -0.00   0.01   0.00    -0.00   0.00   0.00     0.00  -0.00  -0.00
  39   6    -0.01   0.00   0.00    -0.00   0.00   0.00     0.00  -0.00  -0.00
  40   6    -0.00  -0.00  -0.00    -0.00  -0.00  -0.00     0.00   0.00   0.00
  41   6    -0.00  -0.00  -0.00     0.00  -0.00  -0.00     0.00   0.00  -0.00
  42   6    -0.00   0.00   0.00    -0.00   0.00   0.00     0.00  -0.00  -0.00
  43   6    -0.02  -0.00  -0.00    -0.00  -0.00  -0.00     0.00   0.00   0.00
  44   6    -0.00  -0.01  -0.00    -0.00  -0.00  -0.00     0.00   0.00   0.00
  45   6     0.00  -0.00  -0.00     0.00  -0.00  -0.00    -0.00   0.00   0.00
  46   7     0.00   0.00   0.00     0.00   0.00   0.00    -0.00   0.00  -0.00
  47   6    -0.00  -0.00  -0.00    -0.00  -0.00  -0.00    -0.00  -0.00  -0.00
  48   6    -0.00  -0.00  -0.00    -0.00   0.00  -0.00    -0.00  -0.00  -0.00
  49   6     0.00  -0.00  -0.00     0.00  -0.00  -0.00     0.00  -0.00  -0.00
  50   6     0.00  -0.00  -0.00     0.00  -0.00  -0.00     0.00  -0.00  -0.00
  51   6    -0.00   0.00   0.00     0.00   0.00   0.00     0.00   0.00   0.00
  52   7     0.00   0.00   0.00    -0.00   0.00   0.00    -0.00   0.00   0.00
  53   6     0.00  -0.00  -0.00     0.00   0.00  -0.00     0.00   0.00  -0.00
  54   6    -0.00  -0.00  -0.00     0.00  -0.00  -0.00     0.00  -0.00  -0.00
  55   6     0.00   0.00   0.00     0.00   0.00   0.00     0.00   0.00   0.00
  56   6     0.00   0.00   0.00     0.00   0.00   0.00     0.00   0.00   0.00
  57   6    -0.00   0.00   0.00    -0.00  -0.00  -0.00    -0.00   0.00   0.00
  58   7     0.00  -0.00  -0.00    -0.00  -0.00  -0.00    -0.00  -0.00  -0.00
  59   6    -0.00   0.00   0.00    -0.00   0.00   0.00    -0.00   0.00   0.00
  60   6     0.00   0.00   0.00     0.00   0.00   0.00    -0.00  -0.00  -0.00
  61   7     0.00  -0.00  -0.00     0.00  -0.00  -0.00    -0.00  -0.00   0.00
  62   1     0.00  -0.03  -0.01     0.00  -0.01  -0.00    -0.00   0.01   0.00
  63   1     0.04  -0.00  -0.00     0.01  -0.00  -0.00    -0.01   0.00   0.00
  64   1     0.05   0.01   0.00     0.01   0.00   0.00    -0.01  -0.00  -0.00
  65   1     0.00   0.04   0.01     0.00   0.01   0.00    -0.00  -0.01  -0.00
  66   1    -0.00   0.00   0.00    -0.00   0.00   0.00    -0.00   0.00   0.00
  67   1    -0.00   0.00   0.00    -0.00   0.00   0.00    -0.00   0.01   0.00
  68   1    -0.00   0.00   0.00    -0.00   0.00   0.00    -0.02   0.00   0.00
  69   1    -0.00  -0.00   0.00    -0.00  -0.00   0.00    -0.00  -0.00   0.00
  70   1    -0.00  -0.00  -0.00    -0.00  -0.00  -0.00    -0.01  -0.00  -0.00
  71   1    -0.00  -0.00  -0.00    -0.00  -0.00  -0.00    -0.00  -0.01  -0.00
  72   1    -0.00  -0.00  -0.00     0.00  -0.00  -0.00     0.00  -0.00  -0.00
  73   6     0.00  -0.00   0.00    -0.00   0.00   0.00     0.00  -0.00   0.00
  74   6    -0.00   0.00   0.00     0.00   0.00   0.00    -0.00   0.00   0.00
  75   6     0.00   0.00  -0.00    -0.00   0.00  -0.00     0.00   0.00  -0.00
  76   6    -0.00  -0.00  -0.00     0.00  -0.00   0.00    -0.00  -0.00  -0.00
  77   6     0.00   0.00  -0.00    -0.00  -0.00   0.00     0.00  -0.00   0.00
  78   6     0.00  -0.00  -0.00     0.00   0.00  -0.00    -0.00   0.00   0.00
  79   6     0.00  -0.00  -0.00     0.00  -0.00  -0.00    -0.00   0.00  -0.00
  80   6     0.00   0.00  -0.00     0.00   0.00   0.00    -0.00  -0.00   0.00
  81   6    -0.00   0.00  -0.00    -0.00   0.00  -0.00    -0.00   0.00   0.00
  82   6     0.00  -0.00   0.00     0.00  -0.00   0.00     0.00  -0.00   0.00
  83   6    -0.00  -0.00   0.00    -0.00  -0.00   0.00    -0.00  -0.00   0.00
  84   6    -0.00   0.00  -0.00    -0.00   0.00  -0.00    -0.00   0.00  -0.00
  85   6    -0.00  -0.00   0.00    -0.00   0.00  -0.00    -0.00   0.00  -0.00
  86   6    -0.00  -0.00  -0.00     0.00  -0.00   0.00     0.00  -0.00   0.00
  87   6     0.00   0.00  -0.00    -0.00  -0.00   0.00    -0.00  -0.00   0.00
  88   6    -0.00  -0.00   0.00     0.00   0.00   0.00     0.00   0.00   0.00
  89   6     0.00   0.00  -0.00    -0.00   0.00   0.00    -0.00   0.00   0.00
  90   6    -0.00  -0.00  -0.00    -0.00  -0.00  -0.00     0.00   0.00   0.00
  91  30    -0.00   0.00   0.00    -0.00   0.00   0.00     0.00  -0.00   0.00
  92   6     0.00   0.08  -0.01    -0.00  -0.03   0.00     0.00   0.01  -0.00
  93   6     0.11   0.01  -0.00    -0.04  -0.00   0.00     0.01   0.00  -0.00
  94   6     0.00  -0.00   0.00    -0.00   0.00  -0.00     0.00  -0.00   0.00
  95   6     0.00  -0.00   0.00    -0.00   0.00  -0.00    -0.00   0.00  -0.00
  96   6     0.00   0.00  -0.00    -0.00  -0.00   0.00     0.00   0.00  -0.00
  97   6     0.12  -0.01   0.00    -0.04   0.00  -0.00     0.01  -0.00   0.00
  98   6     0.00  -0.09   0.01    -0.00   0.03  -0.00     0.00  -0.01   0.00
  99   6    -0.00  -0.00   0.00     0.00   0.00  -0.00    -0.00  -0.00   0.00
 100   7    -0.00   0.00  -0.00     0.00  -0.00   0.00    -0.00   0.00  -0.00
 101   6     0.00  -0.00   0.00     0.00   0.00  -0.00    -0.00  -0.00   0.00
 102   6    -0.00   0.00  -0.00    -0.00   0.00  -0.00     0.00  -0.00   0.00
 103   6     0.00   0.02  -0.00     0.01   0.11  -0.01    -0.00  -0.04   0.01
 104   6     0.03   0.00  -0.00     0.15   0.01  -0.00    -0.06  -0.00   0.00
 105   6     0.00  -0.00   0.00     0.00  -0.01   0.00    -0.00   0.00  -0.00
 106   7    -0.00  -0.00   0.00    -0.00  -0.00   0.00     0.00   0.00  -0.00
 107   6     0.00  -0.00  -0.00     0.00   0.00  -0.00    -0.00   0.00  -0.00
 108   6     0.00   0.00  -0.00     0.00   0.01  -0.00    -0.00  -0.00   0.00
 109   6     0.03  -0.00   0.00     0.15  -0.01   0.00    -0.07   0.01  -0.00
 110   6     0.00  -0.02   0.00     0.01  -0.11   0.01    -0.00   0.05  -0.01
 111   6    -0.00  -0.00   0.00    -0.00  -0.00   0.00     0.00   0.00  -0.00
 112   7    -0.00   0.00  -0.00    -0.00   0.00  -0.00     0.00  -0.00   0.00
 113   6     0.00   0.00  -0.00     0.00  -0.00   0.00    -0.00   0.00  -0.00
 114   6    -0.00   0.00  -0.00     0.00  -0.00   0.00    -0.00   0.00  -0.00
 115   7    -0.00  -0.00   0.00     0.00   0.00  -0.00    -0.00  -0.00   0.00
 116   1    -0.03  -0.27   0.03     0.01   0.09  -0.01    -0.00  -0.02   0.00
 117   1    -0.36  -0.04   0.01     0.12   0.01  -0.00    -0.03  -0.00   0.00
 118   1    -0.38   0.05  -0.00     0.13  -0.02   0.00    -0.03   0.00  -0.00
 119   1    -0.03   0.28  -0.03     0.01  -0.10   0.01    -0.00   0.02  -0.00
 120   1     0.00   0.00  -0.00     0.00  -0.01   0.00    -0.00   0.00  -0.00
 121   1    -0.01  -0.08   0.01    -0.04  -0.36   0.04     0.02   0.14  -0.02
 122   1    -0.11  -0.01   0.00    -0.48  -0.05   0.01     0.19   0.02  -0.00
 123   1    -0.11   0.01  -0.00    -0.49   0.06  -0.00     0.21  -0.03   0.00
 124   1    -0.01   0.08  -0.01    -0.04   0.35  -0.04     0.02  -0.15   0.02
 125   1     0.00  -0.00   0.00     0.00   0.01  -0.00    -0.00  -0.00   0.00
 126  30     0.00  -0.00   0.00     0.00  -0.00   0.00     0.00  -0.00   0.00
 127   6    -0.00  -0.02   0.00    -0.00  -0.03   0.00    -0.01  -0.09   0.01
 128   6    -0.02  -0.00   0.00    -0.05  -0.00   0.00    -0.12  -0.01   0.00
 129   6    -0.00   0.00  -0.00    -0.00   0.00  -0.00    -0.00   0.00  -0.00
 130   6    -0.00   0.00  -0.00     0.00   0.00  -0.00    -0.00   0.00  -0.00
 131   6    -0.00  -0.00   0.00    -0.00  -0.00   0.00    -0.00  -0.01   0.00
 132   6    -0.03   0.00  -0.00    -0.07   0.01  -0.00    -0.17   0.01  -0.00
 133   6    -0.00   0.03  -0.00    -0.00   0.05  -0.01    -0.01   0.13  -0.02
 134   6     0.00   0.00  -0.00     0.00   0.00  -0.00     0.01   0.00  -0.00
 135   7     0.00  -0.00   0.00     0.00  -0.00   0.00     0.00  -0.00   0.00
 136   6    -0.00  -0.00   0.00    -0.00   0.00  -0.00    -0.00   0.00  -0.00
 137   6     0.00  -0.00   0.00    -0.00   0.00  -0.00    -0.00   0.00  -0.00
 138   6    -0.01  -0.09   0.01     0.00   0.02  -0.00     0.00   0.03  -0.00
 139   6    -0.11  -0.01   0.00     0.02   0.00  -0.00     0.03   0.00  -0.00
 140   6    -0.00   0.00  -0.00     0.00  -0.00   0.00     0.00  -0.00   0.00
 141   7     0.00   0.00  -0.00    -0.00  -0.00   0.00    -0.00  -0.00   0.00
 142   6    -0.00  -0.00   0.00     0.00   0.00  -0.00     0.00   0.00  -0.00
 143   6    -0.00  -0.00   0.00     0.00   0.00  -0.00     0.00   0.00  -0.00
 144   6    -0.11   0.01  -0.00     0.02  -0.00   0.00     0.02  -0.00   0.00
 145   6    -0.00   0.08  -0.01     0.00  -0.01   0.00     0.00  -0.02   0.00
 146   6     0.00   0.00  -0.00    -0.00  -0.00   0.00    -0.00  -0.00   0.00
 147   7     0.00  -0.00   0.00    -0.00   0.00  -0.00    -0.00   0.00  -0.00
 148   6    -0.00   0.00  -0.00    -0.00  -0.00   0.00    -0.00  -0.00   0.00
 149   6     0.00  -0.00   0.00     0.00  -0.00   0.00     0.00  -0.00   0.00
 150   7     0.00   0.00  -0.00     0.00   0.00  -0.00     0.00   0.00  -0.00
 151   1     0.01   0.05  -0.01     0.01   0.11  -0.01     0.03   0.28  -0.03
 152   1     0.07   0.01  -0.00     0.16   0.02  -0.00     0.41   0.05  -0.01
 153   1     0.11  -0.01   0.00     0.22  -0.03   0.00     0.56  -0.07   0.01
 154   1     0.01  -0.08   0.01     0.02  -0.17   0.02     0.04  -0.42   0.05
 155   1    -0.00   0.00  -0.00    -0.00  -0.00   0.00    -0.00  -0.01   0.00
 156   1     0.03   0.27  -0.03    -0.01  -0.06   0.01    -0.01  -0.09   0.01
 157   1     0.36   0.04  -0.00    -0.07  -0.01   0.00    -0.11  -0.01   0.00
 158   1     0.35  -0.04   0.00    -0.06   0.01  -0.00    -0.08   0.01  -0.00
 159   1     0.03  -0.26   0.03    -0.00   0.04  -0.00    -0.01   0.06  -0.01
 160   1    -0.00  -0.00   0.00    -0.00   0.00  -0.00    -0.00   0.01  -0.00
