      -----------------------------------------------------------      
     |                   =====================                   |     
     |                           x T B                           |     
     |                   =====================                   |     
     |                         S. Grimme                         |     
     |          Mulliken Center for Theoretical Chemistry        |     
     |                    University of Bonn                     |     
      -----------------------------------------------------------      

   * xtb version 6.4.1 (bd6e46d) compiled by 'conda@4901f00b25ba' on 2021-06-10

   xtb is free software: you can redistribute it and/or modify it under
   the terms of the GNU Lesser General Public License as published by
   the Free Software Foundation, either version 3 of the License, or
   (at your option) any later version.
   
   xtb is distributed in the hope that it will be useful,
   but WITHOUT ANY WARRANTY; without even the implied warranty of
   MERCHANTABILITY or FITNESS FOR A PARTICULAR PURPOSE.  See the
   GNU Lesser General Public License for more details.
   
   Cite this work as:
   * C. Bannwarth, E. Caldeweyher, S. Ehlert, A. Hansen, P. Pracht,
     J. Seibert, S. Spicher, S. Grimme, WIREs Comput. Mol. Sci., 2020, 11,
     e01493. DOI: 10.1002/wcms.1493
   
   for GFN2-xTB:
   * C. Bannwarth, S. Ehlert and S. Grimme., J. Chem. Theory Comput., 2019,
     15, 1652-1671. DOI: 10.1021/acs.jctc.8b01176
   for GFN1-xTB:
   * S. Grimme, C. Bannwarth, P. Shushkov, J. Chem. Theory Comput., 2017,
     13, 1989-2009. DOI: 10.1021/acs.jctc.7b00118
   for GFN0-xTB:
   * P. Pracht, E. Caldeweyher, S. Ehlert, S. Grimme, ChemRxiv, 2019, preprint.
     DOI: 10.26434/chemrxiv.8326202.v1
   for GFN-FF:
   * S. Spicher and S. Grimme, Angew. Chem. Int. Ed., 2020, 59, 15665-15673.
     DOI: 10.1002/anie.202004239
   
   for DFT-D4:
   * E. Caldeweyher, C. Bannwarth and S. Grimme, J. Chem. Phys., 2017,
     147, 034112. DOI: 10.1063/1.4993215
   * E. Caldeweyher, S. Ehlert, A. Hansen, H. Neugebauer, S. Spicher,
     C. Bannwarth and S. Grimme, J. Chem. Phys., 2019, 150, 154122.
     DOI: 10.1063/1.5090222
   * E. Caldeweyher, J.-M. Mewes, S. Ehlert and S. Grimme, Phys. Chem. Chem. Phys.
     2020, 22, 8499-8512. DOI: 10.1039/D0CP00502A
   
   for sTDA-xTB:
   * S. Grimme and C. Bannwarth, J. Chem. Phys., 2016, 145, 054103.
     DOI: 10.1063/1.4959605
   
   in the mass-spec context:
   * V. Asgeirsson, C. Bauer and S. Grimme, Chem. Sci., 2017, 8, 4879.
     DOI: 10.1039/c7sc00601b
   * J. Koopman and S. Grimme, ACS Omega 2019, 4, 12, 15120-15133.
     DOI: 10.1021/acsomega.9b02011
   
   for metadynamics refer to:
   * S. Grimme, J. Chem. Theory Comput., 2019, 155, 2847-2862
     DOI: 10.1021/acs.jctc.9b00143
   
   for SPH calculations refer to:
   * S. Spicher and S. Grimme, J. Chem. Theory Comput., 2021, 17, 1701-1714
     DOI: 10.1021/acs.jctc.0c01306
   
   with help from (in alphabetical order)
   P. Atkinson, C. Bannwarth, F. Bohle, G. Brandenburg, E. Caldeweyher
   M. Checinski, S. Dohm, S. Ehlert, S. Ehrlich, I. Gerasimov, J. Koopman
   C. Lavigne, S. Lehtola, F. März, M. Müller, F. Musil, H. Neugebauer
   J. Pisarek, C. Plett, P. Pracht, J. Seibert, P. Shushkov, S. Spicher
   M. Stahn, M. Steiner, T. Strunk, J. Stückrath, T. Rose, and J. Unsleber
   
 * started run on 2021/11/18 at 19:08:28.513     

           -------------------------------------------------
          |                Calculation Setup                |
           -------------------------------------------------

          program call               : /home/jeff/miniconda3/bin/xtb input_structure_1.xyz --gfn 2 --ohess normal --parallel 1 --etemp 300 --chrg 0 --uhf 0 -I det_control.in
          hostname                   : jelfscompute1
          coordinate file            : input_structure_1.xyz
          omp threads                :                     1
          number of atoms            :                   160
          number of electrons        :                   522
          charge                     :                     0
          spin                       :                   0.0
          first test random number   :      0.96072498380990

   ID    Z sym.   atoms
    1   30 Zn     1, 37, 91, 126
    2    6 C      2-9, 11-15, 17-21, 23, 24, 38-45, 47-51, 53-57, 59, 60,
                  73-90, 92-99, 101-105, 107-111, 113, 114, 127-134, 136-140,
                  142-146, 148, 149
    3    7 N      10, 16, 22, 25, 46, 52, 58, 61, 100, 106, 112, 115, 135,
                  141, 147, 150
    4    1 H      26-36, 62-72, 116-125, 151-160

molecular fragmentation (1/2 indicates fragments):
111111111111111111111111111111111111222222222222222222222222222222222222
222222222222222222222222222222222222222222222222222222222222222222222222
2222222222222222
# atoms in fragment 1/2:    36   124
 fragment masses (1/2) :      372.71     1332.30
CMA distance (Bohr)    :  61.067
constraining FC (au)   :  0.0500

           -------------------------------------------------
          |                 G F N 2 - x T B                 |
           -------------------------------------------------

        Reference                      10.1021/acs.jctc.8b01176
      * Hamiltonian:
        H0-scaling (s, p, d)           1.850000    2.230000    2.230000
        zeta-weighting                 0.500000
      * Dispersion:
        s8                             2.700000
        a1                             0.520000
        a2                             5.000000
        s9                             5.000000
      * Repulsion:
        kExp                           1.500000    1.000000
        rExp                           1.000000
      * Coulomb:
        alpha                          2.000000
        third order                    shell-resolved
        anisotropic                    true
        a3                             3.000000
        a5                             4.000000
        cn-shift                       1.200000
        cn-exp                         4.000000
        max-rad                        5.000000


          ...................................................
          :                      SETUP                      :
          :.................................................:
          :  # basis functions                 514          :
          :  # atomic orbitals                 514          :
          :  # shells                          278          :
          :  # electrons                       522          :
          :  max. iterations                   250          :
          :  Hamiltonian                  GFN2-xTB          :
          :  restarted?                      false          :
          :  GBSA solvation                  false          :
          :  PC potential                    false          :
          :  electronic temp.          300.0000000     K    :
          :  accuracy                    1.0000000          :
          :  -> integral cutoff          0.2500000E+02      :
          :  -> integral neglect         0.1000000E-07      :
          :  -> SCF convergence          0.1000000E-05 Eh   :
          :  -> wf. convergence          0.1000000E-03 e    :
          :  Broyden damping             0.4000000          :
          ...................................................

 iter      E             dE          RMSdq      gap      omega  full diag
   1   -283.1002454 -0.283100E+03  0.731E+00    0.00       0.0  T
   2   -264.8980584  0.182022E+02  0.597E+00    0.44       1.0  T
   3   -187.3627622  0.775353E+02  0.982E+00    0.01       1.0  T
   4   -126.8135568  0.605492E+02  0.110E+01    0.12       1.0  T
   5   -264.0664091 -0.137253E+03  0.541E+00    0.10       1.0  T
   6   -279.5153150 -0.154489E+02  0.372E+00    0.33       1.0  T
   7   -270.9025422  0.861277E+01  0.396E+00    0.13       1.0  T
   8   -275.4785878 -0.457605E+01  0.349E+00    0.10       1.0  T
   9   -282.6220901 -0.714350E+01  0.252E+00    0.12       1.0  T
  10   -283.6630054 -0.104092E+01  0.214E+00    0.29       1.0  T
  11   -283.7871494 -0.124144E+00  0.188E+00    0.13       1.0  T
  12   -283.8906842 -0.103535E+00  0.166E+00    0.25       1.0  T
  13   -284.2036171 -0.312933E+00  0.133E+00    0.02       1.0  T
  14   -284.3844987 -0.180882E+00  0.960E-01    0.06       1.0  T
  15   -284.3119653  0.725334E-01  0.982E-01    0.01       1.0  T
  16   -284.4252407 -0.113275E+00  0.646E-01    0.18       1.0  T
  17   -284.4749997 -0.497590E-01  0.516E-01    0.06       1.0  T
  18   -284.4524877  0.225120E-01  0.536E-01    0.03       1.0  T
  19   -284.4375843  0.149034E-01  0.535E-01    0.00       1.0  T
  20   -284.5021553 -0.645710E-01  0.441E-01    0.11       1.0  T
  21   -284.5014595  0.695833E-03  0.354E-01    0.04       1.0  T
  22   -284.5239165 -0.224570E-01  0.264E-01    0.08       1.0  T
  23   -284.5324983 -0.858182E-02  0.202E-01    0.07       1.0  T
  24   -284.5378306 -0.533237E-02  0.132E-01    0.08       1.0  T
  25   -284.5392666 -0.143591E-02  0.945E-02    0.07       1.0  T
  26   -284.5405410 -0.127447E-02  0.545E-02    0.08       1.0  T
  27   -284.5404885  0.525094E-04  0.514E-02    0.08       1.0  T
  28   -284.5405159 -0.273464E-04  0.469E-02    0.07       1.0  T
  29   -284.5411938 -0.677954E-03  0.262E-02    0.08       1.0  T
  30   -284.5412318 -0.379541E-04  0.231E-02    0.07       1.0  T
  31   -284.5412278  0.399454E-05  0.234E-02    0.07       1.0  T
  32   -284.5412596 -0.317827E-04  0.195E-02    0.07       1.0  T
  33   -284.5413182 -0.585970E-04  0.132E-02    0.07       1.0  T
  34   -284.5413561 -0.379515E-04  0.835E-03    0.07       1.0  T
  35   -284.5413597 -0.362594E-05  0.731E-03    0.07       1.1  T
  36   -284.5413758 -0.160780E-04  0.430E-03    0.07       1.8  T
  37   -284.5413826 -0.680204E-05  0.216E-03    0.07       3.7  T
  38   -284.5413824  0.207794E-06  0.235E-03    0.07       3.4  T
  39   -284.5413819  0.511085E-06  0.237E-03    0.07       3.3  T
  40   -284.5413834 -0.148345E-05  0.153E-03    0.08       5.2  T
  41   -284.5413833  0.810371E-07  0.146E-03    0.08       5.4  T
  42   -284.5413836 -0.303999E-06  0.111E-03    0.08       7.1  T
  43   -284.5413839 -0.341602E-06  0.621E-04    0.08      12.7  T
  44   -284.5413841 -0.115389E-06  0.315E-04    0.08      25.1  T

   *** convergence criteria satisfied after 44 iterations ***

         #    Occupation            Energy/Eh            Energy/eV
      -------------------------------------------------------------
         1        2.0000           -0.6826516             -18.5759
       ...           ...                  ...                  ...
       255        2.0000           -0.3600375              -9.7971
       256        2.0000           -0.3584603              -9.7542
       257        2.0000           -0.3584466              -9.7538
       258        2.0000           -0.3506966              -9.5429
       259        2.0000           -0.3506663              -9.5421
       260        2.0000           -0.3476706              -9.4606
       261        1.4766           -0.3379046              -9.1949 (HOMO)
       262        0.2652           -0.3351350              -9.1195 (LUMO)
       263        0.2582           -0.3351057              -9.1187
       264        0.0000           -0.3213611              -8.7447
       265                         -0.3161363              -8.6025
       266                         -0.3161014              -8.6016
       ...                                ...                  ...
       514                          2.2665318              61.6755
      -------------------------------------------------------------
                  HL-Gap            0.0027697 Eh            0.0754 eV
             Fermi-level           -0.3369193 Eh           -9.1680 eV

 SCC (total)                   0 d,  0 h,  0 min,  2.990 sec
 SCC setup                      ...        0 min,  0.005 sec (  0.159%)
 Dispersion                     ...        0 min,  0.010 sec (  0.326%)
 classical contributions        ...        0 min,  0.001 sec (  0.039%)
 integral evaluation            ...        0 min,  0.076 sec (  2.529%)
 iterations                     ...        0 min,  2.682 sec ( 89.700%)
 molecular gradient             ...        0 min,  0.209 sec (  7.002%)
 printout                       ...        0 min,  0.007 sec (  0.245%)

         :::::::::::::::::::::::::::::::::::::::::::::::::::::
         ::                     SUMMARY                     ::
         :::::::::::::::::::::::::::::::::::::::::::::::::::::
         :: total energy            -278.586833462170 Eh    ::
         :: gradient norm              1.460349870636 Eh/a0 ::
         :: HOMO-LUMO gap              0.075366114593 eV    ::
         ::.................................................::
         :: SCC energy              -284.541384058002 Eh    ::
         :: -> isotropic ES            0.273993205322 Eh    ::
         :: -> anisotropic ES          0.033442867376 Eh    ::
         :: -> anisotropic XC          0.192868248872 Eh    ::
         :: -> dispersion             -0.242195009735 Eh    ::
         :: repulsion energy           5.954700151870 Eh    ::
         :: add. restraining           0.000000000000 Eh    ::
         :: total charge              -0.000000000054 e     ::
         :::::::::::::::::::::::::::::::::::::::::::::::::::::

      ----------------------------------------------------------- 
     |                   =====================                   |
     |                        A N C O P T                        |
     |                   =====================                   |
     |               Approximate Normal Coordinate               |
     |                Rational Function Optimizer                |
      ----------------------------------------------------------- 

          ...................................................
          :                      SETUP                      :
          :.................................................:
          :   optimization level            normal          :
          :   max. optcycles                   480          :
          :   ANC micro-cycles                  20          :
          :   degrees of freedom               474          :
          :.................................................:
          :   RF solver                   davidson          :
          :   write xtbopt.log                true          :
          :   linear?                        false          :
          :   energy convergence         0.5000000E-05 Eh   :
          :   grad. convergence          0.1000000E-02 Eh/α :
          :   maximium RF displ.         1.0000000          :
          :   Hlow (freq-cutoff)         0.1000000E-01      :
          :   Hmax (freq-cutoff)         5.0000000          :
          :   S6 in model hess.         20.0000000          :
          ...................................................

generating ANC from model Hessian ...
Using Lindh-Hessian (1995)
 Shifting diagonal of input Hessian by    1.0134276708835517E-002
 Lowest  eigenvalues of input Hessian
    0.010000    0.010034    0.010100    0.010101    0.010110    0.010112
    0.010114    0.010119    0.010124    0.010127    0.010129    0.000000
    0.000000    0.000000    0.000000    0.000000    0.000000    0.010144
 Highest eigenvalues
    2.682207    2.687821    3.325869    3.327672    3.495154    3.495768


........................................................................
.............................. CYCLE    1 ..............................
........................................................................
   1   -284.5413841 -0.284541E+03  0.217E-04    0.08       0.0  T
   2   -284.5413757  0.838544E-05  0.346E-03    0.08       2.3  T
   3   -284.5413835 -0.778220E-05  0.959E-04    0.08       8.2  T
   4   -284.5413837 -0.232316E-06  0.763E-04    0.08      10.4  T
   5   -284.5413838 -0.886535E-07  0.695E-04    0.08      11.4  T
     SCC iter.                  ...        0 min,  0.302 sec
     gradient                   ...        0 min,  0.208 sec
 * total energy  :  -278.5868332 Eh     change        0.2697698E-06 Eh
   gradient norm :     1.4603406 Eh/α   predicted     0.0000000E+00 (-100.00%)
   displ. norm   :     0.5735255 α      lambda       -0.7561581E+00
   maximum displ.:     0.1497131 α      in ANC's #378, #379, #474, ...

........................................................................
.............................. CYCLE    2 ..............................
........................................................................
   1   -284.5404135 -0.284540E+03  0.424E-01    0.13       0.0  T
   2   -283.1659721  0.137444E+01  0.160E+00    0.29       1.0  T
   3   -284.5236224 -0.135765E+01  0.441E-01    0.25       1.0  T
   4   -284.5009862  0.226362E-01  0.430E-01    0.03       1.0  T
   5   -284.1361741  0.364812E+00  0.827E-01    0.11       1.0  T
   6   -284.1904060 -0.542318E-01  0.903E-01    0.08       1.0  T
   7   -284.5057325 -0.315327E+00  0.484E-01    0.22       1.0  T
   8   -284.5439504 -0.382179E-01  0.301E-01    0.18       1.0  T
   9   -284.5463834 -0.243302E-02  0.312E-01    0.13       1.0  T
  10   -284.5709496 -0.245662E-01  0.128E-01    0.09       1.0  T
  11   -284.5756857 -0.473611E-02  0.531E-02    0.07       1.0  T
  12   -284.5761521 -0.466345E-03  0.423E-02    0.07       1.0  T
  13   -284.5759336  0.218454E-03  0.440E-02    0.07       1.0  T
  14   -284.5758436  0.899961E-04  0.397E-02    0.07       1.0  T
  15   -284.5766401 -0.796484E-03  0.176E-02    0.07       1.0  T
  16   -284.5767682 -0.128123E-03  0.696E-03    0.07       1.1  T
  17   -284.5767858 -0.175344E-04  0.413E-03    0.07       1.9  T
  18   -284.5767868 -0.100035E-05  0.359E-03    0.07       2.2  T
  19   -284.5767933 -0.657583E-05  0.111E-03    0.07       7.1  T
  20   -284.5767934 -0.464219E-07  0.108E-03    0.07       7.3  T
  21   -284.5767935 -0.110459E-06  0.907E-04    0.07       8.7  T
  22   -284.5767938 -0.289964E-06  0.378E-04    0.07      20.9  T
     SCC iter.                  ...        0 min,  1.309 sec
     gradient                   ...        0 min,  0.208 sec
 * total energy  :  -279.0890809 Eh     change       -0.5022477E+00 Eh
   gradient norm :     0.5605626 Eh/α   predicted    -0.5024729E+00 (   0.04%)
   displ. norm   :     0.5836578 α      lambda       -0.2613955E+00
   maximum displ.:     0.1738202 α      in ANC's #166, #163, #164, ...

........................................................................
.............................. CYCLE    3 ..............................
........................................................................
   1   -284.5990005 -0.284599E+03  0.375E-01    0.05       0.0  T
   2   -284.5710921  0.279084E-01  0.400E-01    0.09       1.0  T
   3   -284.1714317  0.399660E+00  0.816E-01    0.18       1.0  T
   4   -284.5227534 -0.351322E+00  0.502E-01    0.01       1.0  T
   5   -284.4713270  0.514263E-01  0.577E-01    0.23       1.0  T
   6   -284.5606182 -0.892912E-01  0.408E-01    0.06       1.0  T
   7   -284.2588645  0.301754E+00  0.729E-01    0.12       1.0  T
   8   -284.5406631 -0.281799E+00  0.481E-01    0.16       1.0  T
   9   -284.5812861 -0.406230E-01  0.288E-01    0.13       1.0  T
  10   -284.5926793 -0.113932E-01  0.226E-01    0.11       1.0  T
  11   -284.6060917 -0.134124E-01  0.127E-01    0.08       1.0  T
  12   -284.6105297 -0.443798E-02  0.656E-02    0.06       1.0  T
  13   -284.6119952 -0.146555E-02  0.333E-02    0.06       1.0  T
  14   -284.6118262  0.168996E-03  0.314E-02    0.06       1.0  T
  15   -284.6121961 -0.369913E-03  0.186E-02    0.06       1.0  T
  16   -284.6123281 -0.131978E-03  0.743E-03    0.06       1.1  T
  17   -284.6123346 -0.650542E-05  0.479E-03    0.05       1.7  T
  18   -284.6123434 -0.874529E-05  0.223E-03    0.05       3.5  T
  19   -284.6123443 -0.910916E-06  0.964E-04    0.05       8.2  T
  20   -284.6123443 -0.488837E-07  0.749E-04    0.05      10.6  T
     SCC iter.                  ...        0 min,  1.192 sec
     gradient                   ...        0 min,  0.208 sec
 * total energy  :  -279.2862886 Eh     change       -0.1972077E+00 Eh
   gradient norm :     0.2613305 Eh/α   predicted    -0.1752209E+00 ( -11.15%)
   displ. norm   :     0.6705425 α      lambda       -0.1348900E+00
   maximum displ.:     0.2391580 α      in ANC's #166, #163, #164, ...

........................................................................
.............................. CYCLE    4 ..............................
........................................................................
   1   -284.6708156 -0.284671E+03  0.378E-01    0.08       0.0  T
   2   -284.0298511  0.640965E+00  0.123E+00    0.05       1.0  T
   3   -284.5723782 -0.542527E+00  0.509E-01    0.13       1.0  T
   4   -284.5928399 -0.204617E-01  0.604E-01    0.06       1.0  T
   5   -284.4233049  0.169535E+00  0.683E-01    0.08       1.0  T
   6   -284.4113353  0.119696E-01  0.708E-01    0.09       1.0  T
   7   -284.5607368 -0.149401E+00  0.576E-01    0.20       1.0  T
   8   -284.6285538 -0.678171E-01  0.413E-01    0.12       1.0  T
   9   -284.6604273 -0.318735E-01  0.261E-01    0.07       1.0  T
  10   -284.6869786 -0.265512E-01  0.548E-02    0.04       1.0  T
  11   -284.6870545 -0.759367E-04  0.475E-02    0.04       1.0  T
  12   -284.6874235 -0.368958E-03  0.398E-02    0.04       1.0  T
  13   -284.6881500 -0.726539E-03  0.214E-02    0.05       1.0  T
  14   -284.6882056 -0.555689E-04  0.189E-02    0.05       1.0  T
  15   -284.6882205 -0.148772E-04  0.155E-02    0.04       1.0  T
  16   -284.6883073 -0.868023E-04  0.561E-03    0.04       1.4  T
  17   -284.6883234 -0.161579E-04  0.145E-03    0.04       5.5  T
  18   -284.6883224  0.101628E-05  0.178E-03    0.04       4.4  T
  19   -284.6883224  0.315052E-07  0.180E-03    0.04       4.4  T
  20   -284.6883238 -0.143089E-05  0.779E-04    0.04      10.2  T
  21   -284.6883240 -0.206049E-06  0.440E-04    0.04      18.0  T
  22   -284.6883241 -0.538114E-07  0.300E-04    0.04      26.3  T
     SCC iter.                  ...        0 min,  1.308 sec
     gradient                   ...        0 min,  0.208 sec
 * total energy  :  -279.3884603 Eh     change       -0.1021717E+00 Eh
   gradient norm :     0.1141173 Eh/α   predicted    -0.9777033E-01 (  -4.31%)
   displ. norm   :     0.7302648 α      lambda       -0.7336795E-01
   maximum displ.:     0.2536116 α      in ANC's #166, #163, #126, ...

........................................................................
.............................. CYCLE    5 ..............................
........................................................................
   1   -284.7153300 -0.284715E+03  0.384E-01    0.11       0.0  T
   2   -283.8502693  0.865061E+00  0.142E+00    0.15       1.0  T
   3   -284.3965504 -0.546281E+00  0.992E-01    0.15       1.0  T
   4   -284.7154531 -0.318903E+00  0.335E-01    0.06       1.0  T
   5   -284.7061933  0.925985E-02  0.330E-01    0.09       1.0  T
   6   -284.6682660  0.379273E-01  0.502E-01    0.04       1.0  T
   7   -284.5807631  0.875029E-01  0.490E-01    0.04       1.0  T
   8   -284.7168161 -0.136053E+00  0.197E-01    0.01       1.0  T
   9   -284.7390975 -0.222814E-01  0.723E-02    0.04       1.0  T
  10   -284.7357326  0.336490E-02  0.103E-01    0.02       1.0  T
  11   -284.7395472 -0.381459E-02  0.740E-02    0.03       1.0  T
  12   -284.7399824 -0.435222E-03  0.520E-02    0.04       1.0  T
  13   -284.7415598 -0.157738E-02  0.221E-02    0.04       1.0  T
  14   -284.7417007 -0.140859E-03  0.175E-02    0.05       1.0  T
  15   -284.7417169 -0.162546E-04  0.147E-02    0.04       1.0  T
  16   -284.7417616 -0.446526E-04  0.881E-03    0.05       1.0  T
  17   -284.7417734 -0.117992E-04  0.510E-03    0.04       1.5  T
  18   -284.7417800 -0.661102E-05  0.302E-03    0.05       2.6  T
  19   -284.7417826 -0.259413E-05  0.220E-03    0.05       3.6  T
  20   -284.7417835 -0.953243E-06  0.119E-03    0.05       6.7  T
  21   -284.7417838 -0.220383E-06  0.563E-04    0.05      14.0  T
  22   -284.7417837  0.145943E-07  0.494E-04    0.05      16.0  T
     SCC iter.                  ...        0 min,  1.308 sec
     gradient                   ...        0 min,  0.209 sec
 * total energy  :  -279.4481634 Eh     change       -0.5970314E-01 Eh
   gradient norm :     0.0800722 Eh/α   predicted    -0.5624706E-01 (  -5.79%)
   displ. norm   :     0.7702503 α      lambda       -0.5032232E-01
   maximum displ.:     0.2521310 α      in ANC's #89, #166, #32, ...

........................................................................
.............................. CYCLE    6 ..............................
........................................................................
   1   -284.7580343 -0.284758E+03  0.357E-01    0.12       0.0  T
   2   -283.8217323  0.936302E+00  0.143E+00    0.19       1.0  T
   3   -284.5712752 -0.749543E+00  0.777E-01    0.18       1.0  T
   4   -284.7459537 -0.174678E+00  0.341E-01    0.12       1.0  T
   5   -284.7368299  0.912376E-02  0.285E-01    0.03       1.0  T
   6   -284.3223463  0.414484E+00  0.838E-01    0.13       1.0  T
   7   -284.7641769 -0.441831E+00  0.216E-01    0.07       1.0  T
   8   -284.7655745 -0.139761E-02  0.143E-01    0.05       1.0  T
   9   -284.7777071 -0.121326E-01  0.670E-02    0.05       1.0  T
  10   -284.7778688 -0.161610E-03  0.684E-02    0.05       1.0  T
  11   -284.7781614 -0.292614E-03  0.556E-02    0.05       1.0  T
  12   -284.7781342  0.271385E-04  0.499E-02    0.05       1.0  T
  13   -284.7790407 -0.906426E-03  0.109E-02    0.06       1.0  T
  14   -284.7790162  0.244589E-04  0.117E-02    0.06       1.0  T
  15   -284.7790269 -0.106948E-04  0.108E-02    0.06       1.0  T
  16   -284.7790591 -0.321862E-04  0.714E-03    0.06       1.1  T
  17   -284.7790674 -0.836501E-05  0.466E-03    0.06       1.7  T
  18   -284.7790651  0.239153E-05  0.468E-03    0.06       1.7  T
  19   -284.7790692 -0.417551E-05  0.352E-03    0.06       2.2  T
  20   -284.7790741 -0.485707E-05  0.132E-03    0.06       6.0  T
  21   -284.7790746 -0.528497E-06  0.560E-04    0.06      14.1  T
  22   -284.7790747 -0.406843E-07  0.323E-04    0.06      24.5  T
     SCC iter.                  ...        0 min,  1.314 sec
     gradient                   ...        0 min,  0.209 sec
 * total energy  :  -279.4902940 Eh     change       -0.4213053E-01 Eh
   gradient norm :     0.0640524 Eh/α   predicted    -0.4008891E-01 (  -4.85%)
   displ. norm   :     0.7978513 α      lambda       -0.3660809E-01
   maximum displ.:     0.3169617 α      in ANC's #32, #89, #88, ...

........................................................................
.............................. CYCLE    7 ..............................
........................................................................
   1   -284.7954873 -0.284795E+03  0.320E-01    0.13       0.0  T
   2   -283.7512575  0.104423E+01  0.142E+00    0.21       1.0  T
   3   -284.7716552 -0.102040E+01  0.301E-01    0.18       1.0  T
   4   -284.7023778  0.692774E-01  0.601E-01    0.10       1.0  T
   5   -284.7835504 -0.811726E-01  0.253E-01    0.15       1.0  T
   6   -284.7793790  0.417143E-02  0.296E-01    0.12       1.0  T
   7   -284.8001473 -0.207683E-01  0.121E-01    0.11       1.0  T
   8   -284.7962211  0.392624E-02  0.135E-01    0.06       1.0  T
   9   -284.8057072 -0.948618E-02  0.615E-02    0.07       1.0  T
  10   -284.8067841 -0.107688E-02  0.428E-02    0.07       1.0  T
  11   -284.8074264 -0.642295E-03  0.262E-02    0.08       1.0  T
  12   -284.8073150  0.111415E-03  0.230E-02    0.07       1.0  T
  13   -284.8076707 -0.355694E-03  0.626E-03    0.07       1.3  T
  14   -284.8076784 -0.770239E-05  0.417E-03    0.07       1.9  T
  15   -284.8076795 -0.115098E-05  0.354E-03    0.07       2.2  T
  16   -284.8076831 -0.354677E-05  0.206E-03    0.07       3.8  T
  17   -284.8076846 -0.152020E-05  0.995E-04    0.07       7.9  T
  18   -284.8076848 -0.172496E-06  0.576E-04    0.07      13.7  T
  19   -284.8076849 -0.779733E-07  0.240E-04    0.07      32.9  T
     SCC iter.                  ...        0 min,  1.134 sec
     gradient                   ...        0 min,  0.209 sec
 * total energy  :  -279.5216454 Eh     change       -0.3135143E-01 Eh
   gradient norm :     0.0488342 Eh/α   predicted    -0.2995580E-01 (  -4.45%)
   displ. norm   :     0.8300552 α      lambda       -0.2820258E-01
   maximum displ.:     0.4184308 α      in ANC's #32, #89, #30, ...

........................................................................
.............................. CYCLE    8 ..............................
........................................................................
   1   -284.8161157 -0.284816E+03  0.309E-01    0.14       0.0  T
   2   -283.7150251  0.110109E+01  0.139E+00    0.13       1.0  T
   3   -284.7666533 -0.105163E+01  0.468E-01    0.25       1.0  T
   4   -284.6359909  0.130662E+00  0.800E-01    0.24       1.0  T
   5   -284.7859934 -0.150002E+00  0.345E-01    0.17       1.0  T
   6   -284.7935654 -0.757198E-02  0.323E-01    0.21       1.0  T
   7   -284.8045028 -0.109374E-01  0.227E-01    0.22       1.0  T
   8   -284.8127587 -0.825586E-02  0.173E-01    0.15       1.0  T
   9   -284.8168913 -0.413267E-02  0.138E-01    0.15       1.0  T
  10   -284.8177734 -0.882090E-03  0.129E-01    0.15       1.0  T
  11   -284.8191383 -0.136489E-02  0.117E-01    0.15       1.0  T
  12   -284.8230544 -0.391603E-02  0.722E-02    0.11       1.0  T
  13   -284.8250554 -0.200106E-02  0.338E-02    0.09       1.0  T
  14   -284.8253692 -0.313803E-03  0.248E-02    0.09       1.0  T
  15   -284.8253421  0.271004E-04  0.265E-02    0.10       1.0  T
  16   -284.8254413 -0.991510E-04  0.140E-02    0.09       1.0  T
  17   -284.8255524 -0.111149E-03  0.410E-03    0.09       1.9  T
  18   -284.8255425  0.995332E-05  0.558E-03    0.09       1.4  T
  19   -284.8255483 -0.586166E-05  0.461E-03    0.09       1.7  T
  20   -284.8255596 -0.112426E-04  0.121E-03    0.09       6.5  T
  21   -284.8255599 -0.298078E-06  0.883E-04    0.09       9.0  T
  22   -284.8255602 -0.311904E-06  0.334E-04    0.09      23.7  T
     SCC iter.                  ...        0 min,  1.308 sec
     gradient                   ...        0 min,  0.208 sec
 * total energy  :  -279.5465638 Eh     change       -0.2491838E-01 Eh
   gradient norm :     0.0401167 Eh/α   predicted    -0.2381697E-01 (  -4.42%)
   displ. norm   :     0.8734316 α      lambda       -0.2381099E-01
   maximum displ.:     0.5186716 α      in ANC's #32, #30, #89, ...

........................................................................
.............................. CYCLE    9 ..............................
........................................................................
   1   -284.8223173 -0.284822E+03  0.310E-01    0.18       0.0  T
   2   -283.8011029  0.102121E+01  0.130E+00    0.06       1.0  T
   3   -284.7540799 -0.952977E+00  0.558E-01    0.29       1.0  T
   4   -284.7572932 -0.321335E-02  0.516E-01    0.23       1.0  T
   5   -284.7751781 -0.178848E-01  0.450E-01    0.24       1.0  T
   6   -284.8142994 -0.391214E-01  0.247E-01    0.23       1.0  T
   7   -284.8197680 -0.546854E-02  0.182E-01    0.21       1.0  T
   8   -284.8253504 -0.558240E-02  0.129E-01    0.17       1.0  T
   9   -284.8259415 -0.591125E-03  0.120E-01    0.18       1.0  T
  10   -284.8267649 -0.823460E-03  0.111E-01    0.16       1.0  T
  11   -284.8271446 -0.379706E-03  0.107E-01    0.17       1.0  T
  12   -284.8302389 -0.309428E-02  0.660E-02    0.14       1.0  T
  13   -284.8319598 -0.172083E-02  0.252E-02    0.12       1.0  T
  14   -284.8315662  0.393513E-03  0.362E-02    0.12       1.0  T
  15   -284.8314638  0.102433E-03  0.347E-02    0.11       1.0  T
  16   -284.8319221 -0.458336E-03  0.206E-02    0.11       1.0  T
  17   -284.8320809 -0.158771E-03  0.912E-03    0.11       1.0  T
  18   -284.8321273 -0.464279E-04  0.163E-03    0.11       4.8  T
  19   -284.8321273  0.990593E-08  0.140E-03    0.11       5.6  T
  20   -284.8321277 -0.362163E-06  0.113E-03    0.11       7.0  T
  21   -284.8321283 -0.601464E-06  0.628E-04    0.11      12.6  T
  22   -284.8321285 -0.247168E-06  0.284E-04    0.11      27.8  T
     SCC iter.                  ...        0 min,  1.312 sec
     gradient                   ...        0 min,  0.209 sec
 * total energy  :  -279.5686111 Eh     change       -0.2204732E-01 Eh
   gradient norm :     0.0366422 Eh/α   predicted    -0.2098807E-01 (  -4.80%)
   displ. norm   :     0.9264348 α      lambda       -0.2278947E-01
   maximum displ.:     0.5987451 α      in ANC's #32, #30, #16, ...

........................................................................
.............................. CYCLE   10 ..............................
........................................................................
   1   -284.8215924 -0.284822E+03  0.315E-01    0.23       0.0  T
   2   -284.2355071  0.586085E+00  0.990E-01    0.04       1.0  T
   3   -284.7796081 -0.544101E+00  0.453E-01    0.34       1.0  T
   4   -284.7813647 -0.175664E-02  0.432E-01    0.28       1.0  T
   5   -284.7899131 -0.854838E-02  0.394E-01    0.36       1.0  T
   6   -284.8167019 -0.267888E-01  0.214E-01    0.38       1.0  T
   7   -284.8218938 -0.519188E-02  0.161E-01    0.27       1.0  T
   8   -284.8248568 -0.296305E-02  0.123E-01    0.28       1.0  T
   9   -284.8269001 -0.204330E-02  0.933E-02    0.25       1.0  T
  10   -284.8271587 -0.258583E-03  0.886E-02    0.25       1.0  T
  11   -284.8287858 -0.162713E-02  0.669E-02    0.21       1.0  T
  12   -284.8299252 -0.113935E-02  0.354E-02    0.12       1.0  T
  13   -284.8305989 -0.673761E-03  0.156E-02    0.14       1.0  T
  14   -284.8303361  0.262845E-03  0.236E-02    0.13       1.0  T
  15   -284.8306193 -0.283186E-03  0.117E-02    0.13       1.0  T
  16   -284.8306704 -0.511343E-04  0.740E-03    0.14       1.1  T
  17   -284.8307030 -0.326063E-04  0.164E-03    0.14       4.8  T
  18   -284.8307011  0.194047E-05  0.220E-03    0.14       3.6  T
  19   -284.8307037 -0.263448E-05  0.637E-04    0.14      12.4  T
  20   -284.8307039 -0.162859E-06  0.285E-04    0.14      27.7  T
  21   -284.8307038  0.196029E-07  0.345E-04    0.14      22.9  T
     SCC iter.                  ...        0 min,  1.248 sec
     gradient                   ...        0 min,  0.209 sec
 * total energy  :  -279.5910497 Eh     change       -0.2243862E-01 Eh
   gradient norm :     0.0355469 Eh/α   predicted    -0.2117463E-01 (  -5.63%)
   displ. norm   :     0.9754057 α      lambda       -0.2481535E-01
   maximum displ.:     0.6338931 α      in ANC's #32, #16, #30, ...

........................................................................
.............................. CYCLE   11 ..............................
........................................................................
   1   -284.8182242 -0.284818E+03  0.341E-01    0.32       0.0  T
   2   -284.6032612  0.214963E+00  0.648E-01    0.01       1.0  T
   3   -284.7950269 -0.191766E+00  0.331E-01    0.32       1.0  T
   4   -284.7967097 -0.168277E-02  0.339E-01    0.39       1.0  T
   5   -284.7970614 -0.351713E-03  0.343E-01    0.44       1.0  T
   6   -284.8165853 -0.195239E-01  0.164E-01    0.33       1.0  T
   7   -284.8206388 -0.405353E-02  0.132E-01    0.32       1.0  T
   8   -284.8224569 -0.181804E-02  0.991E-02    0.35       1.0  T
   9   -284.8241573 -0.170046E-02  0.652E-02    0.33       1.0  T
  10   -284.8245200 -0.362653E-03  0.515E-02    0.34       1.0  T
  11   -284.8252554 -0.735476E-03  0.294E-02    0.27       1.0  T
  12   -284.8255324 -0.276939E-03  0.129E-02    0.18       1.0  T
  13   -284.8255847 -0.523206E-04  0.921E-03    0.21       1.0  T
  14   -284.8256184 -0.337174E-04  0.316E-03    0.19       2.5  T
  15   -284.8256236 -0.512831E-05  0.126E-03    0.20       6.3  T
  16   -284.8256235  0.299480E-07  0.900E-04    0.20       8.8  T
  17   -284.8256237 -0.211848E-06  0.670E-04    0.20      11.8  T
     SCC iter.                  ...        0 min,  1.014 sec
     gradient                   ...        0 min,  0.209 sec
 * total energy  :  -279.6167093 Eh     change       -0.2565955E-01 Eh
   gradient norm :     0.0393509 Eh/α   predicted    -0.2421255E-01 (  -5.64%)
   displ. norm   :     0.9688757 α      lambda       -0.2715542E-01
   maximum displ.:     0.6249070 α      in ANC's #32, #16, #30, ...

........................................................................
.............................. CYCLE   12 ..............................
........................................................................
   1   -284.8016891 -0.284802E+03  0.329E-01    0.45       0.0  T
   2   -284.7824254  0.192637E-01  0.340E-01    0.25       1.0  T
   3   -284.7811193  0.130610E-02  0.347E-01    0.42       1.0  T
   4   -284.7916338 -0.105145E-01  0.235E-01    0.49       1.0  T
   5   -284.8047608 -0.131270E-01  0.580E-02    0.37       1.0  T
   6   -284.8051151 -0.354286E-03  0.336E-02    0.33       1.0  T
   7   -284.8053947 -0.279614E-03  0.870E-03    0.36       1.0  T
   8   -284.8054011 -0.632245E-05  0.550E-03    0.35       1.4  T
   9   -284.8053981  0.295920E-05  0.470E-03    0.35       1.7  T
  10   -284.8054029 -0.477750E-05  0.187E-03    0.35       4.2  T
  11   -284.8054036 -0.684035E-06  0.784E-04    0.35      10.1  T
  12   -284.8054036 -0.671732E-07  0.419E-04    0.35      18.9  T
     SCC iter.                  ...        0 min,  0.714 sec
     gradient                   ...        0 min,  0.208 sec
 * total energy  :  -279.6457829 Eh     change       -0.2907365E-01 Eh
   gradient norm :     0.0543698 Eh/α   predicted    -0.2632338E-01 (  -9.46%)
   displ. norm   :     0.9361105 α      lambda       -0.3167477E-01
   maximum displ.:     0.5887733 α      in ANC's #32, #16, #30, ...

........................................................................
.............................. CYCLE   13 ..............................
........................................................................
   1   -284.7846049 -0.284785E+03  0.317E-01    0.70       0.0  T
   2   -284.7780568  0.654815E-02  0.251E-01    0.62       1.0  T
   3   -284.7681274  0.992937E-02  0.311E-01    0.74       1.0  T
   4   -284.7830156 -0.148882E-01  0.129E-01    0.76       1.0  T
   5   -284.7864968 -0.348122E-02  0.444E-02    0.70       1.0  T
   6   -284.7868472 -0.350397E-03  0.100E-02    0.70       1.0  T
   7   -284.7868599 -0.127155E-04  0.616E-03    0.71       1.3  T
   8   -284.7868631 -0.319443E-05  0.331E-03    0.70       2.4  T
   9   -284.7868642 -0.108841E-05  0.193E-03    0.70       4.1  T
  10   -284.7868651 -0.872295E-06  0.641E-04    0.70      12.3  T
  11   -284.7868651 -0.346991E-07  0.421E-04    0.70      18.8  T
     SCC iter.                  ...        0 min,  0.671 sec
     gradient                   ...        0 min,  0.208 sec
 * total energy  :  -279.6801441 Eh     change       -0.3436120E-01 Eh
   gradient norm :     0.0705193 Eh/α   predicted    -0.2971573E-01 ( -13.52%)
   displ. norm   :     0.9048018 α      lambda       -0.3751802E-01
   maximum displ.:     0.5535367 α      in ANC's #32, #16, #56, ...

........................................................................
.............................. CYCLE   14 ..............................
........................................................................
   1   -284.7689210 -0.284769E+03  0.293E-01    1.09       0.0  T
   2   -284.7664525  0.246847E-02  0.208E-01    1.09       1.0  T
   3   -284.7591573  0.729525E-02  0.250E-01    1.15       1.0  T
   4   -284.7696732 -0.105160E-01  0.609E-02    1.15       1.0  T
   5   -284.7701510 -0.477768E-03  0.371E-02    1.15       1.0  T
   6   -284.7704291 -0.278112E-03  0.701E-03    1.15       1.1  T
   7   -284.7704344 -0.528889E-05  0.435E-03    1.15       1.8  T
   8   -284.7704367 -0.234828E-05  0.268E-03    1.15       3.0  T
   9   -284.7704379 -0.119077E-05  0.113E-03    1.15       7.0  T
  10   -284.7704381 -0.159552E-06  0.494E-04    1.15      16.0  T
  11   -284.7704381 -0.191234E-07  0.308E-04    1.15      25.7  T
     SCC iter.                  ...        0 min,  0.675 sec
     gradient                   ...        0 min,  0.228 sec
 * total energy  :  -279.7200129 Eh     change       -0.3986881E-01 Eh
   gradient norm :     0.0837190 Eh/α   predicted    -0.3411648E-01 ( -14.43%)
   displ. norm   :     0.8815594 α      lambda       -0.4270163E-01
   maximum displ.:     0.5310805 α      in ANC's #32, #16, #56, ...

........................................................................
.............................. CYCLE   15 ..............................
........................................................................
   1   -284.7577905 -0.284758E+03  0.263E-01    1.17       0.0  T
   2   -284.7565855  0.120491E-02  0.186E-01    1.17       1.0  T
   3   -284.7518850  0.470055E-02  0.199E-01    1.17       1.0  T
   4   -284.7586585 -0.677356E-02  0.318E-02    1.18       1.0  T
   5   -284.7587943 -0.135775E-03  0.161E-02    1.17       1.0  T
   6   -284.7588459 -0.515553E-04  0.557E-03    1.17       1.4  T
   7   -284.7588482 -0.232919E-05  0.367E-03    1.17       2.2  T
   8   -284.7588491 -0.904688E-06  0.194E-03    1.17       4.1  T
   9   -284.7588498 -0.686698E-06  0.891E-04    1.17       8.9  T
  10   -284.7588499 -0.127905E-06  0.371E-04    1.17      21.3  T
     SCC iter.                  ...        0 min,  0.596 sec
     gradient                   ...        0 min,  0.208 sec
 * total energy  :  -279.7624276 Eh     change       -0.4241465E-01 Eh
   gradient norm :     0.0862451 Eh/α   predicted    -0.3794361E-01 ( -10.54%)
   displ. norm   :     0.9441694 α      lambda       -0.6046398E-01
   maximum displ.:     0.4141499 α      in ANC's #32, #16, #56, ...

........................................................................
.............................. CYCLE   16 ..............................
........................................................................
   1   -284.7814712 -0.284781E+03  0.326E-01    1.11       0.0  T
   2   -284.7784924  0.297876E-02  0.260E-01    1.12       1.0  T
   3   -284.7760124  0.248002E-02  0.212E-01    1.12       1.0  T
   4   -284.7830757 -0.706324E-02  0.545E-02    1.12       1.0  T
   5   -284.7835862 -0.510510E-03  0.216E-02    1.12       1.0  T
   6   -284.7836934 -0.107275E-03  0.937E-03    1.12       1.0  T
   7   -284.7837049 -0.114166E-04  0.467E-03    1.12       1.7  T
   8   -284.7837065 -0.163056E-05  0.280E-03    1.12       2.8  T
   9   -284.7837076 -0.116297E-05  0.110E-03    1.12       7.2  T
  10   -284.7837078 -0.183950E-06  0.497E-04    1.12      15.9  T
  11   -284.7837079 -0.223989E-07  0.284E-04    1.12      27.8  T
     SCC iter.                  ...        0 min,  0.656 sec
     gradient                   ...        0 min,  0.208 sec
 * total energy  :  -279.8038970 Eh     change       -0.4146940E-01 Eh
   gradient norm :     0.1318380 Eh/α   predicted    -0.5718252E-01 (  37.89%)
   displ. norm   :     0.6919195 α      lambda       -0.4504669E-01
   maximum displ.:     0.4429353 α      in ANC's #32, #16, #30, ...

........................................................................
.............................. CYCLE   17 ..............................
........................................................................
   1   -284.7590985 -0.284759E+03  0.183E-01    1.11       0.0  T
   2   -284.7585679  0.530640E-03  0.139E-01    1.11       1.0  T
   3   -284.7568226  0.174523E-02  0.119E-01    1.11       1.0  T
   4   -284.7592969 -0.247429E-02  0.422E-02    1.11       1.0  T
   5   -284.7596542 -0.357290E-03  0.926E-03    1.11       1.0  T
   6   -284.7596673 -0.130967E-04  0.454E-03    1.11       1.7  T
   7   -284.7596690 -0.171592E-05  0.294E-03    1.11       2.7  T
   8   -284.7596698 -0.770788E-06  0.111E-03    1.11       7.1  T
   9   -284.7596700 -0.181539E-06  0.536E-04    1.11      14.8  T
  10   -284.7596700 -0.473354E-07  0.247E-04    1.11      32.0  T
     SCC iter.                  ...        0 min,  0.599 sec
     gradient                   ...        0 min,  0.208 sec
 * total energy  :  -279.8411028 Eh     change       -0.3720580E-01 Eh
   gradient norm :     0.0925506 Eh/α   predicted    -0.3330649E-01 ( -10.48%)
   displ. norm   :     0.7476146 α      lambda       -0.4313006E-01
   maximum displ.:     0.3954372 α      in ANC's #32, #16, #34, ...

........................................................................
.............................. CYCLE   18 ..............................
........................................................................
   1   -284.8379544 -0.284838E+03  0.204E-01    1.09       0.0  T
   2   -284.8374041  0.550214E-03  0.146E-01    1.10       1.0  T
   3   -284.8343583  0.304585E-02  0.135E-01    1.10       1.0  T
   4   -284.8382134 -0.385511E-02  0.363E-02    1.10       1.0  T
   5   -284.8384719 -0.258556E-03  0.100E-02    1.10       1.0  T
   6   -284.8384884 -0.164070E-04  0.380E-03    1.10       2.1  T
   7   -284.8384890 -0.651320E-06  0.246E-03    1.10       3.2  T
   8   -284.8384895 -0.449449E-06  0.123E-03    1.10       6.4  T
   9   -284.8384898 -0.337658E-06  0.419E-04    1.10      18.9  T
  10   -284.8384898 -0.185727E-07  0.232E-04    1.10      34.0  T
     SCC iter.                  ...        0 min,  0.597 sec
     gradient                   ...        0 min,  0.208 sec
 * total energy  :  -279.8731900 Eh     change       -0.3208725E-01 Eh
   gradient norm :     0.0625761 Eh/α   predicted    -0.3361830E-01 (   4.77%)
   displ. norm   :     0.8354073 α      lambda       -0.3109190E-01
   maximum displ.:     0.5545897 α      in ANC's #32, #16, #30, ...

........................................................................
.............................. CYCLE   19 ..............................
........................................................................
   1   -284.8743891 -0.284874E+03  0.173E-01    1.09       0.0  T
   2   -284.8742521  0.136910E-03  0.113E-01    1.09       1.0  T
   3   -284.8704530  0.379914E-02  0.112E-01    1.09       1.0  T
   4   -284.8744675 -0.401452E-02  0.219E-02    1.09       1.0  T
   5   -284.8745549 -0.873783E-04  0.599E-03    1.09       1.3  T
   6   -284.8745614 -0.653832E-05  0.255E-03    1.09       3.1  T
   7   -284.8745615 -0.939141E-07  0.181E-03    1.09       4.4  T
   8   -284.8745620 -0.502158E-06  0.662E-04    1.09      11.9  T
   9   -284.8745621 -0.751697E-07  0.307E-04    1.09      25.7  T
     SCC iter.                  ...        0 min,  0.540 sec
     gradient                   ...        0 min,  0.209 sec
 * total energy  :  -279.9004296 Eh     change       -0.2723958E-01 Eh
   gradient norm :     0.0593505 Eh/α   predicted    -0.2639556E-01 (  -3.10%)
   displ. norm   :     0.8885853 α      lambda       -0.3051128E-01
   maximum displ.:     0.5321574 α      in ANC's #32, #16, #15, ...

........................................................................
.............................. CYCLE   20 ..............................
........................................................................
   1   -284.9337312 -0.284934E+03  0.204E-01    1.06       0.0  T
   2   -284.9335391  0.192084E-03  0.128E-01    1.06       1.0  T
   3   -284.9287419  0.479716E-02  0.137E-01    1.06       1.0  T
   4   -284.9338556 -0.511367E-02  0.189E-02    1.06       1.0  T
   5   -284.9339210 -0.654027E-04  0.498E-03    1.06       1.6  T
   6   -284.9339250 -0.395294E-05  0.280E-03    1.06       2.8  T
   7   -284.9339257 -0.761693E-06  0.166E-03    1.06       4.8  T
   8   -284.9339261 -0.346683E-06  0.814E-04    1.06       9.7  T
   9   -284.9339262 -0.116993E-06  0.262E-04    1.06      30.2  T
     SCC iter.                  ...        0 min,  0.539 sec
     gradient                   ...        0 min,  0.209 sec
 * total energy  :  -279.9249770 Eh     change       -0.2454743E-01 Eh
   gradient norm :     0.0478716 Eh/α   predicted    -0.2730125E-01 (  11.22%)
   displ. norm   :     0.8938785 α      lambda       -0.2793381E-01
   maximum displ.:     0.5128757 α      in ANC's #32, #16, #27, ...
 * RMSD in coord.:     0.9888000 α      energy gain  -0.1338144E+01 Eh

generating ANC from model Hessian ...
Using Lindh-Hessian (1995)
 Shifting diagonal of input Hessian by    1.0011955061267043E-002
 Lowest  eigenvalues of input Hessian
    0.010000    0.010001    0.010003    0.010005    0.010006    0.010007
    0.010010    0.010010    0.000000    0.000000    0.000000    0.000000
    0.000000    0.000000    0.010014    0.010025    0.010031    0.010042
 Highest eigenvalues
    2.382236    2.399258    2.653720    2.689216    2.696871    2.982380


........................................................................
.............................. CYCLE   21 ..............................
........................................................................
   1   -285.0000642 -0.285000E+03  0.212E-01    1.03       0.0  T
   2   -285.0000423  0.219411E-04  0.127E-01    1.03       1.0  T
   3   -284.9977843  0.225799E-02  0.963E-02    1.03       1.0  T
   4   -285.0001059 -0.232157E-02  0.202E-02    1.03       1.0  T
   5   -285.0001981 -0.922494E-04  0.481E-03    1.03       1.6  T
   6   -285.0002009 -0.281734E-05  0.262E-03    1.03       3.0  T
   7   -285.0002012 -0.287233E-06  0.160E-03    1.03       4.9  T
   8   -285.0002016 -0.403710E-06  0.655E-04    1.03      12.1  T
   9   -285.0002017 -0.914384E-07  0.253E-04    1.03      31.3  T
     SCC iter.                  ...        0 min,  0.538 sec
     gradient                   ...        0 min,  0.209 sec
 * total energy  :  -279.9450510 Eh     change       -0.2007395E-01 Eh
   gradient norm :     0.0548036 Eh/α   predicted     0.0000000E+00 (-100.00%)
   displ. norm   :     0.7210095 α      lambda       -0.1938845E-01
   maximum displ.:     0.4501969 α      in ANC's #39, #29, #19, ...

........................................................................
.............................. CYCLE   22 ..............................
........................................................................
   1   -285.0233379 -0.285023E+03  0.114E-01    1.03       0.0  T
   2   -285.0232646  0.733632E-04  0.725E-02    1.03       1.0  T
   3   -285.0214060  0.185854E-02  0.745E-02    1.03       1.0  T
   4   -285.0233736 -0.196756E-02  0.957E-03    1.03       1.0  T
   5   -285.0233929 -0.192705E-04  0.327E-03    1.03       2.4  T
   6   -285.0233947 -0.183153E-05  0.159E-03    1.03       5.0  T
   7   -285.0233948 -0.141510E-06  0.933E-04    1.03       8.5  T
   8   -285.0233950 -0.139279E-06  0.350E-04    1.03      22.6  T
     SCC iter.                  ...        0 min,  0.479 sec
     gradient                   ...        0 min,  0.209 sec
 * total energy  :  -279.9628018 Eh     change       -0.1775077E-01 Eh
   gradient norm :     0.0325549 Eh/α   predicted    -0.1473415E-01 ( -16.99%)
   displ. norm   :     0.9233711 α      lambda       -0.2134364E-01
   maximum displ.:     0.5579185 α      in ANC's #39, #29, #19, ...

........................................................................
.............................. CYCLE   23 ..............................
........................................................................
   1   -285.0507113 -0.285051E+03  0.157E-01    1.02       0.0  T
   2   -285.0505991  0.112190E-03  0.988E-02    1.02       1.0  T
   3   -285.0473785  0.322057E-02  0.993E-02    1.02       1.0  T
   4   -285.0507673 -0.338876E-02  0.118E-02    1.02       1.0  T
   5   -285.0507962 -0.289506E-04  0.393E-03    1.02       2.0  T
   6   -285.0507989 -0.265233E-05  0.201E-03    1.02       3.9  T
   7   -285.0507992 -0.298359E-06  0.111E-03    1.02       7.1  T
   8   -285.0507993 -0.178729E-06  0.403E-04    1.02      19.6  T
   9   -285.0507994 -0.263458E-07  0.145E-04    1.02      54.6  T
     SCC iter.                  ...        0 min,  0.537 sec
     gradient                   ...        0 min,  0.209 sec
 * total energy  :  -279.9816337 Eh     change       -0.1883193E-01 Eh
   gradient norm :     0.0292318 Eh/α   predicted    -0.1977076E-01 (   4.99%)
   displ. norm   :     0.9356898 α      lambda       -0.1977395E-01
   maximum displ.:     0.5540472 α      in ANC's #39, #29, #19, ...

........................................................................
.............................. CYCLE   24 ..............................
........................................................................
   1   -285.0792487 -0.285079E+03  0.183E-01    1.01       0.0  T
   2   -285.0791652  0.834754E-04  0.112E-01    1.00       1.0  T
   3   -285.0759466  0.321869E-02  0.982E-02    1.01       1.0  T
   4   -285.0793002 -0.335367E-02  0.915E-03    1.01       1.0  T
   5   -285.0793158 -0.155254E-04  0.379E-03    1.01       2.1  T
   6   -285.0793179 -0.212045E-05  0.214E-03    1.01       3.7  T
   7   -285.0793183 -0.440240E-06  0.102E-03    1.01       7.7  T
   8   -285.0793185 -0.139792E-06  0.352E-04    1.01      22.4  T
   9   -285.0793185 -0.202369E-07  0.137E-04    1.01      57.7  T
     SCC iter.                  ...        0 min,  0.537 sec
     gradient                   ...        0 min,  0.209 sec
 * total energy  :  -279.9981316 Eh     change       -0.1649795E-01 Eh
   gradient norm :     0.0353558 Eh/α   predicted    -0.1854318E-01 (  12.40%)
   displ. norm   :     0.9058580 α      lambda       -0.1798642E-01
   maximum displ.:     0.5059919 α      in ANC's #39, #29, #19, ...

........................................................................
.............................. CYCLE   25 ..............................
........................................................................
   1   -285.1088163 -0.285109E+03  0.181E-01    1.00       0.0  T
   2   -285.1087889  0.274375E-04  0.109E-01    1.00       1.0  T
   3   -285.1072068  0.158209E-02  0.648E-02    1.00       1.0  T
   4   -285.1088434 -0.163666E-02  0.724E-03    1.00       1.1  T
   5   -285.1088535 -0.100903E-04  0.306E-03    1.00       2.6  T
   6   -285.1088541 -0.616425E-06  0.212E-03    1.00       3.7  T
   7   -285.1088546 -0.454230E-06  0.101E-03    1.00       7.9  T
   8   -285.1088548 -0.169162E-06  0.336E-04    1.00      23.5  T
   9   -285.1088548 -0.208531E-07  0.124E-04    1.00      64.0  T
     SCC iter.                  ...        0 min,  0.537 sec
     gradient                   ...        0 min,  0.209 sec
 * total energy  :  -280.0127112 Eh     change       -0.1457955E-01 Eh
   gradient norm :     0.0334116 Eh/α   predicted    -0.1637285E-01 (  12.30%)
   displ. norm   :     0.8817423 α      lambda       -0.1680916E-01
   maximum displ.:     0.4975405 α      in ANC's #29, #39, #19, ...

........................................................................
.............................. CYCLE   26 ..............................
........................................................................
   1   -285.1433755 -0.285143E+03  0.179E-01    1.00       0.0  T
   2   -285.1433550  0.205205E-04  0.107E-01    1.00       1.0  T
   3   -285.1420589  0.129613E-02  0.662E-02    1.00       1.0  T
   4   -285.1434039 -0.134499E-02  0.719E-03    1.00       1.1  T
   5   -285.1434135 -0.964742E-05  0.248E-03    1.00       3.2  T
   6   -285.1434139 -0.424093E-06  0.165E-03    1.00       4.8  T
   7   -285.1434141 -0.208961E-06  0.106E-03    1.00       7.4  T
   8   -285.1434144 -0.234080E-06  0.360E-04    1.00      22.0  T
   9   -285.1434144 -0.234589E-07  0.117E-04    1.00      67.4  T
     SCC iter.                  ...        0 min,  0.538 sec
     gradient                   ...        0 min,  0.210 sec
 * total energy  :  -280.0270739 Eh     change       -0.1436274E-01 Eh
   gradient norm :     0.0213482 Eh/α   predicted    -0.1493889E-01 (   4.01%)
   displ. norm   :     0.9125693 α      lambda       -0.1393744E-01
   maximum displ.:     0.5467214 α      in ANC's #29, #39, #19, ...

........................................................................
.............................. CYCLE   27 ..............................
........................................................................
   1   -285.1703642 -0.285170E+03  0.144E-01    1.00       0.0  T
   2   -285.1703371  0.271125E-04  0.865E-02    1.00       1.0  T
   3   -285.1690274  0.130965E-02  0.629E-02    1.00       1.0  T
   4   -285.1703923 -0.136487E-02  0.642E-03    1.00       1.2  T
   5   -285.1704004 -0.810594E-05  0.196E-03    1.00       4.0  T
   6   -285.1704005 -0.120995E-06  0.137E-03    1.00       5.8  T
   7   -285.1704006 -0.898201E-07  0.932E-04    1.00       8.5  T
   8   -285.1704008 -0.173859E-06  0.255E-04    1.00      31.0  T
     SCC iter.                  ...        0 min,  0.479 sec
     gradient                   ...        0 min,  0.210 sec
 * total energy  :  -280.0399549 Eh     change       -0.1288095E-01 Eh
   gradient norm :     0.0183409 Eh/α   predicted    -0.1277215E-01 (  -0.84%)
   displ. norm   :     0.9354931 α      lambda       -0.1322502E-01
   maximum displ.:     0.5681502 α      in ANC's #29, #39, #19, ...

........................................................................
.............................. CYCLE   28 ..............................
........................................................................
   1   -285.1959620 -0.285196E+03  0.159E-01    1.00       0.0  T
   2   -285.1959347  0.273073E-04  0.955E-02    1.00       1.0  T
   3   -285.1945588  0.137591E-02  0.678E-02    1.00       1.0  T
   4   -285.1959924 -0.143358E-02  0.716E-03    1.00       1.1  T
   5   -285.1960020 -0.966064E-05  0.226E-03    1.00       3.5  T
   6   -285.1960021 -0.833375E-07  0.164E-03    1.00       4.8  T
   7   -285.1960023 -0.183160E-06  0.102E-03    1.00       7.7  T
   8   -285.1960025 -0.201298E-06  0.279E-04    1.00      28.3  T
   9   -285.1960025 -0.140380E-07  0.121E-04    1.00      65.2  T
     SCC iter.                  ...        0 min,  0.539 sec
     gradient                   ...        0 min,  0.210 sec
 * total energy  :  -280.0515548 Eh     change       -0.1159996E-01 Eh
   gradient norm :     0.0189236 Eh/α   predicted    -0.1239943E-01 (   6.89%)
   displ. norm   :     0.9131908 α      lambda       -0.1232058E-01
   maximum displ.:     0.5690914 α      in ANC's #29, #19, #39, ...

........................................................................
.............................. CYCLE   29 ..............................
........................................................................
   1   -285.2235801 -0.285224E+03  0.157E-01    1.01       0.0  T
   2   -285.2235699  0.102165E-04  0.934E-02    1.01       1.0  T
   3   -285.2227557  0.814155E-03  0.502E-02    1.01       1.0  T
   4   -285.2235976 -0.841923E-03  0.721E-03    1.01       1.1  T
   5   -285.2236088 -0.112011E-04  0.203E-03    1.01       3.9  T
   6   -285.2236090 -0.157944E-06  0.130E-03    1.01       6.1  T
   7   -285.2236090 -0.611148E-07  0.758E-04    1.01      10.4  T
   8   -285.2236092 -0.107937E-06  0.205E-04    1.01      38.6  T
     SCC iter.                  ...        0 min,  0.480 sec
     gradient                   ...        0 min,  0.210 sec
 * total energy  :  -280.0624762 Eh     change       -0.1092131E-01 Eh
   gradient norm :     0.0178837 Eh/α   predicted    -0.1129745E-01 (   3.44%)
   displ. norm   :     0.9171219 α      lambda       -0.1090838E-01
   maximum displ.:     0.5851119 α      in ANC's #29, #19, #39, ...

........................................................................
.............................. CYCLE   30 ..............................
........................................................................
   1   -285.2483368 -0.285248E+03  0.143E-01    1.01       0.0  T
   2   -285.2483298  0.700201E-05  0.849E-02    1.01       1.0  T
   3   -285.2477437  0.586116E-03  0.426E-02    1.01       1.0  T
   4   -285.2483510 -0.607303E-03  0.542E-03    1.01       1.5  T
   5   -285.2483573 -0.632054E-05  0.170E-03    1.01       4.7  T
   6   -285.2483574 -0.998136E-07  0.117E-03    1.01       6.8  T
   7   -285.2483575 -0.921143E-07  0.709E-04    1.01      11.2  T
   8   -285.2483576 -0.111857E-06  0.189E-04    1.01      41.8  T
     SCC iter.                  ...        0 min,  0.478 sec
     gradient                   ...        0 min,  0.210 sec
 * total energy  :  -280.0725154 Eh     change       -0.1003924E-01 Eh
   gradient norm :     0.0162687 Eh/α   predicted    -0.1004179E-01 (   0.03%)
   displ. norm   :     0.9261452 α      lambda       -0.1001475E-01
   maximum displ.:     0.5971283 α      in ANC's #29, #19, #26, ...

........................................................................
.............................. CYCLE   31 ..............................
........................................................................
   1   -285.2715734 -0.285272E+03  0.133E-01    1.01       0.0  T
   2   -285.2715672  0.619841E-05  0.786E-02    1.01       1.0  T
   3   -285.2710759  0.491285E-03  0.399E-02    1.01       1.0  T
   4   -285.2715850 -0.509109E-03  0.455E-03    1.01       1.7  T
   5   -285.2715894 -0.439792E-05  0.187E-03    1.01       4.2  T
   6   -285.2715897 -0.285026E-06  0.133E-03    1.01       5.9  T
   7   -285.2715899 -0.262501E-06  0.551E-04    1.01      14.3  T
   8   -285.2715900 -0.410845E-07  0.172E-04    1.01      45.9  T
     SCC iter.                  ...        0 min,  0.478 sec
     gradient                   ...        0 min,  0.210 sec
 * total energy  :  -280.0818638 Eh     change       -0.9348395E-02 Eh
   gradient norm :     0.0144702 Eh/α   predicted    -0.9302425E-02 (  -0.49%)
   displ. norm   :     0.9355164 α      lambda       -0.9469411E-02
   maximum displ.:     0.6102619 α      in ANC's #29, #19, #18, ...

........................................................................
.............................. CYCLE   32 ..............................
........................................................................
   1   -285.2963892 -0.285296E+03  0.133E-01    1.01       0.0  T
   2   -285.2963865  0.269004E-05  0.791E-02    1.01       1.0  T
   3   -285.2960355  0.351003E-03  0.354E-02    1.01       1.0  T
   4   -285.2963998 -0.364372E-03  0.400E-03    1.01       2.0  T
   5   -285.2964032 -0.331938E-05  0.168E-03    1.01       4.7  T
   6   -285.2964032 -0.482397E-07  0.133E-03    1.01       5.9  T
   7   -285.2964035 -0.312548E-06  0.466E-04    1.01      17.0  T
   8   -285.2964035 -0.354511E-07  0.164E-04    1.01      48.2  T
     SCC iter.                  ...        0 min,  0.479 sec
     gradient                   ...        0 min,  0.210 sec
 * total energy  :  -280.0905822 Eh     change       -0.8718445E-02 Eh
   gradient norm :     0.0119897 Eh/α   predicted    -0.8878481E-02 (   1.84%)
   displ. norm   :     0.9382905 α      lambda       -0.8718847E-02
   maximum displ.:     0.6174239 α      in ANC's #29, #19, #26, ...

........................................................................
.............................. CYCLE   33 ..............................
........................................................................
   1   -285.3213883 -0.285321E+03  0.124E-01    1.01       0.0  T
   2   -285.3213897 -0.137329E-05  0.733E-02    1.01       1.0  T
   3   -285.3212120  0.177648E-03  0.265E-02    1.01       1.0  T
   4   -285.3213964 -0.184330E-03  0.390E-03    1.01       2.0  T
   5   -285.3213995 -0.314943E-05  0.130E-03    1.01       6.1  T
   6   -285.3213994  0.581609E-07  0.104E-03    1.01       7.6  T
   7   -285.3213996 -0.167288E-06  0.369E-04    1.01      21.4  T
   8   -285.3213996 -0.235009E-07  0.117E-04    1.01      67.6  T
     SCC iter.                  ...        0 min,  0.478 sec
     gradient                   ...        0 min,  0.210 sec
 * total energy  :  -280.0987198 Eh     change       -0.8137579E-02 Eh
   gradient norm :     0.0101922 Eh/α   predicted    -0.8197426E-02 (   0.74%)
   displ. norm   :     0.9513593 α      lambda       -0.8192591E-02
   maximum displ.:     0.6210534 α      in ANC's #29, #19, #26, ...

........................................................................
.............................. CYCLE   34 ..............................
........................................................................
   1   -285.3398847 -0.285340E+03  0.136E-01    1.01       0.0  T
   2   -285.3398851 -0.374739E-06  0.808E-02    1.01       1.0  T
   3   -285.3396749  0.210224E-03  0.302E-02    1.01       1.0  T
   4   -285.3398942 -0.219305E-03  0.353E-03    1.01       2.2  T
   5   -285.3398963 -0.207504E-05  0.157E-03    1.01       5.0  T
   6   -285.3398960  0.213784E-06  0.145E-03    1.01       5.5  T
   7   -285.3398964 -0.401796E-06  0.373E-04    1.01      21.2  T
   8   -285.3398965 -0.231791E-07  0.134E-04    1.01      59.0  T
     SCC iter.                  ...        0 min,  0.477 sec
     gradient                   ...        0 min,  0.211 sec
 * total energy  :  -280.1058042 Eh     change       -0.7084397E-02 Eh
   gradient norm :     0.0125142 Eh/α   predicted    -0.7803795E-02 (  10.15%)
   displ. norm   :     0.9115174 α      lambda       -0.7872109E-02
   maximum displ.:     0.5916594 α      in ANC's #29, #19, #26, ...

........................................................................
.............................. CYCLE   35 ..............................
........................................................................
   1   -285.3572696 -0.285357E+03  0.128E-01    1.00       0.0  T
   2   -285.3572709 -0.136043E-05  0.755E-02    1.00       1.0  T
   3   -285.3571287  0.142232E-03  0.246E-02    1.00       1.0  T
   4   -285.3572770 -0.148288E-03  0.332E-03    1.00       2.4  T
   5   -285.3572789 -0.188265E-05  0.157E-03    1.00       5.0  T
   6   -285.3572789  0.511108E-08  0.120E-03    1.00       6.6  T
   7   -285.3572791 -0.210051E-06  0.377E-04    1.00      21.0  T
   8   -285.3572791 -0.244271E-07  0.140E-04    1.00      56.3  T
     SCC iter.                  ...        0 min,  0.478 sec
     gradient                   ...        0 min,  0.317 sec
 * total energy  :  -280.1127618 Eh     change       -0.6957606E-02 Eh
   gradient norm :     0.0103789 Eh/α   predicted    -0.7206371E-02 (   3.58%)
   displ. norm   :     0.9335788 α      lambda       -0.6652604E-02
   maximum displ.:     0.6081773 α      in ANC's #29, #19, #26, ...

........................................................................
.............................. CYCLE   36 ..............................
........................................................................
   1   -285.3792482 -0.285379E+03  0.109E-01    1.00       0.0  T
   2   -285.3792495 -0.124112E-05  0.641E-02    1.00       1.0  T
   3   -285.3791046  0.144853E-03  0.252E-02    1.00       1.0  T
   4   -285.3792557 -0.151086E-03  0.353E-03    1.00       2.2  T
   5   -285.3792581 -0.243645E-05  0.119E-03    1.00       6.7  T
   6   -285.3792581  0.361829E-07  0.973E-04    1.00       8.1  T
   7   -285.3792582 -0.136796E-06  0.347E-04    1.00      22.8  T
     SCC iter.                  ...        0 min,  0.417 sec
     gradient                   ...        0 min,  0.211 sec
 * total energy  :  -280.1190147 Eh     change       -0.6252905E-02 Eh
   gradient norm :     0.0092633 Eh/α   predicted    -0.6225405E-02 (  -0.44%)
   displ. norm   :     0.9429563 α      lambda       -0.6101887E-02
   maximum displ.:     0.6027746 α      in ANC's #29, #19, #26, ...

........................................................................
.............................. CYCLE   37 ..............................
........................................................................
   1   -285.3989422 -0.285399E+03  0.108E-01    0.99       0.0  T
   2   -285.3989426 -0.458626E-06  0.638E-02    0.99       1.0  T
   3   -285.3987741  0.168482E-03  0.264E-02    0.99       1.0  T
   4   -285.3989496 -0.175449E-03  0.360E-03    0.99       2.2  T
   5   -285.3989521 -0.247196E-05  0.137E-03    0.99       5.8  T
   6   -285.3989522 -0.994133E-07  0.957E-04    0.99       8.3  T
   7   -285.3989523 -0.111106E-06  0.311E-04    0.99      25.4  T
     SCC iter.                  ...        0 min,  0.418 sec
     gradient                   ...        0 min,  0.211 sec
 * total energy  :  -280.1247440 Eh     change       -0.5729319E-02 Eh
   gradient norm :     0.0087038 Eh/α   predicted    -0.5763732E-02 (   0.60%)
   displ. norm   :     0.9383170 α      lambda       -0.5552477E-02
   maximum displ.:     0.5945870 α      in ANC's #29, #19, #26, ...

........................................................................
.............................. CYCLE   38 ..............................
........................................................................
   1   -285.4208400 -0.285421E+03  0.106E-01    0.99       0.0  T
   2   -285.4208408 -0.789809E-06  0.624E-02    0.99       1.0  T
   3   -285.4207045  0.136213E-03  0.242E-02    0.99       1.0  T
   4   -285.4208468 -0.142298E-03  0.315E-03    0.99       2.5  T
   5   -285.4208487 -0.186425E-05  0.117E-03    0.99       6.7  T
   6   -285.4208487  0.642666E-08  0.951E-04    0.99       8.3  T
   7   -285.4208488 -0.135429E-06  0.280E-04    0.99      28.2  T
     SCC iter.                  ...        0 min,  0.418 sec
     gradient                   ...        0 min,  0.211 sec
 * total energy  :  -280.1299325 Eh     change       -0.5188466E-02 Eh
   gradient norm :     0.0080759 Eh/α   predicted    -0.5220544E-02 (   0.62%)
   displ. norm   :     0.9373296 α      lambda       -0.5004052E-02
   maximum displ.:     0.5880491 α      in ANC's #29, #19, #26, ...

........................................................................
.............................. CYCLE   39 ..............................
........................................................................
   1   -285.4362319 -0.285436E+03  0.108E-01    0.99       0.0  T
   2   -285.4362319  0.106285E-07  0.634E-02    0.99       1.0  T
   3   -285.4360864  0.145462E-03  0.244E-02    0.99       1.0  T
   4   -285.4362384 -0.151998E-03  0.296E-03    0.99       2.7  T
   5   -285.4362399 -0.145849E-05  0.134E-03    0.99       5.9  T
   6   -285.4362399 -0.699745E-07  0.958E-04    0.99       8.3  T
   7   -285.4362401 -0.126642E-06  0.259E-04    0.99      30.6  T
     SCC iter.                  ...        0 min,  0.417 sec
     gradient                   ...        0 min,  0.211 sec
 * total energy  :  -280.1345759 Eh     change       -0.4643346E-02 Eh
   gradient norm :     0.0075282 Eh/α   predicted    -0.4700281E-02 (   1.23%)
   displ. norm   :     0.9329039 α      lambda       -0.4521050E-02
   maximum displ.:     0.5784303 α      in ANC's #29, #19, #26, ...

........................................................................
.............................. CYCLE   40 ..............................
........................................................................
   1   -285.4539179 -0.285454E+03  0.110E-01    0.98       0.0  T
   2   -285.4539185 -0.657227E-06  0.648E-02    0.98       1.0  T
   3   -285.4537938  0.124793E-03  0.231E-02    0.98       1.0  T
   4   -285.4539242 -0.130402E-03  0.288E-03    0.98       2.7  T
   5   -285.4539255 -0.139567E-05  0.129E-03    0.98       6.1  T
   6   -285.4539256 -0.497304E-07  0.951E-04    0.98       8.3  T
   7   -285.4539257 -0.124686E-06  0.300E-04    0.98      26.4  T
     SCC iter.                  ...        0 min,  0.417 sec
     gradient                   ...        0 min,  0.211 sec
 * total energy  :  -280.1386955 Eh     change       -0.4119624E-02 Eh
   gradient norm :     0.0073449 Eh/α   predicted    -0.4227885E-02 (   2.63%)
   displ. norm   :     0.9233249 α      lambda       -0.3998744E-02
   maximum displ.:     0.5632976 α      in ANC's #29, #19, #18, ...

........................................................................
.............................. CYCLE   41 ..............................
........................................................................
   1   -285.4705208 -0.285471E+03  0.108E-01    0.98       0.0  T
   2   -285.4705216 -0.803265E-06  0.638E-02    0.98       1.0  T
   3   -285.4704147  0.106864E-03  0.213E-02    0.98       1.0  T
   4   -285.4705265 -0.111772E-03  0.270E-03    0.98       2.9  T
   5   -285.4705277 -0.118125E-05  0.124E-03    0.98       6.4  T
   6   -285.4705277 -0.415189E-07  0.914E-04    0.98       8.6  T
   7   -285.4705279 -0.115238E-06  0.280E-04    0.98      28.2  T
     SCC iter.                  ...        0 min,  0.419 sec
     gradient                   ...        0 min,  0.213 sec
 * total energy  :  -280.1423212 Eh     change       -0.3625690E-02 Eh
   gradient norm :     0.0067026 Eh/α   predicted    -0.3703895E-02 (   2.16%)
   displ. norm   :     0.9169446 α      lambda       -0.3454173E-02
   maximum displ.:     0.5586451 α      in ANC's #29, #19, #26, ...

........................................................................
.............................. CYCLE   42 ..............................
........................................................................
   1   -285.4839633 -0.285484E+03  0.106E-01    0.97       0.0  T
   2   -285.4839635 -0.137749E-06  0.621E-02    0.97       1.0  T
   3   -285.4838464  0.117039E-03  0.225E-02    0.97       1.0  T
   4   -285.4839693 -0.122863E-03  0.236E-03    0.97       3.4  T
   5   -285.4839701 -0.807427E-06  0.112E-03    0.97       7.0  T
   6   -285.4839701  0.337395E-07  0.940E-04    0.97       8.4  T
   7   -285.4839702 -0.150836E-06  0.227E-04    0.97      34.8  T
     SCC iter.                  ...        0 min,  0.432 sec
     gradient                   ...        0 min,  0.267 sec
 * total energy  :  -280.1454305 Eh     change       -0.3109287E-02 Eh
   gradient norm :     0.0070765 Eh/α   predicted    -0.3179198E-02 (   2.25%)
   displ. norm   :     0.9078559 α      lambda       -0.2996254E-02
   maximum displ.:     0.5471520 α      in ANC's #29, #19, #26, ...
 * RMSD in coord.:     1.4905251 α      energy gain  -0.2204534E+00 Eh

generating ANC from model Hessian ...
Using Lindh-Hessian (1995)
 Shifting diagonal of input Hessian by    1.0041219200448199E-002
 Lowest  eigenvalues of input Hessian
    0.010000    0.010005    0.010010    0.010020    0.010023    0.010026
    0.010026    0.010034    0.010037    0.000000    0.000000    0.000000
    0.000000    0.000000    0.000000    0.010063    0.010081    0.010086
 Highest eigenvalues
    2.654263    2.664857    2.666165    2.987564    2.999780    3.000201


........................................................................
.............................. CYCLE   43 ..............................
........................................................................
   1   -285.4989209 -0.285499E+03  0.104E-01    0.97       0.0  T
   2   -285.4989220 -0.112208E-05  0.609E-02    0.97       1.0  T
   3   -285.4988337  0.883009E-04  0.200E-02    0.97       1.0  T
   4   -285.4989263 -0.926124E-04  0.260E-03    0.97       3.0  T
   5   -285.4989274 -0.107106E-05  0.105E-03    0.97       7.5  T
   6   -285.4989273  0.325706E-07  0.846E-04    0.97       9.3  T
   7   -285.4989275 -0.100727E-06  0.355E-04    0.97      22.3  T
     SCC iter.                  ...        0 min,  0.417 sec
     gradient                   ...        0 min,  0.212 sec
 * total energy  :  -280.1480603 Eh     change       -0.2629806E-02 Eh
   gradient norm :     0.0068205 Eh/α   predicted     0.0000000E+00 (-100.00%)
   displ. norm   :     0.2309255 α      lambda       -0.6993546E-03
   maximum displ.:     0.1467742 α      in ANC's #24, #22, #18, ...

........................................................................
.............................. CYCLE   44 ..............................
........................................................................
   1   -285.5057072 -0.285506E+03  0.310E-02    0.97       0.0  T
   2   -285.5057074 -0.193282E-06  0.183E-02    0.97       1.0  T
   3   -285.5057001  0.731225E-05  0.573E-03    0.97       1.4  T
   4   -285.5057076 -0.754981E-05  0.110E-03    0.97       7.2  T
   5   -285.5057078 -0.223579E-06  0.389E-04    0.97      20.3  T
   6   -285.5057078 -0.609015E-08  0.274E-04    0.97      28.9  T
     SCC iter.                  ...        0 min,  0.359 sec
     gradient                   ...        0 min,  0.212 sec
 * total energy  :  -280.1486970 Eh     change       -0.6367150E-03 Eh
   gradient norm :     0.0038176 Eh/α   predicted    -0.3686000E-03 ( -42.11%)
   displ. norm   :     0.5758489 α      lambda       -0.1565203E-02
   maximum displ.:     0.3519720 α      in ANC's #24, #22, #18, ...

........................................................................
.............................. CYCLE   45 ..............................
........................................................................
   1   -285.5194401 -0.285519E+03  0.745E-02    0.97       0.0  T
   2   -285.5194408 -0.709882E-06  0.441E-02    0.97       1.0  T
   3   -285.5193941  0.467855E-04  0.145E-02    0.97       1.0  T
   4   -285.5194427 -0.486049E-04  0.236E-03    0.97       3.3  T
   5   -285.5194436 -0.916592E-06  0.101E-03    0.97       7.8  T
   6   -285.5194436 -0.354469E-07  0.730E-04    0.97      10.8  T
   7   -285.5194437 -0.654157E-07  0.333E-04    0.97      23.8  T
     SCC iter.                  ...        0 min,  0.418 sec
     gradient                   ...        0 min,  0.212 sec
 * total energy  :  -280.1499109 Eh     change       -0.1213894E-02 Eh
   gradient norm :     0.0090782 Eh/α   predicted    -0.1042118E-02 ( -14.15%)
   displ. norm   :     0.6686961 α      lambda       -0.1759775E-02
   maximum displ.:     0.4055807 α      in ANC's #24, #22, #18, ...

........................................................................
.............................. CYCLE   46 ..............................
........................................................................
   1   -285.5290347 -0.285529E+03  0.879E-02    0.97       0.0  T
   2   -285.5290352 -0.550176E-06  0.519E-02    0.97       1.0  T
   3   -285.5289889  0.462736E-04  0.143E-02    0.97       1.0  T
   4   -285.5290377 -0.487903E-04  0.163E-03    0.97       4.8  T
   5   -285.5290379 -0.190725E-06  0.102E-03    0.97       7.7  T
   6   -285.5290379  0.163750E-07  0.780E-04    0.97      10.1  T
   7   -285.5290380 -0.105822E-06  0.222E-04    0.97      35.6  T
     SCC iter.                  ...        0 min,  0.418 sec
     gradient                   ...        0 min,  0.213 sec
 * total energy  :  -280.1513162 Eh     change       -0.1405300E-02 Eh
   gradient norm :     0.0110123 Eh/α   predicted    -0.1273334E-02 (  -9.39%)
   displ. norm   :     0.7207713 α      lambda       -0.1619005E-02
   maximum displ.:     0.4390063 α      in ANC's #24, #22, #18, ...

........................................................................
.............................. CYCLE   47 ..............................
........................................................................
   1   -285.5336231 -0.285534E+03  0.924E-02    0.96       0.0  T
   2   -285.5336236 -0.554894E-06  0.545E-02    0.96       1.0  T
   3   -285.5335663  0.573428E-04  0.163E-02    0.96       1.0  T
   4   -285.5336267 -0.604369E-04  0.171E-03    0.96       4.6  T
   5   -285.5336270 -0.304967E-06  0.901E-04    0.96       8.8  T
   6   -285.5336270  0.604145E-07  0.716E-04    0.96      11.0  T
     SCC iter.                  ...        0 min,  0.360 sec
     gradient                   ...        0 min,  0.212 sec
 * total energy  :  -280.1525335 Eh     change       -0.1217331E-02 Eh
[...]
 169:  1.42 170:  0.01 171:  3.78 172:  0.01 173:  0.46 174:  0.00 175:  0.00 176:  0.03
 177:  0.72 178:  0.01 179:  1.44 180:  0.83 181: 16.03 182:  0.06 183: 20.61 184:  0.00
 185:  0.02 186:  0.01 187:  0.47 188: 19.74 189: 18.66 190:  0.07 191: 24.20 192:  3.16
 193:  5.62 194:  0.01 195:  0.02 196:  0.07 197: 13.56 198:  0.01 199: 20.91 200:  2.54
 201: 27.17 202:  4.24 203: 32.79 204: 20.05 205: 15.84 206: 13.24 207:  0.01 208:  0.10
 209:  1.30 210:  0.05 211: 59.86 212:  0.75 213:  0.53 214:  0.06 215:  2.04 216:  0.03
 217: 18.44 218:  0.20 219:  0.00 220: 14.94 221:  3.49 222: 28.39 223:  0.03 224:  0.05
 225: 18.34 226: 18.42 227:  0.03 228: 64.77 229:  0.01 230:  0.08 231:  0.01 232:  0.03
 233:  6.14 234:  9.41 235:  0.01 236:  0.03 237:  8.99 238:  0.17 239:  0.05 240: 21.34
 241:  1.74 242: 58.93 243:  0.04 244:  0.32 245:  0.03 246:244.64 247:  0.02 248:  0.09
 249: 95.41 250:191.76 251:  0.03 252:  3.93 253:  1.52 254:  0.02 255:  0.03 256:  0.45
 257:  1.77 258:  5.21 259:  0.03 260:  0.18 261:  0.10 262:  0.27 263:  0.89 264: 72.95
 265: 13.70 266: 52.89 267:  3.44 268:  0.13 269:  0.01 270:  0.00 271:  9.40 272:  0.00
 273:112.79 274:  0.43 275:  9.27 276: 48.57 277:106.05 278:  1.01 279:156.26 280:  0.17
 281:  5.25 282:  1.11 283:  1.59 284:  1.58 285:  0.00 286:  0.06 287:178.05 288:  0.01
 289: 17.03 290: 54.86 291:151.13 292: 41.31 293:  0.59 294: 58.15 295:  4.50 296:  1.56
 297:  0.00 298:  0.01 299: 51.61 300: 42.57 301:  6.13 302:  5.74 303: 77.75 304:  0.76
 305:  0.59 306:  4.20 307: 50.13 308:125.12 309:  0.35 310:388.64 311: 47.57 312: 22.24
 313: 14.86 314:  0.11 315:580.05 316:  0.46 317: 14.22 318:  4.84 319: 22.35 320:  8.87
 321: 70.56 322: 47.59 323: 12.52 324: 13.95 325: 99.52 326:  0.05 327:  0.08 328:  0.07
 329: 16.50 330: 51.10 331: 12.65 332:  4.15 333:195.00 334: 99.36 335: 22.98 336: 19.43
 337:293.06 338:  0.09 339: 12.48 340:  0.01 341:  0.04 342:  0.54 343: 25.66 344:  0.39
 345:  1.84 346:  4.45 347:  0.43 348: 35.13 349: 33.30 350: 37.87 351:****** 352:  0.34
 353:201.23 354:  0.15 355:  0.00 356:  0.01 357: 14.70 358:  9.94 359: 57.53 360:  2.06
 361:  0.02 362:  1.98 363:  2.63 364: 25.10 365: 15.40 366:  0.63 367:  0.00 368:  0.00
 369: 42.50 370: 37.32 371: 14.24 372:  0.04 373: 41.44 374: 22.63 375: 28.31 376: 22.63
 377: 10.31 378:  0.06 379:244.72 380:  0.38 381:  0.35 382:  0.26 383: 37.33 384:  0.51
 385: 58.74 386: 32.71 387:  3.03 388:  0.14 389: 66.18 390: 11.14 391:229.39 392:  2.24
 393: 24.96 394:  0.02 395:177.43 396:  0.06 397:  0.00 398:  0.01 399:  0.00 400:  0.34
 401:  0.46 402:  0.08 403:  0.08 404:  0.48 405:  0.44 406:  0.13 407:  0.61 408:  0.01
 409:286.71 410:  0.12 411:264.42 412: 77.22 413:  0.91 414: 21.38 415: 30.20 416:  0.01
 417:  1.29 418:  2.01 419:  9.14 420: 12.05 421:  1.74 422:771.68 423:  0.60 424:670.53
 425:  0.07 426:  0.15 427:  0.19 428:  0.01 429:  0.38 430:  0.05 431: 75.36 432:  2.55
 433:  0.00 434:  2.24 435:  2.39 436:  0.15 437:  1.18 438:  3.65 439:  1.17 440:  0.16
 441:  0.81 442:  0.92 443:207.00 444: 11.40 445:  5.03 446: 90.19 447: 40.79 448:  0.06
 449:  4.85 450:  9.67 451: 10.45 452: 11.30 453: 26.44 454: 22.56 455: 11.72 456:  5.13
 457:  7.20 458: 13.36 459:  5.82 460:  8.19 461: 29.52 462: 67.04 463:  1.98 464: 20.35
 465: 67.83 466:173.78 467:597.54 468: 75.43 469: 20.53 470: 97.15 471:  4.49 472: 45.19
 473:  2.47 474:  0.15 475:146.06 476: 35.71 477:106.19 478:  0.13 479:  1.37 480:  7.82
 Raman intensities (amu)
   1:  0.00   2:  0.00   3:  0.00   4:  0.00   5:  0.00   6:  0.00   7:  0.00   8:  0.00
   9:  0.00  10:  0.00  11:  0.00  12:  0.00  13:  0.00  14:  0.00  15:  0.00  16:  0.00
  17:  0.00  18:  0.00  19:  0.00  20:  0.00  21:  0.00  22:  0.00  23:  0.00  24:  0.00
  25:  0.00  26:  0.00  27:  0.00  28:  0.00  29:  0.00  30:  0.00  31:  0.00  32:  0.00
  33:  0.00  34:  0.00  35:  0.00  36:  0.00  37:  0.00  38:  0.00  39:  0.00  40:  0.00
  41:  0.00  42:  0.00  43:  0.00  44:  0.00  45:  0.00  46:  0.00  47:  0.00  48:  0.00
  49:  0.00  50:  0.00  51:  0.00  52:  0.00  53:  0.00  54:  0.00  55:  0.00  56:  0.00
  57:  0.00  58:  0.00  59:  0.00  60:  0.00  61:  0.00  62:  0.00  63:  0.00  64:  0.00
  65:  0.00  66:  0.00  67:  0.00  68:  0.00  69:  0.00  70:  0.00  71:  0.00  72:  0.00
  73:  0.00  74:  0.00  75:  0.00  76:  0.00  77:  0.00  78:  0.00  79:  0.00  80:  0.00
  81:  0.00  82:  0.00  83:  0.00  84:  0.00  85:  0.00  86:  0.00  87:  0.00  88:  0.00
  89:  0.00  90:  0.00  91:  0.00  92:  0.00  93:  0.00  94:  0.00  95:  0.00  96:  0.00
  97:  0.00  98:  0.00  99:  0.00 100:  0.00 101:  0.00 102:  0.00 103:  0.00 104:  0.00
 105:  0.00 106:  0.00 107:  0.00 108:  0.00 109:  0.00 110:  0.00 111:  0.00 112:  0.00
 113:  0.00 114:  0.00 115:  0.00 116:  0.00 117:  0.00 118:  0.00 119:  0.00 120:  0.00
 121:  0.00 122:  0.00 123:  0.00 124:  0.00 125:  0.00 126:  0.00 127:  0.00 128:  0.00
 129:  0.00 130:  0.00 131:  0.00 132:  0.00 133:  0.00 134:  0.00 135:  0.00 136:  0.00
 137:  0.00 138:  0.00 139:  0.00 140:  0.00 141:  0.00 142:  0.00 143:  0.00 144:  0.00
 145:  0.00 146:  0.00 147:  0.00 148:  0.00 149:  0.00 150:  0.00 151:  0.00 152:  0.00
 153:  0.00 154:  0.00 155:  0.00 156:  0.00 157:  0.00 158:  0.00 159:  0.00 160:  0.00
 161:  0.00 162:  0.00 163:  0.00 164:  0.00 165:  0.00 166:  0.00 167:  0.00 168:  0.00
 169:  0.00 170:  0.00 171:  0.00 172:  0.00 173:  0.00 174:  0.00 175:  0.00 176:  0.00
 177:  0.00 178:  0.00 179:  0.00 180:  0.00 181:  0.00 182:  0.00 183:  0.00 184:  0.00
 185:  0.00 186:  0.00 187:  0.00 188:  0.00 189:  0.00 190:  0.00 191:  0.00 192:  0.00
 193:  0.00 194:  0.00 195:  0.00 196:  0.00 197:  0.00 198:  0.00 199:  0.00 200:  0.00
 201:  0.00 202:  0.00 203:  0.00 204:  0.00 205:  0.00 206:  0.00 207:  0.00 208:  0.00
 209:  0.00 210:  0.00 211:  0.00 212:  0.00 213:  0.00 214:  0.00 215:  0.00 216:  0.00
 217:  0.00 218:  0.00 219:  0.00 220:  0.00 221:  0.00 222:  0.00 223:  0.00 224:  0.00
 225:  0.00 226:  0.00 227:  0.00 228:  0.00 229:  0.00 230:  0.00 231:  0.00 232:  0.00
 233:  0.00 234:  0.00 235:  0.00 236:  0.00 237:  0.00 238:  0.00 239:  0.00 240:  0.00
 241:  0.00 242:  0.00 243:  0.00 244:  0.00 245:  0.00 246:  0.00 247:  0.00 248:  0.00
 249:  0.00 250:  0.00 251:  0.00 252:  0.00 253:  0.00 254:  0.00 255:  0.00 256:  0.00
 257:  0.00 258:  0.00 259:  0.00 260:  0.00 261:  0.00 262:  0.00 263:  0.00 264:  0.00
 265:  0.00 266:  0.00 267:  0.00 268:  0.00 269:  0.00 270:  0.00 271:  0.00 272:  0.00
 273:  0.00 274:  0.00 275:  0.00 276:  0.00 277:  0.00 278:  0.00 279:  0.00 280:  0.00
 281:  0.00 282:  0.00 283:  0.00 284:  0.00 285:  0.00 286:  0.00 287:  0.00 288:  0.00
 289:  0.00 290:  0.00 291:  0.00 292:  0.00 293:  0.00 294:  0.00 295:  0.00 296:  0.00
 297:  0.00 298:  0.00 299:  0.00 300:  0.00 301:  0.00 302:  0.00 303:  0.00 304:  0.00
 305:  0.00 306:  0.00 307:  0.00 308:  0.00 309:  0.00 310:  0.00 311:  0.00 312:  0.00
 313:  0.00 314:  0.00 315:  0.00 316:  0.00 317:  0.00 318:  0.00 319:  0.00 320:  0.00
 321:  0.00 322:  0.00 323:  0.00 324:  0.00 325:  0.00 326:  0.00 327:  0.00 328:  0.00
 329:  0.00 330:  0.00 331:  0.00 332:  0.00 333:  0.00 334:  0.00 335:  0.00 336:  0.00
Refinement of some symmetry elements was terminated before convergence was reached.
Some symmetry elements may remain unidentified.
Molecule has no symmetry elements
It seems to be the C1 point group
 337:  0.00 338:  0.00 339:  0.00 340:  0.00 341:  0.00 342:  0.00 343:  0.00 344:  0.00
 345:  0.00 346:  0.00 347:  0.00 348:  0.00 349:  0.00 350:  0.00 351:  0.00 352:  0.00
 353:  0.00 354:  0.00 355:  0.00 356:  0.00 357:  0.00 358:  0.00 359:  0.00 360:  0.00
 361:  0.00 362:  0.00 363:  0.00 364:  0.00 365:  0.00 366:  0.00 367:  0.00 368:  0.00
 369:  0.00 370:  0.00 371:  0.00 372:  0.00 373:  0.00 374:  0.00 375:  0.00 376:  0.00
 377:  0.00 378:  0.00 379:  0.00 380:  0.00 381:  0.00 382:  0.00 383:  0.00 384:  0.00
 385:  0.00 386:  0.00 387:  0.00 388:  0.00 389:  0.00 390:  0.00 391:  0.00 392:  0.00
 393:  0.00 394:  0.00 395:  0.00 396:  0.00 397:  0.00 398:  0.00 399:  0.00 400:  0.00
 401:  0.00 402:  0.00 403:  0.00 404:  0.00 405:  0.00 406:  0.00 407:  0.00 408:  0.00
 409:  0.00 410:  0.00 411:  0.00 412:  0.00 413:  0.00 414:  0.00 415:  0.00 416:  0.00
 417:  0.00 418:  0.00 419:  0.00 420:  0.00 421:  0.00 422:  0.00 423:  0.00 424:  0.00
 425:  0.00 426:  0.00 427:  0.00 428:  0.00 429:  0.00 430:  0.00 431:  0.00 432:  0.00
 433:  0.00 434:  0.00 435:  0.00 436:  0.00 437:  0.00 438:  0.00 439:  0.00 440:  0.00
 441:  0.00 442:  0.00 443:  0.00 444:  0.00 445:  0.00 446:  0.00 447:  0.00 448:  0.00
 449:  0.00 450:  0.00 451:  0.00 452:  0.00 453:  0.00 454:  0.00 455:  0.00 456:  0.00
 457:  0.00 458:  0.00 459:  0.00 460:  0.00 461:  0.00 462:  0.00 463:  0.00 464:  0.00
 465:  0.00 466:  0.00 467:  0.00 468:  0.00 469:  0.00 470:  0.00 471:  0.00 472:  0.00
 473:  0.00 474:  0.00 475:  0.00 476:  0.00 477:  0.00 478:  0.00 479:  0.00 480:  0.00
 output can be read by thermo (or use thermo option).
 writing <g98.out> molden fake output.
 recommended (thermochemical) frequency scaling factor: 1.0
           -------------------------------------------------
          |             Thermodynamic Functions             |
           -------------------------------------------------

c1  symmetry found (for desy threshold:  0.10E+00) used in thermo
 inverting freq            1   1.9026038186422289     

          ...................................................
          :                      SETUP                      :
          :.................................................:
          :  # frequencies                         473      :
          :  # imaginary freq.                       0      :
          :  linear?                             false      :
          :  only rotor calc.                    false      :
          :  symmetry                               c1      :
          :  rotational number                       1      :
          :  scaling factor                  1.0000000      :
          :  rotor cutoff                   50.0000000 cm⁻¹ :
          :  imag. cutoff                  -20.0000000 cm⁻¹ :
          :.................................................:

    mode    ω/cm⁻¹     T·S(HO)/kcal·mol⁻¹    T·S(FR)/kcal·mol⁻¹   T·S(vib)
   ------------------------------------------------------------------------
       1      1.90    -3.37158 (  0.00%)    -2.02490 (100.00%)    -2.02490
       2      2.55    -3.19761 (  0.00%)    -1.93792 (100.00%)    -1.93792
       3      2.65    -3.17445 (  0.00%)    -1.92633 (100.00%)    -1.92634
       4      3.54    -3.00304 (  0.00%)    -1.84063 (100.00%)    -1.84066
       5      3.85    -2.95343 (  0.00%)    -1.81583 (100.00%)    -1.81587
       6      4.52    -2.85848 (  0.01%)    -1.76835 ( 99.99%)    -1.76842
       7      7.29    -2.57540 (  0.05%)    -1.62680 ( 99.95%)    -1.62723
       8      7.93    -2.52573 (  0.06%)    -1.60196 ( 99.94%)    -1.60255
       9     10.80    -2.34297 (  0.22%)    -1.51057 ( 99.78%)    -1.51237
      10     16.21    -2.10225 (  1.09%)    -1.39017 ( 98.91%)    -1.39795
      11     16.52    -2.09105 (  1.18%)    -1.38456 ( 98.82%)    -1.39289
      12     22.36    -1.91198 (  3.85%)    -1.29496 ( 96.15%)    -1.31869
      13     23.11    -1.89236 (  4.37%)    -1.28515 ( 95.63%)    -1.31166
      14     28.00    -1.77885 (  8.95%)    -1.22832 ( 91.05%)    -1.27761
      15     33.67    -1.66976 ( 17.06%)    -1.17367 ( 82.94%)    -1.25830
      16     35.77    -1.63402 ( 20.76%)    -1.15576 ( 79.24%)    -1.25504
      17     39.46    -1.57604 ( 27.95%)    -1.12669 ( 72.05%)    -1.25227
      18     39.77    -1.57133 ( 28.59%)    -1.12433 ( 71.41%)    -1.25215
      19     41.03    -1.55304 ( 31.19%)    -1.11515 ( 68.81%)    -1.25173
      20     41.19    -1.55075 ( 31.52%)    -1.11401 ( 68.48%)    -1.25168
      21     41.22    -1.55022 ( 31.60%)    -1.11374 ( 68.40%)    -1.25167
      22     50.08    -1.43533 ( 50.17%)    -1.05606 ( 49.83%)    -1.24632
      23     60.92    -1.31993 ( 68.79%)    -0.99802 ( 31.21%)    -1.21946
      24     68.48    -1.25122 ( 77.87%)    -0.96338 ( 22.13%)    -1.18752
      25     70.72    -1.23235 ( 80.01%)    -0.95386 ( 19.99%)    -1.17666
      26     71.33    -1.22731 ( 80.55%)    -0.95131 ( 19.45%)    -1.17363
      27     71.76    -1.22376 ( 80.93%)    -0.94952 ( 19.07%)    -1.17145
      28     74.87    -1.19885 ( 83.41%)    -0.93694 ( 16.59%)    -1.15540
      29     76.07    -1.18958 ( 84.27%)    -0.93225 ( 15.73%)    -1.14910
      30     85.33    -1.12235 ( 89.45%)    -0.89821 ( 10.55%)    -1.09871
      31     86.54    -1.11409 ( 89.98%)    -0.89402 ( 10.02%)    -1.09203
      32     90.48    -1.08814 ( 91.47%)    -0.88084 (  8.53%)    -1.07046
      33     94.20    -1.06467 ( 92.65%)    -0.86892 (  7.35%)    -1.05028
      34     97.03    -1.04741 ( 93.41%)    -0.86013 (  6.59%)    -1.03507
      35    102.17    -1.01741 ( 94.58%)    -0.84484 (  5.42%)    -1.00805
      36    112.33    -0.96248 ( 96.22%)    -0.81676 (  3.78%)    -0.95698
      37    122.63    -0.91187 ( 97.31%)    -0.79077 (  2.69%)    -0.90861
      38    124.39    -0.90371 ( 97.46%)    -0.78657 (  2.54%)    -0.90073
      39    124.41    -0.90359 ( 97.46%)    -0.78650 (  2.54%)    -0.90062
      40    127.36    -0.89013 ( 97.68%)    -0.77956 (  2.32%)    -0.88756
      41    127.46    -0.88968 ( 97.69%)    -0.77933 (  2.31%)    -0.88712
      42    131.85    -0.87027 ( 97.97%)    -0.76931 (  2.03%)    -0.86822
      43    136.98    -0.84843 ( 98.26%)    -0.75800 (  1.74%)    -0.84685
      44    159.37    -0.76246 ( 99.04%)    -0.71315 (  0.96%)    -0.76198
      45    162.64    -0.75101 ( 99.11%)    -0.70714 (  0.89%)    -0.75063
      46    163.70    -0.74733 ( 99.14%)    -0.70520 (  0.86%)    -0.74697
      47    165.44    -0.74138 ( 99.17%)    -0.70206 (  0.83%)    -0.74105
      48    166.81    -0.73675 ( 99.20%)    -0.69962 (  0.80%)    -0.73645
      49    170.53    -0.72440 ( 99.27%)    -0.69310 (  0.73%)    -0.72417
      50    172.61    -0.71762 ( 99.30%)    -0.68951 (  0.70%)    -0.71743
      51    174.38    -0.71192 ( 99.33%)    -0.68649 (  0.67%)    -0.71175
      52    175.93    -0.70697 ( 99.35%)    -0.68386 (  0.65%)    -0.70682
      53    179.09    -0.69703 ( 99.40%)    -0.67858 (  0.60%)    -0.69692
      54    180.22    -0.69352 ( 99.41%)    -0.67671 (  0.59%)    -0.69342
      55    181.28    -0.69029 ( 99.42%)    -0.67499 (  0.58%)    -0.69020
      56    181.31    -0.69018 ( 99.42%)    -0.67494 (  0.58%)    -0.69010
      57    181.37    -0.68999 ( 99.43%)    -0.67483 (  0.57%)    -0.68990
      58    182.28    -0.68722 ( 99.44%)    -0.67336 (  0.56%)    -0.68714
      59    186.01    -0.67596 ( 99.48%)    -0.66735 (  0.52%)    -0.67592
      60    191.67    -0.65938 ( 99.54%)    -0.65847 (  0.46%)    -0.65938
      61    195.85    -0.64751 ( 99.58%)    -0.65209 (  0.42%)    -0.64753
      62    195.88    -0.64742 ( 99.58%)    -0.65204 (  0.42%)    -0.64744
      63    196.59    -0.64543 ( 99.58%)    -0.65097 (  0.42%)    -0.64546
      64    197.54    -0.64277 ( 99.59%)    -0.64953 (  0.41%)    -0.64279
      65    198.03    -0.64141 ( 99.60%)    -0.64880 (  0.40%)    -0.64144
      66    198.39    -0.64041 ( 99.60%)    -0.64826 (  0.40%)    -0.64045
      67    198.53    -0.64003 ( 99.60%)    -0.64806 (  0.40%)    -0.64006
      68    198.99    -0.63877 ( 99.60%)    -0.64738 (  0.40%)    -0.63880
      69    200.92    -0.63345 ( 99.62%)    -0.64451 (  0.38%)    -0.63349
      70    202.31    -0.62968 ( 99.63%)    -0.64246 (  0.37%)    -0.62973
      71    202.63    -0.62882 ( 99.63%)    -0.64200 (  0.37%)    -0.62887
      72    202.74    -0.62852 ( 99.63%)    -0.64184 (  0.37%)    -0.62857
      73    203.27    -0.62711 ( 99.64%)    -0.64107 (  0.36%)    -0.62716
      74    203.58    -0.62626 ( 99.64%)    -0.64061 (  0.36%)    -0.62631
      75    209.21    -0.61136 ( 99.67%)    -0.63253 (  0.33%)    -0.61143
      76    210.83    -0.60717 ( 99.68%)    -0.63025 (  0.32%)    -0.60724
      77    212.52    -0.60283 ( 99.69%)    -0.62788 (  0.31%)    -0.60291
      78    219.36    -0.58568 ( 99.73%)    -0.61850 (  0.27%)    -0.58577
      79    228.12    -0.56461 ( 99.77%)    -0.60690 (  0.23%)    -0.56470
      80    230.93    -0.55804 ( 99.78%)    -0.60327 (  0.22%)    -0.55814
      81    256.34    -0.50285 ( 99.86%)    -0.57235 (  0.14%)    -0.50295
      82    261.78    -0.49190 ( 99.87%)    -0.56612 (  0.13%)    -0.49200
      83    261.96    -0.49155 ( 99.87%)    -0.56593 (  0.13%)    -0.49165
      84    262.67    -0.49015 ( 99.87%)    -0.56512 (  0.13%)    -0.49025
      85    262.78    -0.48993 ( 99.87%)    -0.56500 (  0.13%)    -0.49003
      86    269.86    -0.47618 ( 99.88%)    -0.55713 (  0.12%)    -0.47628
      87    279.23    -0.45867 ( 99.90%)    -0.54701 (  0.10%)    -0.45877
      88    290.94    -0.43782 ( 99.91%)    -0.53484 (  0.09%)    -0.43791
      89    292.85    -0.43454 ( 99.92%)    -0.53290 (  0.08%)    -0.43462
      90    298.56    -0.42486 ( 99.92%)    -0.52718 (  0.08%)    -0.42494
   ------------------------------------------------------------------------

   temp. (K)  partition function   enthalpy   heat capacity  entropy
                                   cal/mol     cal/K/mol   cal/K/mol   J/K/mol
 298.15  VIB  0.268E+52            59439.203    375.293    380.763
         ROT  0.347E+10              888.752      2.981     46.638
         INT  0.930E+61            60327.956    378.274    427.401
         TR   0.681E+29             1481.254      4.968     48.150
         TOT                       61809.2095   383.2417   475.5514  1989.7072

       T/K    H(0)-H(T)+PV         H(T)/Eh          T*S/Eh         G(T)/Eh
   ------------------------------------------------------------------------
    298.15    0.984992E-01    0.118104E+01    0.225950E+00    0.955092E+00
   ------------------------------------------------------------------------

         :::::::::::::::::::::::::::::::::::::::::::::::::::::
         ::                  THERMODYNAMIC                  ::
         :::::::::::::::::::::::::::::::::::::::::::::::::::::
         :: total free energy        -279.200772896455 Eh   ::
         ::.................................................::
         :: total energy             -280.155864889062 Eh   ::
         :: zero point energy           1.082542573571 Eh   ::
         :: G(RRHO) w/o ZPVE           -0.127450580964 Eh   ::
         :: G(RRHO) contrib.            0.955091992607 Eh   ::
         :::::::::::::::::::::::::::::::::::::::::::::::::::::

optimized geometry written to: xtbopt.xyz


           -------------------------------------------------
          | TOTAL ENERGY             -280.155864889062 Eh   |
          | TOTAL ENTHALPY           -278.974823070342 Eh   |
          | TOTAL FREE ENERGY        -279.200772896455 Eh   |
          | GRADIENT NORM               0.000639288958 Eh/α |
          | HOMO-LUMO GAP               0.950158302587 eV   |
           -------------------------------------------------

------------------------------------------------------------------------
 * finished run on 2021/11/18 at 19:18:33.739     
------------------------------------------------------------------------
 total:
 * wall-time:     0 d,  0 h, 10 min,  5.226 sec
 *  cpu-time:     0 d,  0 h, 10 min,  5.231 sec
 * ratio c/w:     1.000 speedup
 SCF:
 * wall-time:     0 d,  0 h,  0 min,  2.992 sec
 *  cpu-time:     0 d,  0 h,  0 min,  2.992 sec
 * ratio c/w:     1.000 speedup
 ANC optimizer:
 * wall-time:     0 d,  0 h,  0 min, 56.117 sec
 *  cpu-time:     0 d,  0 h,  0 min, 56.112 sec
 * ratio c/w:     1.000 speedup
 analytical hessian:
 * wall-time:     0 d,  0 h,  9 min,  5.780 sec
 *  cpu-time:     0 d,  0 h,  9 min,  5.790 sec
 * ratio c/w:     1.000 speedup

