160
 energy: -280.155864888928 gnorm: 0.000639285881 xtb: 6.4.1 (bd6e46d)
Zn       17.88403502324990   -0.00336202493635   -0.00870151927218
C        20.41805968530062   -3.43821066740952    0.02210258123885
C        21.37112749095010   -2.47508483085516    0.02264452920849
C        20.68149370268640   -1.21648388235708    0.01181655935194
C        21.31988106734992    0.03478624907477    0.00617324295680
C        20.65413616745740    1.27152086816907   -0.00181559451523
C        21.31576344728020    2.54503183673660   -0.00517582776258
C        20.34168854259614    3.48688250474192   -0.00983254514105
C        19.08873026759570    2.78628867050845   -0.01047621108345
N        19.31073442017363    1.44161397516656   -0.00571268914750
C        17.84756368504670    3.40040178628920   -0.01595056242752
C        16.62083034360690    2.75760173067488   -0.02081385282068
C        15.34750424623644    3.42523276507086   -0.02999907112564
C        14.40082792373346    2.45806003054402   -0.03583610425603
C        15.09511701526701    1.19864281276203   -0.02969601297763
N        16.43696186387828    1.41121965743635   -0.02034951092444
C        14.47678404319739   -0.04109009575562   -0.03304670237836
C        15.12235944982383   -1.26681818302084   -0.02605686383338
C        14.45607564605177   -2.54133915757549   -0.02873344479898
C        15.42391114638280   -3.48728083107814   -0.01855759787743
C        16.68215466741924   -2.79159540684608   -0.00965291273665
N        16.46857473929407   -1.44961064284687   -0.01486454571613
C        17.92274536976792   -3.40708163262701    0.00274487424526
C        19.15003202534017   -2.76559857114875    0.01014940981811
N        19.34224262524964   -1.41634706471422    0.00502702390165
H        20.54700467400890   -4.50330553184751    0.02886016027505
H        22.43799878938790   -2.58875445267814    0.03024477801022
H        22.37994546323007    2.68209592729406   -0.00335943342900
H        20.44703232485628    4.55471631317948   -0.01303556808917
H        17.83646542490859    4.48152767088433   -0.01797804811543
H        15.21514244334288    4.49021858622985   -0.03191895815093
H        13.33334815351179    2.56780210347307   -0.04372291020567
H        13.39586857034804   -0.05308735298228   -0.04149102898619
H        13.39127883099983   -2.67470115104594   -0.03714567721288
H        15.31523084182184   -4.55493073517600   -0.01710400170058
H        17.93553334747825   -4.48818061272515    0.00634203837852
Zn       65.89151668350360    0.02980691561235   -0.00807345435552
C        63.36526705118656    3.40996800129340    0.63406708284432
C        62.41012572228554    2.46497048895776    0.45912963550165
C        63.09694370170133    1.22690504759903    0.22440835953879
C        62.45579813859027   -0.00216388002079   -0.00184798756484
C        63.11862759317650   -1.21940043550329   -0.22935326816228
C        62.45408361123734   -2.47024303627366   -0.46076391017013
C        63.42604739643986   -3.39745889863027   -0.63811469160836
C        64.68057928950530   -2.71066628412540   -0.51478566377192
N        64.46163473085272   -1.38872108908298   -0.26608289102526
C        65.92035250427936   -3.31592489708389   -0.63461647732291
C        67.14849835462060   -2.68551750574045   -0.52376894547459
C        68.42031257277961   -3.34306029720881   -0.65532409383869
C        69.36918719033542   -2.39357004997870   -0.48287314875034
C        68.67775831554108   -1.15509854044864   -0.24554154720401
N        67.33542153332110   -1.36248715788123   -0.27640999848655
C        69.29892270571334    0.06234747603512   -0.01921482404861
C        68.65614900809682    1.26764523328804    0.21167420212744
C        69.32535123967079    2.51917270485653    0.44440819408132
C        68.35965260854475    3.45014192292037    0.62423042178358
C        67.09977440711397    2.76830318545513    0.50136120541829
N        67.31032591178013    1.44917840781638    0.25216458602986
C        65.86054939757699    3.37517760031883    0.62003781175462
C        64.63185819297973    2.74679407981328    0.50569509640431
N        64.43669796333614    1.42102357356081    0.25720306937315
H        63.23855366510329    4.45704079802502    0.83139865901218
H        61.34345469091492    2.57843137827342    0.48364846503444
H        61.38962528688406   -2.60325766370184   -0.48200078958461
H        63.31845528569426   -4.44678931628813   -0.83448818000837
H        65.92900921148495   -4.37860307573422   -0.83359498454344
H        68.55020517805491   -4.38983416733577   -0.85299370267128
H        70.43641666818525   -2.50253543381113   -0.51033166508021
H        70.37988059213684    0.07273994338683   -0.02310499413141
H        70.39048612217279    2.64873013876559    0.46398778679266
H        68.47080572077043    4.49920346231510    0.82128784245320
H        65.85018468071708    4.43765627656439    0.82000408030210
C        22.71734456792604    0.04921106904906    0.00606283683309
C        23.93720864552039    0.05884507706793    0.00570479368554
C        25.27322072889926    0.06654584304269   -0.00018850149798
C        26.49762019906379    0.06773851290462    0.00047048405950
C        27.83351252860545    0.06848514958012   -0.00307179881484
C        29.05360896996389    0.06571206325283   -0.00392738239648
C        38.71982836022522    0.04136668803466   -0.02466041171333
C        39.94002657028302    0.03904016801627   -0.02582552226711
C        41.27556590081028    0.03663989599322   -0.02568940602657
C        42.50005880717106    0.03452596353947   -0.02565652243473
C        43.83560036048927    0.03172448308225   -0.02267021944766
C        45.05582126760424    0.03073287826750   -0.02194525866786
C        54.72190390385787   -0.01411897012549   -0.01563572788395
C        55.94194260311241   -0.02172019001058   -0.01013277586250
C        57.27792360551257   -0.02408012009625   -0.00605270852993
C        58.50217933863218   -0.02530249700938   -0.00059678690731
C        59.83829063990919   -0.02118316240052   -0.00076811483722
C        61.05819764378163   -0.01350360119540   -0.00188655814793
Zn       33.88693519751146    0.05325135840881   -0.01570993899570
C        31.38472325353435   -3.37856797277337    0.39318836404433
C        30.42285907847608   -2.43013498966832    0.28387697878412
C        31.10092601400149   -1.17449455771932    0.13537884586875
C        30.45043562380839    0.06258949464710   -0.00735080182083
C        31.10650644686428    1.29627689023347   -0.15310235573821
C        30.43448447745364    2.55550631493160   -0.29826673700266
C        31.40090548946852    3.49875063460587   -0.41219932115075
C        32.65863524299402    2.81263375869420   -0.33572284649240
N        32.44827723099208    1.47513463092712   -0.17843036589842
C        33.89496291565845    3.43102750845809   -0.41067057238052
C        35.12825611866674    2.80645009401368   -0.33947830731273
C        36.38921079931523    3.48601766814349   -0.41914371300481
C        37.35103072669335    2.53748761771352   -0.31021440413680
C        36.67289835318046    1.28159179412709   -0.16481425735256
N        35.33213671934588    1.46752819548217   -0.18475421371164
C        37.32328374601742    0.04424067808648   -0.02359648250694
C        36.66725644360417   -1.18977625170755    0.12021316993535
C        37.33937288474478   -2.44910740023050    0.26350880645296
C        36.37306154653513   -3.39249506980786    0.37728433686321
C        35.11535263872101   -2.70630107877179    0.30296674017791
N        35.32564339102453   -1.36859977313870    0.14626476389598
C        33.87907177691698   -3.32418639622153    0.38038674781985
C        32.64570816394017   -2.69924600837108    0.31088577679995
N        32.44180351047518   -1.36060430346184    0.15442123215756
H        31.26566386653962   -4.43760271571777    0.51751937774390
H        29.35701960077792   -2.55212181929712    0.30014863918337
H        29.36926796842674    2.68329309058697   -0.30948165685757
H        31.28704864003235    4.55840446090499   -0.53613267169605
H        33.89743882054409    4.50495941602278   -0.53619741316240
H        36.50827746959634    4.54525372624974   -0.54138878953597
H        38.41683430966909    2.65960183121791   -0.32490447391622
H        38.40454438962271   -2.57691239216103    0.27331660526736
H        36.48711055776165   -4.45227707614456    0.49985423533226
H        33.87644550527583   -4.39804474385853    0.50659508285942
Zn       49.88863601644282    0.00871089225467   -0.01823939350399
C        47.37805145602149   -3.41776758492260    0.38642040411687
C        46.41857448462851   -2.46691577564033    0.27720336081251
C        47.09970799039259   -1.21322071316493    0.12749276136899
C        46.45236426199371    0.02496655300930   -0.01987539456177
C        47.11140877132438    1.25705718406303   -0.16647283774991
C        46.44227826664744    2.51707957471556   -0.31803664160429
C        47.41087651834114    3.45886879250323   -0.42538198142193
C        48.66693666391112    2.77099201497323   -0.33976507484653
N        48.45344043732679    1.43374569898270   -0.18368284874839
C        49.90471755041185    3.38721848120947   -0.40590712467383
C        51.13655519772617    2.75995043365641   -0.33007221727620
C        52.39921667202667    3.43702578038002   -0.40542871221794
C        53.35879994636938    2.48622846992526   -0.29668151659154
C        52.67767410351689    1.23142462565642   -0.15517171466398
N        51.33719123316327    1.42040951189165   -0.17747429979000
C        53.32496936701943   -0.00780299530407   -0.01753194172225
C        52.66590992975021   -1.24086489646603    0.11947720682992
C        53.33493246038945   -2.50204915182757    0.26170076794214
C        52.36628179927286   -3.44356487302234    0.37080758505788
C        51.11021115362954   -2.75438773399683    0.29508324619619
N        51.32371825337524   -1.41692943393155    0.14169697997126
C        49.87239126764850   -3.36970819777699    0.37042508912878
C        48.64066818198914   -2.74173172990373    0.30263625229490
N        48.44001963999603   -1.40248471922563    0.14636763967384
H        47.25637754208944   -4.47641113589511    0.51170921153945
H        45.35249945254616   -2.58614501195355    0.29494996179179
H        45.37739308902178    2.64621391058118   -0.33741858366067
H        47.29947437266830    4.51852924599854   -0.55088164593733
H        49.91004479526924    4.46137331806794   -0.52944256355387
H        52.52086133778575    4.49621078902913   -0.52568277648519
H        54.42493460687028    2.60604971720385   -0.30998161311828
H        54.39984447287002   -2.63214759325752    0.27476201066235
H        52.47769480631001   -4.50386792492450    0.49160909824338
H        49.86724562503131   -4.44380838826563    0.49443833078909
