160
 energy: -278.586833192400 gnorm: 1.460340621078 xtb: 6.4.1 (bd6e46d)
Zn       16.63705400000000    0.03435800000000   -0.01039200000000
C        18.96604500000000   -3.11243500000000    1.31229700000000
C        19.88215200000000   -2.16822700000000    1.26201500000000
C        19.47097200000000   -1.11432300000000    0.34072300000000
C        20.08984300000000    0.01002300000000   -0.00568700000000
C        19.38580100000000    1.22997100000000   -0.36979200000000
C        19.71391100000000    2.19002600000000   -1.21726600000000
C        18.67913100000000    3.20631100000000   -1.23416400000000
C        17.74286300000000    2.82984900000000   -0.38727200000000
N        18.14485400000000    1.59683800000000    0.17654500000000
C        16.48178900000000    3.47484800000000   -0.00812000000000
C        15.38657200000000    2.84006600000000    0.34264000000000
C        14.31294600000000    3.15802200000000    1.31166800000000
C        13.47538300000000    2.16126800000000    1.23450200000000
C        13.91368100000000    1.15758500000000    0.25405000000000
N        15.01861900000000    1.59643800000000   -0.23024200000000
C        13.30284600000000   -0.09568600000000   -0.15949800000000
C        13.96700700000000   -1.20019200000000   -0.41392300000000
C        13.59315800000000   -2.26313400000000   -1.37145000000000
C        14.54190500000000   -3.15689000000000   -1.28243100000000
C        15.52762900000000   -2.71944000000000   -0.29955300000000
N        15.17458300000000   -1.57363500000000    0.19724400000000
C        16.75851700000000   -3.37551000000000    0.14616800000000
C        17.88155800000000   -2.72964900000000    0.41328900000000
N        18.21015800000000   -1.48220800000000   -0.18511500000000
H        19.02630600000000   -4.02221600000000    1.92984300000000
H        20.79847900000000   -2.20817700000000    1.84006300000000
H        20.64127600000000    2.20682100000000   -1.81840900000000
H        18.69603000000000    4.11100000000000   -1.84678500000000
H        16.43406600000000    4.56965100000000   -0.01189800000000
H        14.26012500000000    4.03674700000000    1.93666000000000
H        12.56375300000000    2.12559800000000    1.85182600000000
H        12.20459600000000   -0.09277500000000   -0.25876900000000
H        12.72430200000000   -2.31559900000000   -2.02040000000000
H        14.53905900000000   -4.07319800000000   -1.88119000000000
H        16.72303500000000   -4.47131200000000    0.25809300000000
Zn       67.11619399999999   -0.01301800000000   -0.01482500000000
C        64.78720300000001    2.83377400000000    1.86868000000000
C        63.87109600000000    1.91528500000000    1.64410600000000
C        64.28227500000000    1.05058800000000    0.54329200000000
C        63.66340500000000    0.01002300000000   -0.00568700000000
C        64.36744700000000   -1.12120200000000   -0.58979000000000
C        64.03933600000001   -1.90737400000000   -1.60065700000000
C        65.07411600000000   -2.90288300000000   -1.80579700000000
C        66.01038400000000   -2.69006700000000   -0.90376700000000
N        65.60839400000000   -1.58305500000000   -0.12099500000000
C        67.27145899999999   -3.39420800000000   -0.65085300000000
C        68.36667600000001   -2.83551500000000   -0.18842000000000
C        69.44030100000001   -3.32772000000000    0.70480200000000
C        70.27786399999999   -2.33395300000000    0.81388700000000
C        69.83956700000000   -1.16580500000000    0.03665200000000
N        68.73462900000000   -1.50719700000000   -0.52064700000000
C        70.45040200000000    0.14243100000000   -0.13721800000000
C        69.78624100000000    1.27496400000000   -0.18232400000000
C        70.16009000000000    2.49709000000000   -0.92603900000000
C        69.21134200000000    3.35881700000000   -0.67276100000000
C        68.22561899999999    2.74662200000000    0.21190300000000
N        68.57866400000000    1.52854400000000    0.48751300000000
C        66.99473100000000    3.30861700000000    0.77159700000000
C        65.87168900000000    2.62441200000000    0.91426500000000
N        65.54308899999999    1.50963700000000    0.09483000000000
H        64.72694100000000    3.61319900000000    2.64428400000000
H        62.95476800000001    1.84730400000000    2.21953200000000
H        63.11197100000000   -1.81235700000000   -2.19448100000000
H        65.05721699999999   -3.67821800000000   -2.57561700000000
H        67.31918100000000   -4.46930600000000   -0.85766700000000
H        69.49312300000000   -4.30713700000000    1.15592900000000
H        71.18949500000001   -2.41342500000000    1.42711300000000
H        71.54865200000000    0.15798600000000   -0.23530500000000
H        71.02894499999999    2.66903300000000   -1.55399200000000
H        69.21418799999999    4.37029800000000   -1.09113800000000
H        67.03021300000000    4.36463300000000    1.08486600000000
C        23.06185400000000    0.02115400000000   -0.00164500000000
C        24.27738700000000   -0.00419000000000   -0.01212500000000
C        25.69890400000000   -0.02561300000000   -0.01630100000000
C        26.90746600000000   -0.02782400000000   -0.01619600000000
C        28.32854100000000   -0.00886400000000   -0.01682300000000
C        29.53968300000000    0.02115400000000   -0.00164500000000
C        38.63703000000000    0.02115400000000   -0.00164500000000
C        39.85256300000000   -0.00419000000000   -0.01212500000000
C        41.27408000000000   -0.02561300000000   -0.01630100000000
C        42.48264100000001   -0.02782400000000   -0.01619600000000
C        43.90371700000000   -0.00886400000000   -0.01682300000000
C        45.11485900000001    0.02115400000000   -0.00164500000000
C        54.21220500000000    0.02115400000000   -0.00164500000000
C        55.42773800000001   -0.00419000000000   -0.01212500000000
C        56.84925500000000   -0.02561300000000   -0.01630100000000
C        58.05781700000001   -0.02782400000000   -0.01619600000000
C        59.47889200000000   -0.00886400000000   -0.01682300000000
C        60.69003400000000    0.02115400000000   -0.00164500000000
Zn       34.12827300000000    0.03277100000000    0.00318300000000
C        31.84846300000000   -3.22867600000000   -0.90648300000000
C        30.89225300000000   -2.32932600000000   -1.00851000000000
C        31.28462800000000   -1.16702100000000   -0.20599400000000
C        30.64951100000000   -0.01574900000000    0.00627300000000
C        31.33496800000000    1.25885100000000    0.23250200000000
C        30.99967800000000    2.33745100000000    0.93674200000000
C        32.02421900000000    3.35676800000000    0.84616100000000
C        32.97481700000000    2.85984300000000    0.07279600000000
N        32.59782200000000    1.54323800000000   -0.34334700000000
C        34.22195600000000    3.47154500000000   -0.34407000000000
C        35.32350800000000    2.80428800000000   -0.67584100000000
C        36.31705400000000    3.05627200000000   -1.71001100000000
C        37.21093700000000    2.09541300000000   -1.60852700000000
C        36.83123900000000    1.18352900000000   -0.50455000000000
N        35.73632400000000    1.63284800000000    0.00281700000000
C        37.48844600000000   -0.01574900000000    0.00627300000000
C        36.86503500000000   -1.08493100000000    0.46778900000000
C        37.24374700000000   -2.01704600000000    1.54326500000000
C        36.30307900000000   -2.93119200000000    1.62913100000000
C        35.29477700000001   -2.63541300000000    0.63170400000000
N        35.63255200000000   -1.58203600000000   -0.01759100000000
C        34.04238400000000   -3.34242000000000    0.30051100000000
C        32.92850800000000   -2.74572400000000   -0.04683100000000
N        32.54639500000000   -1.46296700000000    0.37085200000000
H        31.84880700000000   -4.21975000000000   -1.39771800000000
H        29.98371900000000   -2.45102000000000   -1.58965800000000
H        30.07482600000000    2.45580200000000    1.51366800000000
H        32.05151400000000    4.34593200000000    1.30281100000000
H        34.30789600000000    4.56892200000000   -0.40609300000000
H        36.34972700000000    3.86248800000000   -2.43683500000000
H        38.10399900000000    1.98244500000000   -2.24230100000000
H        38.15849800000000   -1.94264000000000    2.15343500000000
H        36.32212500000000   -3.74480000000000    2.33739800000000
H        34.08086900000000   -4.44238000000000    0.35954700000000
Zn       49.70344900000000    0.03277100000000    0.00318300000000
C        47.42363800000000   -3.22867600000000   -0.90648300000000
C        46.46742900000000   -2.32932600000000   -1.00851000000000
C        46.85980300000000   -1.16702100000000   -0.20599400000000
C        46.22468700000000   -0.01574900000000    0.00627300000000
C        46.91014400000000    1.25885100000000    0.23250200000000
C        46.57485300000000    2.33745100000000    0.93674200000000
C        47.59939500000000    3.35676800000000    0.84616100000000
C        48.54999200000000    2.85984300000000    0.07279600000000
N        48.17299800000000    1.54323800000000   -0.34334700000000
C        49.79713200000000    3.47154500000000   -0.34407000000000
C        50.89868300000000    2.80428800000000   -0.67584100000000
C        51.89223000000000    3.05627200000000   -1.71001100000000
C        52.78611300000000    2.09541300000000   -1.60852700000000
C        52.40641500000000    1.18352900000000   -0.50455000000000
N        51.31150000000001    1.63284800000000    0.00281700000000
C        53.06362200000000   -0.01574900000000    0.00627300000000
C        52.44021000000000   -1.08493100000000    0.46778900000000
C        52.81892300000000   -2.01704600000000    1.54326500000000
C        51.87825400000001   -2.93119200000000    1.62913100000000
C        50.86995300000001   -2.63541300000000    0.63170400000000
N        51.20772800000000   -1.58203600000000   -0.01759100000000
C        49.61756000000000   -3.34242000000000    0.30051100000000
C        48.50368300000001   -2.74572400000000   -0.04683100000000
N        48.12157100000000   -1.46296700000000    0.37085200000000
H        47.42398300000001   -4.21975000000000   -1.39771800000000
H        45.55889500000000   -2.45102000000000   -1.58965800000000
H        45.65000100000000    2.45580200000000    1.51366800000000
H        47.62669000000001    4.34593200000000    1.30281100000000
H        49.88307200000000    4.56892200000000   -0.40609300000000
H        51.92490200000001    3.86248800000000   -2.43683500000000
H        53.67917400000000    1.98244500000000   -2.24230100000000
H        53.73367300000001   -1.94264000000000    2.15343500000000
H        51.89730100000000   -3.74480000000000    2.33739800000000
H        49.65604400000000   -4.44238000000000    0.35954700000000
160
 energy: -279.089080940614 gnorm: 0.560562577691 xtb: 6.4.1 (bd6e46d)
Zn       16.64398831036938    0.03470918629413   -0.00966083043839
C        18.96447926923093   -3.11953118150882    1.30748271258363
C        19.89248873028136   -2.16669029746833    1.26035305598008
C        19.46707294713214   -1.11752410347196    0.34544003026633
C        20.07490853003964    0.02410596722924   -0.00853174544751
C        19.37715436129885    1.22428507221967   -0.36199842574642
C        19.72240437290565    2.21097526230466   -1.23182621765139
C        18.70166299558943    3.20824210213870   -1.24549831116638
C        17.73623199072544    2.81404007152623   -0.37987746096221
N        18.13008918120860    1.58608531106575    0.17950877309560
C        16.49602863045654    3.47597634487791   -0.00970081993308
C        15.37623162282093    2.82851395965207    0.34409014373886
C        14.31693302689521    3.16432283272644    1.30086845879363
C        13.45631659440835    2.15400574626298    1.23717029915331
C        13.90682180079675    1.15838370711794    0.26525364833933
N        15.04089141042658    1.58621577955193   -0.22232463423985
C        13.29389351765667   -0.07839878216789   -0.15426910256161
C        13.97065367465997   -1.20584451552994   -0.41805350386745
C        13.58685930008594   -2.26011652971915   -1.36303354799326
C        14.54852595790471   -3.17287799539434   -1.28064979173267
C        15.53534679946086   -2.72901007543883   -0.30463063356231
N        15.17827952757181   -1.55808178182863    0.18320169545056
C        16.74300174547964   -3.38088796457408    0.14027051458077
C        17.88855124503170   -2.71767710745647    0.41409589773067
N        18.20780684604766   -1.48333284982606   -0.16834995949858
H        19.02146982773126   -4.01829267022019    1.92475391818630
H        20.80060804500051   -2.20270213063546    1.83820224622549
H        20.63852487003556    2.21118317051502   -1.81838843014037
H        18.69937201052295    4.10858978651547   -1.84679808549237
H        16.44241875483697    4.56732100360935   -0.00842015315478
H        14.26406945718329    4.03563560976790    1.93346082398463
H        12.56243832462404    2.12027232074337    1.85030789615892
H        12.20657706945024   -0.08869213701511   -0.26144699345252
H        12.72580909240903   -2.31003513414181   -2.01608587315119
H        14.54529346388316   -4.07452235099173   -1.87857493620644
H        16.72047192959207   -4.46794284999173    0.25840478051608
Zn       67.10926610675639   -0.01349343143196   -0.01417567321833
C        64.78877939342834    2.84163551165320    1.86526667505434
C        63.86076679379455    1.91408233479085    1.64216740780880
C        64.28622147893478    1.05288067467084    0.54851213808217
C        63.67831007365742   -0.00321246752026   -0.01108788930249
C        64.37611012596051   -1.11702826238728   -0.58108828967190
C        64.03085281868545   -1.92525101904092   -1.61883120029078
C        65.05159050314371   -2.90268181619559   -1.81728257328103
C        66.01701897151705   -2.67591778580969   -0.89356372170956
N        65.62314599930222   -1.57304078183298   -0.11610157585640
C        67.25721206910785   -3.39503117861530   -0.65261885191533
C        68.37701703670120   -2.82442579320255   -0.18484466366004
C        69.43630714068894   -3.33190321898092    0.69302073119817
C        70.29693481855374   -2.32730554943426    0.81784838954718
C        69.84643811397373   -1.16866276724101    0.04751391557092
N        68.71234706387645   -1.49863059558610   -0.51097202966932
C        70.45935639957392    0.12446348456635   -0.13528176063787
C        69.78258895372245    1.28128885164684   -0.18533855455510
C        70.16638386413989    2.49255544592735   -0.91832976723748
C        69.20471573795936    3.37419844072785   -0.66803785839986
C        68.21790048598947    2.75697498596480    0.20868699733934
N        68.57497491362145    1.51586210979793    0.47082782592633
C        67.01024939232640    3.31500765574332    0.76679681618037
C        65.86470329081274    2.61250381383263    0.91284180980787
N        65.54547847939769    1.50763889111183    0.11153437575045
H        64.73177935767437    3.61028905208872    2.63855704119218
H        62.95264118141733    1.84226907138880    2.21668266467933
H        63.11472615408032   -1.81664197928157   -2.19527705351355
H        65.05387749949560   -3.67584851009086   -2.57518608622769
H        67.31083228392815   -4.46766455296491   -0.85382875840964
H        69.48917802460764   -4.30545144908859    1.15299066530441
H        71.19081110719397   -2.40790985278954    1.42660837101645
H        71.54667257338988    0.15447020902915   -0.23868697194986
H        71.02743762796156    2.66276432657207   -1.55078401349291
H        69.20795301797824    4.37111573971365   -1.08832111609443
H        67.03277769535832    4.36127198759547    1.08454660912412
C        23.06108326361014    0.02093920949258   -0.00135785336034
C        24.28597293267876   -0.00454077984006   -0.01187666399241
C        25.68297533435321   -0.02504655694656   -0.01634298206986
C        26.90755810756464   -0.02715055385903   -0.01620879192235
C        28.26572491415678   -0.00878325521401   -0.01654062114114
C        29.45872884072760    0.03116948253900   -0.00381530455361
C        38.70850005640722    0.02886877403981   -0.00152213624613
C        39.90666737247605   -0.00451956720602   -0.01138081286057
C        41.26538802877382   -0.02490912348786   -0.01702837156293
C        42.48803452190715   -0.02712187317396   -0.01623897223822
C        43.84132717943833   -0.00879259538069   -0.01653274639937
C        45.03430502397752    0.03110938626363   -0.00411914257738
C        54.28454559232809    0.02901493334276   -0.00102326751832
C        55.48219759883868   -0.00424019928049   -0.01117916108057
C        56.84694440462231   -0.02484730546932   -0.01711117305979
C        58.07182048992780   -0.02724333511299   -0.01652588568540
C        59.46900659586309   -0.00938466380956   -0.01646441229161
C        60.69238855942869    0.02060103749016   -0.00128733552562
Zn       34.12273794574972    0.03442695868817    0.00240689261047
C        31.85193538609174   -3.24340371902298   -0.90293509498701
C        30.88876085599012   -2.32627695955684   -1.00325924872602
C        31.32589289325766   -1.18921263624387   -0.21002586683311
C        30.72206712267721   -0.00324826314522    0.00675532328799
C        31.37217751572911    1.26612016215844    0.23058908430651
C        30.99444766512963    2.35698810341222    0.94618520348212
C        32.00633113898804    3.35903840134434    0.85257774527430
C        32.98455489209653    2.84700127893732    0.06732547092202
N        32.61606691590507    1.53952080958925   -0.33823415707216
C        34.21102359118281    3.47387877756820   -0.34398537651785
C        35.33089639398619    2.79726508443957   -0.67717765962503
C        36.31863036049990    3.06307817642547   -1.70236045461258
C        37.22492227090608    2.08508618528554   -1.60752621084187
C        36.81988676493242    1.18922151578632   -0.51863072227652
N        35.71020094712005    1.62794056318754   -0.00493385308234
C        37.43935585550906   -0.00303437014394   -0.00081099836228
C        36.83273388080291   -1.10458179524431    0.47886527618417
C        37.25143631857669   -2.01181189983639    1.53670764606931
C        36.29759573254267   -2.94468630821752    1.62854298405370
C        35.28562281969172   -2.64716226147902    0.63969376495214
N        35.62211474525251   -1.56218598083222   -0.01346572680587
C        34.05971461641067   -3.34960959479150    0.30833244209294
C        32.91710681869309   -2.73781336115146   -0.05243724510396
N        32.55684791185757   -1.46152150038731    0.35419348781188
H        31.85156658184145   -4.21678283786871   -1.39501588334726
H        29.98474077326666   -2.44434332770332   -1.58648968039399
H        30.07557424288195    2.45691991240552    1.51325759743039
H        32.04570045524810    4.34220550358252    1.30372041643905
H        34.29853434820684    4.56546946658049   -0.40912888366406
H        36.34541816409921    3.86141267252435   -2.43230911243236
H        38.10281639938827    1.97852283718546   -2.23929583618271
H        38.15409310935532   -1.93900085776702    2.14769484958983
H        36.31781961502699   -3.74824190674194    2.33748908178288
H        34.08394345385567   -4.44039692869797    0.35799134638342
Zn       49.69761397560975    0.03437441215259    0.00243769715490
C        47.42650772651993   -3.24362469969387   -0.90276099822596
C        46.46414731859765   -2.32672190353447   -1.00334165061676
C        46.90120470878027   -1.18901282796739   -0.20888144575299
C        46.29731954887604   -0.00354477235681    0.00667697319918
C        46.94750377153118    1.26641730422996    0.23003407738116
C        46.56982180764744    2.35696151775499    0.94623306638642
C        47.58144550585780    3.35919072373519    0.85245645131296
C        48.55994980507424    2.84723770605030    0.06725489433018
N        48.19094793505801    1.53943479907314   -0.33826506064500
C        49.78595760591108    3.47384402178866   -0.34368667345234
C        50.90634482134889    2.79718071624393   -0.67707957641701
C        51.89366689525744    3.06303393601950   -1.70239034027958
C        52.80013354996156    2.08500224789559   -1.60761280679964
C        52.39478198810931    1.18874280111779   -0.51961001842185
N        51.28550351938896    1.62792507655541   -0.00498365092595
C        53.01438706988009   -0.00355825073128   -0.00060418947750
C        52.40840790718148   -1.10397854454573    0.47924606113768
C        52.82705326599498   -2.01201978188503    1.53648691853768
C        51.87264327175900   -2.94413672906529    1.62895366047284
C        50.86133600950781   -2.64632592944884    0.63983591582181
N        51.19674796620227   -1.56275366638949   -0.01328367047888
C        49.63398268875687   -3.34973931779953    0.30758423819293
C        48.49293407176260   -2.73826213992379   -0.05211512002592
N        48.13196505424970   -1.46095690259399    0.35420979911640
H        47.42667793395756   -4.21681991217944   -1.39507200504448
H        45.55997754381663   -2.44436300732502   -1.58655138991620
H        45.65075983960356    2.45691500506411    1.51322234066312
H        47.62086832593024    4.34225082072025    1.30373714447829
H        49.87369498785448    4.56546074223640   -0.40904957163647
H        51.92058216536655    3.86140657396670   -2.43229245631164
H        53.67800932101640    1.97853611871770   -2.23929083769914
H        53.72935589747088   -1.93906447166826    2.14769779771337
H        51.89298471146162   -3.74816108946306    2.33747682869517
H        49.65914238240408   -4.44043584347297    0.35739916693846
160
 energy: -279.286288619126 gnorm: 0.261330512835 xtb: 6.4.1 (bd6e46d)
Zn       16.65368110043612    0.03420711440009   -0.00774917853861
C        18.96522620815283   -3.12601669409847    1.29551443746134
C        19.90603165938881   -2.16627134109072    1.25446321988568
C        19.45904325374690   -1.11792741388159    0.35621636711862
C        20.04138811848636    0.04721272141244   -0.01124182483429
C        19.36166943930468    1.22215190799379   -0.35819722135112
C        19.73023383953758    2.23745878247785   -1.24246983804591
C        18.73091970799706    3.20742060371081   -1.25046967922539
C        17.73239069181392    2.79078299397228   -0.37403900152828
N        18.10684585510240    1.56905779878165    0.17313849505247
C        16.51633947743175    3.46781710697725   -0.00991342382021
C        15.37232305235811    2.80873586045002    0.34758684560045
C        14.31864920269991    3.16714918506442    1.27865983765561
C        13.43321634644139    2.15005119035207    1.23323834308028
C        13.90159090908927    1.15789876399957    0.28365738275886
N        15.07576477900906    1.56260857746222   -0.19441788576138
C        13.28691328302990   -0.05792122360324   -0.14655665262455
C        13.97580413580875   -1.20442182620863   -0.42730500873199
C        13.58261172067684   -2.26011813560360   -1.34524345246347
C        14.55217060515782   -3.19222250617375   -1.27114750479731
C        15.54464874955973   -2.73681968551534   -0.31477249934673
N        15.19026321967396   -1.53042072075604    0.14791784557848
C        16.72693758332991   -3.38214188567783    0.13229953726974
C        17.89107207554477   -2.70263070067818    0.41785624248418
N        18.20034954124086   -1.48163588660716   -0.13601234022289
H        19.01169312931065   -4.01308464432674    1.91343865089092
H        20.80778042510527   -2.19148162373540    1.83365835082255
H        20.63671041027991    2.22011608402703   -1.81937812469600
H        18.70583918476516    4.10432623053986   -1.84551253520197
H        16.46129816191815    4.55748184329393   -0.00430056717625
H        14.27202297924595    4.03134200768767    1.92227362331687
H        12.55559680554339    2.10993692415499    1.84764673443822
H        12.20879236292147   -0.08028027240376   -0.26392077138586
H        12.72932024834915   -2.29973165936975   -2.00460150709197
H        14.55762384264426   -4.08080015854525   -1.87261959561020
H        16.71713474230942   -4.46172596098555    0.25619009744043
Zn       67.09958328745138   -0.01335105194897   -0.01221097939116
C        64.78804462425248    2.85022955256846    1.85472385271546
C        63.84721789822980    1.91478985731977    1.63629300968014
C        64.29421033328687    1.05134981772523    0.55914423787943
C        63.71163760363517   -0.02527229026692   -0.01807830862154
C        64.39151654706257   -1.11560326276354   -0.57695610065960
C        64.02300697855631   -1.94929336989748   -1.63418792855269
C        65.02233267591987   -2.90095501344372   -1.82199642527607
C        66.02084746126418   -2.65413497644949   -0.88349676160597
N        65.64632751743326   -1.55508322588892   -0.11919862787379
C        67.23689275943019   -3.38696442093603   -0.65130308914352
C        68.38092042057660   -2.80563379520377   -0.17772912876300
C        69.43458779838365   -3.33055610266351    0.67068292502643
C        70.32003611405389   -2.32269075706910    0.81471797804764
C        69.85166813049165   -1.17159887992160    0.06569034607074
N        68.67746902011611   -1.48061218046552   -0.47915755984058
C        70.46633252433068    0.10290618573217   -0.13149714932936
C        69.77743359765188    1.28160419367151   -0.19469636580783
C        70.17062675614363    2.48925307014537   -0.90085233738958
C        69.20107484904970    3.39144521188061   -0.65510886839087
C        68.20860124985938    2.76653290437356    0.20017277051179
N        68.56299534164036    1.49522221224715    0.43102374073352
C        67.02632171912705    3.31771906434419    0.75919235720625
C        65.86219270575170    2.59700745491468    0.91377127298785
N        65.55295360730958    1.49994196894023    0.14303567172777
H        64.74155809317050    3.60727719256132    2.62647074402261
H        62.94546589831069    1.83210672635953    2.21012137472712
H        63.11654554949524   -1.82524104268398   -2.19792480730542
H        65.04741219358252   -3.67189652117121   -2.57312034114345
H        67.29195228895753   -4.45875470302149   -0.84795347441413
H        69.48122395025607   -4.29915286205129    1.14280455705884
H        71.19765151459848   -2.39725895139545    1.42591497995267
H        71.54445562026642    0.14666368650914   -0.24266565268191
H        71.02392340900120    2.65050601573453   -1.54141182266822
H        69.19562297563633    4.37617692759411   -1.08130706511776
H        67.03610977464642    4.35558307009205    1.08119097260772
C        23.06219965385610    0.02052311419864   -0.00099069615025
C        24.29246308359063   -0.00484419168449   -0.01151892869453
C        25.65936623259166   -0.02384415292688   -0.01639445957433
C        26.89048429551811   -0.02613709353915   -0.01644379421523
C        28.21535278692919   -0.00992834059133   -0.01500155416274
C        29.43396892968850    0.04429147588810   -0.00714312321391
C        38.74044705221350    0.03543874515997    0.00026758654422
C        39.95364495205464   -0.00671532061220   -0.00953107970399
C        41.26493595113060   -0.02390412138067   -0.01797878770220
C        42.48851649126141   -0.02609629943999   -0.01663025233054
C        43.79974880338843   -0.00990412095055   -0.01509623607787
C        45.01504345513553    0.04434267068728   -0.00815616868340
C        54.32197145197612    0.03585414263213    0.00143498721207
C        55.53823257528551   -0.00605626944746   -0.00899582970141
C        56.86442602692790   -0.02350218831334   -0.01800704541752
C        58.09477037757624   -0.02586189414724   -0.01694543002749
C        59.46241786445012   -0.01041173622568   -0.01600166181198
C        60.69176710257420    0.01895468077661   -0.00090255881516
Zn       34.11617863921094    0.03748364682459    0.00047636639394
C        31.85582228821116   -3.26064664925248   -0.89270208845025
C        30.88755620763904   -2.32478341392881   -0.99130656096077
C        31.35474299394096   -1.20109981956278   -0.21574134397785
C        30.75101239529855    0.01988714587374    0.00498474135711
C        31.40942293475390    1.27276551457552    0.22912713497838
C        30.99040472922686    2.38198542034518    0.95281222983411
C        31.98342831399263    3.35920191352738    0.85328305059375
C        32.99562719939641    2.83113410389711    0.06453012196597
N        32.64761133087775    1.53018209567035   -0.31400439554196
C        34.19419938896634    3.47317440495844   -0.34625899986395
C        35.33287346886021    2.78616236550587   -0.68162952954572
C        36.32469201391815    3.06881860949870   -1.68514763700738
C        37.24094154303218    2.07494085722437   -1.60067612122011
C        36.81128318332343    1.18881982717167   -0.53913772036022
N        35.66696736314847    1.61045814336825   -0.03203189876444
C        37.42034251954701    0.01342095370187   -0.01113411933652
C        36.80767323023782   -1.11494168645642    0.48925986440085
C        37.25471393346218   -2.01023361019367    1.52343388792545
C        36.29390802350022   -2.96230700546999    1.62030020153268
C        35.27188371535149   -2.65745446429892    0.65159475945443
N        35.59955806175898   -1.52767093221318    0.01053868987152
C        34.07803064638473   -3.35573663389852    0.31841294520518
C        32.91365254190931   -2.73244052619819   -0.06263056392152
N        32.57737835774450   -1.45609815274619    0.31385684834627
H        31.85753919143304   -4.21632650232497   -1.38893384602288
H        29.98778125253169   -2.43112383516081   -1.57734286177437
H        30.07558618093166    2.45989393831303    1.51242489695913
H        32.03355664355014    4.33582602272403    1.30421197456032
H        34.27715399580638    4.55873880882519   -0.41283454286792
H        36.33781338755725    3.85954780628750   -2.41973879271602
H        38.10407750193406    1.96976908331262   -2.23316349265040
H        38.14526843413320   -1.93281891368459    2.13478597828980
H        36.30922823010326   -3.75715047818825    2.33563266358721