 Entering Gaussian System
 *********************************************
 Gaussian 98:
 frequency output generated by the xtb code
 *********************************************
                         Standard orientation:
 --------------------------------------------------------------------
  Center     Atomic     Atomic              Coordinates (Angstroms)
  Number     Number      Type              X           Y           Z
 --------------------------------------------------------------------
    1         28             0       14.489743   -0.000485   -0.005299
    2          6             0       16.993065   -3.409396    0.046472
    3          6             0       17.943751   -2.447970    0.040526
    4          6             0       17.253128   -1.193693    0.019340
    5          6             0       17.918156    0.036115    0.005922
    6          6             0       17.227496    1.251604   -0.002824
    7          6             0       17.891381    2.520397   -0.005189
    8          6             0       16.920473    3.461434    0.001087
    9          6             0       15.671316    2.760631    0.004642
   10          7             0       15.874603    1.406317    0.000931
   11          6             0       14.449559    3.401291    0.010335
   12          6             0       13.243119    2.732394    0.001097
   13          6             0       11.974434    3.402422   -0.003425
   14          6             0       11.029351    2.437966   -0.025944
   15          6             0       11.724758    1.182733   -0.032668
   16          7             0       13.076360    1.376747   -0.014491
   17          6             0       11.079450   -0.036850   -0.054556
   18          6             0       11.750725   -1.242521   -0.049595
   19          6             0       11.082443   -2.512422   -0.062844
   20          6             0       12.047787   -3.456579   -0.039439
   21          6             0       13.301627   -2.759549   -0.014358
   22          7             0       13.105979   -1.407716   -0.022420
   23          6             0       14.521847   -3.402347    0.013983
   24          6             0       15.729428   -2.735495    0.026656
   25          7             0       15.903884   -1.377205    0.012716
   26          1             0       17.112922   -4.475192    0.061286
   27          1             0       19.011234   -2.551777    0.049720
   28          1             0       18.956534    2.646886   -0.009403
   29          1             0       17.017662    4.529703    0.002390
   30          1             0       14.438261    4.480507    0.018149
   31          1             0       11.851850    4.468185    0.007944
   32          1             0        9.961314    2.538895   -0.036522
   33          1             0       10.000509   -0.048290   -0.072568
   34          1             0       10.016970   -2.636180   -0.085702
   35          1             0       11.948065   -4.524826   -0.039457
   36          1             0       14.533673   -4.481544    0.022847
   37         28             0       41.361528    0.030664   -0.003185
   38          6             0       38.868331    3.389048    0.628150
   39          6             0       37.914608    2.447348    0.449817
   40          6             0       38.601389    1.212174    0.218516
   41          6             0       37.933038    0.003515    0.002021
   42          6             0       38.620145   -1.195820   -0.207531
   43          6             0       37.952231   -2.444237   -0.422233
   44          6             0       38.920154   -3.374154   -0.585140
   45          6             0       40.171517   -2.686677   -0.471030
   46          7             0       39.972562   -1.351794   -0.238784
   47          6             0       41.391155   -3.320129   -0.590923
   48          6             0       42.599593   -2.662187   -0.492049
   49          6             0       43.866051   -3.322775   -0.626981
   50          6             0       44.814126   -2.372647   -0.477746
   51          6             0       44.122756   -1.135932   -0.250253
   52          7             0       42.770607   -1.326677   -0.261934
   53          6             0       44.771910    0.064540   -0.046083
   54          6             0       44.104443    1.250601    0.181974
   55          6             0       44.776840    2.498659    0.404796
   56          6             0       43.814405    3.426636    0.595644
   57          6             0       42.558191    2.742112    0.486084
   58          7             0       42.749609    1.413391    0.233754
   59          6             0       41.339826    3.375391    0.618428
   60          6             0       40.129969    2.722855    0.501783
   61          7             0       39.951315    1.388341    0.251443
   62          1             0       38.751814    4.436824    0.826084
   63          1             0       36.847403    2.552651    0.470398
   64          1             0       36.886678   -2.565910   -0.441322
   65          1             0       38.819560   -4.426471   -0.767118
   66          1             0       41.399039   -4.383577   -0.775041
   67          1             0       43.985204   -4.372855   -0.811659
   68          1             0       45.881761   -2.472361   -0.512502
   69          1             0       45.850889    0.075673   -0.061847
   70          1             0       45.842815    2.620076    0.410095
   71          1             0       43.917559    4.476481    0.791288
   72          1             0       41.331405    4.435841    0.819110
   73          6             0       19.315870    0.049142    0.005220
   74          6             0       20.533566    0.056649    0.002433
   75          6             0       21.876021    0.058559   -0.000008
   76          6             0       23.093848    0.056474   -0.002457
   77          6             0       32.757069   -0.009217   -0.011671
   78          6             0       33.974821   -0.012488   -0.008702
   79          6             0       35.317446   -0.009823   -0.004675
   80          6             0       36.535071   -0.006506   -0.001494
   81         28             0       27.925346    0.022595   -0.014544
   82          6             0       25.431142   -3.377126    0.333310
   83          6             0       24.476346   -2.424772    0.233197
   84          6             0       25.161836   -1.173766    0.110428
   85          6             0       24.491036    0.047784   -0.006180
   86          6             0       25.178570    1.259176   -0.128171
   87          6             0       24.510695    2.519775   -0.250583
   88          6             0       25.478754    3.457630   -0.359885
   89          6             0       26.729266    2.762524   -0.302427
   90          7             0       26.530501    1.415234   -0.157693
   91          6             0       27.948903    3.400336   -0.390154
   92          6             0       29.159385    2.742205   -0.330391
   93          6             0       30.419566    3.416068   -0.420523
   94          6             0       31.374394    2.464629   -0.312667
   95          6             0       30.688885    1.216975   -0.158449
   96          7             0       29.339254    1.393686   -0.172644
   97          6             0       31.359650   -0.001522   -0.014396
   98          6             0       30.672313   -1.210893    0.126759
   99          6             0       31.340241   -2.468397    0.277238
  100          6             0       30.372163   -3.406954    0.380160
  101          6             0       29.121576   -2.715202    0.292229
  102          7             0       29.320287   -1.368801    0.139422
  103          6             0       27.901845   -3.356066    0.351699
  104          6             0       26.691317   -2.700277    0.270973
  105          7             0       26.511449   -1.349684    0.131715
  106          1             0       25.315889   -4.438226    0.439828
  107          1             0       23.409211   -2.532775    0.239676
  108          1             0       23.445276    2.643262   -0.251220
  109          1             0       25.378490    4.519897   -0.469582
  110          1             0       27.956604    4.472908   -0.510759
  111          1             0       30.534795    4.474784   -0.548719
  112          1             0       32.441492    2.571054   -0.333620
  113          1             0       32.405738   -2.589719    0.298396
  114          1             0       30.472408   -4.467688    0.504086
  115          1             0       27.894158   -4.429091    0.468281
 --------------------------------------------------------------------
     1 basis functions        1 primitive gaussians
     1 alpha electrons        1 beta electrons

 Harmonic frequencies (cm**-1), IR intensities (km*mol⁻¹),
 Raman scattering activities (A**4/amu), Raman depolarization ratios,
 reduced masses (AMU), force constants (mDyne/A) and normal coordinates:
                      1                      2                      3
                        a                      a                      a 
 Frequencies --    -4.4292                -3.7002                -1.7638
 Red. masses --    13.3641                11.7976                16.7049
 Frc consts  --     0.0000                 0.0000                 0.0000
 IR Inten    --    13.5100                25.9723                 2.2924
 Raman Activ --     0.0000                 0.0000                 0.0000
 Depolar     --     0.0000                 0.0000                 0.0000
 Atom AN      X      Y      Z        X      Y      Z        X      Y      Z
   1  28    -0.00   0.01  -0.10     0.00  -0.04  -0.01     0.00  -0.02  -0.14
   2   6    -0.00  -0.00  -0.24     0.02  -0.01  -0.12     0.01  -0.00   0.05
   3   6    -0.00  -0.00  -0.17     0.01  -0.00  -0.09     0.01  -0.00   0.04
   4   6    -0.00  -0.00  -0.11     0.01  -0.00  -0.05     0.00  -0.00   0.00
   5   6    -0.00  -0.00  -0.08     0.00  -0.00  -0.03    -0.00  -0.00   0.00
   6   6     0.00  -0.00  -0.10    -0.01  -0.00  -0.04    -0.00  -0.00  -0.00
   7   6     0.00  -0.00  -0.17    -0.01  -0.00  -0.07    -0.01  -0.00   0.03
   8   6     0.01  -0.00  -0.23    -0.02  -0.01  -0.10    -0.01  -0.00   0.04
   9   6     0.00   0.00  -0.19    -0.01  -0.01  -0.07    -0.01  -0.01   0.01
  10   7     0.00   0.00  -0.13    -0.01  -0.01  -0.04    -0.00  -0.01  -0.02
  11   6     0.01   0.00  -0.19    -0.01  -0.02  -0.06    -0.01  -0.01  -0.01
  12   6     0.00   0.01  -0.06    -0.01  -0.02   0.00    -0.01  -0.01  -0.07
  13   6     0.00   0.01   0.03    -0.02  -0.03   0.05    -0.01  -0.02  -0.12
  14   6     0.00   0.01   0.19    -0.01  -0.03   0.13    -0.01  -0.02  -0.20
  15   6    -0.00   0.01   0.18    -0.01  -0.03   0.12    -0.00  -0.02  -0.18
  16   7     0.00   0.01   0.03    -0.01  -0.03   0.05    -0.00  -0.02  -0.12
  17   6    -0.01   0.01   0.28    -0.00  -0.03   0.17     0.00  -0.02  -0.22
  18   6    -0.01   0.01   0.18     0.00  -0.03   0.12     0.01  -0.02  -0.18
  19   6    -0.01   0.01   0.19     0.01  -0.03   0.12     0.01  -0.02  -0.19
  20   6    -0.01   0.01   0.03     0.01  -0.03   0.04     0.01  -0.02  -0.12
  21   6    -0.01   0.00  -0.06     0.01  -0.02  -0.01     0.01  -0.01  -0.07
  22   7    -0.00   0.01   0.03     0.01  -0.03   0.04     0.01  -0.02  -0.12
  23   6    -0.00   0.00  -0.19     0.02  -0.02  -0.08     0.01  -0.01  -0.01
  24   6    -0.00   0.00  -0.19     0.01  -0.01  -0.09     0.01  -0.01   0.01
  25   7    -0.00   0.00  -0.13     0.01  -0.01  -0.05     0.00  -0.01  -0.01
  26   1    -0.00  -0.00  -0.09     0.01  -0.00  -0.04     0.00  -0.00   0.02
  27   1    -0.00  -0.00  -0.05     0.00   0.00  -0.03     0.00   0.00   0.02
  28   1     0.00  -0.00  -0.05    -0.00   0.00  -0.02    -0.00   0.00   0.01
  29   1     0.00  -0.00  -0.09    -0.01  -0.00  -0.04    -0.00  -0.00   0.02
  30   1     0.00   0.00  -0.07    -0.01  -0.00  -0.03    -0.00  -0.00   0.00
  31   1     0.00   0.00  -0.01    -0.01  -0.01   0.01    -0.00  -0.01  -0.03
  32   1    -0.00   0.00   0.09    -0.00  -0.01   0.06    -0.00  -0.01  -0.07
  33   1    -0.00   0.00   0.12    -0.00  -0.01   0.07     0.00  -0.01  -0.08
  34   1    -0.00   0.00   0.09     0.00  -0.01   0.05     0.00  -0.01  -0.07
  35   1    -0.00   0.00  -0.01     0.01  -0.01   0.00     0.00  -0.01  -0.03
  36   1    -0.00   0.00  -0.07     0.01  -0.01  -0.03     0.00  -0.00   0.00
  37  28     0.00   0.01  -0.07    -0.00  -0.04   0.05     0.00  -0.02  -0.14
  38   6    -0.01   0.01  -0.10     0.04  -0.03   0.22     0.02  -0.01   0.01
  39   6    -0.01   0.00  -0.07     0.03  -0.01   0.16     0.01  -0.01   0.01
  40   6    -0.00  -0.00  -0.05     0.02  -0.00   0.10     0.01  -0.00  -0.01
  41   6     0.00  -0.01  -0.04     0.00   0.01   0.08     0.00  -0.00  -0.01
  42   6     0.01  -0.00  -0.05    -0.01  -0.00   0.10    -0.01  -0.01  -0.01
  43   6     0.01  -0.00  -0.07    -0.03  -0.01   0.17    -0.01  -0.01   0.02
  44   6     0.01   0.01  -0.10    -0.04  -0.03   0.23    -0.02  -0.01   0.02
  45   6     0.01   0.01  -0.09    -0.03  -0.03   0.18    -0.01  -0.01  -0.01
  46   7     0.01   0.00  -0.06    -0.02  -0.02   0.12    -0.01  -0.01  -0.03
  47   6     0.01   0.01  -0.09    -0.04  -0.05   0.17    -0.02  -0.02  -0.03
  48   6     0.01   0.01  -0.04    -0.03  -0.04   0.04    -0.02  -0.02  -0.08
  49   6     0.01   0.01  -0.01    -0.04  -0.04  -0.05    -0.02  -0.02  -0.11
  50   6     0.01   0.00   0.05    -0.03  -0.02  -0.22    -0.01  -0.01  -0.16
  51   6     0.01   0.00   0.05    -0.02  -0.01  -0.21    -0.01  -0.01  -0.15
  52   7     0.01   0.01  -0.01    -0.02  -0.02  -0.06    -0.01  -0.01  -0.11
  53   6     0.00  -0.00   0.09    -0.01   0.00  -0.31    -0.00  -0.01  -0.18
  54   6    -0.00  -0.00   0.05     0.01  -0.01  -0.22     0.01  -0.01  -0.15
  55   6    -0.01   0.00   0.05     0.02  -0.01  -0.24     0.01  -0.01  -0.17
  56   6    -0.01   0.01  -0.01     0.04  -0.03  -0.07     0.02  -0.02  -0.12
  57   6    -0.01   0.01  -0.04     0.03  -0.04   0.03     0.02  -0.02  -0.08
  58   7    -0.00   0.01  -0.01     0.01  -0.02  -0.07     0.01  -0.01  -0.11
  59   6    -0.01   0.02  -0.09     0.04  -0.05   0.16     0.02  -0.02  -0.03
  60   6    -0.01   0.01  -0.09     0.03  -0.03   0.17     0.02  -0.01  -0.01
  61   7    -0.01   0.00  -0.06     0.02  -0.02   0.11     0.01  -0.01  -0.03
  62   1    -0.00   0.00  -0.04     0.02  -0.01   0.08     0.01  -0.00   0.01
  63   1    -0.00  -0.00  -0.02     0.01   0.00   0.05     0.00  -0.00   0.01
  64   1     0.00  -0.00  -0.02    -0.01   0.00   0.05    -0.00  -0.00   0.01
  65   1     0.00   0.00  -0.04    -0.01  -0.01   0.09    -0.01  -0.00   0.01
  66   1     0.00   0.01  -0.03    -0.01  -0.02   0.07    -0.01  -0.01  -0.00
  67   1     0.00   0.00  -0.01    -0.01  -0.01   0.00    -0.01  -0.01  -0.03
  68   1     0.00  -0.00   0.03    -0.01  -0.00  -0.09    -0.00  -0.00  -0.06
  69   1     0.00  -0.00   0.04    -0.00   0.00  -0.13    -0.00  -0.00  -0.07
  70   1    -0.00  -0.00   0.03     0.01  -0.00  -0.10     0.00  -0.00  -0.06
  71   1    -0.00   0.00  -0.01     0.01  -0.01  -0.01     0.01  -0.01  -0.03
  72   1    -0.00   0.01  -0.03     0.02  -0.02   0.06     0.01  -0.01  -0.01
  73   6    -0.00  -0.00  -0.05     0.00   0.00  -0.03    -0.00   0.00   0.01
  74   6     0.00  -0.00  -0.02     0.00   0.01  -0.02    -0.00   0.01   0.03
  75   6     0.00  -0.00   0.00     0.00   0.02  -0.02    -0.00   0.01   0.04
  76   6     0.00  -0.00   0.02     0.00   0.02  -0.02    -0.00   0.01   0.06
  77   6     0.00  -0.02   0.03     0.00   0.05   0.01    -0.00   0.01   0.06
  78   6     0.00  -0.02   0.01     0.00   0.05   0.02    -0.00   0.01   0.04
  79   6     0.00  -0.02  -0.00     0.00   0.04   0.04     0.00   0.01   0.02
  80   6     0.00  -0.01  -0.02     0.00   0.03   0.06     0.00   0.00   0.01
  81  28     0.00  -0.01   0.17     0.00   0.07  -0.05    -0.00   0.04   0.26
  82   6    -0.00  -0.00   0.09     0.01   0.02  -0.04     0.00   0.02   0.13
  83   6    -0.00  -0.00   0.07     0.01   0.02  -0.03     0.00   0.02   0.10
  84   6    -0.00  -0.00   0.06     0.00   0.02  -0.03     0.00   0.02   0.09
  85   6     0.00  -0.00   0.04     0.00   0.02  -0.02    -0.00   0.01   0.08
  86   6     0.00  -0.00   0.06    -0.00   0.02  -0.02    -0.00   0.02   0.10
  87   6     0.00  -0.00   0.06    -0.01   0.02  -0.03    -0.00   0.02   0.10
  88   6     0.00  -0.00   0.09    -0.01   0.02  -0.03    -0.00   0.02   0.13
  89   6     0.00  -0.00   0.09    -0.01   0.03  -0.03    -0.00   0.02   0.14
  90   7     0.00  -0.00   0.08    -0.00   0.03  -0.03    -0.00   0.02   0.13
  91   6     0.00  -0.00   0.11    -0.01   0.03  -0.03    -0.00   0.02   0.15
  92   6     0.00  -0.00   0.10    -0.01   0.03  -0.02    -0.00   0.02   0.14
  93   6     0.00  -0.01   0.09    -0.01   0.04  -0.02    -0.00   0.02   0.13
  94   6     0.00  -0.01   0.07    -0.01   0.04  -0.01    -0.00   0.02   0.11
  95   6     0.00  -0.01   0.06    -0.00   0.04  -0.01    -0.00   0.02   0.10
  96   7     0.00  -0.01   0.08    -0.00   0.04  -0.02    -0.00   0.02   0.13
  97   6     0.00  -0.01   0.05     0.00   0.04  -0.00    -0.00   0.02   0.08
  98   6    -0.00  -0.01   0.06     0.00   0.04  -0.01    -0.00   0.02   0.09
  99   6    -0.00  -0.01   0.07     0.01   0.04  -0.01     0.00   0.02   0.10
 100   6    -0.00  -0.01   0.09     0.01   0.04  -0.02     0.00   0.02   0.13
 101   6    -0.00  -0.00   0.10     0.01   0.03  -0.03     0.00   0.02   0.13
 102   7    -0.00  -0.01   0.08     0.00   0.04  -0.02    -0.00   0.02   0.12
 103   6    -0.00  -0.00   0.11     0.01   0.03  -0.04     0.00   0.02   0.15
 104   6    -0.00  -0.00   0.10     0.01   0.03  -0.04     0.00   0.02   0.13
 105   7    -0.00  -0.00   0.08     0.00   0.03  -0.03     0.00   0.02   0.12
 106   1    -0.00   0.00   0.03     0.00   0.01  -0.01     0.00   0.01   0.04
 107   1    -0.00  -0.00   0.02     0.00   0.01  -0.01     0.00   0.00   0.03
 108   1     0.00  -0.00   0.01    -0.00   0.01  -0.01    -0.00   0.00   0.03
 109   1     0.00   0.00   0.03    -0.00   0.01  -0.01    -0.00   0.01   0.04
 110   1     0.00  -0.00   0.04    -0.00   0.01  -0.01    -0.00   0.01   0.05
 111   1     0.00  -0.00   0.03    -0.00   0.01  -0.01    -0.00   0.01   0.04
 112   1     0.00  -0.00   0.02    -0.00   0.01   0.00    -0.00   0.01   0.03
 113   1    -0.00  -0.00   0.02     0.00   0.01  -0.00     0.00   0.01   0.03
 114   1    -0.00  -0.00   0.03     0.00   0.01  -0.01     0.00   0.01   0.04
 115   1    -0.00   0.00   0.04     0.00   0.01  -0.01     0.00   0.01   0.05
                      4                      5                      6
                        a                      a                      a 
 Frequencies --     3.5215                 5.2972                 6.0464
 Red. masses --    11.2494                11.2618                14.8839
 Frc consts  --     0.0000                 0.0000                 0.0000
 IR Inten    --     0.0798                 0.0571                 3.5757
 Raman Activ --     0.0000                 0.0000                 0.0000
 Depolar     --     0.0000                 0.0000                 0.0000
 Atom AN      X      Y      Z        X      Y      Z        X      Y      Z
   1  28    -0.00  -0.01   0.00     0.00  -0.01  -0.00     0.00  -0.12   0.02
   2   6     0.00   0.00   0.19     0.01   0.00  -0.10     0.12   0.03   0.01
   3   6     0.00   0.00   0.14     0.01   0.00  -0.07     0.08   0.07   0.00
   4   6     0.00   0.00   0.07     0.00   0.00  -0.03     0.04   0.04   0.00
   5   6    -0.00   0.00  -0.00    -0.00   0.00   0.00     0.00   0.06   0.00
   6   6    -0.00   0.00  -0.07    -0.00   0.00   0.03    -0.04   0.04   0.00
   7   6    -0.00   0.00  -0.15    -0.01   0.00   0.07    -0.08   0.06   0.00
   8   6    -0.00   0.00  -0.20    -0.01   0.00   0.10    -0.12   0.03   0.01
   9   6    -0.00  -0.00  -0.16    -0.01  -0.00   0.08    -0.09  -0.01   0.01
  10   7    -0.00  -0.00  -0.09    -0.00  -0.00   0.04    -0.05  -0.01   0.01
  11   6    -0.00  -0.00  -0.20    -0.01  -0.01   0.10    -0.11  -0.05   0.01
  12   6    -0.00  -0.00  -0.16    -0.01  -0.01   0.09    -0.09  -0.09   0.01
  13   6    -0.00  -0.01  -0.20    -0.01  -0.01   0.11    -0.11  -0.14   0.01
  14   6    -0.00  -0.01  -0.14    -0.01  -0.01   0.08    -0.08  -0.17   0.01
  15   6    -0.00  -0.01  -0.07    -0.00  -0.01   0.04    -0.04  -0.15   0.01
  16   7    -0.00  -0.01  -0.09    -0.00  -0.01   0.05    -0.05  -0.11   0.01
  17   6    -0.00  -0.01   0.01     0.00  -0.01  -0.00     0.00  -0.17   0.01
  18   6     0.00  -0.01   0.08     0.00  -0.01  -0.04     0.04  -0.15   0.01
  19   6     0.00  -0.01   0.16     0.01  -0.01  -0.08     0.09  -0.17   0.01
  20   6     0.00  -0.01   0.21     0.01  -0.01  -0.11     0.12  -0.14   0.01
  21   6     0.00  -0.01   0.16     0.01  -0.01  -0.09     0.10  -0.09   0.01
  22   7     0.00  -0.01   0.09     0.00  -0.01  -0.05     0.05  -0.11   0.01
  23   6     0.00  -0.00   0.20     0.01  -0.01  -0.10     0.12  -0.05   0.01
  24   6     0.00  -0.00   0.16     0.01  -0.00  -0.08     0.09  -0.01   0.01
  25   7     0.00  -0.00   0.09     0.00  -0.00  -0.04     0.05  -0.00   0.01
  26   1     0.00   0.00   0.07     0.00   0.00  -0.04     0.04   0.01   0.00
  27   1     0.00   0.00   0.04     0.00   0.00  -0.02     0.03   0.03  -0.00
  28   1    -0.00   0.00  -0.04    -0.00   0.00   0.02    -0.03   0.03   0.00
  29   1    -0.00   0.00  -0.08    -0.00   0.00   0.04    -0.04   0.01   0.00
  30   1    -0.00  -0.00  -0.08    -0.00  -0.00   0.04    -0.04  -0.02   0.00
  31   1    -0.00  -0.00  -0.08    -0.00  -0.00   0.04    -0.04  -0.04   0.00
  32   1    -0.00  -0.00  -0.04    -0.00  -0.00   0.02    -0.02  -0.06   0.00
  33   1    -0.00  -0.00   0.00     0.00  -0.00  -0.00     0.00  -0.06   0.00
  34   1     0.00  -0.00   0.05     0.00  -0.00  -0.03     0.03  -0.06   0.00
  35   1     0.00  -0.00   0.08     0.00  -0.00  -0.04     0.05  -0.04   0.00
  36   1     0.00  -0.00   0.08     0.00  -0.00  -0.04     0.04  -0.01   0.00
  37  28     0.00  -0.01   0.00     0.00  -0.01   0.00    -0.00  -0.12   0.01
  38   6     0.01  -0.04   0.19     0.00  -0.02   0.11     0.01  -0.03  -0.08
  39   6     0.00  -0.02   0.14     0.00  -0.02   0.08     0.01  -0.03  -0.07
  40   6     0.00  -0.01   0.07     0.00  -0.01   0.04     0.00  -0.04  -0.04
  41   6     0.00   0.00   0.00     0.00  -0.00  -0.00    -0.00  -0.04  -0.03
  42   6    -0.00   0.01  -0.06    -0.00   0.01  -0.04    -0.00  -0.04  -0.02
  43   6    -0.00   0.02  -0.13    -0.00   0.01  -0.08    -0.01  -0.04  -0.03
  44   6    -0.00   0.03  -0.18    -0.00   0.02  -0.11    -0.01  -0.04  -0.03
  45   6    -0.00   0.02  -0.14    -0.00   0.01  -0.09    -0.01  -0.05  -0.02
  46   7    -0.00   0.01  -0.08    -0.00   0.01  -0.05    -0.01  -0.05  -0.02
  47   6    -0.00   0.03  -0.18    -0.00   0.02  -0.12    -0.01  -0.05  -0.01
  48   6    -0.00   0.02  -0.15    -0.00   0.01  -0.10    -0.01  -0.06   0.02
  49   6    -0.00   0.03  -0.19    -0.00   0.01  -0.13    -0.01  -0.07   0.05
  50   6    -0.00   0.02  -0.14    -0.00   0.01  -0.09    -0.01  -0.08   0.08
  51   6    -0.00   0.01  -0.07    -0.00   0.00  -0.04    -0.00  -0.08   0.07
  52   7    -0.00   0.01  -0.08    -0.00   0.00  -0.05    -0.01  -0.07   0.04
  53   6    -0.00  -0.00  -0.01     0.00  -0.01   0.00     0.00  -0.08   0.10
  54   6     0.00  -0.02   0.06     0.00  -0.02   0.05     0.00  -0.07   0.07
  55   6     0.00  -0.03   0.13     0.00  -0.03   0.10     0.01  -0.08   0.07
  56   6     0.01  -0.04   0.19     0.00  -0.03   0.13     0.01  -0.07   0.03
  57   6     0.00  -0.03   0.15     0.00  -0.03   0.10     0.01  -0.06  -0.00
  58   7     0.00  -0.02   0.08     0.00  -0.02   0.06     0.00  -0.07   0.03
  59   6     0.01  -0.04   0.19     0.00  -0.03   0.12     0.01  -0.05  -0.05
  60   6     0.00  -0.03   0.15     0.00  -0.02   0.09     0.01  -0.04  -0.05
  61   7     0.00  -0.02   0.08     0.00  -0.01   0.05     0.00  -0.05  -0.03
  62   1     0.00  -0.01   0.07     0.00  -0.01   0.04     0.00  -0.01  -0.03
  63   1     0.00  -0.01   0.04     0.00  -0.00   0.02     0.00  -0.01  -0.02
  64   1    -0.00   0.01  -0.04    -0.00   0.00  -0.02    -0.00  -0.01  -0.01
  65   1    -0.00   0.01  -0.07    -0.00   0.01  -0.04    -0.00  -0.01  -0.01
  66   1    -0.00   0.01  -0.07    -0.00   0.01  -0.05    -0.00  -0.02  -0.00
  67   1    -0.00   0.01  -0.07    -0.00   0.01  -0.05    -0.00  -0.02   0.01
  68   1    -0.00   0.01  -0.04    -0.00   0.00  -0.03    -0.00  -0.03   0.03
  69   1    -0.00  -0.00  -0.00     0.00  -0.00   0.00     0.00  -0.03   0.04
  70   1     0.00  -0.01   0.04     0.00  -0.01   0.03     0.00  -0.03   0.03
  71   1     0.00  -0.02   0.07     0.00  -0.01   0.05     0.00  -0.02   0.00
  72   1     0.00  -0.01   0.07     0.00  -0.01   0.05     0.00  -0.01  -0.02
  73   6    -0.00   0.00  -0.00     0.00   0.01   0.00     0.00   0.11  -0.00
  74   6    -0.00   0.00  -0.00     0.00   0.01   0.00    -0.00   0.14  -0.01
  75   6    -0.00   0.01  -0.00     0.00   0.01   0.00    -0.00   0.15  -0.01
  76   6    -0.00   0.01  -0.00     0.00   0.01   0.00    -0.00   0.15  -0.01
  77   6     0.00   0.01  -0.00    -0.00   0.01  -0.00    -0.00   0.02  -0.03
  78   6     0.00   0.01   0.00    -0.00   0.00  -0.00    -0.00   0.00  -0.03
  79   6     0.00   0.00   0.00    -0.00   0.00  -0.00    -0.00  -0.02  -0.03
  80   6     0.00   0.00   0.00    -0.00   0.00  -0.00    -0.00  -0.03  -0.03
  81  28    -0.00   0.01  -0.00    -0.00   0.02  -0.00    -0.00   0.20  -0.01
  82   6    -0.00   0.01  -0.01    -0.00   0.03   0.23    -0.05   0.12  -0.01
  83   6    -0.00   0.01  -0.00    -0.00   0.03   0.16    -0.03   0.14  -0.01
  84   6    -0.00   0.01  -0.00    -0.00   0.02   0.08    -0.02   0.13  -0.01
  85   6    -0.00   0.01  -0.00     0.00   0.01   0.00    -0.00   0.14  -0.01
  86   6    -0.00   0.01  -0.00     0.00   0.00  -0.08     0.02   0.13   0.00
  87   6    -0.00   0.01  -0.00     0.00  -0.01  -0.16     0.03   0.14   0.01
  88   6    -0.00   0.01   0.00     0.00  -0.01  -0.22     0.05   0.13   0.02
  89   6     0.00   0.01   0.00     0.00  -0.01  -0.18     0.04   0.11   0.02
  90   7    -0.00   0.01   0.00     0.00   0.00  -0.10     0.02   0.12   0.01
  91   6     0.00   0.01   0.01     0.00  -0.02  -0.22     0.05   0.09   0.02
  92   6     0.00   0.01   0.01     0.00  -0.01  -0.18     0.04   0.08   0.01
  93   6     0.00   0.01   0.02     0.00  -0.02  -0.22     0.05   0.06   0.01
  94   6     0.00   0.01   0.02     0.00  -0.01  -0.16     0.03   0.04  -0.00
  95   6     0.00   0.01   0.01     0.00  -0.00  -0.08     0.02   0.05  -0.01
  96   7     0.00   0.01   0.01     0.00  -0.00  -0.10     0.02   0.08  -0.00
  97   6     0.00   0.01  -0.00    -0.00   0.01  -0.00    -0.00   0.04  -0.02
  98   6     0.00   0.01  -0.01    -0.00   0.02   0.08    -0.02   0.05  -0.02
  99   6    -0.00   0.00  -0.02    -0.00   0.03   0.16    -0.03   0.04  -0.03
 100   6    -0.00   0.00  -0.02    -0.00   0.03   0.22    -0.05   0.06  -0.03
 101   6    -0.00   0.00  -0.02    -0.00   0.03   0.18    -0.04   0.07  -0.02
 102   7    -0.00   0.01  -0.01    -0.00   0.02   0.10    -0.02   0.08  -0.02
 103   6    -0.00   0.00  -0.01    -0.00   0.03   0.22    -0.05   0.09  -0.02
 104   6    -0.00   0.01  -0.01    -0.00   0.03   0.18    -0.04   0.11  -0.01
 105   7    -0.00   0.01  -0.01    -0.00   0.02   0.10    -0.02   0.12  -0.01
 106   1    -0.00   0.00  -0.00    -0.00   0.01   0.09    -0.02   0.04  -0.00
 107   1    -0.00   0.00  -0.00    -0.00   0.01   0.05    -0.01   0.04  -0.00
 108   1    -0.00   0.00  -0.00     0.00  -0.00  -0.05     0.01   0.04   0.00
 109   1     0.00   0.00   0.00     0.00  -0.01  -0.09     0.02   0.04   0.01
 110   1     0.00   0.00   0.00     0.00  -0.01  -0.08     0.02   0.03   0.01
 111   1     0.00   0.00   0.01     0.00  -0.01  -0.09     0.02   0.02   0.00
 112   1     0.00   0.00   0.01     0.00  -0.00  -0.05     0.01   0.01  -0.00
 113   1    -0.00   0.00  -0.01    -0.00   0.01   0.05    -0.01   0.01  -0.01
 114   1    -0.00   0.00  -0.01    -0.00   0.01   0.08    -0.02   0.02  -0.01
 115   1    -0.00   0.00  -0.01    -0.00   0.01   0.09    -0.02   0.03  -0.01
                      7                      8                      9
                        a                      a                      a 
 Frequencies --    13.4322                14.7339                18.4445
 Red. masses --    12.6306                11.8424                11.5201
 Frc consts  --     0.0000                 0.0000                 0.0000
 IR Inten    --     0.3181                13.2037                 4.0034
 Raman Activ --     0.0000                 0.0000                 0.0000
 Depolar     --     0.0000                 0.0000                 0.0000
 Atom AN      X      Y      Z        X      Y      Z        X      Y      Z
   1  28    -0.00  -0.06  -0.01     0.00   0.03  -0.04    -0.00   0.01   0.02
   2   6    -0.06  -0.08  -0.00     0.02   0.03  -0.03    -0.01  -0.00   0.03
   3   6    -0.05  -0.09   0.01     0.02   0.04   0.06    -0.01  -0.00  -0.07
   4   6    -0.02  -0.08   0.01     0.01   0.03   0.07    -0.00  -0.00  -0.09
   5   6    -0.00  -0.09   0.02     0.00   0.04   0.12    -0.00  -0.01  -0.14
   6   6     0.02  -0.08   0.01    -0.01   0.03   0.07     0.00  -0.00  -0.08
   7   6     0.05  -0.09   0.01    -0.02   0.04   0.05     0.00  -0.00  -0.07
   8   6     0.06  -0.07  -0.00    -0.02   0.03  -0.04     0.01  -0.00   0.03
   9   6     0.05  -0.05  -0.01    -0.02   0.02  -0.07     0.01   0.00   0.06
  10   7     0.03  -0.06   0.00    -0.01   0.03  -0.00     0.00   0.00  -0.01
  11   6     0.06  -0.03  -0.02    -0.02   0.02  -0.12     0.01   0.00   0.13
  12   6     0.05  -0.01  -0.02    -0.02   0.01  -0.09     0.01   0.01   0.09
  13   6     0.06   0.02  -0.02    -0.02  -0.00  -0.09     0.01   0.01   0.09
  14   6     0.04   0.04  -0.01    -0.02  -0.01  -0.02     0.01   0.01   0.01
  15   6     0.02   0.02  -0.00    -0.01  -0.00   0.01     0.00   0.01  -0.02
  16   7     0.03  -0.00  -0.01    -0.01   0.01  -0.04     0.00   0.01   0.03
  17   6    -0.00   0.04   0.00    -0.00  -0.01   0.04     0.00   0.01  -0.06
  18   6    -0.02   0.02  -0.00     0.01  -0.00   0.01    -0.00   0.01  -0.02
  19   6    -0.05   0.04  -0.01     0.02  -0.01  -0.02    -0.01   0.01   0.02
  20   6    -0.07   0.02  -0.02     0.03  -0.00  -0.09    -0.01   0.01   0.10
  21   6    -0.05  -0.01  -0.02     0.02   0.01  -0.09    -0.01   0.01   0.10
  22   7    -0.03  -0.00  -0.01     0.01   0.00  -0.04    -0.00   0.01   0.03
  23   6    -0.06  -0.03  -0.02     0.03   0.01  -0.12    -0.01   0.01   0.13
  24   6    -0.05  -0.05  -0.01     0.02   0.02  -0.06    -0.01   0.00   0.06
  25   7    -0.03  -0.06   0.00     0.01   0.03  -0.00    -0.00   0.00  -0.01
  26   1    -0.02  -0.02  -0.00     0.01   0.01  -0.02    -0.00  -0.00   0.02
  27   1    -0.01  -0.03   0.01     0.01   0.01   0.03    -0.00  -0.00  -0.04
  28   1     0.01  -0.03   0.01    -0.00   0.01   0.03     0.00  -0.00  -0.04
  29   1     0.02  -0.02  -0.00    -0.01   0.01  -0.02     0.00  -0.00   0.02
  30   1     0.02  -0.01  -0.01    -0.01   0.00  -0.05     0.00   0.00   0.05
  31   1     0.02   0.01  -0.01    -0.01  -0.00  -0.04     0.00   0.00   0.04
  32   1     0.01   0.02  -0.00    -0.01  -0.00   0.00     0.00   0.00  -0.01
  33   1    -0.00   0.02   0.00    -0.00  -0.00   0.02     0.00   0.00  -0.03
  34   1    -0.01   0.02  -0.00     0.01  -0.00   0.00    -0.00   0.00  -0.00
  35   1    -0.02   0.01  -0.01     0.01  -0.00  -0.04    -0.00   0.00   0.04
  36   1    -0.02  -0.01  -0.01     0.01   0.00  -0.05    -0.00   0.00   0.05
  37  28     0.00  -0.07   0.02    -0.00   0.03   0.03     0.00   0.00   0.03
  38   6     0.08   0.04  -0.06    -0.05  -0.04   0.07    -0.06  -0.06   0.09
  39   6     0.06   0.07  -0.10    -0.04  -0.04   0.00    -0.04  -0.05  -0.02
  40   6     0.03   0.05  -0.08    -0.02  -0.02  -0.02    -0.02  -0.03  -0.06
  41   6     0.00   0.07  -0.09    -0.00  -0.02  -0.07     0.00  -0.03  -0.14
  42   6    -0.03   0.04  -0.04     0.02  -0.02  -0.05     0.02  -0.03  -0.10
  43   6    -0.06   0.06  -0.03     0.04  -0.03  -0.04     0.04  -0.04  -0.10
  44   6    -0.08   0.03   0.02     0.05  -0.03   0.02     0.06  -0.04   0.01
  45   6    -0.06  -0.01   0.03     0.04  -0.01   0.05     0.05  -0.03   0.06
  46   7    -0.03   0.00  -0.01     0.02  -0.01   0.01     0.02  -0.02  -0.01
  47   6    -0.08  -0.04   0.05     0.05  -0.00   0.10     0.06  -0.02   0.14
  48   6    -0.06  -0.07   0.04     0.04   0.02   0.07     0.05   0.00   0.11
  49   6    -0.08  -0.09   0.04     0.05   0.04   0.08     0.06   0.02   0.13
  50   6    -0.06  -0.11   0.03     0.04   0.06   0.01     0.04   0.05   0.03
  51   6    -0.03  -0.10   0.03     0.02   0.06  -0.02     0.02   0.05  -0.02
  52   7    -0.04  -0.07   0.03     0.02   0.03   0.02     0.03   0.02   0.04
  53   6     0.00  -0.12   0.04    -0.00   0.08  -0.06    -0.00   0.07  -0.08
  54   6     0.03  -0.10   0.05    -0.02   0.06  -0.04    -0.02   0.06  -0.05
  55   6     0.06  -0.12   0.09    -0.04   0.07  -0.04    -0.04   0.07  -0.04
  56   6     0.08  -0.10   0.10    -0.05   0.04   0.03    -0.06   0.03   0.06
  57   6     0.07  -0.07   0.06    -0.04   0.02   0.05    -0.05   0.00   0.08
  58   7     0.04  -0.07   0.05    -0.02   0.03   0.01    -0.03   0.02   0.02
  59   6     0.08  -0.03   0.04    -0.05  -0.01   0.10    -0.06  -0.03   0.14
  60   6     0.07   0.00  -0.01    -0.04  -0.02   0.07    -0.04  -0.04   0.09
  61   7     0.04   0.01  -0.03    -0.02  -0.01   0.02    -0.02  -0.03   0.01
  62   1     0.03   0.01  -0.02    -0.02  -0.01   0.03    -0.02  -0.02   0.04
  63   1     0.02   0.03  -0.04    -0.01  -0.01  -0.01    -0.01  -0.02  -0.02
  64   1    -0.02   0.03  -0.02     0.01  -0.01  -0.02     0.01  -0.01  -0.05
  65   1    -0.03   0.01   0.01     0.02  -0.01   0.01     0.02  -0.01   0.01
  66   1    -0.03  -0.01   0.02     0.02  -0.00   0.04     0.02  -0.01   0.06
  67   1    -0.03  -0.03   0.01     0.02   0.01   0.03     0.02   0.00   0.06
  68   1    -0.02  -0.04   0.01     0.01   0.02  -0.00     0.01   0.02   0.00
  69   1     0.00  -0.04   0.01    -0.00   0.03  -0.03    -0.00   0.03  -0.04
  70   1     0.02  -0.04   0.03    -0.01   0.03  -0.02    -0.01   0.03  -0.03
  71   1     0.03  -0.03   0.03    -0.02   0.01   0.02    -0.02   0.01   0.03
  72   1     0.03  -0.01   0.02    -0.02  -0.00   0.04    -0.02  -0.01   0.06
  73   6    -0.00  -0.11   0.03     0.00   0.05   0.18    -0.00  -0.01  -0.20
  74   6    -0.00  -0.11   0.04     0.00   0.04   0.22    -0.00  -0.01  -0.23
  75   6    -0.00  -0.10   0.05     0.00   0.04   0.23    -0.00  -0.01  -0.22
  76   6    -0.00  -0.07   0.05     0.00   0.03   0.22    -0.00  -0.00  -0.19
  77   6     0.00   0.16  -0.13    -0.00  -0.06  -0.16     0.00  -0.04  -0.20
  78   6     0.00   0.16  -0.14    -0.00  -0.06  -0.16     0.00  -0.04  -0.23
  79   6     0.00   0.14  -0.14    -0.00  -0.05  -0.15     0.00  -0.05  -0.23
  80   6     0.00   0.11  -0.12    -0.00  -0.04  -0.12     0.00  -0.04  -0.20
  81  28     0.00   0.12   0.00    -0.00  -0.05  -0.00     0.00   0.00   0.04
  82   6     0.09  -0.01   0.07    -0.02   0.00   0.12    -0.01   0.02   0.10
  83   6     0.07  -0.03   0.07    -0.01   0.02   0.18    -0.01   0.01  -0.02
  84   6     0.03  -0.02   0.05    -0.01   0.01   0.15    -0.00   0.00  -0.05
  85   6    -0.00  -0.04   0.05     0.00   0.01   0.18    -0.00   0.00  -0.12
  86   6    -0.03  -0.02   0.05     0.01   0.01   0.14     0.00   0.00  -0.06
  87   6    -0.07  -0.03   0.07     0.02   0.01   0.17     0.01   0.01  -0.03
  88   6    -0.09  -0.01   0.07     0.02   0.00   0.12     0.01   0.02   0.09
  89   6    -0.07   0.03   0.05     0.02  -0.01   0.05     0.01   0.02   0.11
  90   7    -0.04   0.02   0.04     0.01  -0.01   0.07     0.00   0.01   0.02
  91   6    -0.09   0.06   0.03     0.02  -0.03  -0.03     0.01   0.02   0.17
  92   6    -0.07   0.09  -0.01     0.01  -0.04  -0.08     0.01   0.01   0.11
  93   6    -0.09   0.12  -0.04     0.02  -0.05  -0.14     0.01   0.00   0.09
  94   6    -0.07   0.14  -0.08     0.01  -0.06  -0.17     0.01  -0.01  -0.03
  95   6    -0.03   0.12  -0.07     0.01  -0.05  -0.13     0.01  -0.02  -0.06
  96   7    -0.04   0.10  -0.03     0.01  -0.04  -0.08     0.01  -0.00   0.02
  97   6     0.00   0.14  -0.10    -0.00  -0.06  -0.14     0.00  -0.03  -0.13
  98   6     0.03   0.12  -0.07    -0.01  -0.05  -0.13    -0.00  -0.02  -0.07
  99   6     0.07   0.14  -0.08    -0.01  -0.06  -0.17    -0.01  -0.02  -0.04
 100   6     0.09   0.12  -0.04    -0.02  -0.05  -0.14    -0.01   0.00   0.08
 101   6     0.07   0.08  -0.01    -0.01  -0.04  -0.08    -0.01   0.01   0.11
 102   7     0.04   0.10  -0.03    -0.01  -0.04  -0.08    -0.01  -0.00   0.02
 103   6     0.09   0.06   0.03    -0.02  -0.03  -0.02    -0.01   0.02   0.18
 104   6     0.07   0.02   0.05    -0.02  -0.01   0.05    -0.01   0.02   0.12
 105   7     0.04   0.02   0.03    -0.01  -0.01   0.08    -0.00   0.01   0.03
 106   1     0.03  -0.00   0.02    -0.01   0.00   0.04    -0.00   0.01   0.05
 107   1     0.02  -0.02   0.02    -0.00   0.01   0.07    -0.00   0.00  -0.02
 108   1    -0.02  -0.02   0.02     0.00   0.01   0.07     0.00   0.00  -0.02
 109   1    -0.03  -0.00   0.03     0.01   0.00   0.03     0.00   0.01   0.04
 110   1    -0.03   0.02   0.01     0.01  -0.01  -0.01     0.01   0.01   0.07
 111   1    -0.04   0.04  -0.01     0.01  -0.02  -0.05     0.00   0.00   0.04
 112   1    -0.02   0.05  -0.03     0.00  -0.02  -0.06     0.00  -0.01  -0.02
 113   1     0.02   0.05  -0.03    -0.00  -0.02  -0.06    -0.00  -0.01  -0.03
 114   1     0.04   0.03  -0.01    -0.01  -0.02  -0.05    -0.00   0.00   0.04
 115   1     0.04   0.02   0.01    -0.01  -0.01  -0.01    -0.00   0.01   0.07
                     10                     11                     12
                        a                      a                      a 
 Frequencies --    23.5357                26.0882                26.2305
 Red. masses --    10.9313                10.9694                11.2617
 Frc consts  --     0.0000                 0.0000                 0.0000
 IR Inten    --     4.9925                 1.3441                 9.8957
 Raman Activ --     0.0000                 0.0000                 0.0000
 Depolar     --     0.0000                 0.0000                 0.0000
 Atom AN      X      Y      Z        X      Y      Z        X      Y      Z
   1  28    -0.00  -0.00   0.00     0.00   0.01  -0.00     0.00  -0.03   0.00
   2   6    -0.00  -0.00   0.03     0.00   0.01   0.29    -0.02  -0.03   0.08
   3   6    -0.00  -0.00   0.04     0.00   0.02   0.29    -0.02  -0.03   0.09
   4   6    -0.00  -0.00   0.02     0.00   0.01   0.13    -0.01  -0.03   0.05
   5   6    -0.00  -0.00   0.00    -0.00   0.01  -0.01     0.00  -0.04   0.02
   6   6    -0.00  -0.00  -0.01    -0.00   0.01  -0.14     0.01  -0.03  -0.02
   7   6    -0.00  -0.00  -0.03    -0.01   0.01  -0.30     0.02  -0.04  -0.07
   8   6     0.00  -0.00  -0.03    -0.01   0.01  -0.29     0.02  -0.03  -0.08
   9   6    -0.00  -0.00  -0.01    -0.01   0.01  -0.13     0.02  -0.02  -0.04
  10   7    -0.00  -0.00  -0.01    -0.00   0.01  -0.08     0.01  -0.02  -0.02
  11   6     0.00  -0.00   0.00    -0.01   0.00   0.00     0.02  -0.01  -0.02
  12   6    -0.00  -0.00   0.02    -0.01  -0.00   0.13     0.02  -0.00   0.02
  13   6    -0.00  -0.00   0.04    -0.01  -0.00   0.28     0.02   0.00   0.07
  14   6    -0.00   0.00   0.04    -0.01  -0.01   0.28     0.02   0.01   0.08
  15   6    -0.00   0.00   0.02    -0.00  -0.00   0.13     0.01   0.01   0.04
  16   7    -0.00  -0.00   0.01    -0.00   0.00   0.08     0.01  -0.00   0.02
  17   6    -0.00   0.00   0.00     0.00  -0.00   0.00     0.00   0.01   0.01
  18   6    -0.00   0.00  -0.02     0.01  -0.00  -0.13    -0.01   0.01  -0.03
  19   6    -0.00   0.00  -0.04     0.01  -0.00  -0.28    -0.01   0.01  -0.08
  20   6    -0.00   0.00  -0.04     0.01  -0.00  -0.28    -0.02   0.00  -0.09
  21   6    -0.00  -0.00  -0.02     0.01   0.00  -0.13    -0.02  -0.00  -0.05
  22   7    -0.00  -0.00  -0.01     0.01   0.00  -0.07    -0.01  -0.00  -0.02
  23   6    -0.00  -0.00  -0.01     0.01   0.01   0.01    -0.02  -0.01  -0.02
  24   6    -0.00  -0.00   0.01     0.00   0.01   0.14    -0.02  -0.02   0.03
  25   7    -0.00  -0.00   0.01     0.00   0.01   0.07    -0.01  -0.02   0.02
  26   1    -0.00  -0.00   0.01     0.00   0.00   0.11    -0.01  -0.01   0.03
  27   1    -0.00  -0.00   0.01     0.00   0.01   0.11    -0.01  -0.01   0.04
  28   1    -0.00  -0.00  -0.01    -0.00   0.00  -0.11     0.01  -0.01  -0.02
  29   1     0.00  -0.00  -0.01    -0.00   0.00  -0.11     0.01  -0.01  -0.03
  30   1     0.00  -0.00   0.00    -0.00   0.00   0.00     0.01  -0.00  -0.01
  31   1     0.00  -0.00   0.01    -0.00  -0.00   0.11     0.01   0.00   0.02
  32   1    -0.00   0.00   0.01    -0.00  -0.00   0.11     0.00   0.01   0.03
  33   1    -0.00   0.00   0.00     0.00  -0.00   0.00     0.00   0.01   0.00
  34   1    -0.00   0.00  -0.01     0.00  -0.00  -0.10    -0.00   0.01  -0.03
  35   1    -0.00   0.00  -0.02     0.01  -0.00  -0.10    -0.01   0.00  -0.03
  36   1    -0.00  -0.00  -0.00     0.00   0.00   0.00    -0.01  -0.00  -0.01
  37  28     0.00  -0.00  -0.00     0.00   0.01   0.00    -0.01  -0.03  -0.00
  38   6     0.00  -0.00   0.02     0.00   0.02  -0.07    -0.01  -0.07   0.26
  39   6     0.00  -0.00   0.02     0.00   0.02  -0.08    -0.01  -0.08   0.28
  40   6     0.00  -0.00   0.01     0.00   0.01  -0.04    -0.00  -0.05   0.14
  41   6     0.00  -0.00   0.00    -0.00   0.01  -0.01     0.00  -0.03   0.02
  42   6     0.00   0.00  -0.01    -0.00   0.00   0.03     0.00  -0.00  -0.12
  43   6     0.00   0.00  -0.02    -0.00  -0.01   0.08     0.00   0.02  -0.27
  44   6     0.00   0.00  -0.02    -0.00  -0.01   0.08     0.01   0.03  -0.29
  45   6     0.00   0.00  -0.01    -0.00  -0.00   0.04     0.01   0.01  -0.15
  46   7     0.00  -0.00  -0.00    -0.00   0.00   0.02     0.00  -0.01  -0.07
  47   6     0.00  -0.00   0.00    -0.00   0.00   0.01     0.01  -0.01  -0.03
  48   6     0.00  -0.00   0.01    -0.00   0.01  -0.03     0.01  -0.03   0.11
  49   6     0.00  -0.01   0.03    -0.00   0.01  -0.07     0.01  -0.05   0.25
  50   6     0.00  -0.01   0.03    -0.00   0.01  -0.08     0.01  -0.05   0.27
  51   6     0.00  -0.00   0.02    -0.00   0.01  -0.04     0.00  -0.03   0.14
  52   7     0.00  -0.00   0.01    -0.00   0.01  -0.02     0.00  -0.03   0.07
  53   6     0.00  -0.00   0.00    -0.00   0.00  -0.01    -0.00  -0.01   0.03
  54   6     0.00   0.00  -0.01     0.00  -0.00   0.03    -0.01   0.01  -0.11
  55   6     0.00   0.00  -0.03     0.00  -0.01   0.07    -0.01   0.04  -0.25
  56   6     0.00   0.00  -0.03     0.00  -0.01   0.08    -0.01   0.05  -0.28
  57   6     0.00   0.00  -0.02     0.00  -0.01   0.04    -0.01   0.02  -0.14
  58   7     0.00   0.00  -0.01     0.00  -0.00   0.02    -0.01   0.00  -0.07
  59   6     0.00   0.00  -0.01     0.00   0.00   0.01    -0.01  -0.01  -0.03
  60   6     0.00  -0.00   0.00     0.00   0.01  -0.03    -0.01  -0.04   0.11
  61   7     0.00  -0.00   0.00     0.00   0.01  -0.02    -0.00  -0.03   0.06
  62   1     0.00  -0.00   0.01     0.00   0.01  -0.03    -0.00  -0.02   0.10
  63   1     0.00  -0.00   0.01     0.00   0.01  -0.03    -0.00  -0.03   0.11
  64   1     0.00   0.00  -0.01    -0.00  -0.00   0.03     0.00   0.01  -0.10
  65   1    -0.00   0.00  -0.01    -0.00  -0.00   0.03     0.00   0.01  -0.11
  66   1     0.00  -0.00   0.00    -0.00   0.00   0.00     0.00  -0.00  -0.01
  67   1     0.00  -0.00   0.01    -0.00   0.00  -0.03     0.00  -0.02   0.09
  68   1     0.00  -0.00   0.01    -0.00   0.01  -0.03     0.00  -0.02   0.10
  69   1     0.00  -0.00   0.00    -0.00   0.00  -0.00    -0.00  -0.00   0.01
  70   1     0.00   0.00  -0.01     0.00  -0.01   0.03    -0.00   0.02  -0.09
  71   1     0.00   0.00  -0.01     0.00  -0.01   0.03    -0.00   0.02  -0.11
  72   1     0.00   0.00  -0.00     0.00   0.00   0.00    -0.00  -0.00  -0.01
  73   6    -0.00  -0.00   0.00    -0.00   0.01  -0.01     0.00  -0.04   0.03
  74   6    -0.00  -0.00   0.00    -0.00   0.01  -0.01     0.00  -0.03   0.03
  75   6    -0.00  -0.00   0.00    -0.00   0.00  -0.01     0.00  -0.01   0.02
  76   6    -0.00  -0.00   0.00    -0.00  -0.01  -0.01     0.00   0.01   0.02
  77   6     0.00   0.00   0.01    -0.00  -0.01  -0.01     0.00   0.04   0.04
  78   6     0.00   0.00   0.01    -0.00  -0.00  -0.01     0.00   0.02   0.04
  79   6     0.00   0.00   0.01    -0.00   0.00  -0.01     0.00   0.00   0.03
  80   6     0.00  -0.00   0.01    -0.00   0.01  -0.01     0.00  -0.03   0.03
  81  28    -0.01   0.00  -0.00    -0.00  -0.02   0.00     0.00   0.06  -0.01
  82   6    -0.00   0.03   0.29    -0.00  -0.01  -0.03     0.01   0.01  -0.06
  83   6    -0.00   0.03   0.29    -0.00  -0.01  -0.03     0.01   0.01  -0.04
  84   6    -0.00   0.01   0.14    -0.00  -0.01  -0.02     0.01   0.01  -0.02
  85   6    -0.00   0.00   0.00    -0.00  -0.01  -0.01     0.00   0.01   0.01
  86   6    -0.00  -0.01  -0.14     0.00  -0.01   0.01    -0.00   0.02   0.01
  87   6    -0.00  -0.03  -0.30     0.00  -0.00   0.03    -0.01   0.02   0.02
  88   6    -0.01  -0.03  -0.30     0.00  -0.00   0.04    -0.01   0.02   0.01
  89   6    -0.00  -0.01  -0.14     0.00  -0.01   0.03    -0.01   0.02  -0.01
  90   7    -0.00  -0.01  -0.08     0.00  -0.01   0.01    -0.01   0.02  -0.00
  91   6    -0.00   0.00  -0.00     0.00  -0.01   0.02    -0.01   0.02  -0.03
  92   6     0.00   0.02   0.13     0.00  -0.01  -0.00    -0.01   0.03  -0.03
  93   6     0.00   0.04   0.29     0.00  -0.01  -0.02    -0.01   0.03  -0.04
  94   6     0.00   0.04   0.30     0.00  -0.01  -0.03    -0.01   0.04  -0.02
  95   6     0.00   0.02   0.14    -0.00  -0.01  -0.02    -0.00   0.04   0.00
  96   7     0.00   0.01   0.07     0.00  -0.01  -0.00    -0.00   0.03  -0.01
  97   6     0.00   0.00   0.01    -0.00  -0.01  -0.01     0.00   0.04   0.03
  98   6     0.00  -0.01  -0.13    -0.00  -0.01   0.01     0.00   0.04   0.04
  99   6     0.00  -0.03  -0.29    -0.00  -0.01   0.02     0.01   0.05   0.05
 100   6     0.00  -0.03  -0.30    -0.00  -0.01   0.02     0.01   0.04   0.04
 101   6     0.00  -0.01  -0.14    -0.00  -0.01   0.01     0.01   0.03   0.01
 102   7     0.00  -0.01  -0.07    -0.00  -0.01   0.00     0.01   0.04   0.01
 103   6     0.00   0.00  -0.01    -0.00  -0.01   0.00     0.01   0.03  -0.02
 104   6     0.00   0.02   0.13    -0.00  -0.01  -0.01     0.01   0.02  -0.04
 105   7    -0.00   0.01   0.07    -0.00  -0.01  -0.01     0.01   0.02  -0.02
 106   1     0.00   0.01   0.11    -0.00  -0.00  -0.01     0.01   0.00  -0.02
 107   1    -0.00   0.01   0.11    -0.00  -0.00  -0.01     0.00   0.00  -0.01
 108   1    -0.00  -0.01  -0.11     0.00  -0.00   0.01    -0.00   0.00   0.01
 109   1    -0.00  -0.01  -0.11     0.00  -0.00   0.02    -0.00   0.01   0.00
 110   1    -0.00   0.00  -0.00     0.00  -0.00   0.01    -0.00   0.01  -0.01
 111   1     0.00   0.01   0.11     0.00  -0.00  -0.01    -0.00   0.01  -0.02
 112   1     0.00   0.01   0.11     0.00  -0.00  -0.01    -0.00   0.01  -0.01
 113   1     0.00  -0.01  -0.11    -0.00  -0.00   0.01     0.00   0.02   0.02
 114   1     0.00  -0.01  -0.11    -0.00  -0.00   0.01     0.00   0.01   0.01
 115   1     0.00   0.00  -0.00    -0.00  -0.00   0.00     0.01   0.01  -0.01
                     13                     14                     15
                        a                      a                      a 
 Frequencies --    31.6828                39.0294                41.9069
 Red. masses --    13.5137                11.5972                11.8181
 Frc consts  --     0.0000                 0.0000                 0.0000
 IR Inten    --     0.5786                11.6997                 9.7180
 Raman Activ --     0.0000                 0.0000                 0.0000
 Depolar     --     0.0000                 0.0000                 0.0000
 Atom AN      X      Y      Z        X      Y      Z        X      Y      Z
   1  28     0.00   0.08  -0.01    -0.00   0.04   0.03     0.01  -0.05   0.03
   2   6     0.10   0.11  -0.01     0.04   0.05   0.00    -0.05  -0.06   0.01
   3   6     0.07   0.14  -0.03     0.03   0.06   0.10    -0.03  -0.08   0.08
   4   6     0.03   0.12  -0.03     0.01   0.05   0.11    -0.01  -0.07   0.08
   5   6    -0.00   0.14  -0.04    -0.00   0.06   0.15     0.00  -0.07   0.11
   6   6    -0.03   0.12  -0.02    -0.02   0.05   0.11     0.02  -0.06   0.08
   7   6    -0.07   0.14  -0.02    -0.03   0.06   0.11     0.04  -0.07   0.08
   8   6    -0.10   0.11   0.01    -0.04   0.05   0.01     0.05  -0.06   0.01
   9   6    -0.08   0.07   0.01    -0.03   0.03  -0.03     0.04  -0.04  -0.02
  10   7    -0.04   0.09  -0.01    -0.02   0.04   0.04     0.02  -0.05   0.03
  11   6    -0.10   0.04   0.03    -0.04   0.02  -0.11     0.05  -0.02  -0.08
  12   6    -0.08  -0.00   0.02    -0.03   0.01  -0.09     0.04  -0.00  -0.06
  13   6    -0.10  -0.04   0.02    -0.04  -0.01  -0.10     0.05   0.02  -0.07
  14   6    -0.07  -0.07  -0.00    -0.03  -0.02  -0.01     0.04   0.03  -0.00
  15   6    -0.03  -0.05  -0.01    -0.02  -0.01   0.04     0.02   0.02   0.03
  16   7    -0.04  -0.01   0.00    -0.02   0.00  -0.01     0.02  -0.00  -0.01
  17   6     0.00  -0.07  -0.02    -0.00  -0.02   0.08     0.00   0.03   0.06
  18   6     0.04  -0.05  -0.00     0.01  -0.01   0.04    -0.02   0.02   0.03
  19   6     0.08  -0.07   0.01     0.03  -0.02  -0.00    -0.03   0.03  -0.00
  20   6     0.10  -0.04   0.02     0.04  -0.01  -0.09    -0.05   0.01  -0.07
  21   6     0.08   0.00   0.02     0.03   0.00  -0.08    -0.04  -0.01  -0.06
  22   7     0.05  -0.01   0.00     0.02   0.00  -0.01    -0.02  -0.00  -0.01
  23   6     0.10   0.04   0.02     0.04   0.02  -0.11    -0.05  -0.03  -0.08
  24   6     0.08   0.08   0.01     0.03   0.03  -0.03    -0.04  -0.04  -0.02
  25   7     0.04   0.09  -0.01     0.01   0.04   0.04    -0.02  -0.05   0.03
  26   1     0.04   0.03   0.00     0.01   0.01  -0.01    -0.02  -0.02  -0.01
  27   1     0.02   0.05  -0.01     0.01   0.02   0.05    -0.01  -0.03   0.03
  28   1    -0.02   0.05  -0.01    -0.01   0.02   0.05     0.01  -0.03   0.03
  29   1    -0.04   0.03   0.00    -0.02   0.01  -0.01     0.02  -0.02  -0.01
  30   1    -0.04   0.01   0.01    -0.02   0.01  -0.05     0.02  -0.01  -0.03
  31   1    -0.04  -0.01   0.01    -0.02  -0.00  -0.04     0.02   0.01  -0.03
  32   1    -0.02  -0.03  -0.00    -0.01  -0.01   0.01     0.01   0.01   0.00
  33   1     0.00  -0.03  -0.01    -0.00  -0.01   0.04     0.00   0.01   0.03
  34   1     0.02  -0.03   0.00     0.01  -0.01   0.01    -0.01   0.01   0.00
  35   1     0.04  -0.01   0.01     0.02  -0.00  -0.04    -0.02   0.00  -0.03
  36   1     0.04   0.01   0.01     0.02   0.01  -0.05    -0.02  -0.01  -0.03
  37  28    -0.00   0.06   0.00     0.01  -0.04  -0.04    -0.01   0.07  -0.02
  38   6     0.10   0.09   0.07    -0.06  -0.06  -0.03     0.07   0.08   0.01
  39   6     0.07   0.12   0.05    -0.04  -0.06  -0.12     0.05   0.12  -0.07
  40   6     0.04   0.11   0.01    -0.02  -0.05  -0.11     0.02   0.10  -0.09
  41   6     0.00   0.14  -0.03     0.00  -0.06  -0.14    -0.00   0.12  -0.13
  42   6    -0.04   0.12  -0.06     0.02  -0.05  -0.10    -0.03   0.10  -0.10
  43   6    -0.08   0.15  -0.09     0.05  -0.07  -0.08    -0.06   0.12  -0.10
  44   6    -0.10   0.11  -0.07     0.06  -0.07   0.01    -0.08   0.08  -0.02
  45   6    -0.08   0.06  -0.02     0.05  -0.05   0.03    -0.06   0.05   0.03
  46   7    -0.04   0.08  -0.02     0.03  -0.04  -0.04    -0.03   0.07  -0.03
  47   6    -0.10   0.02   0.03     0.06  -0.03   0.09    -0.07   0.01   0.10
  48   6    -0.08  -0.02   0.06     0.05  -0.01   0.07    -0.06  -0.02   0.09
  49   6    -0.10  -0.06   0.09     0.07   0.01   0.07    -0.08  -0.04   0.10
  50   6    -0.07  -0.09   0.07     0.05   0.04  -0.01    -0.06  -0.05   0.01
  51   6    -0.04  -0.06   0.03     0.03   0.04  -0.04    -0.03  -0.03  -0.03
  52   7    -0.05  -0.02   0.03     0.03   0.01   0.00    -0.04  -0.01   0.02
  53   6    -0.00  -0.07  -0.01     0.00   0.05  -0.07    -0.01  -0.03  -0.08
  54   6     0.03  -0.05  -0.03    -0.02   0.03  -0.03     0.02  -0.03  -0.04
  55   6     0.07  -0.06  -0.06    -0.04   0.04   0.02     0.05  -0.05  -0.01
  56   6     0.10  -0.04  -0.04    -0.06   0.00   0.10     0.07  -0.04   0.07
  57   6     0.08  -0.01  -0.01    -0.05  -0.02   0.08     0.06  -0.01   0.07
  58   7     0.04  -0.01  -0.01    -0.02   0.00   0.01     0.03  -0.00   0.01
  59   6     0.10   0.02   0.03    -0.06  -0.04   0.10     0.07   0.01   0.10
  60   6     0.08   0.06   0.04    -0.05  -0.05   0.02     0.06   0.05   0.04
  61   7     0.04   0.07   0.01    -0.02  -0.04  -0.04     0.03   0.07  -0.03
  62   1     0.04   0.03   0.03    -0.02  -0.02   0.00     0.03   0.02   0.01
  63   1     0.02   0.04   0.02    -0.01  -0.02  -0.05     0.01   0.04  -0.03
  64   1    -0.02   0.05  -0.04     0.01  -0.02  -0.04    -0.02   0.04  -0.05
  65   1    -0.04   0.03  -0.02     0.02  -0.02   0.01    -0.03   0.02   0.00
  66   1    -0.04   0.00   0.01     0.02  -0.01   0.04    -0.03  -0.00   0.05
  67   1    -0.04  -0.02   0.03     0.02   0.00   0.03    -0.03  -0.02   0.04
  68   1    -0.02  -0.04   0.02     0.01   0.02  -0.01    -0.02  -0.02  -0.00
  69   1    -0.00  -0.03  -0.01     0.00   0.02  -0.03    -0.00  -0.01  -0.03
  70   1     0.02  -0.03  -0.02    -0.01   0.02   0.00     0.01  -0.02  -0.01
  71   1     0.04  -0.01  -0.01    -0.02  -0.00   0.04     0.03  -0.01   0.03
  72   1     0.04   0.01   0.01    -0.02  -0.01   0.04     0.03  -0.00   0.05
  73   6    -0.00   0.15  -0.05    -0.00   0.06   0.16     0.00  -0.07   0.11
  74   6     0.00   0.07  -0.04    -0.00   0.00   0.12     0.00   0.01   0.07
  75   6     0.00  -0.00  -0.03    -0.00  -0.04   0.05     0.00   0.06   0.02
  76   6    -0.00  -0.10  -0.02    -0.00  -0.09  -0.03     0.00   0.13  -0.04
  77   6     0.00  -0.02  -0.03     0.00   0.09   0.05    -0.00  -0.14   0.02
  78   6     0.00   0.06  -0.04     0.00   0.04  -0.03    -0.00  -0.05  -0.04
  79   6     0.00   0.11  -0.04     0.00  -0.01  -0.10    -0.00   0.03  -0.09
  80   6     0.00   0.16  -0.04     0.00  -0.06  -0.15    -0.00   0.13  -0.13
  81  28     0.00  -0.18   0.01    -0.00   0.00   0.00     0.00  -0.02  -0.00
  82   6     0.03  -0.10   0.03     0.07  -0.07  -0.14    -0.11   0.07  -0.08
  83   6     0.02  -0.11   0.01     0.05  -0.09  -0.15    -0.08   0.10  -0.09
  84   6     0.01  -0.11   0.00     0.02  -0.07  -0.09    -0.04   0.08  -0.06
  85   6    -0.00  -0.11  -0.01    -0.00  -0.08  -0.08     0.00   0.10  -0.06
  86   6    -0.01  -0.11   0.00    -0.03  -0.07  -0.09     0.04   0.08  -0.07
  87   6    -0.02  -0.11   0.01    -0.05  -0.09  -0.15     0.08   0.10  -0.09
  88   6    -0.03  -0.10   0.03    -0.07  -0.07  -0.14     0.11   0.07  -0.08
  89   6    -0.03  -0.09   0.03    -0.06  -0.03  -0.08     0.09   0.03  -0.04
  90   7    -0.01  -0.10   0.01    -0.03  -0.04  -0.07     0.05   0.04  -0.04
  91   6    -0.03  -0.07   0.03    -0.07  -0.00  -0.01     0.11  -0.01   0.01
  92   6    -0.03  -0.06   0.02    -0.06   0.03   0.07     0.09  -0.04   0.05
  93   6    -0.04  -0.05   0.01    -0.07   0.07   0.14     0.11  -0.08   0.09
  94   6    -0.03  -0.04  -0.01    -0.05   0.09   0.15     0.08  -0.12   0.09
  95   6    -0.01  -0.05  -0.01    -0.02   0.07   0.10     0.04  -0.10   0.05
  96   7    -0.02  -0.07   0.00    -0.03   0.04   0.07     0.05  -0.06   0.04
  97   6     0.00  -0.05  -0.02     0.00   0.08   0.09    -0.00  -0.12   0.04
  98   6     0.01  -0.05  -0.01     0.02   0.07   0.10    -0.04  -0.10   0.05
  99   6     0.03  -0.04  -0.01     0.05   0.09   0.15    -0.08  -0.12   0.09
 100   6     0.04  -0.05   0.01     0.07   0.07   0.14    -0.11  -0.08   0.09
 101   6     0.03  -0.06   0.02     0.05   0.03   0.07    -0.09  -0.04   0.05
 102   7     0.02  -0.07   0.00     0.03   0.04   0.07    -0.05  -0.06   0.04
 103   6     0.03  -0.08   0.03     0.07  -0.00  -0.01    -0.11  -0.01   0.01
 104   6     0.03  -0.09   0.03     0.06  -0.03  -0.08    -0.09   0.03  -0.04
 105   7     0.01  -0.10   0.01     0.03  -0.04  -0.07    -0.05   0.04  -0.04
 106   1     0.01  -0.03   0.01     0.03  -0.02  -0.05    -0.04   0.02  -0.03
 107   1     0.01  -0.04   0.00     0.02  -0.03  -0.05    -0.02   0.04  -0.04
 108   1    -0.01  -0.04   0.00    -0.02  -0.03  -0.05     0.02   0.04  -0.04
 109   1    -0.01  -0.03   0.01    -0.03  -0.02  -0.05     0.04   0.02  -0.03
 110   1    -0.01  -0.02   0.01    -0.03  -0.00  -0.00     0.04  -0.00   0.00
 111   1    -0.01  -0.01   0.00    -0.03   0.02   0.05     0.04  -0.02   0.03
 112   1    -0.01  -0.01  -0.01    -0.01   0.03   0.06     0.02  -0.04   0.03
 113   1     0.01  -0.01  -0.01     0.01   0.03   0.06    -0.02  -0.04   0.03
 114   1     0.01  -0.01   0.01     0.03   0.02   0.05    -0.04  -0.02   0.03
 115   1     0.01  -0.02   0.01     0.03  -0.00  -0.00    -0.04  -0.00   0.00
                     16                     17                     18
                        a                      a                      a 
 Frequencies --    51.8626                52.6943                84.1183
 Red. masses --    19.0708                12.1556                12.4028
 Frc consts  --     0.0000                 0.0000                 0.0000
 IR Inten    --     0.6598                67.0047                10.8066
 Raman Activ --     0.0000                 0.0000                 0.0000
 Depolar     --     0.0000                 0.0000                 0.0000
 Atom AN      X      Y      Z        X      Y      Z        X      Y      Z
   1  28    -0.28  -0.00  -0.01    -0.03   0.00   0.06     0.00  -0.00  -0.11
   2   6    -0.13   0.01   0.00    -0.01   0.00   0.03    -0.00  -0.00  -0.07
   3   6    -0.12  -0.00  -0.01    -0.01   0.01   0.13    -0.00  -0.01  -0.09
   4   6    -0.10   0.00  -0.01    -0.01   0.01   0.13    -0.00  -0.00  -0.06
   5   6    -0.09  -0.00  -0.02    -0.01   0.01   0.16     0.00  -0.00  -0.02
   6   6    -0.10  -0.01  -0.01    -0.01   0.00   0.14     0.00  -0.00  -0.06
   7   6    -0.12   0.00  -0.01    -0.02   0.01   0.13     0.00  -0.00  -0.09
   8   6    -0.13  -0.01  -0.00    -0.02   0.00   0.03     0.00  -0.00  -0.07
   9   6    -0.12  -0.02   0.00    -0.02   0.00  -0.02     0.00  -0.00  -0.03
  10   7    -0.12  -0.02  -0.01    -0.01   0.00   0.06     0.00  -0.00  -0.05
  11   6    -0.12  -0.02   0.01    -0.02   0.00  -0.13     0.00  -0.00   0.08
  12   6    -0.13  -0.01   0.01    -0.02   0.00  -0.11     0.00  -0.00   0.10
  13   6    -0.12  -0.00   0.01    -0.02   0.00  -0.13     0.00  -0.00   0.15
  14   6    -0.13   0.00   0.00    -0.02  -0.00  -0.01     0.00   0.00   0.03
  15   6    -0.14  -0.00  -0.01    -0.02  -0.00   0.05     0.00   0.00  -0.07
  16   7    -0.14  -0.01   0.00    -0.02  -0.00  -0.01     0.00  -0.00  -0.02
  17   6    -0.14  -0.00  -0.01    -0.02  -0.00   0.11     0.00   0.00  -0.13
  18   6    -0.14   0.00  -0.01    -0.01  -0.00   0.05    -0.00   0.00  -0.07
  19   6    -0.13  -0.00  -0.00    -0.01  -0.00  -0.01    -0.00   0.00   0.03
  20   6    -0.12   0.00   0.01    -0.01  -0.00  -0.13    -0.01   0.00   0.15
  21   6    -0.13   0.01   0.01    -0.01   0.00  -0.11    -0.00   0.00   0.10
  22   7    -0.14   0.01  -0.00    -0.01   0.00  -0.01    -0.00   0.00  -0.02
  23   6    -0.12   0.02   0.01    -0.01   0.00  -0.13    -0.00   0.00   0.08
  24   6    -0.12   0.02   0.00    -0.01   0.00  -0.02    -0.00  -0.00  -0.02
  25   7    -0.12   0.01  -0.01    -0.01   0.01   0.06    -0.00  -0.00  -0.05
  26   1    -0.04   0.00   0.00    -0.00   0.00  -0.00    -0.00  -0.00  -0.02
  27   1    -0.03  -0.00  -0.00    -0.00   0.00   0.06    -0.00  -0.00  -0.04
  28   1    -0.03   0.00  -0.01    -0.00   0.00   0.06     0.00  -0.00  -0.04
  29   1    -0.04  -0.00   0.00    -0.01   0.00  -0.00     0.00  -0.00  -0.02
  30   1    -0.03  -0.01   0.01    -0.01   0.00  -0.06     0.00  -0.00   0.04
  31   1    -0.03  -0.00   0.01    -0.01   0.00  -0.06     0.00  -0.00   0.07
  32   1    -0.04   0.00  -0.00    -0.01  -0.00   0.01     0.00   0.00   0.01
  33   1    -0.04  -0.00  -0.01    -0.01  -0.00   0.05     0.00   0.00  -0.05
  34   1    -0.04  -0.00  -0.00    -0.00  -0.00   0.01    -0.00   0.00   0.00
  35   1    -0.03   0.00   0.01    -0.00  -0.00  -0.06    -0.00   0.00   0.07
  36   1    -0.03   0.00   0.01    -0.00   0.00  -0.06    -0.00   0.00   0.04
  37  28     0.28   0.00  -0.01     0.03  -0.00   0.06     0.00  -0.01   0.11
  38   6     0.13  -0.00  -0.00     0.03   0.01   0.03     0.01  -0.00   0.07
  39   6     0.12   0.01  -0.01     0.02  -0.01   0.13     0.00  -0.00   0.09
  40   6     0.10  -0.00  -0.01     0.01  -0.01   0.13     0.00   0.00   0.06
  41   6     0.09   0.01  -0.02     0.01  -0.01   0.16     0.00   0.01   0.02
  42   6     0.10   0.01  -0.02     0.01  -0.01   0.13    -0.00   0.00   0.06
  43   6     0.12   0.00  -0.02     0.00  -0.01   0.13    -0.00  -0.00   0.09
  44   6     0.12   0.01  -0.00     0.00   0.01   0.03    -0.01  -0.00   0.07
  45   6     0.12   0.02   0.00     0.00   0.01  -0.02    -0.01   0.00   0.03
  46   7     0.12   0.02  -0.00     0.01   0.00   0.06    -0.00  -0.00   0.05
  47   6     0.12   0.01   0.02    -0.00   0.03  -0.12    -0.01   0.02  -0.08
  48   6     0.13   0.01   0.01     0.00   0.02  -0.10    -0.01   0.02  -0.09
  49   6     0.12  -0.00   0.02    -0.00   0.02  -0.12    -0.01   0.02  -0.14
  50   6     0.13  -0.00   0.00     0.00  -0.01  -0.01    -0.01   0.00  -0.03
  51   6     0.13   0.00  -0.00     0.01  -0.01   0.05    -0.00  -0.01   0.06
  52   7     0.14   0.01   0.00     0.01   0.00  -0.00    -0.00  -0.00   0.02
  53   6     0.14   0.00  -0.01     0.02  -0.03   0.11     0.00  -0.03   0.13
  54   6     0.14  -0.00  -0.01     0.02  -0.01   0.05     0.00  -0.01   0.06
  55   6     0.13   0.00  -0.00     0.02  -0.00  -0.01     0.01   0.00  -0.03
  56   6     0.13  -0.01   0.01     0.03   0.02  -0.12     0.01   0.03  -0.14
  57   6     0.13  -0.01   0.01     0.02   0.02  -0.10     0.01   0.02  -0.09
  58   7     0.15  -0.01  -0.00     0.02   0.00  -0.01     0.00  -0.00   0.02
  59   6     0.12  -0.02   0.01     0.02   0.03  -0.12     0.01   0.02  -0.08
  60   6     0.12  -0.02   0.00     0.02   0.01  -0.02     0.01   0.00   0.03
  61   7     0.12  -0.01  -0.01     0.02  -0.00   0.06     0.00  -0.00   0.05
  62   1     0.04  -0.00   0.00     0.01   0.00  -0.00     0.00  -0.00   0.02
  63   1     0.03   0.01  -0.00     0.01  -0.00   0.06     0.00  -0.00   0.03
  64   1     0.03  -0.00  -0.01     0.00  -0.00   0.06    -0.00  -0.00   0.03
  65   1     0.04   0.00  -0.00    -0.00   0.00  -0.00    -0.00  -0.00   0.02
  66   1     0.03   0.00   0.01    -0.00   0.01  -0.06    -0.00   0.01  -0.04
  67   1     0.03  -0.00   0.01    -0.00   0.01  -0.06    -0.00   0.01  -0.07
  68   1     0.04  -0.00  -0.00     0.00  -0.00   0.01    -0.00  -0.00  -0.01
  69   1     0.04   0.00  -0.01     0.01  -0.01   0.04     0.00  -0.01   0.05
  70   1     0.04   0.00  -0.00     0.01  -0.00   0.00     0.00  -0.00  -0.01
  71   1     0.04  -0.00   0.01     0.01   0.01  -0.06     0.00   0.01  -0.07
  72   1     0.03  -0.01   0.01     0.01   0.01  -0.06     0.00   0.01  -0.04
  73   6    -0.08  -0.00  -0.01    -0.01   0.00   0.12     0.00   0.00   0.11
  74   6    -0.08   0.00   0.00    -0.01  -0.01  -0.00     0.00   0.02   0.26
  75   6    -0.07   0.01   0.01    -0.01  -0.01  -0.11     0.00   0.02   0.30
  76   6    -0.06   0.01   0.02    -0.01  -0.02  -0.20     0.00   0.02   0.21
  77   6     0.06  -0.00   0.02     0.01  -0.02  -0.20     0.00  -0.03  -0.21
  78   6     0.07   0.00   0.01     0.01  -0.02  -0.11     0.00  -0.01  -0.29
  79   6     0.08   0.00   0.00     0.01  -0.01  -0.01     0.00   0.00  -0.26
  80   6     0.08   0.01  -0.01     0.01  -0.01   0.12     0.00   0.02  -0.10
  81  28     0.00   0.00   0.01     0.00  -0.01  -0.10     0.00  -0.01  -0.01
  82   6    -0.00   0.01  -0.01     0.00   0.01   0.08    -0.01  -0.01  -0.17
  83   6    -0.02   0.00   0.01     0.00  -0.01  -0.08    -0.00  -0.00  -0.09
  84   6    -0.04   0.01   0.01    -0.00  -0.01  -0.14    -0.00   0.00   0.00
  85   6    -0.05   0.01   0.02    -0.01  -0.02  -0.20     0.00   0.01   0.09
  86   6    -0.03  -0.00   0.02    -0.01  -0.01  -0.14     0.00   0.00   0.00
  87   6    -0.01   0.01   0.01    -0.00  -0.01  -0.08     0.00  -0.00  -0.09
  88   6     0.01  -0.01  -0.00    -0.00   0.01   0.08     0.00  -0.01  -0.17
  89   6    -0.00  -0.03  -0.01    -0.00   0.01   0.10     0.00  -0.01  -0.09
  90   7    -0.03  -0.02   0.01    -0.00  -0.01  -0.04     0.00  -0.00  -0.02
  91   6     0.01  -0.04  -0.02     0.00   0.02   0.20     0.01  -0.00   0.00
  92   6     0.01  -0.03  -0.01     0.00   0.01   0.10     0.01   0.01   0.09
  93   6     0.00  -0.02  -0.01     0.00   0.01   0.08     0.01   0.01   0.17
  94   6     0.02  -0.00   0.00     0.00  -0.01  -0.08     0.01   0.00   0.09
  95   6     0.04  -0.01   0.01     0.01  -0.01  -0.14     0.00  -0.01  -0.01
  96   7     0.03  -0.03   0.01     0.01  -0.01  -0.04     0.00  -0.00   0.02
  97   6     0.06  -0.00   0.02     0.01  -0.02  -0.20     0.00  -0.02  -0.09
  98   6     0.03   0.00   0.01     0.00  -0.01  -0.14    -0.00  -0.01  -0.01
  99   6     0.01  -0.01   0.01     0.00  -0.01  -0.08    -0.00   0.00   0.09
 100   6    -0.01   0.00  -0.01     0.00   0.01   0.08    -0.01   0.01   0.17
 101   6     0.00   0.02  -0.01     0.00   0.02   0.10    -0.01   0.01   0.09
 102   7     0.03   0.02   0.00     0.00  -0.00  -0.04    -0.00  -0.00   0.02
 103   6    -0.01   0.04  -0.03     0.00   0.03   0.20    -0.01  -0.00   0.00
 104   6    -0.01   0.03  -0.02     0.00   0.01   0.10    -0.00  -0.01  -0.09
 105   7    -0.03   0.03   0.00    -0.00  -0.00  -0.04    -0.00  -0.00  -0.02
 106   1     0.00   0.00  -0.01     0.00   0.01   0.05    -0.00  -0.01  -0.07
 107   1    -0.00  -0.00   0.00     0.00  -0.01  -0.04    -0.00  -0.00  -0.03
 108   1    -0.00   0.01   0.01    -0.00  -0.00  -0.04     0.00  -0.00  -0.03
 109   1     0.01  -0.00  -0.00     0.00   0.01   0.05     0.00  -0.01  -0.07
 110   1     0.00  -0.01  -0.01     0.00   0.01   0.09     0.00  -0.00   0.00
 111   1    -0.00  -0.00  -0.01    -0.00   0.01   0.05     0.00   0.01   0.08
 112   1     0.00   0.00   0.00     0.00  -0.00  -0.04     0.00   0.00   0.03
 113   1     0.00  -0.01   0.01     0.00  -0.00  -0.04    -0.00   0.00   0.03
 114   1    -0.01   0.00  -0.01    -0.00   0.01   0.05    -0.00   0.01   0.08
 115   1    -0.00   0.01  -0.01    -0.00   0.01   0.09    -0.00  -0.00   0.00
                     19                     20                     21
                        a                      a                      a 
 Frequencies --    96.1589                99.7628               100.0398
 Red. masses --    25.7941                28.3387                28.4947
 Frc consts  --     0.0000                 0.0000                 0.0000
 IR Inten    --     5.9132                 1.7466                 8.3151
 Raman Activ --     0.0000                 0.0000                 0.0000
 Depolar     --     0.0000                 0.0000                 0.0000
 Atom AN      X      Y      Z        X      Y      Z        X      Y      Z
   1  28     0.00  -0.00  -0.14    -0.01   0.00  -0.60    -0.01   0.00   0.08
   2   6    -0.00  -0.00  -0.04    -0.01   0.01   0.26    -0.00   0.00  -0.03
   3   6    -0.00  -0.00  -0.02    -0.01   0.00   0.24    -0.00  -0.00  -0.03
   4   6    -0.00  -0.00  -0.01    -0.00   0.00  -0.01    -0.00   0.00   0.00
   5   6     0.00  -0.00   0.03     0.00   0.00  -0.03     0.00   0.00   0.00
   6   6     0.00  -0.00  -0.01     0.00  -0.00  -0.01    -0.00  -0.00   0.00
   7   6    -0.00  -0.00  -0.02    -0.00   0.00   0.24    -0.00   0.00  -0.03
   8   6    -0.00  -0.00  -0.04    -0.01  -0.00   0.27    -0.00  -0.00  -0.03
   9   6    -0.00  -0.00  -0.03    -0.01  -0.01   0.01    -0.00  -0.00  -0.00
  10   7     0.00  -0.00  -0.04    -0.00  -0.00  -0.15    -0.00  -0.00   0.02
  11   6    -0.00  -0.00   0.04    -0.01  -0.01  -0.01    -0.00  -0.00   0.00
  12   6    -0.00  -0.00   0.06    -0.01  -0.00  -0.05    -0.01  -0.00   0.01
  13   6    -0.00  -0.00   0.13    -0.01  -0.00   0.15    -0.00  -0.00  -0.02
  14   6    -0.00  -0.00   0.05    -0.01  -0.00   0.21    -0.01   0.00  -0.03
  15   6    -0.00  -0.00  -0.05    -0.01  -0.00   0.03    -0.01  -0.00  -0.00
  16   7    -0.00  -0.00  -0.04    -0.01  -0.00  -0.15    -0.01  -0.00   0.02
  17   6     0.00   0.00  -0.09    -0.02  -0.00   0.09    -0.01   0.00  -0.01
  18   6    -0.00   0.00  -0.05    -0.01  -0.00   0.03    -0.01   0.00  -0.00
  19   6    -0.00   0.00   0.05    -0.02  -0.00   0.21    -0.00   0.00  -0.03
  20   6    -0.00   0.00   0.13    -0.01  -0.00   0.15    -0.00   0.00  -0.02
  21   6    -0.00   0.00   0.06    -0.01   0.00  -0.05    -0.01   0.00   0.01
  22   7    -0.00   0.00  -0.04    -0.01   0.00  -0.15    -0.01   0.00   0.02
  23   6    -0.00   0.00   0.04    -0.01   0.01  -0.01    -0.00   0.00   0.00
  24   6    -0.00   0.00  -0.03    -0.01   0.01   0.01    -0.00   0.00  -0.00
  25   7    -0.00   0.00  -0.04    -0.00   0.01  -0.15    -0.00   0.00   0.02
  26   1    -0.00  -0.00  -0.01    -0.00   0.00   0.13    -0.00  -0.00  -0.02
  27   1    -0.00  -0.00  -0.00    -0.00   0.00   0.12    -0.00  -0.00  -0.02
  28   1    -0.00   0.00  -0.00    -0.00   0.00   0.12    -0.00   0.00  -0.02
  29   1    -0.00  -0.00  -0.01    -0.00  -0.00   0.13    -0.00  -0.00  -0.02
  30   1    -0.00  -0.00   0.02    -0.00  -0.00   0.03    -0.00  -0.00  -0.00
  31   1    -0.00  -0.00   0.06    -0.00  -0.00   0.07    -0.00   0.00  -0.01
  32   1    -0.00  -0.00   0.02    -0.00  -0.00   0.11    -0.00   0.00  -0.01
  33   1     0.00   0.00  -0.03    -0.01  -0.00   0.07    -0.00   0.00  -0.01
  34   1    -0.00  -0.00   0.02    -0.01  -0.00   0.11    -0.00  -0.00  -0.01
  35   1    -0.00   0.00   0.06    -0.00  -0.00   0.07    -0.00   0.00  -0.01
  36   1    -0.00   0.00   0.03    -0.00   0.00   0.03    -0.00   0.00  -0.00
  37  28    -0.00   0.02  -0.14    -0.02  -0.02   0.09    -0.00  -0.11   0.59
  38   6    -0.00   0.00  -0.04    -0.01   0.01  -0.04    -0.01   0.05  -0.26
  39   6    -0.00   0.00  -0.02    -0.01   0.01  -0.04    -0.00   0.04  -0.24
  40   6    -0.00  -0.00  -0.02    -0.00   0.00   0.00    -0.00  -0.00   0.01
  41   6    -0.00  -0.01   0.03     0.00  -0.00   0.00     0.00  -0.01   0.03
  42   6    -0.00  -0.00  -0.02    -0.00  -0.00   0.00     0.00  -0.01   0.01
  43   6     0.00   0.00  -0.03    -0.01   0.01  -0.03    -0.00   0.04  -0.24
  44   6     0.00   0.00  -0.04    -0.01   0.00  -0.04    -0.00   0.04  -0.26
  45   6     0.00   0.00  -0.03    -0.01  -0.00  -0.00    -0.00  -0.00  -0.01
  46   7    -0.00   0.00  -0.04    -0.00  -0.01   0.02     0.00  -0.03   0.14
  47   6     0.00  -0.01   0.04    -0.01  -0.01  -0.00    -0.00  -0.00   0.00
  48   6     0.00  -0.01   0.06    -0.01  -0.00   0.01    -0.00  -0.01   0.05
  49   6     0.00  -0.02   0.13    -0.01   0.00  -0.02    -0.00   0.03  -0.15
  50   6     0.00  -0.01   0.05    -0.01   0.01  -0.03    -0.01   0.04  -0.21
  51   6    -0.00   0.01  -0.05    -0.01   0.00  -0.00    -0.01   0.01  -0.03
  52   7    -0.00   0.01  -0.03    -0.01  -0.01   0.02    -0.00  -0.03   0.14
  53   6    -0.00   0.02  -0.09    -0.01   0.00  -0.01    -0.01   0.02  -0.09
  54   6    -0.00   0.01  -0.05    -0.01   0.00  -0.00    -0.01   0.01  -0.03
  55   6    -0.00  -0.01   0.05    -0.01   0.01  -0.03    -0.01   0.04  -0.21
  56   6    -0.00  -0.02   0.13    -0.01   0.01  -0.02    -0.01   0.03  -0.15
  57   6    -0.00  -0.01   0.06    -0.01   0.00   0.01    -0.01  -0.01   0.05
  58   7    -0.00   0.01  -0.04    -0.01  -0.00   0.02    -0.01  -0.02   0.15
  59   6    -0.00  -0.01   0.04    -0.01   0.01   0.00    -0.01   0.00   0.01
  60   6    -0.00   0.00  -0.03    -0.01   0.01  -0.00    -0.01   0.01  -0.01
  61   7    -0.00   0.01  -0.04    -0.00   0.00   0.02    -0.00  -0.02   0.15
  62   1    -0.00   0.00  -0.01    -0.00   0.00  -0.02    -0.00   0.02  -0.13
  63   1    -0.00  -0.00  -0.01    -0.00   0.00  -0.02    -0.00   0.02  -0.12
  64   1     0.00  -0.00  -0.01    -0.00   0.00  -0.02    -0.00   0.02  -0.11
  65   1     0.00   0.00  -0.01    -0.00   0.00  -0.02    -0.00   0.02  -0.13
  66   1     0.00  -0.00   0.03    -0.00  -0.00  -0.00    -0.00   0.00  -0.03
  67   1     0.00  -0.01   0.06    -0.00   0.00  -0.01    -0.00   0.01  -0.07
  68   1     0.00  -0.00   0.02    -0.00   0.00  -0.01    -0.00   0.02  -0.10
  69   1    -0.00   0.01  -0.03    -0.00   0.00  -0.01    -0.00   0.01  -0.07
  70   1    -0.00  -0.00   0.02    -0.00   0.00  -0.02    -0.00   0.02  -0.11
  71   1     0.00  -0.01   0.06    -0.00   0.00  -0.01    -0.00   0.01  -0.07
  72   1    -0.00  -0.01   0.02    -0.00   0.00  -0.00    -0.00   0.01  -0.03
  73   6     0.00   0.00   0.12     0.01  -0.00  -0.00     0.00   0.00   0.00
  74   6     0.00   0.00   0.18     0.01  -0.00  -0.03     0.00   0.00   0.00
  75   6     0.00   0.00   0.16     0.01  -0.00  -0.03     0.00   0.00   0.00
  76   6     0.00   0.00   0.05     0.01  -0.00  -0.03     0.00   0.00   0.00
  77   6     0.00   0.00   0.05     0.01   0.00   0.00     0.00   0.00   0.03
  78   6    -0.00  -0.01   0.17     0.01  -0.00   0.00     0.00   0.00   0.03
  79   6    -0.00  -0.02   0.19     0.00  -0.00   0.00     0.00  -0.00   0.02
  80   6    -0.00  -0.02   0.12     0.00  -0.00  -0.00     0.00  -0.00  -0.00
  81  28     0.00  -0.05  -0.52     0.03   0.01   0.08     0.02  -0.01  -0.10
  82   6     0.00   0.02   0.18     0.02  -0.00  -0.02     0.01   0.00   0.04
  83   6     0.00   0.01   0.11     0.01  -0.00  -0.02     0.01   0.00   0.04
  84   6     0.00  -0.01  -0.07     0.01   0.00  -0.00     0.01  -0.00  -0.00
  85   6     0.00  -0.01  -0.07     0.01  -0.00  -0.01     0.00  -0.00  -0.01
  86   6    -0.00  -0.01  -0.07     0.01  -0.00  -0.00     0.01  -0.00  -0.00
  87   6     0.00   0.01   0.11     0.01  -0.00  -0.02     0.01   0.00   0.04
  88   6     0.00   0.02   0.18     0.01  -0.00  -0.02     0.01   0.00   0.04
  89   6    -0.00   0.00   0.03     0.01  -0.00   0.01     0.01  -0.00   0.00
  90   7    -0.00  -0.01  -0.14     0.01   0.00   0.02     0.01  -0.00  -0.03
  91   6    -0.00   0.01   0.09     0.01   0.00  -0.00     0.01  -0.00   0.00
  92   6     0.00   0.01   0.02     0.01   0.00  -0.00     0.01   0.00  -0.01
  93   6     0.00   0.03   0.17     0.01  -0.00  -0.04     0.01   0.00   0.03
  94   6     0.00   0.02   0.11     0.01  -0.00  -0.03     0.01   0.00   0.03
  95   6     0.00  -0.00  -0.07     0.01   0.00   0.00     0.01   0.00   0.00
  96   7     0.00  -0.01  -0.14     0.01   0.00   0.02     0.01  -0.00  -0.02
  97   6     0.00  -0.00  -0.06     0.01   0.00   0.01     0.01   0.00   0.01
  98   6    -0.00  -0.00  -0.07     0.01  -0.00   0.00     0.01  -0.00   0.00
  99   6     0.00   0.02   0.11     0.01  -0.00  -0.03     0.01   0.00   0.03
 100   6     0.00   0.03   0.17     0.02  -0.01  -0.04     0.01   0.00   0.03
 101   6     0.00   0.01   0.02     0.01  -0.00  -0.00     0.01  -0.00  -0.01
 102   7     0.00  -0.01  -0.14     0.01   0.00   0.02     0.01  -0.00  -0.02
 103   6     0.00   0.01   0.09     0.01  -0.00  -0.00     0.01   0.00   0.00
 104   6     0.00   0.00   0.03     0.01   0.00   0.01     0.01   0.00   0.00
 105   7     0.00  -0.01  -0.14     0.01   0.00   0.02     0.01  -0.00  -0.03
 106   1     0.00   0.01   0.09     0.00  -0.00  -0.01     0.00   0.00   0.02
 107   1     0.00   0.01   0.06     0.00  -0.00  -0.01     0.00   0.00   0.02
 108   1     0.00   0.01   0.06     0.00  -0.00  -0.01     0.00   0.00   0.02
 109   1     0.00   0.01   0.09     0.00  -0.00  -0.01     0.00   0.00   0.02
 110   1    -0.00   0.01   0.07     0.00  -0.00  -0.01     0.00   0.00   0.01
 111   1     0.00   0.01   0.09     0.00  -0.00  -0.02     0.00   0.00   0.01
 112   1     0.00   0.01   0.05     0.00  -0.00  -0.02     0.00   0.00   0.02
 113   1    -0.00   0.01   0.05     0.00  -0.00  -0.02     0.00   0.00   0.02
 114   1     0.00   0.01   0.09     0.00  -0.00  -0.02     0.00   0.00   0.01
 115   1     0.00   0.01   0.07     0.00  -0.00  -0.00     0.00   0.00   0.01
                     22                     23                     24
                        a                      a                      a 
 Frequencies --   101.8103               107.4223               118.7885
 Red. masses --    19.7557                16.1259                10.5139
 Frc consts  --     0.0000                 0.0000                 0.0000
 IR Inten    --     0.1294                 0.2395                 0.1168
 Raman Activ --     0.0000                 0.0000                 0.0000
 Depolar     --     0.0000                 0.0000                 0.0000
 Atom AN      X      Y      Z        X      Y      Z        X      Y      Z
   1  28     0.18  -0.00  -0.06     0.00   0.00  -0.02     0.00   0.00  -0.00
   2   6     0.08  -0.02   0.03     0.00  -0.00  -0.12     0.00   0.00  -0.00
   3   6     0.06   0.00   0.02     0.00   0.00  -0.06     0.00   0.00   0.01
   4   6     0.02  -0.02  -0.00     0.00   0.00   0.02     0.00   0.00   0.00
   5   6    -0.02  -0.00  -0.00    -0.00   0.00   0.09     0.00   0.00   0.00
   6   6     0.02   0.01  -0.00     0.00   0.00   0.02     0.00   0.00  -0.00
   7   6     0.06  -0.01   0.02     0.00   0.00  -0.06    -0.00   0.00  -0.01
   8   6     0.08   0.02   0.03    -0.00   0.00  -0.12    -0.00   0.00  -0.00
   9   6     0.07   0.05   0.00     0.00   0.00  -0.05    -0.00  -0.00   0.00
  10   7     0.03   0.04  -0.02     0.00   0.00   0.00    -0.00   0.00   0.00
  11   6     0.07   0.05   0.00    -0.00   0.00   0.03    -0.00  -0.00   0.01
  12   6     0.09   0.03  -0.01     0.00  -0.00   0.07    -0.00   0.00   0.00
  13   6     0.08   0.01   0.01    -0.00  -0.00   0.13    -0.00   0.00  -0.00
  14   6     0.09  -0.00   0.02     0.00  -0.00   0.01     0.00   0.00  -0.01
  15   6     0.11   0.01   0.00     0.00  -0.00  -0.07     0.00   0.00  -0.00
  16   7     0.12   0.03  -0.01     0.00   0.00  -0.02     0.00   0.00   0.00
  17   6     0.12   0.00   0.01     0.01   0.00  -0.14     0.00  -0.00  -0.00
  18   6     0.11  -0.00   0.00     0.00   0.00  -0.07    -0.00  -0.00   0.00
  19   6     0.09   0.01   0.02     0.00   0.00   0.01    -0.00  -0.00   0.01
  20   6     0.08  -0.01   0.02    -0.00   0.00   0.13     0.00  -0.00   0.00
  21   6     0.09  -0.03  -0.01     0.00   0.00   0.08     0.00  -0.00  -0.00
  22   7     0.12  -0.03  -0.01     0.00  -0.00  -0.02     0.00  -0.00  -0.00
  23   6     0.07  -0.06  -0.00     0.00  -0.00   0.03     0.00  -0.00  -0.01
  24   6     0.07  -0.05   0.00     0.00  -0.00  -0.05     0.00   0.00  -0.00
  25   7     0.03  -0.05  -0.02     0.00  -0.00   0.00     0.00   0.00  -0.00
  26   1     0.03  -0.00   0.01     0.00  -0.00  -0.06     0.00   0.00  -0.00
  27   1     0.02   0.01   0.01     0.00   0.00  -0.02     0.00   0.00   0.00
  28   1     0.02  -0.01   0.01     0.00   0.00  -0.02    -0.00   0.00  -0.00
  29   1     0.03   0.00   0.01    -0.00   0.00  -0.06    -0.00   0.00   0.00
  30   1     0.02   0.02   0.00    -0.00   0.00   0.01    -0.00  -0.00   0.00
  31   1     0.02   0.00   0.01    -0.00  -0.00   0.06    -0.00  -0.00   0.00
  32   1     0.03  -0.01   0.01     0.00  -0.00   0.00     0.00   0.00  -0.00
  33   1     0.04   0.00   0.01     0.00   0.00  -0.06     0.00  -0.00  -0.00
  34   1     0.03   0.01   0.01     0.00   0.00  -0.00    -0.00  -0.00   0.00
  35   1     0.02  -0.00   0.01    -0.00   0.00   0.06     0.00  -0.00   0.00
  36   1     0.02  -0.02   0.00     0.00  -0.00   0.01     0.00  -0.00  -0.00
  37  28     0.18  -0.01   0.04     0.00   0.01  -0.02     0.00  -0.00   0.00
[...]
 107   1    -0.02  -0.00   0.00    -0.27  -0.03   0.00    -0.21  -0.02   0.00
 108   1    -0.02   0.00  -0.00     0.20  -0.02   0.00     0.15  -0.02   0.00
 109   1    -0.00   0.01  -0.00     0.01  -0.14   0.01     0.01  -0.11   0.01
 110   1    -0.00  -0.00   0.00    -0.00   0.00  -0.00    -0.00  -0.00   0.00
 111   1     0.00   0.00  -0.00     0.02   0.22  -0.03    -0.01  -0.06   0.01
 112   1     0.00   0.00  -0.00     0.32   0.03  -0.01    -0.08  -0.01   0.00
 113   1     0.00  -0.00   0.00    -0.30   0.03  -0.01     0.07  -0.01   0.00
 114   1     0.00  -0.00   0.00    -0.02   0.21  -0.02     0.01  -0.06   0.01
 115   1     0.00   0.00  -0.00     0.00   0.00  -0.00     0.00  -0.01   0.00
                    334                    335                    336
                        a                      a                      a 
 Frequencies --  3169.0037              3169.5043              3169.7291
 Red. masses --     1.9717                 1.9728                 1.9718
 Frc consts  --     0.0000                 0.0000                 0.0000
 IR Inten    --     2.3652               178.4861                16.9555
 Raman Activ --     0.0000                 0.0000                 0.0000
 Depolar     --     0.0000                 0.0000                 0.0000
 Atom AN      X      Y      Z        X      Y      Z        X      Y      Z
   1  28    -0.00  -0.00  -0.00    -0.00  -0.00  -0.00    -0.00  -0.00  -0.00
   2   6    -0.00   0.03  -0.00     0.00  -0.01   0.00    -0.00   0.00  -0.00
   3   6    -0.04   0.00  -0.00     0.01  -0.00   0.00    -0.00   0.00  -0.00
   4   6    -0.00  -0.00   0.00     0.00   0.00  -0.00    -0.00  -0.00   0.00
   5   6     0.00   0.00  -0.00     0.00   0.00  -0.00    -0.00   0.00  -0.00
   6   6     0.00  -0.00   0.00     0.00  -0.00   0.00     0.00  -0.00  -0.00
   7   6     0.11   0.01  -0.00     0.08   0.01  -0.00     0.01   0.00  -0.00
   8   6     0.00   0.08   0.00     0.00   0.06   0.00     0.00   0.01   0.00
   9   6    -0.00   0.00   0.00    -0.00   0.00   0.00    -0.00   0.00   0.00
  10   7    -0.00  -0.00   0.00    -0.00  -0.00   0.00    -0.00  -0.00   0.00
  11   6     0.00   0.00   0.00     0.00   0.00   0.00     0.00   0.00   0.00
  12   6     0.00   0.00   0.00     0.00   0.00   0.00     0.00  -0.00   0.00
  13   6    -0.00   0.01   0.00    -0.00   0.00   0.00    -0.00   0.00   0.00
  14   6    -0.01   0.00  -0.00    -0.00   0.00  -0.00    -0.00   0.00  -0.00
  15   6    -0.00  -0.00  -0.00    -0.00  -0.00  -0.00    -0.00  -0.00  -0.00
  16   7     0.00  -0.00  -0.00     0.00  -0.00  -0.00     0.00  -0.00  -0.00
  17   6    -0.00   0.00   0.00    -0.00   0.00   0.00    -0.00   0.00  -0.00
  18   6     0.00  -0.00   0.00     0.00  -0.00   0.00     0.00   0.00   0.00
  19   6     0.01   0.00   0.00     0.00   0.00   0.00    -0.00  -0.00  -0.00
  20   6     0.00   0.01  -0.00     0.00   0.00  -0.00    -0.00  -0.00   0.00
  21   6    -0.00   0.00  -0.00    -0.00   0.00  -0.00    -0.00   0.00   0.00
  22   7    -0.00  -0.00  -0.00    -0.00  -0.00  -0.00    -0.00  -0.00  -0.00
  23   6    -0.00   0.00  -0.00    -0.00  -0.00   0.00     0.00  -0.00   0.00
  24   6     0.00   0.00   0.00    -0.00  -0.00  -0.00     0.00  -0.00   0.00
  25   7     0.00  -0.00   0.00    -0.00   0.00   0.00    -0.00   0.00  -0.00
  26   1     0.01  -0.08   0.00    -0.00   0.02  -0.00     0.00  -0.00   0.00
  27   1     0.12  -0.01   0.00    -0.03   0.00  -0.00     0.00  -0.00   0.00
  28   1    -0.36  -0.04   0.00    -0.25  -0.03   0.00    -0.03  -0.00   0.00
  29   1    -0.02  -0.26  -0.00    -0.02  -0.18  -0.00    -0.00  -0.02  -0.00
  30   1     0.00  -0.01  -0.00     0.00  -0.01  -0.00     0.00  -0.00  -0.00
  31   1     0.00  -0.02  -0.00     0.00  -0.01  -0.00     0.00  -0.00  -0.00
  32   1     0.02  -0.00   0.00     0.01  -0.00   0.00     0.00  -0.00   0.00
  33   1     0.00   0.00   0.00     0.00   0.00   0.00     0.00   0.00   0.00
  34   1    -0.02  -0.00  -0.00    -0.01  -0.00  -0.00     0.00   0.00   0.00
  35   1    -0.00  -0.02   0.00    -0.00  -0.01   0.00     0.00   0.00   0.00
  36   1    -0.00  -0.00   0.00     0.00   0.00  -0.00    -0.00   0.00   0.00
  37  28     0.00   0.00   0.00    -0.00  -0.00   0.00     0.00  -0.00  -0.00
  38   6     0.00  -0.04  -0.01     0.00  -0.01  -0.00    -0.01   0.14   0.03
  39   6     0.05  -0.00  -0.00     0.01  -0.00  -0.00    -0.20   0.01   0.00
  40   6     0.00   0.00   0.00     0.00   0.00   0.00    -0.00  -0.01  -0.00
  41   6    -0.00  -0.00  -0.00     0.00   0.00   0.00    -0.00   0.00   0.00
  42   6    -0.00   0.00   0.00     0.00  -0.00  -0.00    -0.00   0.00   0.00
  43   6    -0.11  -0.01  -0.00     0.06   0.01   0.00    -0.11  -0.01  -0.00
  44   6    -0.00  -0.08  -0.01     0.00   0.05   0.01    -0.00  -0.08  -0.01
  45   6     0.00  -0.00  -0.00    -0.00   0.00   0.00     0.00  -0.00  -0.00
  46   7     0.00   0.00   0.00    -0.00  -0.00  -0.00     0.00   0.00   0.00
  47   6    -0.00  -0.00  -0.00     0.00   0.00   0.00    -0.00  -0.00  -0.00
  48   6    -0.00  -0.00  -0.00     0.00   0.00   0.00    -0.00   0.00   0.00
  49   6     0.00  -0.01  -0.00    -0.00   0.01   0.00    -0.00   0.00   0.00
  50   6     0.01  -0.00  -0.00    -0.00   0.00   0.00    -0.00   0.00   0.00
  51   6     0.00   0.00   0.00    -0.00  -0.00  -0.00    -0.00   0.00   0.00
  52   7    -0.00   0.00   0.00     0.00  -0.00  -0.00     0.00   0.00  -0.00
  53   6     0.00  -0.00  -0.00    -0.00   0.00   0.00     0.00   0.00   0.00
  54   6    -0.00   0.00   0.00     0.00  -0.00   0.00     0.00  -0.00  -0.00
  55   6    -0.01  -0.00   0.00     0.00   0.00  -0.00     0.00   0.00  -0.00
  56   6    -0.00  -0.01  -0.00     0.00   0.00   0.00     0.00   0.01   0.00
  57   6     0.00  -0.00  -0.00     0.00   0.00   0.00    -0.00  -0.00  -0.00
  58   7     0.00   0.00   0.00    -0.00  -0.00  -0.00     0.00  -0.00  -0.00
  59   6     0.00  -0.00  -0.00     0.00  -0.00  -0.00    -0.00   0.00   0.00
  60   6    -0.00  -0.00  -0.00    -0.00  -0.00  -0.00     0.01   0.00   0.00
  61   7    -0.00   0.00   0.00    -0.00   0.00  -0.00     0.00  -0.00  -0.00
  62   1    -0.01   0.12   0.02    -0.00   0.02   0.00     0.05  -0.45  -0.08
  63   1    -0.18   0.02   0.00    -0.03   0.00   0.00     0.66  -0.06  -0.01
  64   1     0.36   0.04   0.01    -0.21  -0.02  -0.00     0.35   0.04   0.01
  65   1     0.02   0.26   0.04    -0.01  -0.15  -0.03     0.02   0.25   0.04
  66   1    -0.00   0.01   0.00     0.00  -0.00  -0.00    -0.00   0.01   0.00
  67   1    -0.00   0.03   0.00     0.00  -0.02  -0.00     0.00  -0.00  -0.00
  68   1    -0.02   0.00   0.00     0.01  -0.00  -0.00     0.01  -0.00  -0.00
  69   1    -0.00  -0.00   0.00     0.00   0.00  -0.00    -0.00   0.00   0.00
  70   1     0.02   0.00   0.00    -0.00  -0.00  -0.00    -0.01  -0.00  -0.00
  71   1     0.00   0.02   0.00    -0.00  -0.00  -0.00    -0.00  -0.02  -0.00
  72   1     0.00   0.00   0.00     0.00   0.00   0.00    -0.00  -0.01  -0.00
  73   6     0.00   0.00  -0.00     0.00   0.00  -0.00     0.00   0.00  -0.00
  74   6     0.00  -0.00   0.00    -0.00  -0.00   0.00    -0.00  -0.00   0.00
  75   6    -0.00  -0.00   0.00     0.00  -0.00   0.00     0.00  -0.00   0.00
  76   6     0.00   0.00  -0.00     0.00   0.00  -0.00     0.00   0.00  -0.00
  77   6    -0.00  -0.00   0.00     0.00   0.00  -0.00    -0.00   0.00  -0.00
  78   6     0.00   0.00  -0.00    -0.00  -0.00   0.00     0.00  -0.00   0.00
  79   6    -0.00   0.00   0.00     0.00  -0.00  -0.00    -0.00  -0.00  -0.00
  80   6    -0.00  -0.00  -0.00     0.00   0.00   0.00    -0.00   0.00   0.00
  81  28    -0.00   0.00  -0.00    -0.00  -0.00   0.00    -0.00  -0.00   0.00
  82   6     0.00   0.06  -0.01     0.01   0.11  -0.01     0.00   0.02  -0.00
  83   6     0.08   0.01  -0.00     0.15   0.01  -0.00     0.03   0.00  -0.00
  84   6     0.00  -0.00   0.00     0.00  -0.01   0.00     0.00  -0.00   0.00
  85   6     0.00   0.00  -0.00     0.00   0.00  -0.00     0.00   0.00  -0.00
  86   6    -0.00  -0.00   0.00    -0.00  -0.00   0.00    -0.00  -0.00   0.00
  87   6    -0.06   0.00   0.00    -0.08   0.01   0.00    -0.00   0.00   0.00
  88   6    -0.00   0.04  -0.00    -0.00   0.06  -0.01    -0.00   0.00  -0.00
  89   6     0.00   0.00  -0.00     0.00   0.00  -0.00     0.00  -0.00   0.00
  90   7     0.00  -0.00   0.00     0.00  -0.00   0.00     0.00  -0.00   0.00
  91   6    -0.00  -0.00   0.00    -0.00   0.00  -0.00     0.00   0.00  -0.00
  92   6     0.00  -0.00   0.00    -0.00   0.00  -0.00    -0.00   0.00  -0.00
  93   6    -0.00  -0.07   0.01     0.00   0.07  -0.01     0.00   0.04  -0.01
  94   6    -0.10  -0.01   0.00     0.09   0.01  -0.00     0.06   0.00  -0.00
  95   6    -0.00   0.00  -0.00     0.00  -0.00   0.00     0.00  -0.00   0.00
  96   7     0.00   0.00  -0.00    -0.00  -0.00   0.00    -0.00  -0.00   0.00
  97   6    -0.00  -0.00   0.00     0.00   0.00  -0.00     0.00   0.00  -0.00
  98   6     0.00   0.00  -0.00    -0.00  -0.00   0.00     0.00   0.00  -0.00
  99   6     0.09  -0.01   0.00    -0.10   0.01  -0.00     0.01  -0.00   0.00
 100   6     0.00  -0.07   0.01    -0.00   0.07  -0.01     0.00  -0.01   0.00
 101   6    -0.00  -0.00   0.00     0.00   0.00  -0.00    -0.00  -0.00   0.00
 102   7    -0.00   0.00  -0.00     0.00  -0.00   0.00    -0.00   0.00  -0.00
 103   6     0.00  -0.00   0.00     0.00   0.00  -0.00     0.00   0.00  -0.00
 104   6    -0.00   0.00  -0.00    -0.00   0.00  -0.00    -0.00   0.00  -0.00
 105   7    -0.00  -0.00   0.00    -0.00  -0.00   0.00    -0.00  -0.00   0.00
 106   1    -0.02  -0.18   0.02    -0.04  -0.35   0.04    -0.01  -0.06   0.01
 107   1    -0.26  -0.03   0.00    -0.48  -0.05   0.00    -0.08  -0.01   0.00
 108   1     0.19  -0.02   0.00     0.25  -0.03   0.00     0.01  -0.00   0.00
 109   1     0.01  -0.12   0.01     0.02  -0.19   0.02     0.00  -0.01   0.00
 110   1    -0.00   0.00  -0.00     0.00  -0.01   0.00     0.00  -0.00   0.00
 111   1     0.02   0.22  -0.03    -0.02  -0.22   0.03    -0.01  -0.14   0.02
 112   1     0.32   0.03  -0.01    -0.29  -0.03   0.01    -0.20  -0.02   0.00
 113   1    -0.30   0.03  -0.01     0.31  -0.04   0.01    -0.05   0.01  -0.00
 114   1    -0.02   0.21  -0.02     0.02  -0.23   0.03    -0.00   0.03  -0.00
 115   1     0.00   0.00  -0.00     0.00  -0.01   0.00     0.00  -0.00   0.00
                    337                    338                    339
                        a                      a                      a 
 Frequencies --  3169.9556              3170.0246              3170.2000
 Red. masses --     1.9721                 1.9719                 1.9719
 Frc consts  --     0.0000                 0.0000                 0.0000
 IR Inten    --    32.5420                19.0850                79.2285
 Raman Activ --     0.0000                 0.0000                 0.0000
 Depolar     --     0.0000                 0.0000                 0.0000
 Atom AN      X      Y      Z        X      Y      Z        X      Y      Z
   1  28     0.00  -0.00   0.00     0.00  -0.00   0.00    -0.00   0.00  -0.00
   2   6    -0.00   0.02  -0.00    -0.01   0.15  -0.00     0.00  -0.05   0.00
   3   6    -0.02   0.00  -0.00    -0.21   0.01  -0.00     0.07  -0.00   0.00
   4   6    -0.00  -0.00   0.00    -0.00  -0.01   0.00     0.00   0.00  -0.00
   5   6    -0.00   0.00  -0.00    -0.00   0.00  -0.00     0.00  -0.00   0.00
   6   6    -0.00   0.00  -0.00    -0.00   0.00  -0.00     0.00  -0.00   0.00
   7   6    -0.01  -0.00   0.00    -0.08  -0.01   0.00     0.02   0.00  -0.00
   8   6    -0.00  -0.00  -0.00    -0.00  -0.06  -0.00     0.00   0.01   0.00
   9   6     0.00  -0.00   0.00     0.00  -0.00  -0.00    -0.00   0.00   0.00
  10   7     0.00  -0.00  -0.00     0.00   0.00  -0.00    -0.00  -0.00   0.00
  11   6    -0.00   0.00   0.00    -0.00  -0.00  -0.00    -0.00   0.00   0.00
  12   6     0.00   0.00   0.00     0.00   0.00   0.00     0.00   0.00   0.00
  13   6    -0.00   0.01   0.00    -0.00   0.00   0.00     0.00  -0.00  -0.00
  14   6    -0.01   0.00  -0.00    -0.00   0.00  -0.00     0.00  -0.00   0.00
  15   6    -0.00  -0.00  -0.00    -0.00  -0.00  -0.00     0.00   0.00   0.00
  16   7     0.00  -0.00   0.00     0.00  -0.00  -0.00    -0.00  -0.00  -0.00
  17   6    -0.00   0.00  -0.00     0.00   0.00  -0.00    -0.00  -0.00  -0.00
  18   6    -0.00   0.00  -0.00     0.00  -0.00  -0.00    -0.00   0.00   0.00
  19   6    -0.00  -0.00  -0.00     0.00   0.00   0.00    -0.00  -0.00  -0.00
  20   6    -0.00  -0.00   0.00     0.00   0.01  -0.00    -0.00  -0.00   0.00
  21   6     0.00  -0.00  -0.00    -0.00  -0.00  -0.00     0.00  -0.00   0.00
  22   7     0.00   0.00   0.00     0.00  -0.00   0.00    -0.00   0.00  -0.00
  23   6    -0.00   0.00  -0.00    -0.00   0.00  -0.00     0.00  -0.00   0.00
  24   6     0.00   0.00   0.00     0.01   0.00   0.00    -0.00  -0.00  -0.00
  25   7     0.00  -0.00   0.00     0.00  -0.00   0.00    -0.00   0.00  -0.00
  26   1     0.01  -0.05   0.00     0.05  -0.48   0.01    -0.02   0.15  -0.00
  27   1     0.07  -0.01   0.00     0.68  -0.07   0.01    -0.22   0.02  -0.00
  28   1     0.02   0.00  -0.00     0.26   0.03  -0.00    -0.05  -0.01   0.00
  29   1     0.00   0.01   0.00     0.02   0.19   0.00    -0.00  -0.04  -0.00
  30   1    -0.00  -0.00  -0.00    -0.00   0.01   0.00     0.00  -0.00  -0.00
  31   1     0.00  -0.02  -0.00     0.00  -0.01  -0.00    -0.00   0.00   0.00
  32   1     0.02  -0.00   0.00     0.01  -0.00   0.00    -0.00   0.00  -0.00
  33   1     0.00   0.00   0.00    -0.00   0.00  -0.00     0.00  -0.00   0.00
  34   1     0.01   0.00   0.00    -0.01  -0.00  -0.00     0.01   0.00   0.00
  35   1     0.00   0.01  -0.00    -0.00  -0.02  -0.00     0.00   0.01   0.00
  36   1    -0.00  -0.00  -0.00    -0.00  -0.01   0.00     0.00   0.00  -0.00
  37  28    -0.00   0.00   0.00    -0.00  -0.00   0.00    -0.00   0.00  -0.00
  38   6     0.00  -0.03  -0.01     0.00  -0.00  -0.00     0.00  -0.01  -0.00
  39   6     0.04  -0.00  -0.00     0.00  -0.00  -0.00     0.01  -0.00  -0.00
  40   6     0.00   0.00   0.00     0.00   0.00   0.00     0.00   0.00   0.00
  41   6     0.00  -0.00  -0.00    -0.00   0.00   0.00    -0.00  -0.00  -0.00
  42   6     0.00  -0.00  -0.00     0.00  -0.00  -0.00     0.00  -0.00  -0.00
  43   6     0.03   0.00   0.00     0.00   0.00   0.00     0.00   0.00   0.00
  44   6     0.00   0.02   0.00     0.00   0.00   0.00     0.00   0.00   0.00
  45   6    -0.00   0.00   0.00    -0.00   0.00   0.00    -0.00   0.00  -0.00
  46   7    -0.00  -0.00  -0.00    -0.00  -0.00  -0.00    -0.00  -0.00   0.00
  47   6    -0.00   0.00   0.00     0.00   0.00   0.00    -0.00   0.00   0.00
  48   6     0.00   0.00  -0.00     0.00   0.00   0.00     0.00   0.00   0.00
  49   6     0.00  -0.00  -0.00    -0.00   0.00   0.00    -0.00   0.00   0.00
  50   6     0.00  -0.00  -0.00    -0.00   0.00   0.00    -0.00   0.00   0.00
  51   6     0.00   0.00  -0.00    -0.00  -0.00  -0.00    -0.00  -0.00  -0.00
  52   7    -0.00  -0.00  -0.00     0.00  -0.00  -0.00     0.00  -0.00  -0.00
  53   6    -0.00  -0.00  -0.00    -0.00   0.00   0.00    -0.00  -0.00   0.00
  54   6     0.00   0.00   0.00    -0.00   0.00   0.00    -0.00   0.00   0.00
  55   6    -0.00   0.00  -0.00    -0.00  -0.00   0.00    -0.00  -0.00   0.00
  56   6    -0.00  -0.00  -0.00    -0.00  -0.00  -0.00    -0.00  -0.00  -0.00
  57   6     0.00  -0.00   0.00     0.00   0.00  -0.00     0.00  -0.00  -0.00
  58   7    -0.00   0.00   0.00     0.00  -0.00   0.00     0.00   0.00   0.00
  59   6     0.00  -0.00  -0.00     0.00  -0.00  -0.00     0.00  -0.00  -0.00
  60   6    -0.00  -0.00  -0.00    -0.00  -0.00   0.00    -0.00  -0.00  -0.00
  61   7    -0.00   0.00   0.00    -0.00   0.00  -0.00    -0.00   0.00   0.00
  62   1    -0.01   0.10   0.02    -0.00   0.00   0.00    -0.00   0.03   0.01
  63   1    -0.14   0.01   0.00    -0.00   0.00   0.00    -0.05   0.00   0.00
  64   1    -0.09  -0.01  -0.00    -0.01  -0.00  -0.00    -0.01  -0.00  -0.00
  65   1    -0.01  -0.07  -0.01    -0.00  -0.01  -0.00    -0.00  -0.01  -0.00
  66   1     0.00  -0.00  -0.00     0.00  -0.00  -0.00    -0.00  -0.00  -0.00
  67   1    -0.00   0.00   0.00     0.00  -0.00  -0.00     0.00  -0.01  -0.00
  68   1    -0.00   0.00   0.00     0.00  -0.00  -0.00     0.01  -0.00  -0.00
  69   1     0.00  -0.00  -0.00     0.00   0.00  -0.00     0.00   0.00  -0.00
  70   1    -0.00  -0.00   0.00     0.00   0.00   0.00     0.02   0.00   0.00
  71   1     0.00   0.00   0.00     0.00   0.00   0.00     0.00   0.02   0.00
  72   1     0.00   0.00   0.00    -0.00   0.00   0.00     0.00   0.00   0.00
  73   6    -0.00   0.00  -0.00    -0.00   0.00  -0.00     0.00  -0.00   0.00
  74   6     0.00  -0.00   0.00    -0.00  -0.00   0.00    -0.00   0.00  -0.00
  75   6    -0.00  -0.00   0.00     0.00  -0.00   0.00     0.00   0.00  -0.00
  76   6     0.00   0.00  -0.00    -0.00   0.00  -0.00     0.00  -0.00   0.00
  77   6     0.00  -0.00   0.00     0.00   0.00  -0.00     0.00  -0.00   0.00
  78   6     0.00   0.00   0.00    -0.00  -0.00   0.00    -0.00   0.00  -0.00
  79   6    -0.00   0.00   0.00     0.00  -0.00  -0.00    -0.00   0.00   0.00
  80   6     0.00  -0.00  -0.00    -0.00   0.00   0.00     0.00  -0.00  -0.00
  81  28    -0.00   0.00  -0.00    -0.00  -0.00   0.00    -0.00   0.00  -0.00
  82   6    -0.00  -0.01   0.00     0.00   0.05  -0.00     0.00   0.08  -0.01
  83   6    -0.01  -0.00   0.00     0.07   0.00  -0.00     0.11   0.01  -0.00
  84   6    -0.00   0.00  -0.00     0.00  -0.00   0.00     0.00  -0.00   0.00
  85   6    -0.00   0.00  -0.00     0.00   0.00  -0.00     0.00  -0.00   0.00
  86   6    -0.00  -0.00   0.00     0.00   0.00  -0.00     0.00   0.01  -0.00
  87   6    -0.03   0.00   0.00     0.04  -0.00  -0.00     0.20  -0.02  -0.00
  88   6    -0.00   0.02  -0.00     0.00  -0.03   0.00     0.01  -0.14   0.01
  89   6     0.00   0.00   0.00    -0.00  -0.00   0.00    -0.01  -0.00   0.00
  90   7     0.00  -0.00   0.00    -0.00   0.00  -0.00    -0.00   0.00  -0.00
  91   6     0.00   0.00  -0.00     0.00  -0.00   0.00     0.00  -0.00   0.00
  92   6    -0.00   0.00  -0.00     0.00   0.00  -0.00    -0.00   0.00  -0.00
  93   6     0.01   0.11  -0.01    -0.00  -0.00   0.00     0.00   0.01  -0.00
  94   6     0.16   0.01  -0.00    -0.00  -0.00   0.00     0.01   0.00  -0.00
  95   6     0.00  -0.01   0.00    -0.00   0.00  -0.00     0.00  -0.00   0.00
  96   7    -0.00  -0.00   0.00     0.00   0.00   0.00    -0.00   0.00  -0.00
  97   6     0.00  -0.00   0.00    -0.00   0.00  -0.00     0.00  -0.00   0.00
  98   6     0.00   0.01  -0.00    -0.00  -0.00   0.00     0.00   0.00  -0.00
  99   6     0.16  -0.01   0.00    -0.01   0.00  -0.00     0.04  -0.00   0.00
 100   6     0.00  -0.12   0.01    -0.00   0.01  -0.00     0.00  -0.03   0.00
 101   6    -0.00  -0.00   0.00     0.00  -0.00   0.00    -0.00  -0.00   0.00
 102   7    -0.00   0.00  -0.00     0.00  -0.00   0.00    -0.00   0.00  -0.00
 103   6     0.00  -0.00   0.00     0.00   0.00  -0.00     0.00   0.00  -0.00
 104   6     0.00   0.00  -0.00    -0.00   0.00  -0.00    -0.00   0.00  -0.00
 105   7     0.00   0.00  -0.00    -0.00  -0.00   0.00    -0.00  -0.00   0.00
 106   1     0.00   0.04  -0.00    -0.02  -0.15   0.02    -0.03  -0.24   0.02
 107   1     0.05   0.00  -0.00    -0.22  -0.02   0.00    -0.35  -0.04   0.00
 108   1     0.10  -0.01   0.00    -0.14   0.02  -0.00    -0.64   0.07  -0.00
 109   1     0.01  -0.07   0.01    -0.01   0.10  -0.01    -0.04   0.45  -0.05
 110   1     0.00  -0.01   0.00     0.00   0.00  -0.00     0.00   0.01  -0.00
 111   1    -0.04  -0.36   0.04     0.00   0.01  -0.00    -0.00  -0.02   0.00
 112   1    -0.52  -0.05   0.01     0.01   0.00  -0.00    -0.04  -0.00   0.00
 113   1    -0.54   0.06  -0.01     0.05  -0.01   0.00    -0.13   0.02  -0.00
 114   1    -0.04   0.38  -0.04     0.00  -0.04   0.00    -0.01   0.09  -0.01
 115   1     0.00   0.01  -0.00     0.00  -0.00   0.00     0.00  -0.00   0.00
