      -----------------------------------------------------------      
     |                   =====================                   |     
     |                           x T B                           |     
     |                   =====================                   |     
     |                         S. Grimme                         |     
     |          Mulliken Center for Theoretical Chemistry        |     
     |                    University of Bonn                     |     
      -----------------------------------------------------------      

   * xtb version 6.4.1 (bd6e46d) compiled by 'conda@4901f00b25ba' on 2021-06-10

   xtb is free software: you can redistribute it and/or modify it under
   the terms of the GNU Lesser General Public License as published by
   the Free Software Foundation, either version 3 of the License, or
   (at your option) any later version.
   
   xtb is distributed in the hope that it will be useful,
   but WITHOUT ANY WARRANTY; without even the implied warranty of
   MERCHANTABILITY or FITNESS FOR A PARTICULAR PURPOSE.  See the
   GNU Lesser General Public License for more details.
   
   Cite this work as:
   * C. Bannwarth, E. Caldeweyher, S. Ehlert, A. Hansen, P. Pracht,
     J. Seibert, S. Spicher, S. Grimme, WIREs Comput. Mol. Sci., 2020, 11,
     e01493. DOI: 10.1002/wcms.1493
   
   for GFN2-xTB:
   * C. Bannwarth, S. Ehlert and S. Grimme., J. Chem. Theory Comput., 2019,
     15, 1652-1671. DOI: 10.1021/acs.jctc.8b01176
   for GFN1-xTB:
   * S. Grimme, C. Bannwarth, P. Shushkov, J. Chem. Theory Comput., 2017,
     13, 1989-2009. DOI: 10.1021/acs.jctc.7b00118
   for GFN0-xTB:
   * P. Pracht, E. Caldeweyher, S. Ehlert, S. Grimme, ChemRxiv, 2019, preprint.
     DOI: 10.26434/chemrxiv.8326202.v1
   for GFN-FF:
   * S. Spicher and S. Grimme, Angew. Chem. Int. Ed., 2020, 59, 15665-15673.
     DOI: 10.1002/anie.202004239
   
   for DFT-D4:
   * E. Caldeweyher, C. Bannwarth and S. Grimme, J. Chem. Phys., 2017,
     147, 034112. DOI: 10.1063/1.4993215
   * E. Caldeweyher, S. Ehlert, A. Hansen, H. Neugebauer, S. Spicher,
     C. Bannwarth and S. Grimme, J. Chem. Phys., 2019, 150, 154122.
     DOI: 10.1063/1.5090222
   * E. Caldeweyher, J.-M. Mewes, S. Ehlert and S. Grimme, Phys. Chem. Chem. Phys.
     2020, 22, 8499-8512. DOI: 10.1039/D0CP00502A
   
   for sTDA-xTB:
   * S. Grimme and C. Bannwarth, J. Chem. Phys., 2016, 145, 054103.
     DOI: 10.1063/1.4959605
   
   in the mass-spec context:
   * V. Asgeirsson, C. Bauer and S. Grimme, Chem. Sci., 2017, 8, 4879.
     DOI: 10.1039/c7sc00601b
   * J. Koopman and S. Grimme, ACS Omega 2019, 4, 12, 15120-15133.
     DOI: 10.1021/acsomega.9b02011
   
   for metadynamics refer to:
   * S. Grimme, J. Chem. Theory Comput., 2019, 155, 2847-2862
     DOI: 10.1021/acs.jctc.9b00143
   
   for SPH calculations refer to:
   * S. Spicher and S. Grimme, J. Chem. Theory Comput., 2021, 17, 1701-1714
     DOI: 10.1021/acs.jctc.0c01306
   
   with help from (in alphabetical order)
   P. Atkinson, C. Bannwarth, F. Bohle, G. Brandenburg, E. Caldeweyher
   M. Checinski, S. Dohm, S. Ehlert, S. Ehrlich, I. Gerasimov, J. Koopman
   C. Lavigne, S. Lehtola, F. März, M. Müller, F. Musil, H. Neugebauer
   J. Pisarek, C. Plett, P. Pracht, J. Seibert, P. Shushkov, S. Spicher
   M. Stahn, M. Steiner, T. Strunk, J. Stückrath, T. Rose, and J. Unsleber
   
 * started run on 2021/11/19 at 11:22:46.810     

           -------------------------------------------------
          |                Calculation Setup                |
           -------------------------------------------------

          program call               : /home/jeff/miniconda3/bin/xtb input_structure_1.xyz --gfn 2 --ohess normal --parallel 1 --etemp 300 --chrg 0 --uhf 0 -I det_control.in
          hostname                   : jelfscompute1
          coordinate file            : input_structure_1.xyz
          omp threads                :                     1
          number of atoms            :                   115
          number of electrons        :                   394
          charge                     :                     0
          spin                       :                   0.0
          first test random number   :      0.68080533851768

   ID    Z sym.   atoms
    1   28 Ni     1, 37, 81
    2    6 C      2-9, 11-15, 17-21, 23, 24, 38-45, 47-51, 53-57, 59, 60,
                  73-80, 82-89, 91-95, 97-101, 103, 104
    3    7 N      10, 16, 22, 25, 46, 52, 58, 61, 90, 96, 102, 105
    4    1 H      26-36, 62-72, 106-115

molecular fragmentation (1/2 indicates fragments):
111111111111111111111111111111111111222222222222222222222222222222222222
2222222222222222222222222222222222222222222
# atoms in fragment 1/2:    36    79
 fragment masses (1/2) :      366.02      827.12
CMA distance (Bohr)    :  40.753
constraining FC (au)   :  0.0500

           -------------------------------------------------
          |                 G F N 2 - x T B                 |
           -------------------------------------------------

        Reference                      10.1021/acs.jctc.8b01176
      * Hamiltonian:
        H0-scaling (s, p, d)           1.850000    2.230000    2.230000
        zeta-weighting                 0.500000
      * Dispersion:
        s8                             2.700000
        a1                             0.520000
        a2                             5.000000
        s9                             5.000000
      * Repulsion:
        kExp                           1.500000    1.000000
        rExp                           1.000000
      * Coulomb:
        alpha                          2.000000
        third order                    shell-resolved
        anisotropic                    true
        a3                             3.000000
        a5                             4.000000
        cn-shift                       1.200000
        cn-exp                         4.000000
        max-rad                        5.000000


          ...................................................
          :                      SETUP                      :
          :.................................................:
          :  # basis functions                 382          :
          :  # atomic orbitals                 379          :
          :  # shells                          201          :
          :  # electrons                       394          :
          :  max. iterations                   250          :
          :  Hamiltonian                  GFN2-xTB          :
          :  restarted?                      false          :
          :  GBSA solvation                  false          :
          :  PC potential                    false          :
          :  electronic temp.          300.0000000     K    :
          :  accuracy                    1.0000000          :
          :  -> integral cutoff          0.2500000E+02      :
          :  -> integral neglect         0.1000000E-07      :
          :  -> SCF convergence          0.1000000E-05 Eh   :
          :  -> wf. convergence          0.1000000E-03 e    :
          :  Broyden damping             0.4000000          :
          ...................................................

 iter      E             dE          RMSdq      gap      omega  full diag
   1   -213.4341391 -0.213434E+03  0.893E+00    0.75       0.0  T
   2   -200.6135221  0.128206E+02  0.919E+00    0.02       1.0  T
   3   -155.7836671  0.448299E+02  0.136E+01    0.19       1.0  T
   4   -195.7382406 -0.399546E+02  0.735E+00    0.04       1.0  T
   5   -138.9692080  0.567690E+02  0.972E+00    0.16       1.0  T
   6    -54.1539107  0.848153E+02  0.129E+01    0.04       1.0  T
   7   -210.2278440 -0.156074E+03  0.491E+00    0.09       1.0  T
   8   -209.9927810  0.235063E+00  0.380E+00    0.08       1.0  T
   9   -211.2054087 -0.121263E+01  0.340E+00    0.04       1.0  T
  10   -213.1550413 -0.194963E+01  0.284E+00    0.01       1.0  T
  11   -212.7698562  0.385185E+00  0.275E+00    0.18       1.0  T
  12   -213.8787348 -0.110888E+01  0.223E+00    0.25       1.0  T
  13   -213.8669740  0.117608E-01  0.220E+00    0.17       1.0  T
  14   -213.9145118 -0.475378E-01  0.209E+00    0.22       1.0  T
  15   -213.9072906  0.722115E-02  0.187E+00    0.07       1.0  T
  16   -214.0040353 -0.967447E-01  0.173E+00    0.21       1.0  T
  17   -213.9970940  0.694127E-02  0.169E+00    0.15       1.0  T
  18   -214.0336148 -0.365207E-01  0.141E+00    0.22       1.0  T
  19   -214.0824390 -0.488242E-01  0.107E+00    0.15       1.0  T
  20   -214.0737681  0.867088E-02  0.103E+00    0.08       1.0  T
  21   -214.0947599 -0.209918E-01  0.964E-01    0.09       1.0  T
  22   -214.1311161 -0.363562E-01  0.723E-01    0.09       1.0  T
  23   -214.1560788 -0.249627E-01  0.637E-01    0.17       1.0  T
  24   -213.3087177  0.847361E+00  0.270E+00    0.10       1.0  T
  25   -212.2997065  0.100901E+01  0.397E+00    0.01       1.0  T
  26   -210.9157214  0.138399E+01  0.509E+00    0.02       1.0  T
  27   -210.5978173  0.317904E+00  0.531E+00    0.00       1.0  T
  28   -209.9535923  0.644225E+00  0.574E+00    0.03       1.0  T
  29   -208.9095623  0.104403E+01  0.635E+00    0.09       1.0  T
  30   -209.3335014 -0.423939E+00  0.611E+00    0.06       1.0  T
  31   -209.1181938  0.215308E+00  0.623E+00    0.08       1.0  T
  32   -209.1112692  0.692462E-02  0.623E+00    0.08       1.0  T
  33   -209.0507108  0.605584E-01  0.628E+00    0.08       1.0  T
  34   -209.1477043 -0.969935E-01  0.622E+00    0.07       1.0  T
  35   -209.1492646 -0.156021E-02  0.622E+00    0.07       1.0  T
  36   -208.5987529  0.550512E+00  0.655E+00    0.09       1.0  T
  37   -208.5809200  0.178328E-01  0.656E+00    0.10       1.0  T
  38   -209.2747663 -0.693846E+00  0.613E+00    0.07       1.0  T
  39   -211.2447696 -0.197000E+01  0.481E+00    0.02       1.0  T
  40   -213.3519349 -0.210717E+01  0.240E+00    0.09       1.0  T
  41   -213.5512176 -0.199283E+00  0.203E+00    0.09       1.0  T
  42   -213.8329133 -0.281696E+00  0.132E+00    0.03       1.0  T
  43   -213.8318448  0.106843E-02  0.132E+00    0.03       1.0  T
  44   -213.8080934  0.237515E-01  0.138E+00    0.03       1.0  T
  45   -213.6076251  0.200468E+00  0.190E+00    0.08       1.0  T
  46   -213.3979117  0.209713E+00  0.228E+00    0.09       1.0  T
  47   -213.6228837 -0.224972E+00  0.188E+00    0.08       1.0  T
  48   -213.7149843 -0.921005E-01  0.171E+00    0.06       1.0  T
  49   -213.7724749 -0.574906E-01  0.158E+00    0.05       1.0  T
  50   -213.4896776  0.282797E+00  0.212E+00    0.10       1.0  T
  51   -213.4673040  0.223736E-01  0.216E+00    0.10       1.0  T
  52   -213.4420696  0.252344E-01  0.220E+00    0.10       1.0  T
  53   -213.4442129 -0.214329E-02  0.218E+00    0.10       1.0  T
  54   -213.6615168 -0.217304E+00  0.188E+00    0.07       1.0  T
  55   -213.7540853 -0.925684E-01  0.163E+00    0.05       1.0  T
  56   -213.6450750  0.109010E+00  0.185E+00    0.07       1.0  T
  57   -213.6625454 -0.174704E-01  0.183E+00    0.06       1.0  T
  58   -213.6622340  0.311382E-03  0.184E+00    0.07       1.0  T
  59   -213.6645507 -0.231672E-02  0.184E+00    0.07       1.0  T
  60   -213.7065193 -0.419686E-01  0.173E+00    0.06       1.0  T
  61   -213.6312495  0.752698E-01  0.188E+00    0.07       1.0  T
  62   -213.0666592  0.564590E+00  0.291E+00    0.02       1.0  T
  63   -212.7531903  0.313469E+00  0.327E+00    0.01       1.0  T
  64   -212.8581683 -0.104978E+00  0.314E+00    0.00       1.0  T
  65   -212.8227380  0.354303E-01  0.317E+00    0.00       1.0  T
  66   -212.9118365 -0.890985E-01  0.308E+00    0.00       1.0  T
  67   -213.4843534 -0.572517E+00  0.207E+00    0.08       1.0  T
  68   -213.4544564  0.298969E-01  0.207E+00    0.09       1.0  T
  69   -213.6185128 -0.164056E+00  0.180E+00    0.06       1.0  T
  70   -213.8149690 -0.196456E+00  0.146E+00    0.02       1.0  T
  71   -213.6280023  0.186967E+00  0.212E+00    0.01       1.0  T
  72   -213.8784728 -0.250471E+00  0.136E+00    0.03       1.0  T
  73   -214.1308067 -0.252334E+00  0.527E-01    0.06       1.0  T
  74   -214.1475564 -0.167497E-01  0.449E-01    0.05       1.0  T
  75   -214.1488707 -0.131425E-02  0.479E-01    0.04       1.0  T
  76   -214.1840889 -0.352182E-01  0.256E-01    0.07       1.0  T
  77   -214.1893596 -0.527066E-02  0.222E-01    0.08       1.0  T
  78   -214.1859593  0.340029E-02  0.266E-01    0.07       1.0  T
  79   -214.1295772  0.563821E-01  0.655E-01    0.03       1.0  T
  80   -214.1863371 -0.567600E-01  0.265E-01    0.07       1.0  T
  81   -214.1797092  0.662799E-02  0.343E-01    0.06       1.0  T
  82   -214.1825289 -0.281977E-02  0.315E-01    0.06       1.0  T
  83   -214.1965661 -0.140372E-01  0.111E-01    0.09       1.0  T
  84   -214.1951309  0.143521E-02  0.141E-01    0.09       1.0  T
  85   -214.1979717 -0.284082E-02  0.621E-02    0.10       1.0  T
  86   -214.1980430 -0.712305E-04  0.765E-02    0.11       1.0  T
  87   -214.1977216  0.321402E-03  0.902E-02    0.11       1.0  T
  88   -214.1974800  0.241579E-03  0.957E-02    0.11       1.0  T
  89   -214.1973795  0.100460E-03  0.919E-02    0.11       1.0  T
  90   -214.1974181 -0.385651E-04  0.808E-02    0.11       1.0  T
  91   -214.1977192 -0.301072E-03  0.599E-02    0.11       1.0  T
  92   -214.1979369 -0.217740E-03  0.462E-02    0.11       1.0  T
  93   -214.1977500  0.186909E-03  0.517E-02    0.11       1.0  T
  94   -214.1978767 -0.126694E-03  0.456E-02    0.11       1.0  T
  95   -214.1980407 -0.164037E-03  0.343E-02    0.11       1.0  T
  96   -214.1983136 -0.272910E-03  0.162E-02    0.11       1.0  T
  97   -214.1983515 -0.378805E-04  0.134E-02    0.11       1.0  T
  98   -214.1983589 -0.737613E-05  0.127E-02    0.11       1.0  T
  99   -214.1983702 -0.113413E-04  0.123E-02    0.11       1.0  T
 100   -214.1983710 -0.797117E-06  0.119E-02    0.11       1.0  T
 101   -214.1983658  0.525253E-05  0.132E-02    0.11       1.0  T
 102   -214.1983622  0.361419E-05  0.120E-02    0.11       1.0  T
 103   -214.1983619  0.272739E-06  0.108E-02    0.11       1.0  T
 104   -214.1983633 -0.137915E-05  0.965E-03    0.11       1.0  T
 105   -214.1983761 -0.127846E-04  0.573E-03    0.11       1.6  T
 106   -214.1983801 -0.409787E-05  0.290E-03    0.11       3.2  T
 107   -214.1983793  0.838989E-06  0.306E-03    0.11       3.1  T
 108   -214.1983770  0.235835E-05  0.443E-03    0.11       2.1  T
 109   -214.1983788 -0.184953E-05  0.348E-03    0.11       2.7  T
 110   -214.1983808 -0.204040E-05  0.171E-03    0.11       5.5  T
 111   -214.1983808  0.686076E-07  0.181E-03    0.11       5.2  T
 112   -214.1983812 -0.435490E-06  0.854E-04    0.11      10.9  T
 113   -214.1983813 -0.806765E-07  0.447E-04    0.11      20.9  T

   *** convergence criteria satisfied after 113 iterations ***

         #    Occupation            Energy/Eh            Energy/eV
      -------------------------------------------------------------
         1        2.0000           -0.6889707             -18.7478
       ...           ...                  ...                  ...
       191        2.0000           -0.3575449              -9.7293
       192        2.0000           -0.3568344              -9.7100
       193        2.0000           -0.3567961              -9.7089
       194        1.9988           -0.3508416              -9.5469
       195        1.9959           -0.3496442              -9.5143
       196        1.9923           -0.3490510              -9.4982
       197        1.7182           -0.3454907              -9.4013 (HOMO)
       198        0.1550           -0.3414200              -9.2905 (LUMO)
       199        0.1399           -0.3413150              -9.2877
       200        0.0000           -0.3308918              -9.0040
       201        0.0000           -0.3308671              -9.0034
       202                         -0.3203141              -8.7162
       ...                                ...                  ...
       379                          1.5668946              42.6374
      -------------------------------------------------------------
                  HL-Gap            0.0040707 Eh            0.1108 eV
             Fermi-level           -0.3437733 Eh           -9.3545 eV

 SCC (total)                   0 d,  0 h,  0 min,  3.518 sec
 SCC setup                      ...        0 min,  0.002 sec (  0.071%)
 Dispersion                     ...        0 min,  0.005 sec (  0.147%)
 classical contributions        ...        0 min,  0.001 sec (  0.021%)
 integral evaluation            ...        0 min,  0.048 sec (  1.367%)
 iterations                     ...        0 min,  3.317 sec ( 94.279%)
 molecular gradient             ...        0 min,  0.141 sec (  4.021%)
 printout                       ...        0 min,  0.003 sec (  0.094%)

         :::::::::::::::::::::::::::::::::::::::::::::::::::::
         ::                     SUMMARY                     ::
         :::::::::::::::::::::::::::::::::::::::::::::::::::::
         :: total energy            -210.489446272196 Eh    ::
         :: gradient norm              0.633598178964 Eh/a0 ::
         :: HOMO-LUMO gap              0.110768322242 eV    ::
         ::.................................................::
         :: SCC energy              -214.198381288778 Eh    ::
         :: -> isotropic ES            0.104088387031 Eh    ::
         :: -> anisotropic ES          0.016666806174 Eh    ::
         :: -> anisotropic XC          0.105077448247 Eh    ::
         :: -> dispersion             -0.175306530986 Eh    ::
         :: repulsion energy           3.708424227483 Eh    ::
         :: add. restraining           0.000000000000 Eh    ::
         :: total charge              -0.000000000000 e     ::
         :::::::::::::::::::::::::::::::::::::::::::::::::::::

      ----------------------------------------------------------- 
     |                   =====================                   |
     |                        A N C O P T                        |
     |                   =====================                   |
     |               Approximate Normal Coordinate               |
     |                Rational Function Optimizer                |
      ----------------------------------------------------------- 

          ...................................................
          :                      SETUP                      :
          :.................................................:
          :   optimization level            normal          :
          :   max. optcycles                   345          :
          :   ANC micro-cycles                  20          :
          :   degrees of freedom               339          :
          :.................................................:
          :   RF solver                   davidson          :
          :   write xtbopt.log                true          :
          :   linear?                        false          :
          :   energy convergence         0.5000000E-05 Eh   :
          :   grad. convergence          0.1000000E-02 Eh/α :
          :   maximium RF displ.         1.0000000          :
          :   Hlow (freq-cutoff)         0.1000000E-01      :
          :   Hmax (freq-cutoff)         5.0000000          :
          :   S6 in model hess.         20.0000000          :
          ...................................................

generating ANC from model Hessian ...
Using Lindh-Hessian (1995)
 Shifting diagonal of input Hessian by    1.0125410391572559E-002
 Lowest  eigenvalues of input Hessian
    0.010000    0.010040    0.010095    0.010104    0.010105    0.010111
    0.010116    0.010118    0.000000    0.000000    0.000000    0.000000
    0.000000    0.000000    0.010136    0.010139    0.010144    0.010158
 Highest eigenvalues
    2.203998    2.204000    2.239930    2.250064    2.785521    2.844619


........................................................................
.............................. CYCLE    1 ..............................
........................................................................
   1   -214.1983813 -0.214198E+03  0.352E-04    0.11       0.0  T
   2   -214.1983753  0.601698E-05  0.691E-03    0.11       1.4  T
   3   -214.1983811 -0.585778E-05  0.914E-04    0.11      10.2  T
   4   -214.1983812 -0.548781E-07  0.102E-03    0.11       9.1  T
   5   -214.1983812  0.108243E-07  0.101E-03    0.11       9.2  T
   6   -214.1983812 -0.532439E-07  0.835E-04    0.11      11.2  T
   7   -214.1983813 -0.743283E-07  0.270E-04    0.11      34.5  T
     SCC iter.                  ...        0 min,  0.206 sec
     gradient                   ...        0 min,  0.142 sec
 * total energy  :  -210.4894463 Eh     change       -0.2597960E-07 Eh
   gradient norm :     0.6335983 Eh/α   predicted     0.0000000E+00 (-100.00%)
   displ. norm   :     0.5648608 α      lambda       -0.2643419E+00
   maximum displ.:     0.1727338 α      in ANC's #117, #116, #118, ...

........................................................................
.............................. CYCLE    2 ..............................
........................................................................
   1   -214.1862717 -0.214186E+03  0.485E-01    0.09       0.0  T
   2   -213.9264517  0.259820E+00  0.117E+00    0.44       1.0  T
   3   -214.0593068 -0.132855E+00  0.940E-01    0.20       1.0  T
   4   -213.0375544  0.102175E+01  0.308E+00    0.01       1.0  T
   5   -214.1815435 -0.114399E+01  0.476E-01    0.21       1.0  T
   6   -214.1304763  0.510672E-01  0.692E-01    0.25       1.0  T
   7   -214.1775003 -0.470240E-01  0.484E-01    0.26       1.0  T
   8   -214.1823732 -0.487294E-02  0.441E-01    0.23       1.0  T
   9   -214.1864961 -0.412294E-02  0.424E-01    0.25       1.0  T
  10   -214.1876314 -0.113525E-02  0.412E-01    0.22       1.0  T
  11   -214.1871027  0.528727E-03  0.409E-01    0.24       1.0  T
  12   -214.1893805 -0.227780E-02  0.393E-01    0.22       1.0  T
  13   -214.1899922 -0.611749E-03  0.376E-01    0.21       1.0  T
  14   -214.1936999 -0.370764E-02  0.332E-01    0.19       1.0  T
  15   -214.1956931 -0.199328E-02  0.303E-01    0.18       1.0  T
  16   -214.1970284 -0.133526E-02  0.283E-01    0.17       1.0  T
  17   -214.1992033 -0.217490E-02  0.246E-01    0.16       1.0  T
  18   -214.2015165 -0.231317E-02  0.198E-01    0.15       1.0  T
  19   -214.2040839 -0.256744E-02  0.130E-01    0.13       1.0  T
  20   -214.2045916 -0.507737E-03  0.112E-01    0.13       1.0  T
  21   -214.2051125 -0.520875E-03  0.899E-02    0.13       1.0  T
  22   -214.2050026  0.109884E-03  0.995E-02    0.13       1.0  T
  23   -214.2050781 -0.754473E-04  0.980E-02    0.10       1.0  T
  24   -214.2059089 -0.830864E-03  0.409E-02    0.12       1.0  T
  25   -214.2058160  0.929539E-04  0.488E-02    0.11       1.0  T
  26   -214.2060619 -0.245876E-03  0.568E-03    0.11       1.6  T
  27   -214.2060550  0.690240E-05  0.101E-02    0.11       1.0  T
  28   -214.2060649 -0.992284E-05  0.326E-03    0.11       2.9  T
  29   -214.2060661 -0.123333E-05  0.520E-04    0.11      17.9  T
  30   -214.2060660  0.957212E-07  0.108E-03    0.11       8.6  T
  31   -214.2060660  0.560659E-07  0.133E-03    0.11       7.0  T
  32   -214.2060661 -0.167483E-06  0.200E-04    0.11      46.7  T
  33   -214.2060661 -0.311564E-08  0.965E-05    0.11      96.6  T
     SCC iter.                  ...        0 min,  0.954 sec
     gradient                   ...        0 min,  0.141 sec
 * total energy  :  -210.6976345 Eh     change       -0.2081882E+00 Eh
   gradient norm :     0.3384319 Eh/α   predicted    -0.1744257E+00 ( -16.22%)
   displ. norm   :     0.6639539 α      lambda       -0.1673486E+00
   maximum displ.:     0.2292657 α      in ANC's #117, #116, #118, ...

........................................................................
.............................. CYCLE    3 ..............................
........................................................................
   1   -214.2354933 -0.214235E+03  0.558E-01    0.08       0.0  T
   2   -213.6590962  0.576397E+00  0.164E+00    0.47       1.0  T
   3   -214.0732109 -0.414115E+00  0.109E+00    0.34       1.0  T
   4   -213.6994672  0.373744E+00  0.204E+00    0.01       1.0  T
   5   -214.2264123 -0.526945E+00  0.570E-01    0.24       1.0  T
   6   -214.2209546  0.545773E-02  0.555E-01    0.24       1.0  T
   7   -214.2126974  0.825726E-02  0.593E-01    0.25       1.0  T
   8   -214.2445552 -0.318579E-01  0.435E-01    0.22       1.0  T
   9   -214.2422285  0.232678E-02  0.434E-01    0.24       1.0  T
  10   -214.2463972 -0.416874E-02  0.412E-01    0.20       1.0  T
  11   -214.2462671  0.130065E-03  0.405E-01    0.22       1.0  T
  12   -214.2464320 -0.164853E-03  0.397E-01    0.19       1.0  T
  13   -214.2495704 -0.313840E-02  0.367E-01    0.19       1.0  T
  14   -214.2505643 -0.993907E-03  0.352E-01    0.18       1.0  T
  15   -214.2522452 -0.168095E-02  0.330E-01    0.17       1.0  T
  16   -214.2531013 -0.856061E-03  0.316E-01    0.17       1.0  T
  17   -214.2559876 -0.288633E-02  0.273E-01    0.16       1.0  T
  18   -214.2597718 -0.378418E-02  0.189E-01    0.14       1.0  T
  19   -214.2623306 -0.255878E-02  0.116E-01    0.12       1.0  T
  20   -214.2631896 -0.858980E-03  0.830E-02    0.12       1.0  T
  21   -214.2633541 -0.164548E-03  0.750E-02    0.12       1.0  T
  22   -214.2635499 -0.195803E-03  0.573E-02    0.12       1.0  T
  23   -214.2632949  0.254976E-03  0.937E-02    0.12       1.0  T
  24   -214.2636108 -0.315831E-03  0.632E-02    0.10       1.0  T
  25   -214.2636708 -0.600547E-04  0.568E-02    0.12       1.0  T
  26   -214.2639180 -0.247135E-03  0.195E-02    0.11       1.0  T
  27   -214.2639452 -0.272163E-04  0.833E-03    0.11       1.1  T
  28   -214.2639500 -0.482604E-05  0.222E-03    0.11       4.2  T
  29   -214.2639503 -0.314431E-06  0.106E-03    0.11       8.8  T
  30   -214.2639502  0.168722E-06  0.187E-03    0.11       5.0  T
  31   -214.2639505 -0.318422E-06  0.170E-04    0.11      54.7  T
  32   -214.2639505  0.512460E-08  0.301E-04    0.11      30.9  T
     SCC iter.                  ...        0 min,  0.928 sec
     gradient                   ...        0 min,  0.142 sec
 * total energy  :  -210.8229682 Eh     change       -0.1253338E+00 Eh
   gradient norm :     0.1375286 Eh/α   predicted    -0.1205609E+00 (  -3.81%)
   displ. norm   :     0.7257847 α      lambda       -0.8454251E-01
   maximum displ.:     0.2434713 α      in ANC's #117, #116, #61, ...

........................................................................
.............................. CYCLE    4 ..............................
........................................................................
   1   -214.3154465 -0.214315E+03  0.502E-01    0.08       0.0  T
   2   -213.8953465  0.420100E+00  0.139E+00    0.35       1.0  T
   3   -214.1661941 -0.270848E+00  0.100E+00    0.31       1.0  T
   4   -214.1077660  0.584281E-01  0.907E-01    0.01       1.0  T
   5   -214.2839946 -0.176229E+00  0.565E-01    0.29       1.0  T
   6   -214.2867555 -0.276086E-02  0.532E-01    0.32       1.0  T
   7   -214.2719939  0.147616E-01  0.549E-01    0.19       1.0  T
   8   -214.3010298 -0.290359E-01  0.445E-01    0.17       1.0  T
   9   -214.3104845 -0.945476E-02  0.358E-01    0.26       1.0  T
  10   -214.3207208 -0.102363E-01  0.286E-01    0.18       1.0  T
  11   -214.3207257 -0.488247E-05  0.284E-01    0.18       1.0  T
  12   -214.3212980 -0.572241E-03  0.278E-01    0.18       1.0  T
  13   -214.3333219 -0.120239E-01  0.158E-01    0.13       1.0  T
  14   -214.3349134 -0.159154E-02  0.120E-01    0.11       1.0  T
  15   -214.3331437  0.176977E-02  0.127E-01    0.10       1.0  T
  16   -214.3338010 -0.657370E-03  0.122E-01    0.13       1.0  T
  17   -214.3357960 -0.199495E-02  0.669E-02    0.11       1.0  T
  18   -214.3363809 -0.584919E-03  0.363E-02    0.11       1.0  T
  19   -214.3367337 -0.352796E-03  0.115E-02    0.10       1.0  T
  20   -214.3367551 -0.213793E-04  0.878E-03    0.10       1.1  T
  21   -214.3367514  0.372992E-05  0.798E-03    0.10       1.2  T
  22   -214.3367765 -0.251424E-04  0.318E-03    0.10       2.9  T
  23   -214.3367740  0.246524E-05  0.279E-03    0.10       3.3  T
  24   -214.3367716  0.241337E-05  0.381E-03    0.10       2.5  T
  25   -214.3367773 -0.565922E-05  0.136E-03    0.10       6.9  T
  26   -214.3367774 -0.735956E-07  0.706E-04    0.10      13.2  T
  27   -214.3367775 -0.121311E-06  0.379E-04    0.10      24.6  T
     SCC iter.                  ...        0 min,  0.782 sec
     gradient                   ...        0 min,  0.142 sec
 * total energy  :  -210.8910849 Eh     change       -0.6811668E-01 Eh
   gradient norm :     0.0855749 Eh/α   predicted    -0.6453833E-01 (  -5.25%)
   displ. norm   :     0.7702213 α      lambda       -0.5672220E-01
   maximum displ.:     0.2494072 α      in ANC's #61, #62, #117, ...

........................................................................
.............................. CYCLE    5 ..............................
........................................................................
   1   -214.3889699 -0.214389E+03  0.424E-01    0.09       0.0  T
   2   -214.3147171  0.742528E-01  0.625E-01    0.18       1.0  T
   3   -214.2736102  0.411069E-01  0.831E-01    0.16       1.0  T
   4   -213.7034953  0.570115E+00  0.180E+00    0.01       1.0  T
   5   -214.3833335 -0.679838E+00  0.309E-01    0.15       1.0  T
   6   -214.3818700  0.146355E-02  0.306E-01    0.17       1.0  T
   7   -214.3760779  0.579208E-02  0.336E-01    0.13       1.0  T
   8   -214.3875455 -0.114676E-01  0.240E-01    0.15       1.0  T
   9   -214.3899925 -0.244692E-02  0.216E-01    0.16       1.0  T
  10   -214.3911292 -0.113670E-02  0.203E-01    0.12       1.0  T
  11   -214.3909506  0.178597E-03  0.205E-01    0.14       1.0  T
  12   -214.3920474 -0.109684E-02  0.188E-01    0.13       1.0  T
  13   -214.3933829 -0.133545E-02  0.169E-01    0.12       1.0  T
  14   -214.3934395 -0.566204E-04  0.168E-01    0.12       1.0  T
  15   -214.3935340 -0.944932E-04  0.165E-01    0.12       1.0  T
  16   -214.3955416 -0.200765E-02  0.132E-01    0.12       1.0  T
  17   -214.3957681 -0.226442E-03  0.124E-01    0.12       1.0  T
  18   -214.3971342 -0.136615E-02  0.901E-02    0.12       1.0  T
  19   -214.3970727  0.615065E-04  0.945E-02    0.12       1.0  T
  20   -214.3979709 -0.898158E-03  0.467E-02    0.11       1.0  T
  21   -214.3981469 -0.176001E-03  0.164E-02    0.10       1.0  T
  22   -214.3981542 -0.729328E-05  0.145E-02    0.10       1.0  T
  23   -214.3981642 -0.100554E-04  0.956E-03    0.10       1.0  T
  24   -214.3981761 -0.118542E-04  0.325E-03    0.10       2.9  T
  25   -214.3981775 -0.141286E-05  0.777E-04    0.10      12.0  T
  26   -214.3981775 -0.664648E-07  0.366E-04    0.10      25.5  T
  27   -214.3981775  0.123435E-07  0.309E-04    0.10      30.2  T
     SCC iter.                  ...        0 min,  0.781 sec
     gradient                   ...        0 min,  0.142 sec
 * total energy  :  -210.9385868 Eh     change       -0.4750188E-01 Eh
   gradient norm :     0.0723777 Eh/α   predicted    -0.4518685E-01 (  -4.87%)
   displ. norm   :     0.7843190 α      lambda       -0.4125949E-01
   maximum displ.:     0.2816117 α      in ANC's #61, #62, #60, ...

........................................................................
.............................. CYCLE    6 ..............................
........................................................................
   1   -214.4478723 -0.214448E+03  0.389E-01    0.10       0.0  T
   2   -214.4236291  0.242431E-01  0.352E-01    0.06       1.0  T
   3   -213.6471240  0.776505E+00  0.136E+00    0.09       1.0  T
   4   -214.3903492 -0.743225E+00  0.548E-01    0.38       1.0  T
   5   -214.4297416 -0.393924E-01  0.328E-01    0.22       1.0  T
   6   -214.1342768  0.295465E+00  0.899E-01    0.03       1.0  T
   7   -214.3852973 -0.251020E+00  0.564E-01    0.16       1.0  T
   8   -214.4300275 -0.447303E-01  0.277E-01    0.22       1.0  T
   9   -214.4401952 -0.101677E-01  0.195E-01    0.18       1.0  T
  10   -214.4423171 -0.212189E-02  0.173E-01    0.17       1.0  T
  11   -214.4420517  0.265447E-03  0.176E-01    0.17       1.0  T
  12   -214.4486705 -0.661883E-02  0.817E-02    0.13       1.0  T
  13   -214.4496272 -0.956709E-03  0.513E-02    0.09       1.0  T
  14   -214.4501476 -0.520382E-03  0.428E-02    0.10       1.0  T
  15   -214.4483971  0.175049E-02  0.769E-02    0.08       1.0  T
  16   -214.4504519 -0.205475E-02  0.227E-02    0.11       1.0  T
  17   -214.4504846 -0.327753E-04  0.169E-02    0.10       1.0  T
  18   -214.4505260 -0.413746E-04  0.141E-02    0.11       1.0  T
  19   -214.4505861 -0.600949E-04  0.835E-03    0.11       1.1  T
  20   -214.4506166 -0.305182E-04  0.268E-03    0.11       3.5  T
  21   -214.4506193 -0.271184E-05  0.895E-04    0.11      10.4  T
  22   -214.4506195 -0.160105E-06  0.650E-04    0.11      14.3  T
  23   -214.4506196 -0.128048E-06  0.221E-04    0.11      42.2  T
     SCC iter.                  ...        0 min,  0.666 sec
     gradient                   ...        0 min,  0.142 sec
 * total energy  :  -210.9732510 Eh     change       -0.3466423E-01 Eh
   gradient norm :     0.0539155 Eh/α   predicted    -0.3332027E-01 (  -3.88%)
   displ. norm   :     0.7805702 α      lambda       -0.2909510E-01
   maximum displ.:     0.2751874 α      in ANC's #61, #62, #60, ...

........................................................................
.............................. CYCLE    7 ..............................
........................................................................
   1   -214.4881313 -0.214488E+03  0.372E-01    0.12       0.0  T
   2   -214.3641366  0.123995E+00  0.624E-01    0.01       1.0  T
   3   -214.3924382 -0.283016E-01  0.553E-01    0.03       1.0  T
   4   -214.4513285 -0.588904E-01  0.409E-01    0.46       1.0  T
   5   -214.4721238 -0.207952E-01  0.343E-01    0.22       1.0  T
   6   -214.4355436  0.365801E-01  0.545E-01    0.22       1.0  T
   7   -214.4814428 -0.458992E-01  0.197E-01    0.16       1.0  T
   8   -214.4783048  0.313799E-02  0.268E-01    0.15       1.0  T
   9   -214.4867086 -0.840386E-02  0.117E-01    0.13       1.0  T
  10   -214.4873129 -0.604293E-03  0.115E-01    0.15       1.0  T
  11   -214.4888263 -0.151341E-02  0.815E-02    0.14       1.0  T
  12   -214.4904325 -0.160614E-02  0.202E-02    0.12       1.0  T
  13   -214.4901891  0.243422E-03  0.278E-02    0.12       1.0  T
  14   -214.4904756 -0.286553E-03  0.787E-03    0.12       1.2  T
  15   -214.4904640  0.115781E-04  0.889E-03    0.12       1.0  T
  16   -214.4904822 -0.182154E-04  0.372E-03    0.12       2.5  T
  17   -214.4904797  0.250544E-05  0.385E-03    0.12       2.4  T
  18   -214.4904834 -0.363395E-05  0.256E-03    0.12       3.6  T
  19   -214.4904850 -0.161731E-05  0.129E-03    0.12       7.2  T
  20   -214.4904857 -0.685912E-06  0.229E-04    0.12      40.7  T
  21   -214.4904857  0.112639E-07  0.258E-04    0.12      36.1  T
     SCC iter.                  ...        0 min,  0.607 sec
     gradient                   ...        0 min,  0.142 sec
 * total energy  :  -210.9974158 Eh     change       -0.2416479E-01 Eh
   gradient norm :     0.0368130 Eh/α   predicted    -0.2341125E-01 (  -3.12%)
   displ. norm   :     0.7894855 α      lambda       -0.1991083E-01
   maximum displ.:     0.2556328 α      in ANC's #18, #9, #20, ...

........................................................................
.............................. CYCLE    8 ..............................
........................................................................
   1   -214.5104570 -0.214510E+03  0.336E-01    0.16       0.0  T
   2   -214.2499235  0.260533E+00  0.840E-01    0.03       1.0  T
   3   -214.4852547 -0.235331E+00  0.395E-01    0.11       1.0  T
   4   -214.4734977  0.117570E-01  0.470E-01    0.24       1.0  T
   5   -214.4784140 -0.491634E-02  0.438E-01    0.31       1.0  T
   6   -214.4016355  0.767785E-01  0.555E-01    0.01       1.0  T
   7   -214.4990734 -0.974379E-01  0.263E-01    0.27       1.0  T
   8   -214.5013289 -0.225543E-02  0.231E-01    0.21       1.0  T
   9   -214.5083868 -0.705792E-02  0.144E-01    0.20       1.0  T
  10   -214.5102837 -0.189696E-02  0.112E-01    0.18       1.0  T
  11   -214.5111759 -0.892122E-03  0.933E-02    0.16       1.0  T
  12   -214.5117227 -0.546807E-03  0.726E-02    0.13       1.0  T
  13   -214.5121522 -0.429544E-03  0.609E-02    0.13       1.0  T
  14   -214.5126352 -0.482942E-03  0.496E-02    0.13       1.0  T
  15   -214.5136441 -0.100894E-02  0.106E-02    0.14       1.0  T
  16   -214.5135028  0.141331E-03  0.195E-02    0.13       1.0  T
  17   -214.5136258 -0.122982E-03  0.986E-03    0.14       1.0  T
  18   -214.5136081  0.176125E-04  0.995E-03    0.14       1.0  T
  19   -214.5136486 -0.404179E-04  0.212E-03    0.14       4.4  T
  20   -214.5136490 -0.411469E-06  0.142E-03    0.14       6.6  T
  21   -214.5136491 -0.114701E-06  0.993E-04    0.14       9.4  T
  22   -214.5136492 -0.118270E-06  0.666E-04    0.14      14.0  T
     SCC iter.                  ...        0 min,  0.636 sec
     gradient                   ...        0 min,  0.142 sec
 * total energy  :  -211.0144034 Eh     change       -0.1698756E-01 Eh
   gradient norm :     0.0293789 Eh/α   predicted    -0.1616050E-01 (  -4.87%)
   displ. norm   :     0.8497073 α      lambda       -0.1617863E-01
   maximum displ.:     0.3496970 α      in ANC's #9, #18, #20, ...

........................................................................
.............................. CYCLE    9 ..............................
........................................................................
   1   -214.5216651 -0.214522E+03  0.307E-01    0.23       0.0  T
   2   -214.3990578  0.122607E+00  0.643E-01    0.03       1.0  T
   3   -214.5131764 -0.114119E+00  0.267E-01    0.24       1.0  T
   4   -214.4994526  0.137238E-01  0.402E-01    0.26       1.0  T
   5   -214.5023052 -0.285262E-02  0.361E-01    0.39       1.0  T
   6   -214.5192571 -0.169519E-01  0.168E-01    0.27       1.0  T
   7   -214.5216002 -0.234308E-02  0.140E-01    0.22       1.0  T
   8   -214.5232505 -0.165025E-02  0.948E-02    0.27       1.0  T
   9   -214.5243906 -0.114012E-02  0.656E-02    0.23       1.0  T
  10   -214.5247746 -0.383973E-03  0.498E-02    0.21       1.0  T
  11   -214.5250594 -0.284792E-03  0.286E-02    0.20       1.0  T
  12   -214.5252131 -0.153704E-03  0.165E-02    0.18       1.0  T
  13   -214.5252471 -0.340910E-04  0.106E-02    0.18       1.0  T
  14   -214.5252475 -0.390961E-06  0.929E-03    0.18       1.0  T
  15   -214.5252647 -0.172070E-04  0.431E-03    0.17       2.2  T
  16   -214.5252665 -0.176745E-05  0.259E-03    0.17       3.6  T
  17   -214.5252668 -0.240031E-06  0.182E-03    0.17       5.1  T
  18   -214.5252679 -0.112238E-05  0.616E-04    0.17      15.1  T
  19   -214.5252679 -0.559560E-07  0.344E-04    0.17      27.1  T
  20   -214.5252679 -0.128402E-07  0.261E-04    0.17      35.7  T
     SCC iter.                  ...        0 min,  0.579 sec
     gradient                   ...        0 min,  0.143 sec
 * total energy  :  -211.0296561 Eh     change       -0.1525275E-01 Eh
   gradient norm :     0.0295431 Eh/α   predicted    -0.1392983E-01 (  -8.67%)
   displ. norm   :     0.9457105 α      lambda       -0.1784237E-01
   maximum displ.:     0.4273811 α      in ANC's #9, #18, #20, ...

........................................................................
.............................. CYCLE   10 ..............................
........................................................................
   1   -214.5270774 -0.214527E+03  0.334E-01    0.33       0.0  T
   2   -214.4963200  0.307574E-01  0.449E-01    0.16       1.0  T
   3   -214.5123951 -0.160752E-01  0.362E-01    0.34       1.0  T
   4   -214.5071684  0.522676E-02  0.366E-01    0.46       1.0  T
   5   -214.5286666 -0.214983E-01  0.111E-01    0.33       1.0  T
   6   -214.5295406 -0.873977E-03  0.869E-02    0.24       1.0  T
   7   -214.5305617 -0.102105E-02  0.344E-02    0.27       1.0  T
   8   -214.5304718  0.899080E-04  0.325E-02    0.23       1.0  T
   9   -214.5305848 -0.113007E-03  0.195E-02    0.26       1.0  T
  10   -214.5306318 -0.470077E-04  0.822E-03    0.26       1.1  T
  11   -214.5306399 -0.812305E-05  0.331E-03    0.25       2.8  T
  12   -214.5306413 -0.142267E-05  0.150E-03    0.25       6.2  T
  13   -214.5306414 -0.118253E-06  0.986E-04    0.25       9.5  T
  14   -214.5306415 -0.830747E-07  0.472E-04    0.25      19.8  T
     SCC iter.                  ...        0 min,  0.405 sec
     gradient                   ...        0 min,  0.142 sec
 * total energy  :  -211.0480997 Eh     change       -0.1844357E-01 Eh
   gradient norm :     0.0357078 Eh/α   predicted    -0.1690003E-01 (  -8.37%)
   displ. norm   :     0.9173326 α      lambda       -0.2007263E-01
   maximum displ.:     0.4384047 α      in ANC's #9, #18, #20, ...

........................................................................
.............................. CYCLE   11 ..............................
........................................................................
   1   -214.5201619 -0.214520E+03  0.321E-01    0.47       0.0  T
   2   -214.5095171  0.106448E-01  0.320E-01    0.38       1.0  T
   3   -214.5064257  0.309141E-02  0.344E-01    0.47       1.0  T
   4   -214.5120371 -0.561139E-02  0.250E-01    0.54       1.0  T
   5   -214.5217980 -0.976090E-02  0.732E-02    0.47       1.0  T
   6   -214.5219987 -0.200740E-03  0.490E-02    0.43       1.0  T
   7   -214.5223200 -0.321270E-03  0.265E-02    0.46       1.0  T
   8   -214.5223473 -0.273261E-04  0.120E-02    0.45       1.0  T
   9   -214.5223583 -0.110075E-04  0.625E-03    0.46       1.5  T
  10   -214.5223636 -0.530451E-05  0.278E-03    0.45       3.4  T
  11   -214.5223641 -0.508744E-06  0.159E-03    0.46       5.9  T
  12   -214.5223642 -0.688775E-07  0.116E-03    0.46       8.1  T
  13   -214.5223643 -0.121900E-06  0.616E-04    0.46      15.1  T
  14   -214.5223644 -0.137461E-07  0.385E-04    0.46      24.2  T
     SCC iter.                  ...        0 min,  0.404 sec
     gradient                   ...        0 min,  0.142 sec
 * total energy  :  -211.0699200 Eh     change       -0.2182029E-01 Eh
   gradient norm :     0.0503887 Eh/α   predicted    -0.1848187E-01 ( -15.30%)
   displ. norm   :     0.8780590 α      lambda       -0.2484118E-01
   maximum displ.:     0.4326575 α      in ANC's #9, #10, #35, ...

........................................................................
.............................. CYCLE   12 ..............................
........................................................................
   1   -214.5135894 -0.214514E+03  0.314E-01    0.74       0.0  T
   2   -214.5087517  0.483775E-02  0.263E-01    0.66       1.0  T
   3   -214.5037166  0.503504E-02  0.302E-01    0.77       1.0  T
   4   -214.5114411 -0.772445E-02  0.159E-01    0.80       1.0  T
   5   -214.5148871 -0.344608E-02  0.644E-02    0.74       1.0  T
   6   -214.5152441 -0.356937E-03  0.273E-02    0.73       1.0  T
   7   -214.5152206  0.234423E-04  0.217E-02    0.75       1.0  T
   8   -214.5152584 -0.377512E-04  0.117E-02    0.73       1.0  T
   9   -214.5152781 -0.196663E-04  0.324E-03    0.74       2.9  T
  10   -214.5152787 -0.647275E-06  0.196E-03    0.74       4.8  T
  11   -214.5152790 -0.253116E-06  0.112E-03    0.74       8.3  T
  12   -214.5152791 -0.994665E-07  0.766E-04    0.74      12.2  T
  13   -214.5152791 -0.435382E-07  0.434E-04    0.74      21.5  T
     SCC iter.                  ...        0 min,  0.377 sec
     gradient                   ...        0 min,  0.142 sec
 * total energy  :  -211.0973542 Eh     change       -0.2743419E-01 Eh
   gradient norm :     0.0648445 Eh/α   predicted    -0.2199672E-01 ( -19.82%)
   displ. norm   :     0.8469144 α      lambda       -0.3104882E-01
   maximum displ.:     0.4234821 α      in ANC's #9, #35, #10, ...

........................................................................
.............................. CYCLE   13 ..............................
........................................................................
   1   -214.5084038 -0.214508E+03  0.290E-01    1.11       0.0  T
   2   -214.5061214  0.228244E-02  0.230E-01    1.03       1.0  T
   3   -214.5031132  0.300820E-02  0.243E-01    1.14       1.0  T
   4   -214.5087001 -0.558694E-02  0.910E-02    1.14       1.0  T
   5   -214.5092159 -0.515813E-03  0.641E-02    1.11       1.0  T
   6   -214.5096851 -0.469220E-03  0.259E-02    1.11       1.0  T
   7   -214.5096877 -0.251210E-05  0.147E-02    1.11       1.0  T
   8   -214.5097018 -0.141145E-04  0.958E-03    1.11       1.0  T
   9   -214.5097168 -0.150349E-04  0.297E-03    1.11       3.1  T
  10   -214.5097173 -0.535673E-06  0.198E-03    1.11       4.7  T
  11   -214.5097176 -0.305059E-06  0.121E-03    1.11       7.7  T
  12   -214.5097178 -0.117318E-06  0.647E-04    1.11      14.4  T
  13   -214.5097178 -0.121138E-07  0.439E-04    1.11      21.2  T
     SCC iter.                  ...        0 min,  0.378 sec
     gradient                   ...        0 min,  0.143 sec
 * total energy  :  -211.1307073 Eh     change       -0.3335311E-01 Eh
   gradient norm :     0.0758577 Eh/α   predicted    -0.2665953E-01 ( -20.07%)
   displ. norm   :     0.8329659 α      lambda       -0.3640172E-01
   maximum displ.:     0.4238114 α      in ANC's #9, #35, #10, ...

........................................................................
.............................. CYCLE   14 ..............................
........................................................................
   1   -214.5061822 -0.214506E+03  0.264E-01    1.36       0.0  T
   2   -214.5048422  0.134002E-02  0.213E-01    1.36       1.0  T
   3   -214.5034630  0.137913E-02  0.195E-01    1.38       1.0  T
   4   -214.5070218 -0.355883E-02  0.560E-02    1.39       1.0  T
   5   -214.5070945 -0.726654E-04  0.390E-02    1.38       1.0  T
   6   -214.5071717 -0.772096E-04  0.274E-02    1.38       1.0  T
   7   -214.5072199 -0.481435E-04  0.113E-02    1.38       1.0  T
   8   -214.5072275 -0.762303E-05  0.622E-03    1.38       1.5  T
   9   -214.5072334 -0.591069E-05  0.247E-03    1.38       3.8  T
  10   -214.5072339 -0.469324E-06  0.144E-03    1.38       6.5  T
  11   -214.5072340 -0.102449E-06  0.867E-04    1.38      10.8  T
  12   -214.5072340 -0.513919E-07  0.474E-04    1.38      19.7  T
     SCC iter.                  ...        0 min,  0.349 sec
     gradient                   ...        0 min,  0.142 sec
 * total energy  :  -211.1665769 Eh     change       -0.3586963E-01 Eh
   gradient norm :     0.0747731 Eh/α   predicted    -0.3082934E-01 ( -14.05%)
   displ. norm   :     0.9232695 α      lambda       -0.5046030E-01
   maximum displ.:     0.4140632 α      in ANC's #9, #10, #35, ...

........................................................................
.............................. CYCLE   15 ..............................
........................................................................
   1   -214.5066777 -0.214507E+03  0.400E-01    1.33       0.0  T
   2   -214.5043170  0.236069E-02  0.316E-01    1.27       1.0  T
   3   -214.5006190  0.369800E-02  0.273E-01    1.29       1.0  T
   4   -214.5083906 -0.777160E-02  0.758E-02    1.30       1.0  T
   5   -214.5088157 -0.425122E-03  0.385E-02    1.29       1.0  T
   6   -214.5088630 -0.472573E-04  0.296E-02    1.29       1.0  T
   7   -214.5089393 -0.763942E-04  0.159E-02    1.29       1.0  T
   8   -214.5089501 -0.107595E-04  0.812E-03    1.29       1.1  T
   9   -214.5089568 -0.673917E-05  0.375E-03    1.29       2.5  T
  10   -214.5089579 -0.110333E-05  0.237E-03    1.29       3.9  T
  11   -214.5089581 -0.176392E-06  0.138E-03    1.29       6.7  T
  12   -214.5089583 -0.176137E-06  0.879E-04    1.29      10.6  T
  13   -214.5089584 -0.104205E-06  0.420E-04    1.29      22.2  T
     SCC iter.                  ...        0 min,  0.378 sec
     gradient                   ...        0 min,  0.142 sec
 * total energy  :  -211.2011682 Eh     change       -0.3459128E-01 Eh
   gradient norm :     0.1100430 Eh/α   predicted    -0.4673710E-01 (  35.11%)
   displ. norm   :     0.6857071 α      lambda       -0.3516666E-01
   maximum displ.:     0.3481352 α      in ANC's #9, #10, #20, ...

........................................................................
.............................. CYCLE   16 ..............................
........................................................................
   1   -214.5110656 -0.214511E+03  0.195E-01    1.29       0.0  T
   2   -214.5105799  0.485697E-03  0.161E-01    1.27       1.0  T
   3   -214.5096121  0.967814E-03  0.131E-01    1.27       1.0  T
   4   -214.5113155 -0.170334E-02  0.443E-02    1.28       1.0  T
   5   -214.5115048 -0.189293E-03  0.235E-02    1.28       1.0  T
   6   -214.5115196 -0.148907E-04  0.165E-02    1.27       1.0  T
   7   -214.5115309 -0.112782E-04  0.104E-02    1.27       1.0  T
   8   -214.5115430 -0.120332E-04  0.405E-03    1.27       2.3  T
   9   -214.5115446 -0.165147E-05  0.197E-03    1.27       4.7  T
  10   -214.5115448 -0.147541E-06  0.139E-03    1.27       6.7  T
  11   -214.5115448 -0.819755E-07  0.789E-04    1.27      11.8  T
  12   -214.5115449 -0.668278E-07  0.429E-04    1.27      21.7  T
     SCC iter.                  ...        0 min,  0.349 sec
     gradient                   ...        0 min,  0.142 sec
 * total energy  :  -211.2324678 Eh     change       -0.3129958E-01 Eh
   gradient norm :     0.0761865 Eh/α   predicted    -0.2585091E-01 ( -17.41%)
   displ. norm   :     0.7952436 α      lambda       -0.3642050E-01
   maximum displ.:     0.4509435 α      in ANC's #9, #10, #20, ...

........................................................................
.............................. CYCLE   17 ..............................
........................................................................
   1   -214.5559164 -0.214556E+03  0.241E-01    1.27       0.0  T
   2   -214.5551901  0.726310E-03  0.191E-01    1.22       1.0  T
   3   -214.5535530  0.163707E-02  0.156E-01    1.24       1.0  T
   4   -214.5563150 -0.276202E-02  0.511E-02    1.25       1.0  T
   5   -214.5565756 -0.260533E-03  0.258E-02    1.23       1.0  T
   6   -214.5565902 -0.146563E-04  0.191E-02    1.23       1.0  T
   7   -214.5566092 -0.189994E-04  0.108E-02    1.23       1.0  T
   8   -214.5566256 -0.164118E-04  0.404E-03    1.23       2.3  T
   9   -214.5566272 -0.151931E-05  0.219E-03    1.23       4.3  T
  10   -214.5566273 -0.136270E-06  0.146E-03    1.23       6.4  T
  11   -214.5566273 -0.520558E-07  0.923E-04    1.23      10.1  T
  12   -214.5566274 -0.966017E-07  0.435E-04    1.23      21.4  T
     SCC iter.                  ...        0 min,  0.349 sec
     gradient                   ...        0 min,  0.142 sec
 * total energy  :  -211.2578130 Eh     change       -0.2534524E-01 Eh
   gradient norm :     0.0533951 Eh/α   predicted    -0.2972666E-01 (  17.29%)
   displ. norm   :     0.8323994 α      lambda       -0.2346163E-01
   maximum displ.:     0.5595071 α      in ANC's #9, #10, #20, ...

........................................................................
.............................. CYCLE   18 ..............................
........................................................................
   1   -214.5912339 -0.214591E+03  0.188E-01    1.25       0.0  T
   2   -214.5911925  0.413485E-04  0.124E-01    1.23       1.0  T
   3   -214.5887420  0.245057E-02  0.110E-01    1.24       1.0  T
   4   -214.5912706 -0.252862E-02  0.332E-02    1.23       1.0  T
   5   -214.5913735 -0.102871E-03  0.180E-02    1.23       1.0  T
   6   -214.5913744 -0.986970E-06  0.123E-02    1.23       1.0  T
   7   -214.5913838 -0.936000E-05  0.493E-03    1.23       1.9  T
   8   -214.5913865 -0.265880E-05  0.249E-03    1.23       3.7  T
   9   -214.5913869 -0.412450E-06  0.174E-03    1.23       5.4  T
  10   -214.5913871 -0.228796E-06  0.106E-03    1.23       8.8  T
  11   -214.5913872 -0.500735E-07  0.608E-04    1.23      15.3  T
  12   -214.5913872 -0.199142E-07  0.371E-04    1.23      25.1  T
     SCC iter.                  ...        0 min,  0.349 sec
     gradient                   ...        0 min,  0.142 sec
 * total energy  :  -211.2771232 Eh     change       -0.1931014E-01 Eh
   gradient norm :     0.0517408 Eh/α   predicted    -0.1985898E-01 (   2.84%)
   displ. norm   :     0.8602510 α      lambda       -0.2408275E-01
   maximum displ.:     0.5465857 α      in ANC's #9, #10, #20, ...

........................................................................
.............................. CYCLE   19 ..............................
........................................................................
   1   -214.6347658 -0.214635E+03  0.203E-01    1.25       0.0  T
   2   -214.6347445  0.213796E-04  0.128E-01    1.22       1.0  T
   3   -214.6330061  0.173840E-02  0.109E-01    1.25       1.0  T
   4   -214.6348006 -0.179449E-02  0.282E-02    1.23       1.0  T
   5   -214.6348900 -0.894080E-04  0.135E-02    1.22       1.0  T
   6   -214.6348902 -0.272741E-06  0.105E-02    1.22       1.0  T
   7   -214.6348952 -0.492476E-05  0.477E-03    1.22       2.0  T
   8   -214.6348976 -0.248368E-05  0.224E-03    1.22       4.2  T
   9   -214.6348982 -0.571351E-06  0.124E-03    1.22       7.5  T
  10   -214.6348983 -0.679914E-07  0.787E-04    1.22      11.8  T
  11   -214.6348983 -0.384941E-07  0.469E-04    1.22      19.9  T
     SCC iter.                  ...        0 min,  0.320 sec
     gradient                   ...        0 min,  0.143 sec
 * total energy  :  -211.2954466 Eh     change       -0.1832342E-01 Eh
   gradient norm :     0.0567344 Eh/α   predicted    -0.2095238E-01 (  14.35%)
   displ. norm   :     0.8529826 α      lambda       -0.2244320E-01
   maximum displ.:     0.5892015 α      in ANC's #9, #10, #20, ...

........................................................................
.............................. CYCLE   20 ..............................
........................................................................
   1   -214.6684746 -0.214668E+03  0.152E-01    1.20       0.0  T
   2   -214.6683120  0.162579E-03  0.115E-01    1.18       1.0  T
   3   -214.6677301  0.581895E-03  0.951E-02    1.19       1.0  T
   4   -214.6686116 -0.881429E-03  0.289E-02    1.19       1.0  T
   5   -214.6687167 -0.105130E-03  0.136E-02    1.18       1.0  T
   6   -214.6687259 -0.914794E-05  0.953E-03    1.18       1.0  T
   7   -214.6687313 -0.547093E-05  0.514E-03    1.18       1.8  T
   8   -214.6687331 -0.177258E-05  0.216E-03    1.18       4.3  T
   9   -214.6687334 -0.329137E-06  0.142E-03    1.18       6.6  T
  10   -214.6687335 -0.429802E-07  0.991E-04    1.18       9.4  T
  11   -214.6687335 -0.501250E-07  0.571E-04    1.18      16.3  T
     SCC iter.                  ...        0 min,  0.320 sec
     gradient                   ...        0 min,  0.143 sec
 * total energy  :  -211.3121510 Eh     change       -0.1670441E-01 Eh
   gradient norm :     0.0568153 Eh/α   predicted    -0.1938621E-01 (  16.05%)
   displ. norm   :     0.8407394 α      lambda       -0.2091875E-01
   maximum displ.:     0.5543732 α      in ANC's #9, #10, #18, ...
 * RMSD in coord.:     1.1196399 α      energy gain  -0.8227047E+00 Eh

generating ANC from model Hessian ...
Using Lindh-Hessian (1995)
 Shifting diagonal of input Hessian by    1.0007332911186669E-002
 Lowest  eigenvalues of input Hessian
    0.010000    0.010003    0.010006    0.000000    0.000000    0.000000
    0.000000    0.000000    0.000000    0.010010    0.010022    0.010033
    0.010035    0.010053    0.010084    0.010251    0.011110    0.011243
 Highest eigenvalues
    2.112789    2.114044    2.117031    2.118046    2.531665    2.566257


........................................................................
.............................. CYCLE   21 ..............................
........................................................................
   1   -214.7119616 -0.214712E+03  0.144E-01    1.19       0.0  T
   2   -214.7117842  0.177392E-03  0.110E-01    1.19       1.0  T
   3   -214.7110914  0.692753E-03  0.946E-02    1.20       1.0  T
   4   -214.7120571 -0.965677E-03  0.269E-02    1.19       1.0  T
   5   -214.7121310 -0.739252E-04  0.156E-02    1.19       1.0  T
   6   -214.7121380 -0.697120E-05  0.110E-02    1.19       1.0  T
   7   -214.7121460 -0.799509E-05  0.420E-03    1.19       2.2  T
   8   -214.7121475 -0.151574E-05  0.189E-03    1.19       4.9  T
   9   -214.7121480 -0.462019E-06  0.990E-04    1.19       9.4  T
  10   -214.7121480 -0.572236E-07  0.606E-04    1.19      15.4  T
     SCC iter.                  ...        0 min,  0.290 sec
     gradient                   ...        0 min,  0.143 sec
 * total energy  :  -211.3286882 Eh     change       -0.1653716E-01 Eh
   gradient norm :     0.0438553 Eh/α   predicted     0.0000000E+00 (-100.00%)
   displ. norm   :     0.7107397 α      lambda       -0.1588864E-01
   maximum displ.:     0.5246285 α      in ANC's #11, #14, #18, ...

........................................................................
.............................. CYCLE   22 ..............................
........................................................................
   1   -214.7309614 -0.214731E+03  0.946E-02    1.18       0.0  T
   2   -214.7309420  0.194321E-04  0.635E-02    1.19       1.0  T
   3   -214.7304568  0.485190E-03  0.571E-02    1.19       1.0  T
   4   -214.7309930 -0.536150E-03  0.143E-02    1.19       1.0  T
   5   -214.7310099 -0.169179E-04  0.820E-03    1.19       1.1  T
   6   -214.7310094  0.489743E-06  0.627E-03    1.19       1.5  T
   7   -214.7310115 -0.206905E-05  0.323E-03    1.19       2.9  T
   8   -214.7310125 -0.109656E-05  0.117E-03    1.19       8.0  T
   9   -214.7310127 -0.115401E-06  0.653E-04    1.19      14.3  T
  10   -214.7310127  0.935211E-08  0.513E-04    1.19      18.2  T
     SCC iter.                  ...        0 min,  0.289 sec
     gradient                   ...        0 min,  0.143 sec
 * total energy  :  -211.3435485 Eh     change       -0.1486031E-01 Eh
   gradient norm :     0.0276867 Eh/α   predicted    -0.1195755E-01 ( -19.53%)
   displ. norm   :     0.8980289 α      lambda       -0.1795867E-01
   maximum displ.:     0.6386217 α      in ANC's #11, #14, #18, ...

........................................................................
.............................. CYCLE   23 ..............................
........................................................................
   1   -214.7526299 -0.214753E+03  0.128E-01    1.17       0.0  T
   2   -214.7525986  0.312648E-04  0.835E-02    1.19       1.0  T
   3   -214.7517755  0.823083E-03  0.746E-02    1.19       1.0  T
   4   -214.7526801 -0.904532E-03  0.169E-02    1.18       1.0  T
   5   -214.7527078 -0.277404E-04  0.859E-03    1.19       1.1  T
   6   -214.7527075  0.281331E-06  0.628E-03    1.19       1.5  T
   7   -214.7527086 -0.110912E-05  0.357E-03    1.19       2.6  T
   8   -214.7527101 -0.143066E-05  0.134E-03    1.19       6.9  T
   9   -214.7527102 -0.156558E-06  0.651E-04    1.19      14.3  T
  10   -214.7527102  0.532802E-08  0.467E-04    1.19      20.0  T
     SCC iter.                  ...        0 min,  0.292 sec
     gradient                   ...        0 min,  0.143 sec
 * total energy  :  -211.3601121 Eh     change       -0.1656369E-01 Eh
   gradient norm :     0.0222212 Eh/α   predicted    -0.1622078E-01 (  -2.07%)
   displ. norm   :     0.9284032 α      lambda       -0.1701885E-01
   maximum displ.:     0.6590266 α      in ANC's #11, #14, #18, ...

........................................................................
.............................. CYCLE   24 ..............................
........................................................................
   1   -214.7784901 -0.214778E+03  0.138E-01    1.17       0.0  T
   2   -214.7784835  0.658237E-05  0.873E-02    1.20       1.0  T
   3   -214.7777509  0.732655E-03  0.690E-02    1.19       1.0  T
   4   -214.7785204 -0.769524E-03  0.178E-02    1.19       1.0  T
   5   -214.7785495 -0.290815E-04  0.961E-03    1.19       1.0  T
   6   -214.7785483  0.114874E-05  0.676E-03    1.19       1.4  T
   7   -214.7785503 -0.195112E-05  0.326E-03    1.19       2.9  T
   8   -214.7785518 -0.147905E-05  0.148E-03    1.19       6.3  T
   9   -214.7785521 -0.305918E-06  0.621E-04    1.19      15.0  T
  10   -214.7785521  0.576165E-08  0.490E-04    1.19      19.0  T
     SCC iter.                  ...        0 min,  0.291 sec
     gradient                   ...        0 min,  0.144 sec
 * total energy  :  -211.3757283 Eh     change       -0.1561615E-01 Eh
   gradient norm :     0.0291746 Eh/α   predicted    -0.1584398E-01 (   1.46%)
   displ. norm   :     0.9141931 α      lambda       -0.1592513E-01
   maximum displ.:     0.6519333 α      in ANC's #11, #14, #18, ...

........................................................................
.............................. CYCLE   25 ..............................
........................................................................
   1   -214.8089189 -0.214809E+03  0.123E-01    1.19       0.0  T
   2   -214.8089281 -0.923457E-05  0.782E-02    1.21       1.0  T
   3   -214.8085650  0.363090E-03  0.478E-02    1.20       1.0  T
   4   -214.8089274 -0.362376E-03  0.177E-02    1.20       1.0  T
   5   -214.8089555 -0.281404E-04  0.103E-02    1.20       1.0  T
   6   -214.8089536  0.197487E-05  0.740E-03    1.21       1.3  T
   7   -214.8089578 -0.422790E-05  0.287E-03    1.20       3.2  T
   8   -214.8089589 -0.110856E-05  0.135E-03    1.20       6.9  T
   9   -214.8089592 -0.268987E-06  0.531E-04    1.20      17.6  T
  10   -214.8089592  0.135211E-08  0.386E-04    1.20      24.2  T
     SCC iter.                  ...        0 min,  0.290 sec
     gradient                   ...        0 min,  0.144 sec
 * total energy  :  -211.3908781 Eh     change       -0.1514975E-01 Eh
   gradient norm :     0.0289621 Eh/α   predicted    -0.1461727E-01 (  -3.51%)
   displ. norm   :     0.9170619 α      lambda       -0.1540319E-01
   maximum displ.:     0.6580818 α      in ANC's #11, #14, #18, ...

........................................................................
.............................. CYCLE   26 ..............................
........................................................................
   1   -214.8421865 -0.214842E+03  0.123E-01    1.21       0.0  T
   2   -214.8421955 -0.902640E-05  0.799E-02    1.22       1.0  T
   3   -214.8418133  0.382257E-03  0.460E-02    1.22       1.0  T
   4   -214.8421893 -0.376028E-03  0.182E-02    1.21       1.0  T
   5   -214.8422196 -0.303335E-04  0.117E-02    1.22       1.0  T
   6   -214.8422196 -0.707610E-08  0.839E-03    1.22       1.1  T
   7   -214.8422261 -0.649678E-05  0.263E-03    1.22       3.5  T
   8   -214.8422268 -0.685362E-06  0.114E-03    1.22       8.2  T
   9   -214.8422270 -0.147707E-06  0.572E-04    1.22      16.3  T
  10   -214.8422270 -0.388212E-08  0.420E-04    1.22      22.2  T
     SCC iter.                  ...        0 min,  0.289 sec
     gradient                   ...        0 min,  0.145 sec
 * total energy  :  -211.4055428 Eh     change       -0.1466473E-01 Eh
   gradient norm :     0.0209123 Eh/α   predicted    -0.1417866E-01 (  -3.31%)
   displ. norm   :     0.9329609 α      lambda       -0.1465643E-01
   maximum displ.:     0.6732896 α      in ANC's #11, #14, #18, ...

........................................................................
.............................. CYCLE   27 ..............................
........................................................................
   1   -214.8760589 -0.214876E+03  0.127E-01    1.23       0.0  T
   2   -214.8760655 -0.656784E-05  0.829E-02    1.24       1.0  T
   3   -214.8756162  0.449301E-03  0.493E-02    1.24       1.0  T
   4   -214.8760688 -0.452621E-03  0.182E-02    1.23       1.0  T
   5   -214.8760933 -0.245046E-04  0.121E-02    1.24       1.0  T
   6   -214.8760938 -0.451930E-06  0.808E-03    1.24       1.2  T
   7   -214.8761002 -0.642749E-05  0.269E-03    1.24       3.5  T
   8   -214.8761009 -0.689641E-06  0.122E-03    1.24       7.7  T
   9   -214.8761011 -0.160296E-06  0.574E-04    1.24      16.3  T
  10   -214.8761011 -0.277899E-08  0.408E-04    1.24      22.8  T
     SCC iter.                  ...        0 min,  0.292 sec
     gradient                   ...        0 min,  0.144 sec
 * total energy  :  -211.4193868 Eh     change       -0.1384402E-01 Eh
   gradient norm :     0.0168342 Eh/α   predicted    -0.1370681E-01 (  -0.99%)
   displ. norm   :     0.9388283 α      lambda       -0.1382028E-01
   maximum displ.:     0.6749818 α      in ANC's #11, #14, #18, ...

........................................................................
.............................. CYCLE   28 ..............................
........................................................................
   1   -214.9062032 -0.214906E+03  0.134E-01    1.24       0.0  T
   2   -214.9062041 -0.909278E-06  0.865E-02    1.24       1.0  T
   3   -214.9056776  0.526570E-03  0.543E-02    1.25       1.0  T
   4   -214.9062218 -0.544188E-03  0.170E-02    1.24       1.0  T
   5   -214.9062356 -0.138521E-04  0.116E-02    1.24       1.0  T
   6   -214.9062364 -0.752311E-06  0.669E-03    1.24       1.4  T
   7   -214.9062406 -0.420446E-05  0.216E-03    1.24       4.3  T
   8   -214.9062410 -0.449309E-06  0.121E-03    1.24       7.7  T
   9   -214.9062412 -0.167990E-06  0.478E-04    1.24      19.5  T
  10   -214.9062412  0.261045E-08  0.309E-04    1.24      30.2  T
     SCC iter.                  ...        0 min,  0.291 sec
     gradient                   ...        0 min,  0.144 sec
 * total energy  :  -211.4323393 Eh     change       -0.1295248E-01 Eh
   gradient norm :     0.0173446 Eh/α   predicted    -0.1300073E-01 (   0.37%)
   displ. norm   :     0.9305652 α      lambda       -0.1282038E-01
   maximum displ.:     0.6655987 α      in ANC's #11, #14, #18, ...

........................................................................
.............................. CYCLE   29 ..............................
........................................................................
   1   -214.9315481 -0.214932E+03  0.118E-01    1.24       0.0  T
   2   -214.9315437  0.441802E-05  0.782E-02    1.24       1.0  T
   3   -214.9310051  0.538599E-03  0.580E-02    1.24       1.0  T
   4   -214.9315726 -0.567514E-03  0.156E-02    1.24       1.0  T
   5   -214.9315804 -0.782120E-05  0.109E-02    1.24       1.0  T
   6   -214.9315818 -0.135198E-05  0.571E-03    1.24       1.6  T
   7   -214.9315847 -0.293960E-05  0.163E-03    1.24       5.7  T
   8   -214.9315849 -0.146264E-06  0.109E-03    1.24       8.6  T
   9   -214.9315850 -0.137367E-06  0.449E-04    1.24      20.7  T
  10   -214.9315850 -0.495405E-08  0.239E-04    1.24      38.9  T
     SCC iter.                  ...        0 min,  0.291 sec
     gradient                   ...        0 min,  0.145 sec
 * total energy  :  -211.4445451 Eh     change       -0.1220585E-01 Eh
   gradient norm :     0.0147493 Eh/α   predicted    -0.1196111E-01 (  -2.01%)
   displ. norm   :     0.9294746 α      lambda       -0.1176692E-01
   maximum displ.:     0.6726593 α      in ANC's #11, #14, #18, ...

........................................................................
.............................. CYCLE   30 ..............................
........................................................................
   1   -214.9586956 -0.214959E+03  0.114E-01    1.23       0.0  T
   2   -214.9586911  0.441516E-05  0.759E-02    1.23       1.0  T
   3   -214.9581952  0.495940E-03  0.566E-02    1.23       1.0  T
   4   -214.9587178 -0.522607E-03  0.152E-02    1.23       1.0  T
   5   -214.9587231 -0.525815E-05  0.108E-02    1.23       1.0  T
   6   -214.9587252 -0.212935E-05  0.539E-03    1.23       1.7  T
   7   -214.9587278 -0.256315E-05  0.134E-03    1.23       6.9  T
   8   -214.9587278 -0.672368E-07  0.942E-04    1.23       9.9  T
   9   -214.9587279 -0.114712E-06  0.429E-04    1.23      21.7  T
     SCC iter.                  ...        0 min,  0.262 sec
     gradient                   ...        0 min,  0.145 sec
 * total energy  :  -211.4558093 Eh     change       -0.1126414E-01 Eh
   gradient norm :     0.0127771 Eh/α   predicted    -0.1096631E-01 (  -2.64%)
   displ. norm   :     0.9316406 α      lambda       -0.1097262E-01
   maximum displ.:     0.6768665 α      in ANC's #11, #14, #18, ...

........................................................................
.............................. CYCLE   31 ..............................
........................................................................
   1   -214.9850418 -0.214985E+03  0.123E-01    1.22       0.0  T
   2   -214.9850402  0.162235E-05  0.814E-02    1.22       1.0  T
   3   -214.9845660  0.474175E-03  0.551E-02    1.22       1.0  T
   4   -214.9850621 -0.496100E-03  0.160E-02    1.22       1.0  T
   5   -214.9850671 -0.499905E-05  0.114E-02    1.22       1.0  T
   6   -214.9850692 -0.211565E-05  0.585E-03    1.22       1.6  T
   7   -214.9850724 -0.314617E-05  0.170E-03    1.22       5.5  T
   8   -214.9850726 -0.287178E-06  0.104E-03    1.22       9.0  T
   9   -214.9850728 -0.167859E-06  0.403E-04    1.22      23.1  T
  10   -214.9850728 -0.148287E-08  0.239E-04    1.22      39.0  T
     SCC iter.                  ...        0 min,  0.289 sec
     gradient                   ...        0 min,  0.145 sec
 * total energy  :  -211.4661105 Eh     change       -0.1030127E-01 Eh
   gradient norm :     0.0121471 Eh/α   predicted    -0.1024818E-01 (  -0.52%)
   displ. norm   :     0.9280146 α      lambda       -0.1029462E-01
   maximum displ.:     0.6744021 α      in ANC's #11, #14, #18, ...

........................................................................
.............................. CYCLE   32 ..............................
........................................................................
   1   -215.0101664 -0.215010E+03  0.132E-01    1.21       0.0  T
   2   -215.0101675 -0.111082E-05  0.865E-02    1.21       1.0  T
   3   -215.0097316  0.435931E-03  0.525E-02    1.22       1.0  T
   4   -215.0101855 -0.453970E-03  0.166E-02    1.21       1.0  T
   5   -215.0101907 -0.516205E-05  0.118E-02    1.21       1.0  T
   6   -215.0101931 -0.245069E-05  0.577E-03    1.21       1.6  T
   7   -215.0101965 -0.336416E-05  0.142E-03    1.21       6.6  T
   8   -215.0101966 -0.100487E-06  0.101E-03    1.21       9.3  T
   9   -215.0101967 -0.139329E-06  0.422E-04    1.21      22.1  T
  10   -215.0101967 -0.755486E-08  0.199E-04    1.21      46.9  T
     SCC iter.                  ...        0 min,  0.289 sec
     gradient                   ...        0 min,  0.145 sec
 * total energy  :  -211.4756487 Eh     change       -0.9538203E-02 Eh
   gradient norm :     0.0107680 Eh/α   predicted    -0.9580234E-02 (   0.44%)
   displ. norm   :     0.9225130 α      lambda       -0.9144899E-02
   maximum displ.:     0.6746665 α      in ANC's #11, #14, #18, ...

........................................................................
.............................. CYCLE   33 ..............................
........................................................................
   1   -215.0339719 -0.215034E+03  0.116E-01    1.21       0.0  T
   2   -215.0339723 -0.382181E-06  0.785E-02    1.20       1.0  T
   3   -215.0335373  0.434937E-03  0.524E-02    1.21       1.0  T
   4   -215.0339914 -0.454058E-03  0.159E-02    1.20       1.0  T
   5   -215.0339963 -0.486238E-05  0.110E-02    1.20       1.0  T
   6   -215.0339986 -0.233510E-05  0.527E-03    1.21       1.8  T
   7   -215.0340018 -0.320293E-05  0.112E-03    1.20       8.3  T
   8   -215.0340018 -0.242417E-07  0.862E-04    1.20      10.8  T
   9   -215.0340019 -0.856400E-07  0.422E-04    1.20      22.1  T
     SCC iter.                  ...        0 min,  0.262 sec
     gradient                   ...        0 min,  0.146 sec
 * total energy  :  -211.4843240 Eh     change       -0.8675231E-02 Eh
   gradient norm :     0.0095077 Eh/α   predicted    -0.8463755E-02 (  -2.44%)
   displ. norm   :     0.9206999 α      lambda       -0.8228001E-02
   maximum displ.:     0.6773157 α      in ANC's #11, #14, #18, ...

........................................................................
.............................. CYCLE   34 ..............................
........................................................................
   1   -215.0583580 -0.215058E+03  0.115E-01    1.20       0.0  T
   2   -215.0583565  0.143097E-05  0.787E-02    1.20       1.0  T
   3   -215.0578798  0.476678E-03  0.545E-02    1.20       1.0  T
   4   -215.0583788 -0.498972E-03  0.156E-02    1.20       1.0  T
   5   -215.0583818 -0.294663E-05  0.109E-02    1.20       1.0  T
   6   -215.0583849 -0.309807E-05  0.490E-03    1.20       1.9  T
   7   -215.0583877 -0.283664E-05  0.102E-03    1.20       9.1  T
   8   -215.0583877 -0.141920E-07  0.798E-04    1.20      11.7  T
   9   -215.0583878 -0.666542E-07  0.398E-04    1.20      23.4  T
     SCC iter.                  ...        0 min,  0.260 sec
     gradient                   ...        0 min,  0.145 sec
 * total energy  :  -211.4921112 Eh     change       -0.7787197E-02 Eh
   gradient norm :     0.0084970 Eh/α   predicted    -0.7601377E-02 (  -2.39%)
   displ. norm   :     0.9188423 α      lambda       -0.7377459E-02
   maximum displ.:     0.6744810 α      in ANC's #11, #14, #18, ...

........................................................................
.............................. CYCLE   35 ..............................
........................................................................
   1   -215.0807589 -0.215081E+03  0.116E-01    1.19       0.0  T
   2   -215.0807566  0.221183E-05  0.798E-02    1.19       1.0  T
   3   -215.0802548  0.501891E-03  0.559E-02    1.20       1.0  T
   4   -215.0807806 -0.525861E-03  0.157E-02    1.19       1.0  T
   5   -215.0807829 -0.230194E-05  0.110E-02    1.19       1.0  T
   6   -215.0807859 -0.296943E-05  0.501E-03    1.19       1.9  T
   7   -215.0807891 -0.316083E-05  0.127E-03    1.19       7.3  T
   8   -215.0807892 -0.101178E-06  0.864E-04    1.19      10.8  T
   9   -215.0807892 -0.754439E-07  0.361E-04    1.19      25.8  T
     SCC iter.                  ...        0 min,  0.260 sec
     gradient                   ...        0 min,  0.146 sec
 * total energy  :  -211.4990465 Eh     change       -0.6935352E-02 Eh
   gradient norm :     0.0076718 Eh/α   predicted    -0.6803018E-02 (  -1.91%)
   displ. norm   :     0.9149882 α      lambda       -0.6534188E-02
   maximum displ.:     0.6720091 α      in ANC's #11, #14, #18, ...

........................................................................
.............................. CYCLE   36 ..............................
........................................................................
   1   -215.1027891 -0.215103E+03  0.117E-01    1.19       0.0  T
   2   -215.1027872  0.187702E-05  0.803E-02    1.19       1.0  T
   3   -215.1022923  0.494959E-03  0.555E-02    1.19       1.0  T
   4   -215.1028106 -0.518364E-03  0.156E-02    1.19       1.0  T
   5   -215.1028122 -0.157436E-05  0.109E-02    1.19       1.0  T
   6   -215.1028156 -0.340146E-05  0.477E-03    1.19       2.0  T
   7   -215.1028185 -0.290896E-05  0.119E-03    1.19       7.9  T
   8   -215.1028186 -0.755655E-07  0.841E-04    1.19      11.1  T
   9   -215.1028186 -0.711580E-07  0.354E-04    1.19      26.4  T
     SCC iter.                  ...        0 min,  0.262 sec
     gradient                   ...        0 min,  0.146 sec
 * total energy  :  -211.5051307 Eh     change       -0.6084185E-02 Eh
   gradient norm :     0.0069371 Eh/α   predicted    -0.6002321E-02 (  -1.35%)
   displ. norm   :     0.9117656 α      lambda       -0.5705450E-02
   maximum displ.:     0.6681591 α      in ANC's #11, #14, #18, ...

........................................................................
.............................. CYCLE   37 ..............................
........................................................................
   1   -215.1231755 -0.215123E+03  0.118E-01    1.18       0.0  T
   2   -215.1231737  0.176823E-05  0.812E-02    1.18       1.0  T
   3   -215.1226750  0.498650E-03  0.558E-02    1.18       1.0  T
   4   -215.1231975 -0.522477E-03  0.156E-02    1.18       1.0  T
   5   -215.1231985 -0.980869E-06  0.109E-02    1.18       1.0  T
   6   -215.1232020 -0.351568E-05  0.474E-03    1.18       2.0  T
   7   -215.1232050 -0.298042E-05  0.122E-03    1.18       7.6  T
   8   -215.1232051 -0.992486E-07  0.826E-04    1.18      11.3  T
   9   -215.1232052 -0.692709E-07  0.344E-04    1.18      27.1  T
     SCC iter.                  ...        0 min,  0.261 sec
     gradient                   ...        0 min,  0.146 sec
 * total energy  :  -211.5103804 Eh     change       -0.5249668E-02 Eh
   gradient norm :     0.0062484 Eh/α   predicted    -0.5224251E-02 (  -0.48%)
   displ. norm   :     0.9077959 α      lambda       -0.4879020E-02
   maximum displ.:     0.6632179 α      in ANC's #11, #14, #18, ...

........................................................................
.............................. CYCLE   38 ..............................
........................................................................
   1   -215.1426706 -0.215143E+03  0.118E-01    1.17       0.0  T
   2   -215.1426696  0.977285E-06  0.817E-02    1.17       1.0  T
   3   -215.1421878  0.481831E-03  0.552E-02    1.18       1.0  T
   4   -215.1426927 -0.504936E-03  0.156E-02    1.17       1.0  T
   5   -215.1426934 -0.654385E-06  0.108E-02    1.17       1.0  T
   6   -215.1426974 -0.405061E-05  0.430E-03    1.17       2.2  T
   7   -215.1426998 -0.235883E-05  0.905E-04    1.17      10.3  T
   8   -215.1426998  0.525938E-08  0.765E-04    1.17      12.2  T
   9   -215.1426999 -0.619865E-07  0.352E-04    1.17      26.5  T
     SCC iter.                  ...        0 min,  0.262 sec
     gradient                   ...        0 min,  0.147 sec
 * total energy  :  -211.5148082 Eh     change       -0.4427840E-02 Eh
   gradient norm :     0.0054863 Eh/α   predicted    -0.4449898E-02 (   0.50%)
   displ. norm   :     0.8974190 α      lambda       -0.4039976E-02
   maximum displ.:     0.6518978 α      in ANC's #11, #14, #18, ...

........................................................................
.............................. CYCLE   39 ..............................
........................................................................
   1   -215.1609458 -0.215161E+03  0.119E-01    1.17       0.0  T
   2   -215.1609453  0.459803E-06  0.818E-02    1.17       1.0  T
   3   -215.1604777  0.467571E-03  0.546E-02    1.17       1.0  T
   4   -215.1609682 -0.490403E-03  0.155E-02    1.17       1.0  T
   5   -215.1609680  0.185057E-06  0.107E-02    1.17       1.0  T
   6   -215.1609725 -0.453247E-05  0.404E-03    1.17       2.3  T
   7   -215.1609745 -0.201071E-05  0.785E-04    1.17      11.9  T
   8   -215.1609745  0.594892E-08  0.590E-04    1.17      15.8  T
   9   -215.1609745 -0.204664E-07  0.357E-04    1.17      26.1  T
     SCC iter.                  ...        0 min,  0.261 sec
     gradient                   ...        0 min,  0.147 sec
 * total energy  :  -211.5184059 Eh     change       -0.3597725E-02 Eh
   gradient norm :     0.0048194 Eh/α   predicted    -0.3646810E-02 (   1.36%)
   displ. norm   :     0.8764476 α      lambda       -0.3214205E-02
[...]
  57: 10.86  58: 12.11  59: 43.19  60: 42.79  61: 42.46  62: 44.08  63: 42.46  64: 42.27
  65: 21.73  66: 16.36  67: 12.14  68: 15.56  69: 15.52  70: 12.51  71: 12.57  72: 12.99
  73: 12.76  74: 12.14  75: 12.12  76: 11.58  77: 11.54  78: 11.60  79: 12.09  80: 12.20
  81: 12.00  82: 12.01  83: 12.62  84: 12.70  85: 13.96  86: 13.89  87:  9.93  88:  9.96
  89: 10.12  90: 15.84  91: 18.81  92: 10.63  93: 15.55  94: 16.02  95: 16.34  96: 14.77
  97: 10.60  98: 10.74  99: 10.27 100: 10.28 101: 10.31 102: 11.91 103: 11.78 104: 11.79
 105: 11.70 106: 11.64 107: 11.74 108: 11.71 109: 11.78 110: 12.04 111: 12.00 112: 11.37
 113: 11.31 114: 11.30 115: 10.85 116: 10.86 117: 10.86 118: 10.83 119: 10.82 120: 11.22
 121: 11.17 122: 11.18 123: 11.18 124: 11.03 125: 11.04 126: 11.43 127: 11.40 128: 11.37
 129: 11.38 130: 11.56 131: 11.56 132: 11.49 133: 11.40 134: 11.40 135: 11.46 136: 10.98
 137: 11.01 138: 11.10 139: 11.08 140: 11.50 141: 11.26 142: 11.18 143: 11.18 144: 11.27
 145: 11.08 146: 11.24 147: 11.36 148: 11.39 149: 11.29 150: 11.07 151: 11.15 152: 11.82
 153: 11.72 154: 11.84 155: 11.72 156:  3.77 157:  3.80 158:  3.85 159:  3.86 160:  3.87
 161:  3.85 162:  3.97 163:  3.97 164: 11.32 165: 11.25 166:  4.29 167:  4.38 168:  4.31
 169:  4.32 170:  3.86 171:  3.87 172:  3.95 173:  3.95 174:  3.89 175:  3.93 176:  4.08
 177:  4.08 178:  3.48 179:  3.47 180:  3.41 181:  3.39 182:  3.48 183:  3.39 184:  3.42
 185:  3.46 186:  3.44 187:  3.49 188:  3.49 189:  3.49 190: 11.58 191: 11.62 192: 12.42
 193: 12.40 194: 12.27 195: 12.07 196: 12.14 197: 12.14 198: 12.25 199: 11.69 200: 10.40
 201:  9.03 202:  8.52 203:  9.29 204:  9.71 205:  9.84 206: 10.55 207:  9.58 208:  9.42
 209:  9.43 210: 10.27 211:  9.02 212:  9.03 213:  8.79 214:  1.54 215:  1.54 216:  1.83
 217:  1.83 218:  1.79 219:  1.86 220:  1.89 221:  1.86 222:  2.01 223:  1.87 224:  1.96
 225:  1.98 226:  5.61 227:  5.71 228:  5.51 229:  5.52 230:  5.58 231:  6.12 232:  6.92
 233:  6.41 234:  7.11 235:  7.13 236:  6.34 237:  8.62 238: 10.82 239:  8.65 240:  8.65
 241: 11.12 242:  8.60 243:  8.69 244:  8.55 245:  9.52 246:  8.97 247:  8.96 248: 11.04
 249: 11.07 250: 10.62 251: 10.62 252: 10.82 253: 10.67 254: 10.29 255: 10.30 256: 10.33
 257: 12.38 258: 11.65 259: 11.42 260: 11.45 261: 10.10 262: 10.11 263:  9.21 264: 12.19
 265: 11.95 266: 11.99 267:  9.79 268:  9.79 269:  9.67 270:  9.18 271:  9.18 272: 11.64
 273: 11.62 274: 11.56 275: 11.53 276: 11.53 277: 11.51 278: 11.56 279: 11.59 280: 11.76
 281: 11.76 282: 11.76 283: 11.55 284: 11.73 285: 11.49 286: 11.57 287: 11.68 288: 11.73
 289: 11.70 290: 11.73 291: 11.82 292: 11.82 293: 11.89 294: 11.73 295: 11.73 296: 11.67
 297: 11.67 298: 11.54 299: 11.56 300: 11.59 301: 11.59 302: 11.60 303: 11.60 304: 11.62
 305: 11.63 306: 11.66 307: 11.78 308: 11.77 309: 11.77 310: 12.01 311: 12.01 312: 12.01
 313: 12.01 314:  1.82 315:  1.82 316:  1.82 317:  1.82 318:  1.82 319:  1.82 320:  1.82
 321:  1.82 322:  1.81 323:  1.81 324:  1.81 325:  1.81 326:  1.81 327:  1.81 328:  1.81
 329:  1.81 330:  1.81 331:  1.81 332:  1.81 333:  1.81 334:  1.98 335:  1.98 336:  1.98
 337:  1.98 338:  1.97 339:  1.97 340:  1.97 341:  1.97 342:  1.97 343:  1.97 344:  1.97
 345:  1.97
 IR intensities (km·mol⁻¹)
   1:  0.04   2:  0.67   3:  0.02   4:  1.81   5:  0.30   6:  0.07   7: 13.51   8: 25.97
   9:  2.29  10:  0.08  11:  0.06  12:  3.58  13:  0.32  14: 13.20  15:  4.00  16:  4.99
  17:  1.34  18:  9.90  19:  0.58  20: 11.70  21:  9.72  22:  0.66  23: 67.00  24: 10.81
  25:  5.91  26:  1.75  27:  8.32  28:  0.13  29:  0.24  30:  0.12  31:  0.30  32:  0.66
  33:  0.06  34:  3.42  35:  1.10  36:  0.41  37:  2.24  38:  0.06  39:  0.20  40:  0.00
  41:  0.09  42:  1.93  43:  4.82  44:  0.26  45:  0.70  46:  2.00  47:  0.48  48:  1.79
  49:  3.52  50:  1.26  51:  0.00  52:  1.58  53:  0.45  54:  7.45  55:  7.11  56:  4.50
  57:  0.07  58:  0.02  59:  0.00  60:  0.01  61:  0.31  62:  0.01  63:  0.38  64: 17.77
  65: 20.16  66:  7.93  67:  0.40  68: 26.30  69: 26.79  70:  0.97  71:  1.73  72:  4.38
  73:  0.05  74:  7.69  75:  0.08  76: 17.52  77:  4.87  78:  0.10  79:  0.03  80:  2.91
  81:  0.09  82:  0.04  83:  0.96  84:  0.11  85:  1.65  86:  0.19  87:  0.13  88:  0.22
  89:  0.68  90: 18.30  91: 19.44  92:  5.37  93: 17.57  94:  9.82  95:  4.87  96:  5.73
  97:  1.54  98:  3.96  99:  0.15 100:  0.47 101:  0.00 102:  0.18 103:  0.31 104:  0.15
 105:  0.02 106: 20.12 107:  8.24 108: 22.03 109:  3.69 110:  0.00 111: 15.35 112:  0.56
 113:  0.25 114:  3.21 115:  0.01 116:  0.02 117:  0.18 118:  0.19 119:  1.59 120:  0.05
 121:  0.06 122:  0.02 123:  0.93 124:  0.68 125: 17.64 126:  3.72 127:  0.22 128:  0.42
 129:  0.44 130:  6.63 131: 14.09 132:  6.63 133: 35.70 134: 15.37 135: 11.23 136:  6.36
 137:  4.76 138: 10.65 139:  9.72 140:  0.01 141:  0.00 142:  0.02 143:  0.12 144:  0.06
 145:  1.32 146:  0.04 147:  3.53 148: 18.70 149: 11.25 150:  0.13 151:  6.38 152: 60.87
 153:  0.44 154:  0.71 155:  0.24 156: 15.98 157: 18.12 158: 27.44 159:  0.17 160:  0.30
 161:  0.50 162:  4.98 163:  9.25 164:  3.30 165:  0.01 166:  0.65 167:  5.86 168:  0.92
 169: 43.67 170:  3.43 171: 48.07 172:  0.30 173:  0.20 174: 93.14 175:  0.04 176: 22.01
 177:212.56 178: 12.38 179: 64.78 180:  6.11 181:  6.88 182: 10.58 183:  0.24 184:  2.61
 185:  5.64 186:  1.91 187:  0.86 188:  0.46 189:  0.14 190:  2.88 191:  0.00 192:  0.02
 193: 43.92 194:  0.00 195:  6.56 196:  9.12 197: 18.59 198: 15.38 199:  0.01 200:  0.11
 201:  0.29 202:  0.02 203:  0.20 204:  0.60 205:  0.06 206:  0.01 207:  4.82 208:  1.72
 209:  0.30 210:  0.03 211: 23.82 212: 33.09 213: 36.34 214:  4.59 215:  5.61 216:  0.50
 217:  0.05 218:  0.06 219:  7.34 220:  6.08 221:  0.09 222:  0.05 223: 11.87 224: 18.47
 225:  0.03 226:  4.02 227:  0.06 228: 26.87 229:  7.32 230:  7.63 231:  0.02 232:  0.00
 233: 68.27 234:  1.57 235:  5.97 236:  0.37 237:  2.65 238:267.49 239:  0.29 240:  0.32
 241:  0.13 242: 52.70 243:  0.84 244:115.78 245:  0.00 246: 21.29 247: 13.17 248:  5.11
 249: 15.21 250:  5.08 251: 10.49 252:  0.11 253: 32.63 254:  4.35 255:  3.88 256:  0.01
 257: 34.41 258:  0.01 259: 16.91 260:  0.04 261:  5.10 262: 10.89 263:  0.02 264:  0.46
 265: 79.75 266:  0.10 267:  9.23 268:  0.45 269: 12.94 270:  0.48 271:  2.12 272:  0.09
 273:  0.40 274:  4.26 275: 33.07 276: 27.46 277:125.22 278:  0.06 279:  2.61 280:  0.00
 281:  0.76 282: 13.06 283:  0.01 284:  0.11 285:  0.66 286:  2.38 287:  3.85 288:  0.71
 289:  0.03 290:147.71 291:  0.35 292:  0.78 293:  9.89 294:  8.88 295: 12.28 296: 83.58
 297: 42.46 298: 40.09 299:  0.00 300: 17.99 301:  4.76 302:  5.41 303:  4.07 304:387.97
 305: 15.03 306:126.42 307:  0.01 308:  2.02 309:  1.48 310:  0.15 311: 13.95 312:  0.04
 313:  0.11 314:  9.87 315:  7.13 316:  0.72 317:  0.05 318:  2.71 319:  1.87 320: 22.52
 321:  1.16 322: 18.65 323: 14.53 324: 21.35 325: 22.38 326: 30.58 327: 26.20 328:  3.52
 329:  9.35 330: 18.14 331:  7.58 332:130.41 333: 20.95 334:118.34 335:173.41 336:360.75
 337:169.41 338:  1.61 339: 59.58 340:  2.37 341:178.49 342: 16.96 343: 32.54 344: 19.09
 345: 79.23
 Raman intensities (amu)
   1:  0.00   2:  0.00   3:  0.00   4:  0.00   5:  0.00   6:  0.00   7:  0.00   8:  0.00
   9:  0.00  10:  0.00  11:  0.00  12:  0.00  13:  0.00  14:  0.00  15:  0.00  16:  0.00
  17:  0.00  18:  0.00  19:  0.00  20:  0.00  21:  0.00  22:  0.00  23:  0.00  24:  0.00
  25:  0.00  26:  0.00  27:  0.00  28:  0.00  29:  0.00  30:  0.00  31:  0.00  32:  0.00
  33:  0.00  34:  0.00  35:  0.00  36:  0.00  37:  0.00  38:  0.00  39:  0.00  40:  0.00
  41:  0.00  42:  0.00  43:  0.00  44:  0.00  45:  0.00  46:  0.00  47:  0.00  48:  0.00
Refinement of some symmetry elements was terminated before convergence was reached.
Some symmetry elements may remain unidentified.
Molecule has no symmetry elements
It seems to be the C1 point group
  49:  0.00  50:  0.00  51:  0.00  52:  0.00  53:  0.00  54:  0.00  55:  0.00  56:  0.00
  57:  0.00  58:  0.00  59:  0.00  60:  0.00  61:  0.00  62:  0.00  63:  0.00  64:  0.00
  65:  0.00  66:  0.00  67:  0.00  68:  0.00  69:  0.00  70:  0.00  71:  0.00  72:  0.00
  73:  0.00  74:  0.00  75:  0.00  76:  0.00  77:  0.00  78:  0.00  79:  0.00  80:  0.00
  81:  0.00  82:  0.00  83:  0.00  84:  0.00  85:  0.00  86:  0.00  87:  0.00  88:  0.00
  89:  0.00  90:  0.00  91:  0.00  92:  0.00  93:  0.00  94:  0.00  95:  0.00  96:  0.00
  97:  0.00  98:  0.00  99:  0.00 100:  0.00 101:  0.00 102:  0.00 103:  0.00 104:  0.00
 105:  0.00 106:  0.00 107:  0.00 108:  0.00 109:  0.00 110:  0.00 111:  0.00 112:  0.00
 113:  0.00 114:  0.00 115:  0.00 116:  0.00 117:  0.00 118:  0.00 119:  0.00 120:  0.00
 121:  0.00 122:  0.00 123:  0.00 124:  0.00 125:  0.00 126:  0.00 127:  0.00 128:  0.00
 129:  0.00 130:  0.00 131:  0.00 132:  0.00 133:  0.00 134:  0.00 135:  0.00 136:  0.00
 137:  0.00 138:  0.00 139:  0.00 140:  0.00 141:  0.00 142:  0.00 143:  0.00 144:  0.00
 145:  0.00 146:  0.00 147:  0.00 148:  0.00 149:  0.00 150:  0.00 151:  0.00 152:  0.00
 153:  0.00 154:  0.00 155:  0.00 156:  0.00 157:  0.00 158:  0.00 159:  0.00 160:  0.00
 161:  0.00 162:  0.00 163:  0.00 164:  0.00 165:  0.00 166:  0.00 167:  0.00 168:  0.00
 169:  0.00 170:  0.00 171:  0.00 172:  0.00 173:  0.00 174:  0.00 175:  0.00 176:  0.00
 177:  0.00 178:  0.00 179:  0.00 180:  0.00 181:  0.00 182:  0.00 183:  0.00 184:  0.00
 185:  0.00 186:  0.00 187:  0.00 188:  0.00 189:  0.00 190:  0.00 191:  0.00 192:  0.00
 193:  0.00 194:  0.00 195:  0.00 196:  0.00 197:  0.00 198:  0.00 199:  0.00 200:  0.00
 201:  0.00 202:  0.00 203:  0.00 204:  0.00 205:  0.00 206:  0.00 207:  0.00 208:  0.00
 209:  0.00 210:  0.00 211:  0.00 212:  0.00 213:  0.00 214:  0.00 215:  0.00 216:  0.00
 217:  0.00 218:  0.00 219:  0.00 220:  0.00 221:  0.00 222:  0.00 223:  0.00 224:  0.00
 225:  0.00 226:  0.00 227:  0.00 228:  0.00 229:  0.00 230:  0.00 231:  0.00 232:  0.00
 233:  0.00 234:  0.00 235:  0.00 236:  0.00 237:  0.00 238:  0.00 239:  0.00 240:  0.00
 241:  0.00 242:  0.00 243:  0.00 244:  0.00 245:  0.00 246:  0.00 247:  0.00 248:  0.00
 249:  0.00 250:  0.00 251:  0.00 252:  0.00 253:  0.00 254:  0.00 255:  0.00 256:  0.00
 257:  0.00 258:  0.00 259:  0.00 260:  0.00 261:  0.00 262:  0.00 263:  0.00 264:  0.00
 265:  0.00 266:  0.00 267:  0.00 268:  0.00 269:  0.00 270:  0.00 271:  0.00 272:  0.00
 273:  0.00 274:  0.00 275:  0.00 276:  0.00 277:  0.00 278:  0.00 279:  0.00 280:  0.00
 281:  0.00 282:  0.00 283:  0.00 284:  0.00 285:  0.00 286:  0.00 287:  0.00 288:  0.00
 289:  0.00 290:  0.00 291:  0.00 292:  0.00 293:  0.00 294:  0.00 295:  0.00 296:  0.00
 297:  0.00 298:  0.00 299:  0.00 300:  0.00 301:  0.00 302:  0.00 303:  0.00 304:  0.00
 305:  0.00 306:  0.00 307:  0.00 308:  0.00 309:  0.00 310:  0.00 311:  0.00 312:  0.00
 313:  0.00 314:  0.00 315:  0.00 316:  0.00 317:  0.00 318:  0.00 319:  0.00 320:  0.00
 321:  0.00 322:  0.00 323:  0.00 324:  0.00 325:  0.00 326:  0.00 327:  0.00 328:  0.00
 329:  0.00 330:  0.00 331:  0.00 332:  0.00 333:  0.00 334:  0.00 335:  0.00 336:  0.00
 337:  0.00 338:  0.00 339:  0.00 340:  0.00 341:  0.00 342:  0.00 343:  0.00 344:  0.00
 345:  0.00
 output can be read by thermo (or use thermo option).
 writing <g98.out> molden fake output.
 recommended (thermochemical) frequency scaling factor: 1.0
           -------------------------------------------------
          |             Thermodynamic Functions             |
           -------------------------------------------------

c1  symmetry found (for desy threshold:  0.10E+00) used in thermo
 inverting freq            1   4.4292339773968923     
 inverting freq            2   3.7001582738135617     
 inverting freq            3   1.7638415898975066     

          ...................................................
          :                      SETUP                      :
          :.................................................:
          :  # frequencies                         339      :
          :  # imaginary freq.                       0      :
          :  linear?                             false      :
          :  only rotor calc.                    false      :
          :  symmetry                               c1      :
          :  rotational number                       1      :
          :  scaling factor                  1.0000000      :
          :  rotor cutoff                   50.0000000 cm⁻¹ :
          :  imag. cutoff                  -20.0000000 cm⁻¹ :
          :.................................................:

    mode    ω/cm⁻¹     T·S(HO)/kcal·mol⁻¹    T·S(FR)/kcal·mol⁻¹   T·S(vib)
   ------------------------------------------------------------------------
       1      4.43    -2.87094 (  0.01%)    -1.77457 ( 99.99%)    -1.77464
       2      3.70    -2.97749 (  0.00%)    -1.82785 (100.00%)    -1.82788
       3      1.76    -3.41645 (  0.00%)    -2.04731 (100.00%)    -2.04731
       4      3.52    -3.00681 (  0.00%)    -1.84251 (100.00%)    -1.84253
       5      5.30    -2.76491 (  0.01%)    -1.72156 ( 99.99%)    -1.72169
       6      6.05    -2.68655 (  0.02%)    -1.68237 ( 99.98%)    -1.68259
       7     13.43    -2.21371 (  0.52%)    -1.44592 ( 99.48%)    -1.44990
       8     14.73    -2.15893 (  0.75%)    -1.41852 ( 99.25%)    -1.42406
       9     18.44    -2.02592 (  1.82%)    -1.35198 ( 98.18%)    -1.36423
      10     23.54    -1.88163 (  4.68%)    -1.27977 ( 95.32%)    -1.30793
      11     26.09    -1.82069 (  6.90%)    -1.24927 ( 93.10%)    -1.28869
      12     26.23    -1.81747 (  7.04%)    -1.24765 ( 92.96%)    -1.28778
      13     31.68    -1.70576 ( 13.88%)    -1.19171 ( 86.12%)    -1.26308
      14     39.03    -1.58250 ( 27.07%)    -1.12993 ( 72.93%)    -1.25246
      15     41.91    -1.54049 ( 33.04%)    -1.10886 ( 66.96%)    -1.25148
      16     51.86    -1.41474 ( 53.65%)    -1.04571 ( 46.35%)    -1.24370
      17     52.69    -1.40536 ( 55.23%)    -1.04100 ( 44.77%)    -1.24224
      18     84.12    -1.13071 ( 88.90%)    -0.90244 ( 11.10%)    -1.10537
      19     96.16    -1.05268 ( 93.19%)    -0.86281 (  6.81%)    -1.03975
      20     99.76    -1.03128 ( 94.06%)    -0.85191 (  5.94%)    -1.02064
      21    100.04    -1.02967 ( 94.13%)    -0.85109 (  5.87%)    -1.01918
      22    101.81    -1.01948 ( 94.50%)    -0.84590 (  5.50%)    -1.00994
      23    107.42    -0.98836 ( 95.52%)    -0.83000 (  4.48%)    -0.98126
      24    118.79    -0.93022 ( 96.96%)    -0.80021 (  3.04%)    -0.92627
      25    120.28    -0.92301 ( 97.10%)    -0.79650 (  2.90%)    -0.91934
      26    120.74    -0.92081 ( 97.14%)    -0.79537 (  2.86%)    -0.91723
      27    123.77    -0.90655 ( 97.41%)    -0.78803 (  2.59%)    -0.90348
      28    145.73    -0.81314 ( 98.63%)    -0.73965 (  1.37%)    -0.81213
      29    149.07    -0.80026 ( 98.75%)    -0.73294 (  1.25%)    -0.79942
      30    153.78    -0.78260 ( 98.89%)    -0.72371 (  1.11%)    -0.78195
      31    161.67    -0.75437 ( 99.09%)    -0.70890 (  0.91%)    -0.75395
      32    176.54    -0.70504 ( 99.36%)    -0.68284 (  0.64%)    -0.70490
      33    177.00    -0.70359 ( 99.37%)    -0.68207 (  0.63%)    -0.70345
      34    177.43    -0.70222 ( 99.37%)    -0.68134 (  0.63%)    -0.70209
      35    178.63    -0.69847 ( 99.39%)    -0.67935 (  0.61%)    -0.69835
      36    215.65    -0.59489 ( 99.71%)    -0.62355 (  0.29%)    -0.59497
      37    223.94    -0.57454 ( 99.75%)    -0.61238 (  0.25%)    -0.57463
      38    226.54    -0.56833 ( 99.76%)    -0.60896 (  0.24%)    -0.56843
      39    226.97    -0.56731 ( 99.77%)    -0.60839 (  0.23%)    -0.56741
      40    227.10    -0.56702 ( 99.77%)    -0.60823 (  0.23%)    -0.56711
      41    227.20    -0.56677 ( 99.77%)    -0.60810 (  0.23%)    -0.56687
      42    230.95    -0.55800 ( 99.78%)    -0.60324 (  0.22%)    -0.55809
      43    231.37    -0.55704 ( 99.78%)    -0.60271 (  0.22%)    -0.55714
      44    234.37    -0.55015 ( 99.79%)    -0.59889 (  0.21%)    -0.55025
      45    237.33    -0.54347 ( 99.80%)    -0.59517 (  0.20%)    -0.54357
      46    237.51    -0.54306 ( 99.80%)    -0.59494 (  0.20%)    -0.54316
      47    243.05    -0.53083 ( 99.82%)    -0.58812 (  0.18%)    -0.53094
      48    245.94    -0.52460 ( 99.83%)    -0.58462 (  0.17%)    -0.52470
      49    245.97    -0.52453 ( 99.83%)    -0.58458 (  0.17%)    -0.52464
      50    246.20    -0.52404 ( 99.83%)    -0.58431 (  0.17%)    -0.52414
      51    246.93    -0.52247 ( 99.83%)    -0.58343 (  0.17%)    -0.52257
      52    259.50    -0.49645 ( 99.86%)    -0.56871 (  0.14%)    -0.49655
      53    270.39    -0.47517 ( 99.88%)    -0.55654 (  0.12%)    -0.47526
      54    271.36    -0.47332 ( 99.88%)    -0.55548 (  0.12%)    -0.47341
      55    271.77    -0.47254 ( 99.89%)    -0.55503 (  0.11%)    -0.47263
      56    272.13    -0.47186 ( 99.89%)    -0.55464 (  0.11%)    -0.47196
      57    272.59    -0.47099 ( 99.89%)    -0.55414 (  0.11%)    -0.47109
      58    273.43    -0.46942 ( 99.89%)    -0.55323 (  0.11%)    -0.46951
      59    285.63    -0.44714 ( 99.91%)    -0.54030 (  0.09%)    -0.44723
      60    290.98    -0.43776 ( 99.91%)    -0.53480 (  0.09%)    -0.43785
   ------------------------------------------------------------------------

   temp. (K)  partition function   enthalpy   heat capacity  entropy
                                   cal/mol     cal/K/mol   cal/K/mol   J/K/mol
 298.15  VIB  0.450E+35            39634.894    258.472    250.893
         ROT  0.822E+09              888.752      2.981     43.773
         INT  0.369E+44            40523.646    261.453    294.666
         TR   0.399E+29             1481.254      4.968     47.087
         TOT                       42004.9001   266.4210   341.7523  1429.8916

       T/K    H(0)-H(T)+PV         H(T)/Eh          T*S/Eh         G(T)/Eh
   ------------------------------------------------------------------------
    298.15    0.669391E-01    0.861966E+00    0.162378E+00    0.699588E+00
   ------------------------------------------------------------------------

         :::::::::::::::::::::::::::::::::::::::::::::::::::::
         ::                  THERMODYNAMIC                  ::
         :::::::::::::::::::::::::::::::::::::::::::::::::::::
         :: total free energy        -210.829293249269 Eh   ::
         ::.................................................::
         :: total energy             -211.528881352915 Eh   ::
         :: zero point energy           0.795026578552 Eh   ::
         :: G(RRHO) w/o ZPVE           -0.095438474906 Eh   ::
         :: G(RRHO) contrib.            0.699588103646 Eh   ::
         :::::::::::::::::::::::::::::::::::::::::::::::::::::

optimized geometry written to: xtbopt.xyz


           -------------------------------------------------
          | TOTAL ENERGY             -211.528881352915 Eh   |
          | TOTAL ENTHALPY           -210.666915705197 Eh   |
          | TOTAL FREE ENERGY        -210.829293249269 Eh   |
          | GRADIENT NORM               0.000383556478 Eh/α |
          | HOMO-LUMO GAP               1.115194458318 eV   |
           -------------------------------------------------

------------------------------------------------------------------------
 * finished run on 2021/11/19 at 11:27:17.184     
------------------------------------------------------------------------
 total:
 * wall-time:     0 d,  0 h,  4 min, 30.374 sec
 *  cpu-time:     0 d,  0 h,  4 min, 30.373 sec
 * ratio c/w:     1.000 speedup
 SCF:
 * wall-time:     0 d,  0 h,  0 min,  3.520 sec
 *  cpu-time:     0 d,  0 h,  0 min,  3.520 sec
 * ratio c/w:     1.000 speedup
 ANC optimizer:
 * wall-time:     0 d,  0 h,  0 min, 32.110 sec
 *  cpu-time:     0 d,  0 h,  0 min, 32.108 sec
 * ratio c/w:     1.000 speedup
 analytical hessian:
 * wall-time:     0 d,  0 h,  3 min, 53.691 sec
 *  cpu-time:     0 d,  0 h,  3 min, 53.694 sec
 * ratio c/w:     1.000 speedup

