115
 energy: -210.489446298176 gnorm: 0.633598266650 xtb: 6.4.1 (bd6e46d)
Ni       12.97627000000000    0.03373500000000   -0.00892400000000
C        15.30526100000000   -3.11305800000000    1.31376500000000
C        16.22136800000000   -2.16885000000000    1.26348300000000
C        15.81018900000000   -1.11494600000000    0.34219100000000
C        16.42905900000000    0.00940000000000   -0.00421900000000
C        15.72501700000000    1.22934800000000   -0.36832400000000
C        16.05312700000000    2.18940300000000   -1.21579800000000
C        15.01834800000000    3.20568800000000   -1.23269600000000
C        14.08208000000000    2.82922600000000   -0.38580400000000
N        14.48407000000000    1.59621500000000    0.17801300000000
C        12.82100500000000    3.47422500000000   -0.00665200000000
C        11.72578800000000    2.83944300000000    0.34410800000000
C        10.65216200000000    3.15739900000000    1.31313600000000
C         9.81460000000000    2.16064500000000    1.23597000000000
C        10.25289700000000    1.15696200000000    0.25551800000000
N        11.35783500000000    1.59581500000000   -0.22877400000000
C         9.64206200000000   -0.09630900000000   -0.15803000000000
C        10.30622300000000   -1.20081500000000   -0.41245500000000
C         9.93237400000000   -2.26375700000000   -1.36998200000000
C        10.88112100000000   -3.15751300000000   -1.28096300000000
C        11.86684500000000   -2.72006300000000   -0.29808500000000
N        11.51379900000000   -1.57425800000000    0.19871200000000
C        13.09773300000000   -3.37613300000000    0.14763600000000
C        14.22077500000000   -2.73027200000000    0.41475700000000
N        14.54937500000000   -1.48283100000000   -0.18364700000000
H        15.36552300000000   -4.02283900000000    1.93131100000000
H        17.13769500000000   -2.20880000000000    1.84153100000000
H        16.98049300000000    2.20619800000000   -1.81694100000000
H        15.03524700000000    4.11037700000000   -1.84531700000000
H        12.77328200000000    4.56902800000000   -0.01043000000000
H        10.59934100000000    4.03612400000000    1.93812800000000
H         8.90296900000000    2.12497500000000    1.85329400000000
H         8.54381200000000   -0.09339800000000   -0.25730100000000
H         9.06351800000000   -2.31622200000000   -2.01893200000000
H        10.87827500000000   -4.07382100000000   -1.87972200000000
H        13.06225100000000   -4.47193500000000    0.25956100000000
Ni       42.86170100000000   -0.01364100000000   -0.01335700000000
C        40.53271000000000    2.83315100000000    1.87014800000000
C        39.61660200000000    1.91466200000000    1.64557400000000
C        40.02778200000000    1.04996500000000    0.54476000000000
C        39.40891100000000    0.00940000000000   -0.00421900000000
C        40.11295400000000   -1.12182500000000   -0.58832200000000
C        39.78484300000000   -1.90799700000000   -1.59918900000000
C        40.81962300000001   -2.90350600000000   -1.80432900000000
C        41.75589100000000   -2.69069000000000   -0.90229900000000
N        41.35390100000000   -1.58367800000000   -0.11952700000000
C        43.01696500000000   -3.39483100000000   -0.64938500000000
C        44.11218300000000   -2.83613800000000   -0.18695200000000
C        45.18580800000000   -3.32834300000000    0.70627000000000
C        46.02337100000000   -2.33457600000000    0.81535500000000
C        45.58507300000000   -1.16642800000000    0.03812000000000
N        44.48013500000000   -1.50782000000000   -0.51917900000000
C        46.19590800000000    0.14180800000000   -0.13575000000000
C        45.53174800000001    1.27434100000000   -0.18085600000000
C        45.90559600000000    2.49646700000000   -0.92457100000000
C        44.95684900000000    3.35819400000000   -0.67129300000000
C        43.97112500000000    2.74599900000000    0.21337100000000
N        44.32417100000000    1.52792100000000    0.48898100000000
C        42.74023700000000    3.30799400000000    0.77306500000000
C        41.61719600000000    2.62378900000000    0.91573300000000
N        41.28859600000000    1.50901400000000    0.09629800000000
H        40.47244800000000    3.61257600000000    2.64575200000000
H        38.70027500000000    1.84668100000000    2.22100000000000
H        38.85747800000001   -1.81298000000000   -2.19301300000000
H        40.80272400000000   -3.67884100000000   -2.57414900000000
H        43.06468800000000   -4.46992900000000   -0.85619900000000
H        45.23863000000001   -4.30776000000000    1.15739700000000
H        46.93500100000000   -2.41404800000000    1.42858000000000
H        47.29415900000000    0.15736300000000   -0.23383700000000
H        46.77445200000000    2.66841000000000   -1.55252400000000
H        44.95969500000000    4.36967500000000   -1.08967000000000
H        42.77572000000001    4.36401000000000    1.08633400000000
C        19.32376300000000    0.00736400000000   -0.00533100000000
C        20.53174000000000    0.01481900000000   -0.00363600000000
C        21.95050700000000    0.01551600000000    0.00150100000000
C        23.16602400000000    0.00736400000000   -0.00533100000000
C        32.67391300000000    0.00736400000000   -0.00533100000000
C        33.88189000000000    0.01481900000000   -0.00363600000000
C        35.30065800000000    0.01551600000000    0.00150100000000
C        36.51617400000000    0.00736400000000   -0.00533100000000
Ni       27.95460500000000    0.02750000000000    0.00680800000000
C        25.67479400000000   -3.23394800000000   -0.90285800000000
C        24.71858500000000   -2.33459700000000   -1.00488500000000
C        25.11095900000000   -1.17229200000000   -0.20236900000000
C        24.47584300000000   -0.02102000000000    0.00989700000000
C        25.16130000000000    1.25358000000000    0.23612700000000
C        24.82601000000000    2.33218000000000    0.94036700000000
C        25.85055100000000    3.35149700000000    0.84978600000000
C        26.80114800000000    2.85457200000000    0.07642100000000
N        26.42415400000001    1.53796700000000   -0.33972200000000
C        28.04828800000000    3.46627300000000   -0.34044500000000
C        29.14983900000000    2.79901600000000   -0.67221600000000
C        30.14338600000000    3.05100100000000   -1.70638600000000
C        31.03726900000000    2.09014200000000   -1.60490200000000
C        30.65757100000000    1.17825800000000   -0.50092500000000
N        29.56265600000000    1.62757700000000    0.00644200000000
C        31.31477800000000   -0.02102000000000    0.00989700000000
C        30.69136600000000   -1.09020200000000    0.47141400000000
C        31.07007900000000   -2.02231700000000    1.54689000000000
C        30.12941000000000   -2.93646300000000    1.63275600000000
C        29.12110900000000   -2.64068400000000    0.63532900000000
N        29.45888400000000   -1.58730700000000   -0.01396600000000
C        27.86871600000000   -3.34769200000000    0.30413500000000
C        26.75483900000000   -2.75099500000000   -0.04320600000000
N        26.37272700000000   -1.46823800000000    0.37447700000000
H        25.67513900000000   -4.22502100000000   -1.39409300000000
H        23.81005100000000   -2.45629100000000   -1.58603300000000
H        23.90115700000000    2.45053100000000    1.51729300000000
H        25.87784600000000    4.34066100000000    1.30643600000000
H        28.13422800000000    4.56365100000000   -0.40246800000000
H        30.17605800000000    3.85721700000000   -2.43321000000000
H        31.93033000000000    1.97717400000000   -2.23867600000000
H        31.98482900000000   -1.94791100000000    2.15706000000000
H        30.14845700000000   -3.75007100000000    2.34102300000000
H        27.90720000000000   -4.44765100000000    0.36317200000000
115
 energy: -210.697634465039 gnorm: 0.338431868498 xtb: 6.4.1 (bd6e46d)
Ni       12.98837625792135    0.03079596744321   -0.00733078875127
C        15.30803665472692   -3.12356352467324    1.30158633097399
C        16.23887779371571   -2.16863842555849    1.25843825614030
C        15.80350600238669   -1.11593314908859    0.35011677114420
C        16.40480764449856    0.03537389671578   -0.00465558930098
C        15.70802382167532    1.22426172131996   -0.36209723425762
C        16.06796871939297    2.22186866864218   -1.23406670273916
C        15.05335057203631    3.20776095018846   -1.24674434075227
C        14.07472049434720    2.79911942329436   -0.38079506067758
N        14.44764111135359    1.56379916726587    0.17290634322195
C        12.84346393521644    3.47063495055023   -0.00574444566449
C        11.71712306202853    2.82020453295747    0.34510492661508
C        10.65006027608452    3.16663888072263    1.29088595540702
C         9.78429013356306    2.15376213419295    1.23809657795583
C        10.25005212735586    1.15526688047285    0.27645505543895
N        11.40653461225673    1.56005516514409   -0.19613357207299
C         9.62798331591778   -0.07217498232349   -0.15051186837189
C        10.31039169336202   -1.20222848669294   -0.41851134389546
C         9.92188949351569   -2.26645525952449   -1.35151249208023
C        10.88807653585980   -3.18253489225717   -1.27660582729522
C        11.87914649449308   -2.72728814137627   -0.30955549115587
N        11.53757367303260   -1.53905660232651    0.15946960645871
C        13.07859123163939   -3.38345122133163    0.13929168944887
C        14.22519329442160   -2.71254030452126    0.41919354742640
N        14.53301852902316   -1.46624665717708   -0.14312895669360
H        15.35461829773678   -4.01681668595108    1.92047766961365
H        17.14472746953524   -2.19628184627503    1.83793609822310
H        16.97893302986249    2.21883881472269   -1.82006256420875
H        15.04577470501044    4.10636814905044   -1.84705232152304
H        12.79595720731349    4.56258881027818   -0.00079915487439
H        10.60862730383799    4.03434045725360    1.92862501651850
H         8.89540921922497    2.11288448772653    1.85235480323194
H         8.54417292875610   -0.08105306572673   -0.26548262990372
H         9.06537537402045   -2.30427575847875   -2.00835568824410
H        10.89278849654280   -4.08051642222768   -1.87533173089185
H        13.05540017574502   -4.46760111746830    0.26035895059868
Ni       42.84959653670791   -0.01103576888347   -0.01125350698759
C        40.52995165868376    2.84572773337050    1.86013544463403
C        39.59910501308330    1.91539705231378    1.64057135116239
C        40.03439848440835    1.04946870438747    0.55273196038751
C        39.43283199833973   -0.01611443743348   -0.00924128344128
C        40.12991295498933   -1.11798377440757   -0.58126240920235
C        39.76999793798439   -1.93650404133077   -1.62311134339692
C        40.78464906631423   -2.90294709816406   -1.81850307939613
C        41.76325397941257   -2.66205050980709   -0.89180989161422
N        41.39030627390874   -1.55082368756203   -0.11858705540316
C        42.99450013640148   -3.39148410407963   -0.64782565393035
C        44.12084490612413   -2.81741687826829   -0.18239716973548
C        45.18790372814264   -3.33329139189370    0.68268695647406
C        46.05367745252354   -2.32819880931327    0.81871978473090
C        45.58791850831579   -1.16864784919766    0.05900739468388
N        44.43143274631618   -1.47874503061132   -0.48046983014551
C        46.20998421002901    0.11669655514220   -0.13283768463392
C        45.52757495644447    1.27685230795646   -0.18654324448251
C        45.91607522895806    2.49569109044440   -0.90592187355454
C        44.94989314517908    3.38197552605813   -0.66236610326285
C        43.95881949968412    2.75522577910160    0.20344340024229
N        44.30039688891127    1.50060921026158    0.44389421436802
C        42.75937387628505    3.31673164292851    0.76621347397643
C        41.61276746869313    2.60552749489616    0.91679471979416
N        41.30493260057620    1.48514160969465    0.13307270348784
H        40.48335150555778    3.60866898648294    2.63398583537189
H        38.69324585202199    1.83508395741278    2.21515006967385
H        38.85905019539553   -1.82480196477800   -2.19843508575951
H        40.79221119289475   -3.67458540334464   -2.57511837915839
H        43.04202193603252   -4.46540074893630   -0.84554979698728
H        45.22934454775680   -4.30424554514864    1.14838787392977
H        46.94256208373505   -2.40199174701098    1.42989841025197
H        47.29379624147698    0.14675109056042   -0.24416663761079
H        46.77259185915199    2.65470841126834   -1.54434690459303
H        44.94517827786730    4.37543981105284   -1.08411293927372
H        42.78256206198945    4.35960420833461    1.08630409061460
C        19.30904614253872    0.00772962233882   -0.00334048513410
C        20.53021256426467    0.01512107339331   -0.00424585181552
C        21.91538048141467    0.01717766876868    0.00129915442194
C        23.13511333611266    0.01932737443281   -0.00839912840264
C        32.70009298558060    0.01826475314736    0.00011004727014
C        33.91733104714601    0.01596357446882   -0.00227383427803
C        35.30525697301531    0.01435648425421    0.00136773785660
C        36.52580044362146    0.00675509041121   -0.00485337777748
Ni       27.94558330334632    0.02967239409546    0.00467341823285
C        25.67431409365478   -3.25626296962208   -0.89182876181676
C        24.71293352774796   -2.33500085945612   -0.99340232745848
C        25.14348577806271   -1.18572703928066   -0.20789518208343
C        24.49350468522104    0.00227413540738    0.00741613550464
C        25.19693457102593    1.25816655063110    0.23548497697587
C        24.81522157621071    2.36271149493639    0.95165023447236
C        25.82226128256293    3.35323023954144    0.85715327625851
C        26.81416992748819    2.82948214575024    0.07470662485253
N        26.46255963752170    1.51517981592557   -0.31741945351346
C        28.03118678330902    3.46440776472491   -0.34373138432464
C        29.15755203350823    2.78435988586510   -0.67335821185095
C        30.15447281917181    3.06054338493167   -1.68848135288420
C        31.06171920295409    2.07771838154428   -1.60272809672332
C        30.65480997110923    1.17389437378328   -0.52260707488622
N        29.51464542981668    1.59396339529101   -0.02313730738318
C        31.32230550779902   -0.00292360469167    0.00012989307981
C        30.67347538379136   -1.10141493973841    0.48050501933139
C        31.08387868264682   -2.02399678267132    1.53300685663733
C        30.12588967810630   -2.95605168871912    1.63057046784725
C        29.10766648961598   -2.64498139850031    0.64707994006491
N        29.43066876094631   -1.53926276822525    0.00859254127231
C        27.89033086203655   -3.35639201101034    0.31460939243086
C        26.74475359954635   -2.73762421665606   -0.05233848469613
N        26.39862842287467   -1.44451024589663    0.32848177958791
H        25.68178884493977   -4.22251551037296   -1.38924125858629
H        23.81134964677887   -2.44251444001193   -1.57923619150898
H        23.89958307336262    2.45692785762234    1.51916084529350
H        25.86217154201214    4.33371379591201    1.30956862249525
H        28.10997719669973    4.55574523228542   -0.41136405549065
H        30.16715294929944    3.85542010129184   -2.42162852865793
H        31.93301734959496    1.96768169273598   -2.23494035389746
H        31.97859769475143   -1.94113612001651    2.14572156257185
H        30.13848115564130   -3.75872618798088    2.34171558053049
H        27.91596586544500   -4.44570839709840    0.35950098990519
115
 energy: -210.822968236053 gnorm: 0.137528601176 xtb: 6.4.1 (bd6e46d)
Ni       12.99797250701032    0.03034457548944   -0.00355737116867
C        15.30744289417575   -3.12811923477058    1.28683556220324
C        16.25281304030101   -2.16681460901213    1.25100365671484
C        15.78980415430085   -1.11330975319430    0.36591895686642
C        16.36820334070443    0.06350212048776   -0.00712633308129
C        15.68832052462566    1.21395042853524   -0.36147374475168
C        16.07608438008408    2.25397114589272   -1.24272390190760
C        15.08970558720324    3.20571612054454   -1.24611155697484
C        14.06567992701298    2.76560469120644   -0.37410662749662
N        14.40860461403434    1.52884801560799    0.14524173860479
C        12.86913065575617    3.45764301336352   -0.00540153325267
C        11.72172888491557    2.78742716200517    0.35713524380613
C        10.65561738229722    3.16650637533433    1.26253367275014
C         9.75892528814095    2.15076036586256    1.22786557750201
C        10.24895790645943    1.14991312983796    0.30030278293600
N        11.46396402774480    1.51624717703747   -0.14683017036528
C         9.62175837530150   -0.04901707000809   -0.14117567568591
C        10.32459626753097   -1.19439210899375   -0.43651700061427
C         9.91948209401727   -2.26492942810841   -1.32963541764231
C        10.89087214138013   -3.20300014126476   -1.26207194429483
C        11.89394286626107   -2.72926839201379   -0.32345881449807
N        11.56771024741005   -1.48952215616227    0.10446634923042
C        13.06042179141917   -3.38229065184520    0.12954610565748
C        14.22278608545205   -2.68586707557351    0.42989373773400
N        14.51139951037393   -1.44802138377947   -0.09519157641335
H        15.34228525040910   -4.01123031796964    1.90294874643509
H        17.15450483635450   -2.18220311974164    1.82808149828596
H        16.97733041194635    2.22924456705119   -1.81793810764471
H        15.05160481190204    4.10046465894391   -1.84051733087748
H        12.81897240131851    4.54640756536428    0.00026317710124
H        10.61846418122281    4.02869728299300    1.90908178806890
H         8.88706448306152    2.10068380084644    1.84337853335846
H         8.54778369841038   -0.07301254491758   -0.26413094480934
H         9.06909595670456   -2.29208716606654   -1.99032770992504
H        10.90732918658958   -4.08841345823354   -1.86321757565538
H        13.05426113127583   -4.45873125448994    0.25379353375647
Ni       42.83998958900788   -0.01128128481073   -0.00747560647033
C        40.53055919817945    2.85294451373987    1.84645791857160
C        39.58517606248420    1.91498736768112    1.63288194340568
C        40.04813737185588    1.04390896266203    0.56775999536628
C        39.46926690370799   -0.04333569104355   -0.01682645323063
C        40.14965869835918   -1.10797048070776   -0.57873155397130
C        39.76188366351375   -1.96645858032598   -1.63753361532916
C        40.74831204816153   -2.90107351923421   -1.81749663591175
C        41.77230948898973   -2.63037666334480   -0.87903139103972
N        41.42935406609340   -1.51130329460461   -0.13930790352440
C        42.96882728466608   -3.37878824589453   -0.64507169626102
C        44.11623913925924   -2.78744032157649   -0.16448836353387
C        45.18233828685571   -3.32789108421992    0.65485827511122
C        46.07904279629322   -2.32334052370869    0.80921498756890
C        45.58901229343752   -1.16781087031402    0.08342767928718
N        44.37399732721623   -1.44485215677792   -0.42389673455404
C        46.21620646456358    0.09220845432709   -0.12797507674802
C        45.51336532007000    1.27249236852676   -0.20571367642434
C        45.91847584488320    2.49012718305181   -0.88474195649360
C        44.94709726034461    3.39938863546773   -0.64431823918317
C        43.94401830453316    2.75975450621183    0.19011958113626
N        44.27025972865792    1.46214053168843    0.38062911205743
C        42.77753689575177    3.31739699266986    0.75637951092617
C        41.61517441727511    2.57731880845072    0.92233484288928
N        41.32655443621044    1.45830784747336    0.17678327540646
H        40.49568298405700    3.60644300370134    2.61568789532450
H        38.68347355879140    1.82312475194811    2.20283148212078
H        38.86066878657439   -1.83544045939926   -2.19827203226484
H        40.78637656318886   -3.67000772574313   -2.56759746358632
H        43.01901104846714   -4.44970305226305   -0.84150488854634
H        45.21950823787856   -4.29506395920810    1.13024064995857
H        46.95090813839919   -2.38832640748638    1.42333446121000
H        47.29018312147042    0.13860022458129   -0.24434831530284
H        46.76886654609131    2.63937768825089   -1.52892779183958
H        44.93063249359832    4.38094799528485   -1.07078516936332
H        42.78368660468703    4.35210939798559    1.07815576488612
C        19.30006340227757    0.00958214830939   -0.00232869964785
C        20.52767868393455    0.01541646972351   -0.00542951285397
C        21.88860722777394    0.01700150609487    0.00247137238158
C        23.11457474342341    0.03089624936767   -0.00852766851913
C        32.72425898207917    0.02084728680937   -0.00028131734161
C        33.94804463661473    0.01510971759868    0.00031463444277
C        35.31060044443268    0.01345726124366    0.00018011760466
C        36.53668007946428    0.00571093209465   -0.00446204113290
Ni       27.94040880271412    0.03239299971649   -0.00034697723452
C        25.67905484938472   -3.27149377970062   -0.87815663151209
C        24.71191379584925   -2.32935951307039   -0.97802785359500
C        25.17572937188730   -1.18747084238107   -0.22032796027599
C        24.50693506127127    0.02924999476173    0.00603619379697
C        25.23427579451749    1.25520798230121    0.23528798493338
C        24.80824961298418    2.39203343927696    0.95323657713148
C        25.79281204126799    3.34917977001179    0.85418356094917
C        26.82952972567541    2.80021237169610    0.07422985362368
N        26.50159125502673    1.48845402703727   -0.27137122355985
C        28.01075656752446    3.45483607116124   -0.34617825504375
C        29.15498807234599    2.75571274395817   -0.68335024388153
C        30.16063181427842    3.06202123614865   -1.66616200031081
C        31.08286453043166    2.06621769765387   -1.58911242488618
C        30.65382389683444    1.16330732103363   -0.54592153551789
N        29.46001762055574    1.55099692578347   -0.06569835223701
C        31.33190705159159    0.01417627629350   -0.01098084568963
C        30.65118960022253   -1.10053609552023    0.49670036626187
C        31.08933812570669   -2.02010619348878    1.51477725530284
C        30.12393660489022   -2.97245680515304    1.61617879662321
C        29.09173554241531   -2.64380676314128    0.66053987029274
N        29.40036460186875   -1.47597412120693    0.04720977204582
C        27.91152918553765   -3.35447233981388    0.32510388626047
C        26.74506741601365   -2.71920605864066   -0.07092335376384
N        26.42558469135124   -1.41990959580349    0.27109395584550
H        25.68880266833373   -4.22121167563511   -1.37683824035730
H        23.81320520458651   -2.42558056256458   -1.56403037440449
H        23.89802208946933    2.46004527565825    1.51482957426250
H        25.84777499556003    4.32366472058137    1.30657765662066
H        28.08358096139488    4.54041684814683   -0.41313045644273
H        30.15780546345065    3.85299557218186   -2.40017065927116
H        31.93741345851785    1.95844725812323   -2.22433360190553
H        31.97116118305275   -1.93580778214565    2.12746086790043
H        30.12729006335145   -3.76791624988914    2.33335158485725
H        27.91955626345652   -4.43712096790771    0.36250821264872
115
 energy: -210.891084919634 gnorm: 0.085574908094 xtb: 6.4.1 (bd6e46d)
Ni       13.00410233033242    0.03153108882488    0.00273875763563
C        15.30845577265515   -3.12673175020233    1.27372090769022
C        16.26075184470715   -2.16387921605805    1.24407012405469
C        15.77441280222223   -1.10279564009308    0.39163629833296
C        16.33875523938208    0.07700790937035   -0.00357755781972
C        15.67187762393049    1.20309008255788   -0.37359397482121
C        16.08553080672514    2.27303469546243   -1.24479553521708
C        15.11228625125514    3.21002631513795   -1.23934529136790
C        14.05917661258955    2.73994519859904   -0.37636687061129
N        14.37674142239240    1.49594907793088    0.10141492998168
C        12.89062421286499    3.43518336501326   -0.00114092504964
C        11.74306918381427    2.74880170773201    0.38194187374502
C        10.66045284156303    3.16023453849871    1.23922223329337
C         9.74362852708600    2.15239949000312    1.21051251346614
C        10.25721360523230    1.13327930941748    0.32961471362920
N        11.51549074389574    1.46745038102982   -0.08141755533224
C         9.62542857631844   -0.03564708291138   -0.13404075334865
C        10.34513970299801   -1.17732361892303   -0.46412809055418
C         9.92114463568737   -2.26450132156517   -1.31262967935007
C        10.88835915715790   -3.21528665100402   -1.24322726201805
C        11.91096011229038   -2.71789085020411   -0.34726778577864
N        11.60279115769007   -1.44039251836485    0.03759577663923
C        13.05198131941008   -3.37242018228846    0.12316231593147
C        14.21495388064965   -2.66299637512000    0.44735248280729
N        14.48671773911099   -1.42160277649547   -0.04154587756133
H        15.33207195126923   -4.01341689926234    1.87915141803573
H        17.17020206209544   -2.16907444601083    1.80941372102090
H        16.99013700304931    2.24057380844835   -1.81339870803682
H        15.05719063001801    4.10654411833285   -1.82750857735744
H        12.84548604852013    4.52130822006693   -0.00302794941742
H        10.62596708270859    4.02738363745073    1.87708953064694
H         8.86922234021726    2.09302371903355    1.82334061947935
H         8.55203893040061   -0.06497574310245   -0.25448842242114
H         9.06613198281896   -2.28370851049619   -1.96432105151196
H        10.91873330457980   -4.10473568361887   -1.83884538048428
H        13.05503350721933   -4.44804609222234    0.23971294937340
Ni       42.83384687429154   -0.01362766289221   -0.00149388317664
C        40.52952534822111    2.85399381505375    1.83330814343155
C        39.57718190978503    1.91339483724844    1.62552421789750
C        40.06339731693443    1.02878468339923    0.59105292338616
C        39.49849184438285   -0.05726131437503   -0.01591899434404
C        40.16595459574008   -1.09504925488792   -0.58855183369147
C        39.75238404398088   -1.98481752488123   -1.64307366887283
C        40.72569643985586   -2.90652917830198   -1.81161094437841
C        41.77877783712260   -2.60467017660242   -0.87646068265513
N        41.46111515835465   -1.47076249135961   -0.17624254408527
C        42.94730079768571   -3.35746264210728   -0.63667600652403
C        44.09488530505240   -2.75407392478781   -0.13291074743032
C        45.17749696941748   -3.31740260787140    0.63314893960563
C        46.09433774908467   -2.32173485945964    0.79188529953404
C        45.58075513394905   -1.15690163091962    0.11534112409952
N        44.32246884296585   -1.40902815261027   -0.35054062098698
C        46.21253767228531    0.07774609941621   -0.12342929581638
C        45.49282176123256    1.26083825780893   -0.23600549779636
C        45.91681389121864    2.48654850310182   -0.86810717322603
C        44.94960676475417    3.40795780547992   -0.62352208156588
C        43.92698995646096    2.75297576826968    0.16460494603448
N        44.23517578172682    1.42625837824212    0.30580120956183
C        42.78594194039733    3.30883413787007    0.74825165851494
C        41.62297604886494    2.55154118372733    0.93525219801206
N        41.35115693234042    1.42229571544181    0.22463932831640
H        40.50589193390839    3.61300478017259    2.59268768389752
H        38.66774341609766    1.81373766745564    2.18206549461229
H        38.84784643662674   -1.84746204413685   -2.19590052783434
H        40.78077785772426   -3.67837417384822   -2.55589357955460
H        42.99246699769573   -4.42439066292041   -0.84004292435463
H        45.21200072430150   -4.28783287440199    1.09908214272337
H        46.96874658727943   -2.37708155889923    1.40508958016036
H        47.28592745749280    0.12891164176849   -0.23634751655657
H        46.77182951554354    2.62631383444190   -1.50492342582712
H        44.91922309815659    4.39245636534416   -1.04381134237952
H        42.78287116941882    4.34418519869849    1.06229752449754
C        19.28630853109672    0.01209651378889   -0.00186792740738
C        20.51607541533992    0.01674434285465   -0.00734188600695
C        21.87640969295147    0.02001590567328    0.00399053509015
C        23.10514719565427    0.04452527167282   -0.00519077587238
C        32.74205956585915    0.02004374382204   -0.00368677692574
C        33.96943896353226    0.01457884016305    0.00135678313912
C        35.32851025991879    0.01143837708716   -0.00108021271246
C        36.55675540094291    0.00301427467142   -0.00459352252724
Ni       27.94264541895781    0.03684806606874   -0.00771101329552
C        25.68248990140086   -3.27475607851155   -0.86480458775653
C        24.71299223454508   -2.32354129816019   -0.96242078522540
C        25.19700572980734   -1.17391651984271   -0.24391273162028
C        24.51137318587738    0.04926349399604    0.00151352291097
C        25.25676209843787    1.24639340611285    0.24496451270546
C        24.80002632389323    2.40690920369568    0.94967607835810
C        25.77355835646818    3.34895289542544    0.84735741735458
C        26.84139835771030    2.77564607142229    0.08611923088959
N        26.53446461403895    1.45785173119918   -0.21007733820484
C        27.99487615423444    3.43348012897816   -0.34958582219577
C        29.13992923799121    2.71844340790482   -0.70329277230036
C        30.16500069419054    3.05640510053056   -1.64681277021390
C        31.09863459078859    2.06150574145791   -1.57235224530184
C        30.64935636153089    1.14032510746864   -0.57205843528441
N        29.41393865836515    1.49874866663471   -0.12182287811930
C        31.34352339781575    0.02374740827780   -0.01830250651172
C        30.63389655790784   -1.08415001171997    0.51732351569773