      -----------------------------------------------------------      
     |                   =====================                   |     
     |                           x T B                           |     
     |                   =====================                   |     
     |                         S. Grimme                         |     
     |          Mulliken Center for Theoretical Chemistry        |     
     |                    University of Bonn                     |     
      -----------------------------------------------------------      

   * xtb version 6.4.1 (bd6e46d) compiled by 'conda@4901f00b25ba' on 2021-06-10

   xtb is free software: you can redistribute it and/or modify it under
   the terms of the GNU Lesser General Public License as published by
   the Free Software Foundation, either version 3 of the License, or
   (at your option) any later version.
   
   xtb is distributed in the hope that it will be useful,
   but WITHOUT ANY WARRANTY; without even the implied warranty of
   MERCHANTABILITY or FITNESS FOR A PARTICULAR PURPOSE.  See the
   GNU Lesser General Public License for more details.
   
   Cite this work as:
   * C. Bannwarth, E. Caldeweyher, S. Ehlert, A. Hansen, P. Pracht,
     J. Seibert, S. Spicher, S. Grimme, WIREs Comput. Mol. Sci., 2020, 11,
     e01493. DOI: 10.1002/wcms.1493
   
   for GFN2-xTB:
   * C. Bannwarth, S. Ehlert and S. Grimme., J. Chem. Theory Comput., 2019,
     15, 1652-1671. DOI: 10.1021/acs.jctc.8b01176
   for GFN1-xTB:
   * S. Grimme, C. Bannwarth, P. Shushkov, J. Chem. Theory Comput., 2017,
     13, 1989-2009. DOI: 10.1021/acs.jctc.7b00118
   for GFN0-xTB:
   * P. Pracht, E. Caldeweyher, S. Ehlert, S. Grimme, ChemRxiv, 2019, preprint.
     DOI: 10.26434/chemrxiv.8326202.v1
   for GFN-FF:
   * S. Spicher and S. Grimme, Angew. Chem. Int. Ed., 2020, 59, 15665-15673.
     DOI: 10.1002/anie.202004239
   
   for DFT-D4:
   * E. Caldeweyher, C. Bannwarth and S. Grimme, J. Chem. Phys., 2017,
     147, 034112. DOI: 10.1063/1.4993215
   * E. Caldeweyher, S. Ehlert, A. Hansen, H. Neugebauer, S. Spicher,
     C. Bannwarth and S. Grimme, J. Chem. Phys., 2019, 150, 154122.
     DOI: 10.1063/1.5090222
   * E. Caldeweyher, J.-M. Mewes, S. Ehlert and S. Grimme, Phys. Chem. Chem. Phys.
     2020, 22, 8499-8512. DOI: 10.1039/D0CP00502A
   
   for sTDA-xTB:
   * S. Grimme and C. Bannwarth, J. Chem. Phys., 2016, 145, 054103.
     DOI: 10.1063/1.4959605
   
   in the mass-spec context:
   * V. Asgeirsson, C. Bauer and S. Grimme, Chem. Sci., 2017, 8, 4879.
     DOI: 10.1039/c7sc00601b
   * J. Koopman and S. Grimme, ACS Omega 2019, 4, 12, 15120-15133.
     DOI: 10.1021/acsomega.9b02011
   
   for metadynamics refer to:
   * S. Grimme, J. Chem. Theory Comput., 2019, 155, 2847-2862
     DOI: 10.1021/acs.jctc.9b00143
   
   for SPH calculations refer to:
   * S. Spicher and S. Grimme, J. Chem. Theory Comput., 2021, 17, 1701-1714
     DOI: 10.1021/acs.jctc.0c01306
   
   with help from (in alphabetical order)
   P. Atkinson, C. Bannwarth, F. Bohle, G. Brandenburg, E. Caldeweyher
   M. Checinski, S. Dohm, S. Ehlert, S. Ehrlich, I. Gerasimov, J. Koopman
   C. Lavigne, S. Lehtola, F. März, M. Müller, F. Musil, H. Neugebauer
   J. Pisarek, C. Plett, P. Pracht, J. Seibert, P. Shushkov, S. Spicher
   M. Stahn, M. Steiner, T. Strunk, J. Stückrath, T. Rose, and J. Unsleber
   
 * started run on 2021/11/21 at 21:09:46.692     

           -------------------------------------------------
          |                Calculation Setup                |
           -------------------------------------------------

          program call               : /home/jeff/miniconda3/bin/xtb /home/jeff/chem/final-year-proejct/free_base/_6_3_outenergy/input_structure.xyz --gfn 2 --parallel 1 --etemp 300 --chrg 0 --uhf 0 -I det_control.in
          coordinate file            : /home/jeff/chem/final-year-proejct/free_base/_6_3_outenergy/input_structure.xyz
          omp threads                :                     1
          number of atoms            :                   122
          number of electrons        :                   386
          charge                     :                     0
          spin                       :                   0.0
          first test random number   :      0.66504886501023

   ID    Z sym.   atoms
    1    6 C      1-8, 10-14, 16-20, 22, 23, 38-45, 47-51, 53-57, 59, 60,
                  75-94, 96-100, 102-106, 108, 109
    2    7 N      9, 15, 21, 24, 46, 52, 58, 61, 95, 101, 107, 110
    3    1 H      25-37, 62-74, 111-122

           -------------------------------------------------
          |                 G F N 2 - x T B                 |
           -------------------------------------------------

        Reference                      10.1021/acs.jctc.8b01176
      * Hamiltonian:
        H0-scaling (s, p, d)           1.850000    2.230000    2.230000
        zeta-weighting                 0.500000
      * Dispersion:
        s8                             2.700000
        a1                             0.520000
        a2                             5.000000
        s9                             5.000000
      * Repulsion:
        kExp                           1.500000    1.000000
        rExp                           1.000000
      * Coulomb:
        alpha                          2.000000
        third order                    shell-resolved
        anisotropic                    true
        a3                             3.000000
        a5                             4.000000
        cn-shift                       1.200000
        cn-exp                         4.000000
        max-rad                        5.000000


          ...................................................
          :                      SETUP                      :
          :.................................................:
          :  # basis functions                 374          :
          :  # atomic orbitals                 374          :
          :  # shells                          206          :
          :  # electrons                       386          :
          :  max. iterations                   250          :
          :  Hamiltonian                  GFN2-xTB          :
          :  restarted?                      false          :
          :  GBSA solvation                  false          :
          :  PC potential                    false          :
          :  electronic temp.          300.0000000     K    :
          :  accuracy                    1.0000000          :
          :  -> integral cutoff          0.2500000E+02      :
          :  -> integral neglect         0.1000000E-07      :
          :  -> SCF convergence          0.1000000E-05 Eh   :
          :  -> wf. convergence          0.1000000E-03 e    :
          :  Broyden damping             0.4000000          :
          ...................................................

 iter      E             dE          RMSdq      gap      omega  full diag
   1   -211.9750516 -0.211975E+03  0.585E+00    0.71       0.0  T
   2   -212.2709973 -0.295946E+00  0.373E+00    0.93       1.0  T
   3   -212.1733594  0.976379E-01  0.151E+00    0.78       1.0  T
   4   -212.2633699 -0.900105E-01  0.608E-01    0.93       1.0  T
   5   -212.3217551 -0.583851E-01  0.229E-01    0.92       1.0  T
   6   -212.3307859 -0.903088E-02  0.937E-02    0.92       1.0  T
   7   -212.3313815 -0.595608E-03  0.601E-02    0.92       1.0  T
   8   -212.3317294 -0.347843E-03  0.240E-02    0.92       1.0  T
   9   -212.3317772 -0.478529E-04  0.120E-02    0.92       1.0  T
  10   -212.3317824 -0.516895E-05  0.620E-03    0.92       1.5  T
  11   -212.3317871 -0.467363E-05  0.168E-03    0.92       5.4  T
  12   -212.3317873 -0.258430E-06  0.808E-04    0.92      11.2  T
  13   -212.3317874 -0.551810E-07  0.403E-04    0.92      22.5  T

   *** convergence criteria satisfied after 13 iterations ***

         #    Occupation            Energy/Eh            Energy/eV
      -------------------------------------------------------------
         1        2.0000           -0.6851795             -18.6447
       ...           ...                  ...                  ...
       187        2.0000           -0.3716157             -10.1122
       188        2.0000           -0.3702645             -10.0754
       189        2.0000           -0.3691131             -10.0441
       190        2.0000           -0.3690459             -10.0422
       191        2.0000           -0.3624491              -9.8627
       192        2.0000           -0.3553861              -9.6705
       193        2.0000           -0.3471165              -9.4455 (HOMO)
       194                         -0.3131915              -8.5224 (LUMO)
       195                         -0.3038135              -8.2672
       196                         -0.2991501              -8.1403
       197                         -0.2982959              -8.1170
       198                         -0.2978036              -8.1036
       ...                                ...                  ...
       374                          1.7161355              46.6984
      -------------------------------------------------------------
                  HL-Gap            0.0339250 Eh            0.9231 eV
             Fermi-level           -0.3301540 Eh           -8.9839 eV

 SCC (total)                   0 d,  0 h,  0 min,  0.597 sec
 SCC setup                      ...        0 min,  0.003 sec (  0.465%)
 Dispersion                     ...        0 min,  0.007 sec (  1.210%)
 classical contributions        ...        0 min,  0.001 sec (  0.146%)
 integral evaluation            ...        0 min,  0.048 sec (  8.005%)
 iterations                     ...        0 min,  0.390 sec ( 65.200%)
 molecular gradient             ...        0 min,  0.146 sec ( 24.437%)
 printout                       ...        0 min,  0.003 sec (  0.535%)

         :::::::::::::::::::::::::::::::::::::::::::::::::::::
         ::                     SUMMARY                     ::
         :::::::::::::::::::::::::::::::::::::::::::::::::::::
         :: total energy            -208.278303931096 Eh    ::
         :: gradient norm              0.000426344411 Eh/a0 ::
         :: HOMO-LUMO gap              0.923145306448 eV    ::
         ::.................................................::
         :: SCC energy              -212.331787390346 Eh    ::
         :: -> isotropic ES            0.102020254882 Eh    ::
         :: -> anisotropic ES         -0.009074155255 Eh    ::
         :: -> anisotropic XC          0.151499846722 Eh    ::
         :: -> dispersion             -0.166468881931 Eh    ::
         :: repulsion energy           4.055840773063 Eh    ::
         :: add. restraining           0.000000000000 Eh    ::
         :: total charge               0.000000000004 e     ::
         :::::::::::::::::::::::::::::::::::::::::::::::::::::

           -------------------------------------------------
          |                Property Printout                |
           -------------------------------------------------

    * Orbital Energies and Occupations

         #    Occupation            Energy/Eh            Energy/eV
      -------------------------------------------------------------
         1        2.0000           -0.6851795             -18.6447
       ...           ...                  ...                  ...
       181        2.0000           -0.3788232             -10.3083
       182        2.0000           -0.3739971             -10.1770
       183        2.0000           -0.3736035             -10.1663
       184        2.0000           -0.3725044             -10.1364
       185        2.0000           -0.3725001             -10.1362
       186        2.0000           -0.3716166             -10.1122
       187        2.0000           -0.3716157             -10.1122
       188        2.0000           -0.3702645             -10.0754
       189        2.0000           -0.3691131             -10.0441
       190        2.0000           -0.3690459             -10.0422
       191        2.0000           -0.3624491              -9.8627
       192        2.0000           -0.3553861              -9.6705
       193        2.0000           -0.3471165              -9.4455 (HOMO)
       194                         -0.3131915              -8.5224 (LUMO)
       195                         -0.3038135              -8.2672
       196                         -0.2991501              -8.1403
       197                         -0.2982959              -8.1170
       198                         -0.2978036              -8.1036
       199                         -0.2960693              -8.0565
       200                         -0.2717058              -7.3935
       201                         -0.2617382              -7.1223
       202                         -0.2581160              -7.0237
       203                         -0.2518150              -6.8522
       204                         -0.2511395              -6.8339
       ...                                ...                  ...
       374                          1.7161355              46.6984
      -------------------------------------------------------------
                  HL-Gap            0.0339250 Eh            0.9231 eV
             Fermi-level           -0.3301540 Eh           -8.9839 eV

     #   Z          covCN         q      C6AA      α(0)
     1   6 C        3.016    -0.055    29.335     8.885
     2   6 C        3.009    -0.053    29.300     8.879
     3   6 C        3.196     0.087    25.562     8.242
     4   6 C        2.952     0.011    27.761     8.642
     5   6 C        3.097     0.064    26.450     8.429
     6   6 C        3.026    -0.050    29.211     8.865
     7   6 C        3.034    -0.052    29.250     8.871
     8   6 C        3.073     0.064    26.485     8.438
     9   7 N        2.785    -0.081    22.819     7.095
    10   6 C        2.899    -0.055    29.363     8.885
    11   6 C        3.170     0.087    25.717     8.285
    12   6 C        3.012    -0.054    29.314     8.881
    13   6 C        3.009    -0.054    29.316     8.882
    14   6 C        3.174     0.086    25.706     8.281
    15   7 N        1.870    -0.321    29.171     8.006
    16   6 C        2.899    -0.057    29.407     8.891
    17   6 C        3.074     0.065    26.469     8.435
    18   6 C        3.025    -0.051    29.238     8.869
    19   6 C        3.031    -0.051    29.230     8.868
    20   6 C        3.068     0.066    26.460     8.435
    21   7 N        2.787    -0.081    22.812     7.094
    22   6 C        2.899    -0.055    29.363     8.885
    23   6 C        3.175     0.086    25.719     8.282
    24   7 N        1.870    -0.325    29.279     8.021
    25   1 H        0.926     0.019     2.753     2.595
    26   1 H        0.926     0.021     2.715     2.576
    27   1 H        0.926     0.043     2.405     2.425
    28   1 H        0.926     0.041     2.429     2.437
    29   1 H        0.860     0.214     1.037     1.595
    30   1 H        0.925     0.047     2.357     2.401
    31   1 H        0.926     0.020     2.740     2.588
    32   1 H        0.926     0.020     2.739     2.588
    33   1 H        0.926     0.046     2.367     2.406
    34   1 H        0.926     0.042     2.422     2.434
    35   1 H        0.926     0.042     2.423     2.434
    36   1 H        0.860     0.214     1.035     1.594
    37   1 H        0.925     0.047     2.356     2.400
    38   6 C        3.016    -0.055    29.335     8.885
    39   6 C        3.009    -0.053    29.300     8.879
    40   6 C        3.196     0.087    25.561     8.242
    41   6 C        2.952     0.011    27.761     8.642
    42   6 C        3.097     0.064    26.450     8.429
    43   6 C        3.026    -0.050    29.212     8.865
    44   6 C        3.034    -0.052    29.250     8.871
    45   6 C        3.073     0.064    26.485     8.438
    46   7 N        2.785    -0.081    22.818     7.095
    47   6 C        2.899    -0.055    29.363     8.885
    48   6 C        3.170     0.087    25.717     8.285
    49   6 C        3.012    -0.054    29.314     8.881
    50   6 C        3.009    -0.054    29.316     8.882
    51   6 C        3.174     0.086    25.706     8.281
    52   7 N        1.870    -0.321    29.171     8.006
    53   6 C        2.899    -0.057    29.406     8.891
    54   6 C        3.074     0.065    26.469     8.435
    55   6 C        3.025    -0.051    29.238     8.869
    56   6 C        3.031    -0.051    29.230     8.868
    57   6 C        3.069     0.066    26.460     8.435
    58   7 N        2.787    -0.081    22.812     7.094
    59   6 C        2.899    -0.055    29.363     8.885
    60   6 C        3.175     0.086    25.720     8.282
    61   7 N        1.870    -0.325    29.279     8.021
    62   1 H        0.926     0.019     2.753     2.595
    63   1 H        0.926     0.021     2.715     2.576
    64   1 H        0.926     0.043     2.404     2.425
    65   1 H        0.926     0.041     2.429     2.437
    66   1 H        0.860     0.214     1.037     1.595
    67   1 H        0.925     0.047     2.357     2.401
    68   1 H        0.926     0.020     2.740     2.588
    69   1 H        0.926     0.020     2.739     2.588
    70   1 H        0.926     0.046     2.367     2.406
    71   1 H        0.926     0.042     2.422     2.434
    72   1 H        0.926     0.042     2.423     2.434
    73   1 H        0.860     0.214     1.035     1.594
    74   1 H        0.925     0.047     2.356     2.400
    75   6 C        1.996    -0.020    31.583     9.076
    76   6 C        1.963    -0.012    31.387     9.047
    77   6 C        1.965    -0.003    31.154     9.014
    78   6 C        1.965    -0.004    31.169     9.016
    79   6 C        1.963    -0.011    31.366     9.044
    80   6 C        1.994    -0.021    31.601     9.078
    81   6 C        1.994    -0.021    31.602     9.078
    82   6 C        1.963    -0.011    31.367     9.044
    83   6 C        1.965    -0.004    31.170     9.016
    84   6 C        1.965    -0.003    31.155     9.014
    85   6 C        1.963    -0.012    31.387     9.047
    86   6 C        1.996    -0.020    31.584     9.076
    87   6 C        3.018    -0.054    29.329     8.884
    88   6 C        3.008    -0.053    29.298     8.879
    89   6 C        3.197     0.087    25.561     8.242
    90   6 C        2.952     0.012    27.754     8.641
    91   6 C        3.100     0.064    26.455     8.429
    92   6 C        3.025    -0.050    29.219     8.867
    93   6 C        3.037    -0.052    29.248     8.870
    94   6 C        3.073     0.064    26.491     8.439
    95   7 N        2.786    -0.081    22.823     7.095
    96   6 C        2.899    -0.053    29.309     8.877
    97   6 C        3.173     0.085    25.733     8.285
    98   6 C        3.018    -0.054    29.329     8.884
    99   6 C        3.008    -0.053    29.297     8.879
   100   6 C        3.197     0.087    25.562     8.242
   101   7 N        1.870    -0.324    29.258     8.018
   102   6 C        2.952     0.012    27.754     8.641
   103   6 C        3.100     0.064    26.455     8.429
   104   6 C        3.025    -0.050    29.219     8.867
   105   6 C        3.037    -0.052    29.248     8.871
   106   6 C        3.072     0.064    26.491     8.439
   107   7 N        2.785    -0.081    22.822     7.095
   108   6 C        2.899    -0.053    29.309     8.877
   109   6 C        3.174     0.085    25.732     8.285
   110   7 N        1.870    -0.324    29.257     8.018
   111   1 H        0.926     0.019     2.751     2.593
   112   1 H        0.926     0.021     2.714     2.576
   113   1 H        0.926     0.043     2.408     2.426
   114   1 H        0.926     0.041     2.431     2.438
   115   1 H        0.860     0.214     1.035     1.594
   116   1 H        0.925     0.048     2.347     2.396
   117   1 H        0.926     0.019     2.751     2.594
   118   1 H        0.926     0.021     2.714     2.576
   119   1 H        0.926     0.043     2.408     2.426
   120   1 H        0.926     0.041     2.431     2.438
   121   1 H        0.860     0.214     1.035     1.594
   122   1 H        0.925     0.048     2.347     2.396

 Mol. C6AA /au·bohr⁶  :     251728.696950
 Mol. C8AA /au·bohr⁸  :    6495914.695462
 Mol. α(0) /au        :        807.285783


Wiberg/Mayer (AO) data.
largest (>0.10) Wiberg bond orders for each atom

 ---------------------------------------------------------------------------
     #   Z sym  total        # sym  WBO       # sym  WBO       # sym  WBO
 ---------------------------------------------------------------------------
     1   6 C    3.960 --     2 C    1.716    23 C    1.115    25 H    0.973
     2   6 C    3.961 --     1 C    1.716     3 C    1.122    26 H    0.971
     3   6 C    3.915 --    24 N    1.362     4 C    1.242     2 C    1.122
     4   6 C    3.940 --     5 C    1.247     3 C    1.242    75 C    1.194
     5   6 C    3.901 --     4 C    1.247     6 C    1.238     9 N    1.226
     6   6 C    3.955 --     7 C    1.592     5 C    1.238    27 H    0.972
     7   6 C    3.948 --     6 C    1.592     8 C    1.224    28 H    0.973
     8   6 C    3.918 --    10 C    1.344     7 C    1.224     9 N    1.202
     9   7 N    3.590 --     5 C    1.226     8 C    1.202    29 H    0.900
    10   6 C    3.921 --    11 C    1.357     8 C    1.344    30 H    0.964
    11   6 C    3.939 --    10 C    1.357    15 N    1.324    12 C    1.107
    12   6 C    3.963 --    13 C    1.731    11 C    1.107    31 H    0.973
    13   6 C    3.962 --    12 C    1.731    14 C    1.109    32 H    0.973
    14   6 C    3.938 --    16 C    1.354    15 N    1.325    13 C    1.109
    15   7 N    3.001 --    14 C    1.325    11 C    1.324
    16   6 C    3.922 --    14 C    1.354    17 C    1.347    33 H    0.965
    17   6 C    3.921 --    16 C    1.347    18 C    1.216    21 N    1.210
    18   6 C    3.949 --    19 C    1.608    17 C    1.216    34 H    0.973
    19   6 C    3.953 --    18 C    1.608    20 C    1.215    35 H    0.973
    20   6 C    3.916 --    22 C    1.342    19 C    1.215    21 N    1.211
    21   7 N    3.586 --    20 C    1.211    17 C    1.210    36 H    0.900
    22   6 C    3.937 --    23 C    1.367    20 C    1.342    37 H    0.964
    23   6 C    3.924 --    22 C    1.367    24 N    1.299     1 C    1.115
    24   7 N    3.009 --     3 C    1.362    23 C    1.299
    25   1 H    0.999 --     1 C    0.973
    26   1 H    0.999 --     2 C    0.971
    27   1 H    0.998 --     6 C    0.972
    28   1 H    0.998 --     7 C    0.973
    29   1 H    0.954 --     9 N    0.900
    30   1 H    0.997 --    10 C    0.964
    31   1 H    0.999 --    12 C    0.973
    32   1 H    0.999 --    13 C    0.973
    33   1 H    0.997 --    16 C    0.965
    34   1 H    0.998 --    18 C    0.973
    35   1 H    0.998 --    19 C    0.973
    36   1 H    0.954 --    21 N    0.900
    37   1 H    0.997 --    22 C    0.964
    38   6 C    3.960 --    39 C    1.716    60 C    1.115    62 H    0.973
    39   6 C    3.961 --    38 C    1.716    40 C    1.122    63 H    0.971
    40   6 C    3.915 --    61 N    1.362    41 C    1.242    39 C    1.122
    41   6 C    3.940 --    42 C    1.247    40 C    1.242    86 C    1.194
    42   6 C    3.901 --    41 C    1.247    43 C    1.238    46 N    1.226
    43   6 C    3.955 --    44 C    1.592    42 C    1.238    64 H    0.972
    44   6 C    3.948 --    43 C    1.592    45 C    1.224    65 H    0.973
    45   6 C    3.918 --    47 C    1.344    44 C    1.224    46 N    1.202
    46   7 N    3.590 --    42 C    1.226    45 C    1.202    66 H    0.900
    47   6 C    3.921 --    48 C    1.357    45 C    1.344    67 H    0.964
    48   6 C    3.939 --    47 C    1.357    52 N    1.324    49 C    1.107
    49   6 C    3.963 --    50 C    1.731    48 C    1.107    68 H    0.973
    50   6 C    3.962 --    49 C    1.731    51 C    1.109    69 H    0.973
    51   6 C    3.938 --    53 C    1.354    52 N    1.325    50 C    1.109
    52   7 N    3.001 --    51 C    1.325    48 C    1.324
    53   6 C    3.922 --    51 C    1.354    54 C    1.347    70 H    0.965
    54   6 C    3.921 --    53 C    1.347    55 C    1.216    58 N    1.210
    55   6 C    3.949 --    56 C    1.608    54 C    1.216    71 H    0.973
    56   6 C    3.953 --    55 C    1.608    57 C    1.215    72 H    0.973
    57   6 C    3.916 --    59 C    1.342    56 C    1.215    58 N    1.211
    58   7 N    3.586 --    57 C    1.211    54 C    1.210    73 H    0.900
    59   6 C    3.937 --    60 C    1.367    57 C    1.342    74 H    0.964
    60   6 C    3.924 --    59 C    1.367    61 N    1.299    38 C    1.115
    61   7 N    3.009 --    40 C    1.362    60 C    1.299
    62   1 H    0.999 --    38 C    0.973
    63   1 H    0.999 --    39 C    0.971
    64   1 H    0.998 --    43 C    0.972
    65   1 H    0.998 --    44 C    0.973
    66   1 H    0.954 --    46 N    0.900
    67   1 H    0.997 --    47 C    0.964
    68   1 H    0.999 --    49 C    0.973
    69   1 H    0.999 --    50 C    0.973
    70   1 H    0.997 --    53 C    0.965
    71   1 H    0.998 --    55 C    0.973
    72   1 H    0.998 --    56 C    0.973
    73   1 H    0.954 --    58 N    0.900
    74   1 H    0.997 --    59 C    0.964
    75   6 C    3.882 --    76 C    2.435     4 C    1.194    78 C    0.192
    76   6 C    3.924 --    75 C    2.435    77 C    1.337
    77   6 C    3.915 --    78 C    2.350    76 C    1.337    80 C    0.191
    78   6 C    3.917 --    77 C    2.350    79 C    1.338    75 C    0.192
    79   6 C    3.920 --    80 C    2.431    78 C    1.338
    80   6 C    3.883 --    79 C    2.431    90 C    1.198    77 C    0.191
    81   6 C    3.883 --    82 C    2.431   102 C    1.199    84 C    0.191
    82   6 C    3.920 --    81 C    2.431    83 C    1.338
    83   6 C    3.917 --    84 C    2.349    82 C    1.338    86 C    0.192
    84   6 C    3.916 --    83 C    2.349    85 C    1.337    81 C    0.191
    85   6 C    3.924 --    86 C    2.435    84 C    1.337
    86   6 C    3.882 --    85 C    2.435    41 C    1.194    83 C    0.192
    87   6 C    3.961 --    88 C    1.716   109 C    1.115   111 H    0.973
    88   6 C    3.960 --    87 C    1.716    89 C    1.124   112 H    0.972
    89   6 C    3.916 --   110 N    1.363    90 C    1.240    88 C    1.124
    90   6 C    3.926 --    91 C    1.243    89 C    1.240    80 C    1.198
    91   6 C    3.902 --    90 C    1.243    92 C    1.242    95 N    1.227
    92   6 C    3.952 --    93 C    1.587    91 C    1.242   113 H    0.972
    93   6 C    3.949 --    92 C    1.587    94 C    1.228   114 H    0.973
    94   6 C    3.914 --    96 C    1.336    93 C    1.228    95 N    1.203
    95   7 N    3.586 --    91 C    1.227    94 C    1.203   115 H    0.897
    96   6 C    3.923 --    97 C    1.371    94 C    1.336   116 H    0.963
    97   6 C    3.926 --    96 C    1.371   101 N    1.295    98 C    1.115
    98   6 C    3.961 --    99 C    1.715    97 C    1.115   117 H    0.973
    99   6 C    3.960 --    98 C    1.715   100 C    1.124   118 H    0.972
   100   6 C    3.916 --   101 N    1.363   102 C    1.240    99 C    1.124
   101   7 N    3.000 --   100 C    1.363    97 C    1.295
   102   6 C    3.926 --   103 C    1.243   100 C    1.240    81 C    1.199
   103   6 C    3.902 --   102 C    1.243   104 C    1.241   107 N    1.227
   104   6 C    3.952 --   105 C    1.587   103 C    1.241   119 H    0.972
   105   6 C    3.949 --   104 C    1.587   106 C    1.228   120 H    0.973
   106   6 C    3.914 --   108 C    1.336   105 C    1.228   107 N    1.203
   107   7 N    3.586 --   103 C    1.227   106 C    1.203   121 H    0.897
   108   6 C    3.923 --   109 C    1.371   106 C    1.336   122 H    0.963
   109   6 C    3.926 --   108 C    1.371   110 N    1.295    87 C    1.115
   110   7 N    3.000 --    89 C    1.363   109 C    1.295
   111   1 H    0.999 --    87 C    0.973
   112   1 H    0.999 --    88 C    0.972
   113   1 H    0.998 --    92 C    0.972
   114   1 H    0.998 --    93 C    0.973
   115   1 H    0.954 --    95 N    0.897
   116   1 H    0.997 --    96 C    0.963
   117   1 H    0.999 --    98 C    0.973
   118   1 H    0.999 --    99 C    0.972
   119   1 H    0.998 --   104 C    0.972
   120   1 H    0.998 --   105 C    0.973
   121   1 H    0.954 --   107 N    0.897
   122   1 H    0.997 --   108 C    0.963
 ---------------------------------------------------------------------------

Topologies differ in total number of bonds
Writing topology from bond orders to xtbtopo.mol

molecular dipole:
                 x           y           z       tot (Debye)
 q only:        0.000      -0.001      -0.027
   full:        0.000      -0.001      -0.043       0.110
molecular quadrupole (traceless):
                xx          xy          yy          xz          yz          zz
 q only:       38.868     -33.094      -6.608      -0.696      -1.300     -32.260
  q+dip:       82.498     -17.534       2.625      -2.769      -4.321     -85.124
   full:       57.706     -16.833      -3.261      -2.848      -2.538     -54.444


           -------------------------------------------------
          | TOTAL ENERGY             -208.278303931096 Eh   |
          | GRADIENT NORM               0.000426344411 Eh/α |
          | HOMO-LUMO GAP               0.923145306448 eV   |
           -------------------------------------------------

------------------------------------------------------------------------
 * finished run on 2021/11/21 at 21:09:47.340     
------------------------------------------------------------------------
 total:
 * wall-time:     0 d,  0 h,  0 min,  0.648 sec
 *  cpu-time:     0 d,  0 h,  0 min,  0.648 sec
 * ratio c/w:     1.000 speedup
 SCF:
 * wall-time:     0 d,  0 h,  0 min,  0.598 sec
 *  cpu-time:     0 d,  0 h,  0 min,  0.598 sec
 * ratio c/w:     1.000 speedup

