 Entering Gaussian System
 *********************************************
 Gaussian 98:
 frequency output generated by the xtb code
 *********************************************
                         Standard orientation:
 --------------------------------------------------------------------
  Center     Atomic     Atomic              Coordinates (Angstroms)
  Number     Number      Type              X           Y           Z
 --------------------------------------------------------------------
    1          6             0       11.728156    3.347210    0.825567
    2          6             0       12.698826    2.443366    0.589674
    3          6             0       12.021165    1.219189    0.203008
    4          6             0       12.703083    0.036387   -0.142434
    5          6             0       12.068689   -1.160962   -0.510571
    6          6             0       12.685666   -2.374845   -0.915470
    7          6             0       11.692865   -3.275316   -1.173483
    8          6             0       10.446842   -2.630069   -0.935285
    9          7             0       10.726330   -1.356419   -0.542708
   10          6             0        9.186743   -3.193519   -1.072718
   11          6             0        7.960227   -2.579960   -0.859849
   12          6             0        6.693080   -3.276959   -1.028282
   13          6             0        5.730253   -2.379461   -0.747818
   14          6             0        6.416533   -1.140960   -0.413935
   15          7             0        7.754824   -1.299509   -0.488174
   16          6             0        5.753024    0.032669   -0.078861
   17          6             0        6.362184    1.238515    0.232092
   18          6             0        5.740615    2.473992    0.572557
   19          6             0        6.729392    3.385012    0.799042
   20          6             0        7.980495    2.729781    0.605370
   21          7             0        7.706065    1.443436    0.263303
   22          6             0        9.241128    3.287809    0.754603
   23          6             0       10.468394    2.661911    0.592014
   24          7             0       10.686676    1.378130    0.220213
   25          1             0       11.819020    4.371438    1.132660
   26          1             0       13.762328    2.553143    0.671964
   27          1             0       13.743655   -2.521945   -1.009113
   28          1             0       11.802669   -4.290908   -1.500765
   29          1             0       10.045606   -0.643339   -0.307787
   30          1             0        9.160306   -4.229239   -1.382356
   31          1             0        6.596421   -4.305485   -1.319471
   32          1             0        4.664239   -2.503375   -0.757292
   33          1             0        4.673088    0.005006   -0.063527
   34          1             0        4.680938    2.629593    0.632502
   35          1             0        6.617439    4.415398    1.076053
   36          1             0        8.385623    0.721219    0.056812
   37          1             0        9.269973    4.329764    1.042567
   38          6             0       14.103988    0.046025   -0.114030
   39          6             0       15.316705    0.059477   -0.071654
   40          6             0       22.818729    3.310996   -0.140818
   41          6             0       23.754384    2.354493    0.003367
   42          6             0       23.032853    1.095956    0.111889
   43          6             0       23.661494   -0.133023    0.267781
   44          6             0       23.017258   -1.355587    0.378244
   45          6             0       23.600797   -2.643819    0.547181
   46          6             0       22.585280   -3.550779    0.619236
   47          6             0       21.355349   -2.840850    0.495597
   48          7             0       21.668563   -1.526487    0.349898
   49          6             0       20.078660   -3.380902    0.531925
   50          6             0       18.870985   -2.707244    0.423150
   51          6             0       17.590260   -3.387535    0.512297
   52          6             0       16.646884   -2.436933    0.366623
   53          6             0       17.362439   -1.187195    0.182705
   54          7             0       18.691836   -1.378821    0.229418
   55          6             0       16.716745    0.048921   -0.015906
   56          6             0       17.386790    1.274456   -0.156859
   57          6             0       16.809856    2.553254   -0.379813
   58          6             0       17.828470    3.459758   -0.440233
   59          6             0       19.051329    2.753407   -0.262569
   60          7             0       18.732404    1.439782   -0.098566
   61          6             0       20.326287    3.299994   -0.260344
   62          6             0       21.532761    2.628488   -0.120034
   63          7             0       21.700628    1.299155    0.036581
   64          1             0       22.945189    4.370972   -0.252252
   65          1             0       24.822801    2.450558    0.036630
   66          1             0       24.741128   -0.136645    0.308041
   67          1             0       24.654661   -2.835169    0.606066
   68          1             0       22.665756   -4.612989    0.746801
   69          1             0       21.012091   -0.763256    0.237460
   70          1             0       20.018167   -4.452041    0.667767
   71          1             0       17.467881   -4.441888    0.670302
   72          1             0       15.579103   -2.531605    0.394276
   73          1             0       15.759824    2.739675   -0.490980
   74          1             0       17.751121    4.518099   -0.596810
   75          1             0       19.388793    0.680760    0.043497
   76          1             0       20.383908    4.371990   -0.389866
 --------------------------------------------------------------------
     1 basis functions        1 primitive gaussians
     1 alpha electrons        1 beta electrons

 Harmonic frequencies (cm**-1), IR intensities (km*mol⁻¹),
 Raman scattering activities (A**4/amu), Raman depolarization ratios,
 reduced masses (AMU), force constants (mDyne/A) and normal coordinates:
                      1                      2                      3
                        a                      a                      a 
 Frequencies --     9.6814                11.2907                12.2061
 Red. masses --    11.3703                11.2590                11.3182
 Frc consts  --     0.0000                 0.0000                 0.0000
 IR Inten    --     0.1710                 0.1638                 1.3436
 Raman Activ --     0.0000                 0.0000                 0.0000
 Depolar     --     0.0000                 0.0000                 0.0000
 Atom AN      X      Y      Z        X      Y      Z        X      Y      Z
   1   6     0.03   0.01  -0.09    -0.00   0.05  -0.20    -0.11   0.10  -0.08
   2   6     0.02   0.01  -0.13    -0.00   0.04  -0.15    -0.08   0.14  -0.07
   3   6     0.01   0.01  -0.11     0.00   0.02  -0.09    -0.04   0.10  -0.04
   4   6     0.00   0.02  -0.15     0.00   0.00  -0.04     0.00   0.12  -0.03
   5   6    -0.01   0.02  -0.14    -0.00  -0.01   0.01     0.04   0.10  -0.04
   6   6    -0.01   0.03  -0.19    -0.01  -0.03   0.05     0.09   0.13  -0.06
   7   6    -0.02   0.03  -0.17    -0.02  -0.04   0.11     0.12   0.10  -0.06
   8   6    -0.01   0.02  -0.11    -0.01  -0.03   0.11     0.10   0.05  -0.04
   9   7    -0.01   0.02  -0.10    -0.00  -0.01   0.05     0.05   0.06  -0.04
  10   6    -0.02   0.02  -0.06    -0.01  -0.04   0.17     0.12  -0.00  -0.03
  11   6    -0.01   0.00   0.02    -0.01  -0.04   0.17     0.10  -0.05  -0.01
  12   6    -0.01  -0.01   0.07    -0.01  -0.06   0.24     0.12  -0.10   0.02
  13   6    -0.01  -0.02   0.15    -0.01  -0.05   0.21     0.09  -0.15   0.05
  14   6     0.00  -0.02   0.14    -0.01  -0.03   0.12     0.05  -0.12   0.04
  15   7    -0.00  -0.01   0.06    -0.01  -0.02   0.11     0.06  -0.07   0.01
  16   6     0.01  -0.04   0.20    -0.01  -0.01   0.06     0.01  -0.15   0.06
  17   6     0.02  -0.04   0.18    -0.01   0.01  -0.03    -0.04  -0.12   0.04
  18   6     0.02  -0.05   0.24    -0.00   0.03  -0.09    -0.08  -0.15   0.05
  19   6     0.03  -0.04   0.19     0.00   0.05  -0.17    -0.11  -0.10   0.02
  20   6     0.02  -0.02   0.11    -0.00   0.04  -0.14    -0.09  -0.05  -0.01
  21   7     0.02  -0.02   0.11    -0.01   0.02  -0.07    -0.05  -0.07   0.01
  22   6     0.02  -0.01   0.04    -0.00   0.05  -0.19    -0.11   0.00  -0.04
  23   6     0.02   0.00  -0.03    -0.00   0.04  -0.16    -0.09   0.05  -0.05
  24   7     0.01   0.01  -0.06     0.00   0.02  -0.10    -0.05   0.06  -0.04
  25   1     0.01   0.00  -0.02    -0.00   0.02  -0.07    -0.04   0.03  -0.03
  26   1     0.01   0.01  -0.05    -0.00   0.01  -0.05    -0.02   0.05  -0.03
  27   1    -0.00   0.01  -0.07    -0.00  -0.01   0.01     0.03   0.05  -0.02
  28   1    -0.01   0.01  -0.06    -0.01  -0.02   0.04     0.04   0.03  -0.02
  29   1    -0.00   0.00  -0.02     0.00  -0.00   0.01     0.01   0.01  -0.01
  30   1    -0.01   0.01  -0.02    -0.00  -0.02   0.07     0.04   0.00  -0.01
  31   1    -0.01  -0.00   0.02    -0.00  -0.02   0.09     0.05  -0.03   0.00
  32   1    -0.00  -0.01   0.06    -0.00  -0.02   0.07     0.03  -0.05   0.02
  33   1     0.00  -0.01   0.08    -0.00  -0.00   0.02     0.00  -0.06   0.02
  34   1     0.01  -0.02   0.09    -0.00   0.01  -0.03    -0.02  -0.06   0.02
  35   1     0.01  -0.01   0.06     0.00   0.02  -0.07    -0.04  -0.03   0.00
  36   1     0.00  -0.00   0.02    -0.00   0.00  -0.01    -0.01  -0.01  -0.00
  37   1     0.01  -0.00   0.01     0.00   0.02  -0.07    -0.04   0.00  -0.01
  38   6     0.00   0.02  -0.17     0.00   0.01  -0.05     0.00   0.15  -0.00
  39   6     0.00   0.01  -0.17     0.00   0.01  -0.05    -0.00   0.15   0.03
  40   6     0.01  -0.00   0.08     0.00   0.02   0.25     0.11  -0.10  -0.04
  41   6     0.00  -0.00   0.15     0.00   0.01   0.21     0.08  -0.14  -0.08
  42   6    -0.00   0.00   0.14     0.01   0.01   0.12     0.04  -0.11  -0.06
  43   6    -0.01   0.00   0.20     0.01  -0.00   0.05    -0.00  -0.14  -0.08
  44   6    -0.02   0.01   0.18     0.01  -0.01  -0.04    -0.05  -0.11  -0.06
  45   6    -0.03   0.01   0.24     0.00  -0.02  -0.11    -0.09  -0.13  -0.07
  46   6    -0.03   0.01   0.19     0.00  -0.02  -0.18    -0.12  -0.09  -0.03
  47   6    -0.03   0.01   0.10     0.00  -0.02  -0.15    -0.10  -0.05   0.00
  48   7    -0.02   0.00   0.11     0.01  -0.01  -0.07    -0.06  -0.07  -0.02
  49   6    -0.03   0.00   0.03     0.00  -0.02  -0.19    -0.12   0.00   0.04
  50   6    -0.02   0.00  -0.04     0.00  -0.01  -0.16    -0.09   0.05   0.06
  51   6    -0.03   0.01  -0.09     0.01  -0.02  -0.19    -0.12   0.09   0.09
  52   6    -0.02   0.01  -0.14     0.00  -0.01  -0.14    -0.09   0.13   0.09
  53   6    -0.01   0.00  -0.12     0.00  -0.00  -0.08    -0.04   0.10   0.06
  54   7    -0.01   0.00  -0.06     0.00  -0.00  -0.10    -0.05   0.05   0.05
  55   6     0.00   0.00  -0.15     0.00   0.00  -0.04    -0.00   0.12   0.05
  56   6     0.01   0.00  -0.14     0.00   0.01   0.02     0.04   0.10   0.05
  57   6     0.02  -0.00  -0.19     0.01   0.02   0.07     0.08   0.12   0.08
  58   6     0.02  -0.01  -0.17     0.01   0.02   0.13     0.11   0.08   0.08
  59   6     0.02  -0.00  -0.11     0.01   0.01   0.13     0.09   0.04   0.05
  60   7     0.01  -0.00  -0.10     0.00   0.01   0.06     0.05   0.05   0.04
  61   6     0.02  -0.01  -0.06     0.01   0.02   0.19     0.11  -0.01   0.03
  62   6     0.01  -0.00   0.02     0.01   0.01   0.18     0.09  -0.06  -0.01
  63   7    -0.00  -0.00   0.06     0.01   0.00   0.11     0.05  -0.07  -0.02
  64   1     0.01  -0.00   0.02     0.00   0.01   0.09     0.04  -0.03  -0.01
  65   1     0.00  -0.00   0.06     0.00   0.00   0.07     0.03  -0.05  -0.03
  66   1    -0.00   0.00   0.08     0.00  -0.00   0.02    -0.00  -0.05  -0.03
  67   1    -0.01   0.00   0.09     0.00  -0.01  -0.03    -0.03  -0.05  -0.03
  68   1    -0.01   0.00   0.06     0.00  -0.01  -0.07    -0.05  -0.03  -0.01
  69   1    -0.00   0.00   0.02     0.00   0.00  -0.01    -0.01  -0.01  -0.00
  70   1    -0.01   0.00   0.01     0.00  -0.01  -0.07    -0.04   0.00   0.02
  71   1    -0.01   0.00  -0.03     0.00  -0.01  -0.07    -0.04   0.03   0.03
  72   1    -0.01   0.00  -0.06     0.00  -0.00  -0.04    -0.03   0.05   0.03
  73   1     0.01  -0.00  -0.07     0.00   0.01   0.01     0.02   0.05   0.03
  74   1     0.01  -0.00  -0.06     0.00   0.01   0.05     0.04   0.03   0.03
  75   1     0.00   0.00  -0.02    -0.00  -0.00   0.01     0.01   0.01   0.01
  76   1     0.01  -0.00  -0.02     0.00   0.01   0.07     0.04  -0.00   0.01
                      4                      5                      6
                        a                      a                      a 
 Frequencies --    31.7503                41.5702                42.1938
 Red. masses --    11.3480                11.5616                10.8746
 Frc consts  --     0.0000                 0.0000                 0.0000
 IR Inten    --     1.6158                 0.1864                 2.6472
 Raman Activ --     0.0000                 0.0000                 0.0000
 Depolar     --     0.0000                 0.0000                 0.0000
 Atom AN      X      Y      Z        X      Y      Z        X      Y      Z
   1   6    -0.06  -0.00   0.20     0.10  -0.01   0.13    -0.01  -0.05   0.19
   2   6    -0.04   0.03   0.16     0.07  -0.04   0.13    -0.01  -0.06   0.20
   3   6    -0.02   0.03   0.12     0.03   0.00   0.06    -0.01  -0.02   0.08
   4   6     0.00   0.05   0.09     0.00   0.01   0.00    -0.01   0.00  -0.00
   5   6     0.02   0.03   0.11     0.02   0.01  -0.05    -0.01   0.03  -0.09
   6   6     0.04   0.04   0.13     0.07   0.05  -0.11    -0.01   0.07  -0.21
   7   6     0.06   0.01   0.17     0.11   0.01  -0.12    -0.01   0.07  -0.21
   8   6     0.05  -0.01   0.16     0.09  -0.05  -0.07    -0.00   0.03  -0.10
   9   7     0.03   0.00   0.14     0.04  -0.05  -0.04    -0.01   0.02  -0.05
  10   6     0.06  -0.03   0.15     0.10  -0.08  -0.02    -0.00   0.00  -0.01
  11   6     0.04  -0.03   0.06     0.12  -0.07   0.04     0.00  -0.02   0.09
  12   6     0.06  -0.04  -0.01     0.10  -0.05   0.11     0.00  -0.06   0.20
  13   6     0.04  -0.02  -0.12     0.13  -0.02   0.11     0.00  -0.06   0.21
  14   6     0.01  -0.02  -0.11     0.17  -0.02   0.05     0.00  -0.03   0.10
  15   7     0.02  -0.02   0.00     0.17  -0.06   0.01     0.00  -0.01   0.05
  16   6    -0.01  -0.01  -0.19     0.19   0.00  -0.00    -0.00  -0.00   0.01
  17   6    -0.03  -0.01  -0.13     0.17   0.02  -0.05    -0.00   0.02  -0.08
  18   6    -0.05  -0.01  -0.16     0.12   0.02  -0.11    -0.01   0.05  -0.18
  19   6    -0.06  -0.03  -0.05     0.08   0.05  -0.10    -0.01   0.05  -0.20
  20   6    -0.05  -0.03   0.04     0.11   0.08  -0.03    -0.01   0.03  -0.10
  21   7    -0.03  -0.02  -0.01     0.17   0.07  -0.01    -0.00   0.02  -0.05
  22   6    -0.06  -0.03   0.14     0.10   0.09   0.03    -0.01   0.01  -0.02
  23   6    -0.05  -0.02   0.17     0.08   0.05   0.07    -0.01  -0.02   0.07
  24   7    -0.02   0.00   0.14     0.04   0.06   0.04    -0.01  -0.00   0.03
  25   1    -0.02  -0.00   0.07     0.04  -0.01   0.05    -0.00  -0.02   0.07
  26   1    -0.01   0.01   0.05     0.02  -0.03   0.05    -0.00  -0.02   0.08
  27   1     0.01   0.02   0.03     0.02   0.03  -0.04    -0.00   0.03  -0.08
  28   1     0.02   0.00   0.06     0.05   0.01  -0.04    -0.00   0.03  -0.08
  29   1     0.00  -0.00   0.03    -0.01  -0.04  -0.00    -0.00  -0.00   0.01
  30   1     0.02  -0.01   0.05     0.03  -0.02  -0.01    -0.00   0.00  -0.01
  31   1     0.02  -0.01   0.01     0.02  -0.02   0.04     0.00  -0.02   0.07
  32   1     0.01  -0.01  -0.06     0.04   0.00   0.04     0.00  -0.02   0.08
  33   1    -0.00   0.00  -0.08     0.05   0.00  -0.00    -0.00  -0.00   0.01
  34   1    -0.02  -0.00  -0.07     0.03  -0.00  -0.04    -0.00   0.02  -0.07
  35   1    -0.02  -0.01  -0.01     0.01   0.02  -0.04    -0.00   0.02  -0.08
  36   1    -0.00  -0.01   0.01     0.06   0.03   0.01     0.00  -0.00   0.01
  37   1    -0.02  -0.01   0.05     0.03   0.03   0.01    -0.00   0.00  -0.01
  38   6     0.00   0.08   0.04     0.00   0.00  -0.00    -0.01   0.00   0.00
  39   6     0.00   0.08  -0.03    -0.00  -0.01  -0.00    -0.01  -0.01   0.01
  40   6     0.06  -0.04   0.03    -0.10   0.04   0.09     0.01  -0.02  -0.22
  41   6     0.04  -0.04   0.14    -0.13   0.01   0.09     0.01  -0.02  -0.22
  42   6     0.01  -0.03   0.12    -0.17   0.02   0.03     0.02  -0.01  -0.10
  43   6    -0.01  -0.03   0.18    -0.18   0.01  -0.01     0.02   0.00  -0.01
  44   6    -0.03  -0.03   0.12    -0.16  -0.01  -0.05     0.01   0.01   0.09
  45   6    -0.05  -0.04   0.14    -0.11   0.01  -0.10     0.01   0.02   0.20
  46   6    -0.06  -0.03   0.02    -0.07  -0.03  -0.09     0.00   0.03   0.21
  47   6    -0.04  -0.02  -0.06    -0.10  -0.07  -0.04     0.01   0.02   0.10
  48   7    -0.03  -0.02   0.00    -0.17  -0.06  -0.02     0.01   0.01   0.06
  49   6    -0.05  -0.01  -0.15    -0.09  -0.09   0.01     0.01   0.01   0.01
  50   6    -0.04   0.01  -0.17    -0.08  -0.07   0.05     0.01  -0.01  -0.09
  51   6    -0.05   0.03  -0.19    -0.10  -0.02   0.11     0.01  -0.04  -0.21
  52   6    -0.03   0.05  -0.14    -0.07   0.01   0.10     0.01  -0.04  -0.21
  53   6    -0.01   0.05  -0.11    -0.03  -0.02   0.05     0.00  -0.02  -0.09
  54   7    -0.02   0.02  -0.14    -0.04  -0.07   0.03     0.00  -0.00  -0.04
  55   6     0.01   0.06  -0.08    -0.00  -0.01   0.00    -0.01  -0.01   0.01
  56   6     0.03   0.05  -0.11    -0.03  -0.01  -0.04    -0.01   0.01   0.10
  57   6     0.05   0.05  -0.13    -0.07  -0.04  -0.11    -0.01   0.03   0.23
  58   6     0.07   0.03  -0.17    -0.11   0.01  -0.11    -0.01   0.02   0.22
  59   6     0.06   0.01  -0.16    -0.09   0.06  -0.05    -0.01   0.00   0.10
  60   7     0.03   0.02  -0.14    -0.04   0.06  -0.02    -0.01  -0.01   0.05
  61   6     0.06  -0.01  -0.14    -0.10   0.09  -0.01    -0.00  -0.01   0.00
  62   6     0.05  -0.02  -0.05    -0.12   0.07   0.04     0.01  -0.02  -0.10
  63   7     0.02  -0.02   0.00    -0.17   0.06   0.01     0.01  -0.01  -0.06
  64   1     0.02  -0.01   0.00    -0.02   0.01   0.03     0.00  -0.01  -0.08
  65   1     0.01  -0.01   0.07    -0.04  -0.01   0.03     0.00  -0.01  -0.08
  66   1    -0.00  -0.01   0.08    -0.05   0.00  -0.01     0.00   0.00  -0.00
  67   1    -0.02  -0.01   0.06    -0.03   0.01  -0.04     0.00   0.01   0.08
  68   1    -0.02  -0.01   0.00    -0.01  -0.01  -0.03    -0.00   0.01   0.08
  69   1    -0.00  -0.00  -0.01    -0.06  -0.03   0.00     0.01   0.00  -0.01
  70   1    -0.02  -0.00  -0.06    -0.03  -0.03   0.00     0.00   0.00   0.00
  71   1    -0.02   0.01  -0.07    -0.04  -0.00   0.04     0.01  -0.01  -0.08
  72   1    -0.01   0.02  -0.04    -0.02   0.01   0.04     0.00  -0.02  -0.08
  73   1     0.01   0.02  -0.03    -0.02  -0.03  -0.04    -0.01   0.01   0.09
  74   1     0.03   0.01  -0.06    -0.05  -0.00  -0.04    -0.00   0.01   0.09
  75   1     0.00   0.00  -0.03     0.01   0.03   0.00    -0.00  -0.01  -0.01
  76   1     0.03  -0.00  -0.05    -0.03   0.02  -0.00    -0.00  -0.00   0.00
                      7                      8                      9
                        a                      a                      a 
 Frequencies --    48.0879                51.8245                64.2061
 Red. masses --    11.2080                11.1688                11.2420
 Frc consts  --     0.0000                 0.0000                 0.0000
 IR Inten    --     0.7798                 0.9848                 0.4163
 Raman Activ --     0.0000                 0.0000                 0.0000
 Depolar     --     0.0000                 0.0000                 0.0000
 Atom AN      X      Y      Z        X      Y      Z        X      Y      Z
   1   6    -0.07   0.15  -0.11     0.07   0.06  -0.18     0.07  -0.11  -0.05
   2   6    -0.05   0.13   0.02     0.05   0.03  -0.17     0.05  -0.16   0.06
   3   6    -0.03   0.10   0.08     0.02   0.02  -0.08     0.01  -0.15   0.08
   4   6    -0.01   0.08   0.16     0.00  -0.01  -0.00     0.00  -0.17   0.11
   5   6     0.02   0.09   0.10     0.01  -0.04   0.08    -0.01  -0.15   0.06
   6   6     0.05   0.12   0.07     0.04  -0.06   0.18    -0.05  -0.15   0.03
   7   6     0.08   0.12  -0.05     0.06  -0.09   0.20    -0.07  -0.09  -0.08
   8   6     0.06   0.10  -0.07     0.05  -0.09   0.11    -0.06  -0.06  -0.10
   9   7     0.02   0.08   0.02     0.02  -0.07   0.06    -0.02  -0.10  -0.00
  10   6     0.07   0.08  -0.14     0.05  -0.08   0.05    -0.08  -0.00  -0.16
  11   6     0.06   0.04  -0.09     0.06  -0.03  -0.05    -0.06   0.01  -0.09
  12   6     0.08   0.01  -0.09     0.04   0.03  -0.15    -0.08   0.04  -0.08
  13   6     0.06  -0.04   0.03     0.06   0.06  -0.18    -0.05   0.02   0.06
  14   6     0.04  -0.04   0.07     0.09   0.02  -0.09    -0.02  -0.01   0.09
  15   7     0.04   0.01  -0.00     0.10  -0.03  -0.04    -0.03  -0.02   0.01
  16   6     0.01  -0.07   0.14     0.11   0.01  -0.02     0.01  -0.01   0.16
  17   6    -0.02  -0.04   0.09     0.10  -0.01   0.06     0.03  -0.00   0.08
  18   6    -0.05  -0.06   0.07     0.08  -0.05   0.15     0.06   0.03   0.03
  19   6    -0.08  -0.00  -0.04     0.06  -0.02   0.16     0.08   0.04  -0.10
  20   6    -0.06   0.04  -0.08     0.07   0.02   0.07     0.07   0.01  -0.10
  21   7    -0.03   0.02   0.00     0.11   0.03   0.04     0.04  -0.02   0.00
  22   6    -0.07   0.10  -0.15     0.06   0.05  -0.00     0.08  -0.01  -0.15
  23   6    -0.06   0.11  -0.10     0.05   0.06  -0.08     0.06  -0.07  -0.08
  24   7    -0.03   0.09   0.00     0.02   0.04  -0.04     0.02  -0.11   0.01
  25   1    -0.03   0.05  -0.06     0.03   0.02  -0.07     0.03  -0.03  -0.03
  26   1    -0.02   0.04   0.02     0.01   0.01  -0.06     0.01  -0.06   0.03
  27   1     0.02   0.04   0.03     0.01  -0.02   0.06    -0.01  -0.06   0.02
  28   1     0.03   0.04  -0.03     0.02  -0.03   0.08    -0.03  -0.02  -0.04
  29   1    -0.00   0.02   0.00    -0.01  -0.02  -0.00    -0.00  -0.02   0.00
  30   1     0.03   0.03  -0.06     0.01  -0.02   0.02    -0.03   0.01  -0.07
  31   1     0.03   0.01  -0.04     0.00   0.01  -0.06    -0.03   0.02  -0.04
  32   1     0.02  -0.02   0.02     0.02   0.03  -0.07    -0.02   0.01   0.03
  33   1     0.00  -0.03   0.06     0.03   0.00  -0.01     0.00  -0.00   0.07
  34   1    -0.02  -0.03   0.04     0.02  -0.02   0.06     0.02   0.01   0.02
  35   1    -0.03   0.00  -0.02     0.01  -0.01   0.06     0.03   0.02  -0.05
  36   1    -0.00   0.01  -0.00     0.04   0.02  -0.01     0.01  -0.01   0.00
  37   1    -0.03   0.03  -0.07     0.02   0.02  -0.00     0.03   0.00  -0.07
  38   6    -0.01   0.05   0.22     0.00  -0.01  -0.01    -0.00  -0.13   0.14
  39   6    -0.01  -0.08   0.21    -0.00   0.01  -0.00    -0.00   0.11   0.16
  40   6    -0.07   0.01  -0.07    -0.03  -0.00  -0.16     0.08  -0.02  -0.09
  41   6    -0.06   0.04   0.05    -0.06  -0.03  -0.17     0.05  -0.03   0.05
  42   6    -0.03   0.03   0.08    -0.09  -0.00  -0.08     0.02  -0.01   0.09
  43   6    -0.01   0.05   0.15    -0.11  -0.00  -0.00    -0.01  -0.02   0.16
  44   6     0.02   0.03   0.09    -0.11   0.00   0.07    -0.04  -0.01   0.08
  45   6     0.05   0.04   0.07    -0.08   0.02   0.17    -0.06  -0.03   0.03
  46   6     0.08   0.00  -0.05    -0.06   0.00   0.16    -0.08  -0.02  -0.10
  47   6     0.06  -0.03  -0.09    -0.07  -0.04   0.05    -0.06   0.01  -0.10
  48   7     0.03  -0.02  -0.00    -0.11  -0.04   0.02    -0.04   0.01   0.01
  49   6     0.08  -0.07  -0.16    -0.07  -0.05  -0.04    -0.07   0.03  -0.16
  50   6     0.06  -0.10  -0.11    -0.05  -0.05  -0.11    -0.06   0.07  -0.07
  51   6     0.07  -0.13  -0.11    -0.07  -0.03  -0.20    -0.07   0.11  -0.05
  52   6     0.05  -0.13   0.02    -0.04  -0.00  -0.18    -0.05   0.15   0.07
  53   6     0.02  -0.11   0.07    -0.02  -0.01  -0.09    -0.02   0.14   0.10
  54   7     0.03  -0.09  -0.01    -0.02  -0.03  -0.06    -0.02   0.10   0.02
  55   6    -0.00  -0.11   0.14    -0.00   0.02  -0.00    -0.00   0.15   0.14
  56   6    -0.02  -0.10   0.08    -0.01   0.03   0.08     0.01   0.14   0.09
  57   6    -0.06  -0.13   0.03    -0.04   0.04   0.18     0.05   0.15   0.06
  58   6    -0.08  -0.11  -0.09    -0.06   0.06   0.20     0.08   0.11  -0.06
  59   6    -0.05  -0.08  -0.10    -0.05   0.07   0.11     0.06   0.07  -0.08
  60   7    -0.02  -0.08  -0.00    -0.02   0.06   0.05     0.02   0.10   0.02
  61   6    -0.07  -0.06  -0.16    -0.05   0.07   0.03     0.08   0.03  -0.16
  62   6    -0.06  -0.02  -0.09    -0.05   0.04  -0.06     0.06   0.01  -0.09
  63   7    -0.04  -0.01  -0.00    -0.09   0.04  -0.04     0.03   0.02   0.01
  64   1    -0.03   0.00  -0.04    -0.00  -0.00  -0.06     0.03  -0.01  -0.05
  65   1    -0.02   0.02   0.03    -0.02  -0.02  -0.07     0.01  -0.01   0.03
  66   1    -0.00   0.02   0.06    -0.03  -0.00   0.00    -0.00  -0.01   0.06
  67   1     0.02   0.02   0.04    -0.02   0.02   0.07    -0.02  -0.01   0.02
  68   1     0.03  -0.00  -0.03    -0.01   0.00   0.06    -0.03  -0.01  -0.05
  69   1     0.00  -0.01  -0.00    -0.04  -0.02  -0.01    -0.01   0.01   0.01
  70   1     0.03  -0.02  -0.07    -0.02  -0.02  -0.01    -0.03   0.01  -0.07
  71   1     0.03  -0.04  -0.05    -0.03  -0.01  -0.08    -0.03   0.03  -0.03
  72   1     0.02  -0.04   0.02    -0.01   0.00  -0.06    -0.01   0.05   0.04
  73   1    -0.02  -0.04   0.02    -0.01   0.01   0.07     0.01   0.05   0.03
  74   1    -0.03  -0.04  -0.05    -0.03   0.02   0.08     0.03   0.03  -0.03
  75   1     0.00  -0.02   0.00     0.01   0.02  -0.01     0.00   0.02   0.00
  76   1    -0.03  -0.02  -0.07    -0.01   0.02   0.01     0.03   0.01  -0.07
                     10                     11                     12
                        a                      a                      a 
 Frequencies --    68.7568                79.4530                94.1127
 Red. masses --    11.7621                11.0199                10.8823
 Frc consts  --     0.0000                 0.0000                 0.0000
 IR Inten    --     0.2579                34.1199                18.8731
 Raman Activ --     0.0000                 0.0000                 0.0000
 Depolar     --     0.0000                 0.0000                 0.0000
 Atom AN      X      Y      Z        X      Y      Z        X      Y      Z
   1   6     0.02   0.05   0.01     0.01  -0.03   0.03    -0.01  -0.05   0.16
   2   6    -0.04  -0.01  -0.00     0.01   0.01  -0.10    -0.01  -0.05   0.16
   3   6    -0.12   0.02   0.01     0.00   0.03  -0.18    -0.01   0.01  -0.05
   4   6    -0.17  -0.00   0.01     0.00   0.04  -0.20    -0.00   0.01  -0.04
   5   6    -0.13  -0.02   0.00    -0.00   0.03  -0.18     0.00   0.01  -0.05
   6   6    -0.04   0.02   0.01    -0.01   0.01  -0.10     0.01  -0.05   0.15
   7   6     0.03  -0.06  -0.01    -0.01  -0.03   0.02     0.01  -0.05   0.15
   8   6    -0.01  -0.14  -0.03    -0.01  -0.02   0.01     0.00   0.01  -0.05
   9   7    -0.13  -0.13  -0.02    -0.00   0.03  -0.15     0.00   0.05  -0.19
  10   6     0.00  -0.18  -0.04    -0.01  -0.05   0.15     0.00   0.01  -0.04
  11   6     0.03  -0.13  -0.03    -0.01  -0.03   0.10     0.00   0.02  -0.07
  12   6    -0.01  -0.04  -0.02    -0.01  -0.05   0.21     0.01  -0.03   0.14
  13   6     0.05   0.02  -0.01    -0.01  -0.00   0.04     0.01  -0.04   0.15
  14   6     0.14  -0.02  -0.01    -0.01   0.04  -0.12     0.00   0.02  -0.04
  15   7     0.13  -0.12  -0.03    -0.01   0.03  -0.09    -0.00   0.06  -0.20
  16   6     0.18   0.00  -0.00    -0.01   0.06  -0.20    -0.00   0.01  -0.01
  17   6     0.15   0.02   0.00    -0.00   0.04  -0.12    -0.00   0.01  -0.04
  18   6     0.05  -0.03   0.00     0.01   0.00   0.03     0.00  -0.04   0.16
  19   6    -0.02   0.05   0.02     0.01  -0.04   0.19    -0.00  -0.03   0.14
  20   6     0.02   0.14   0.04     0.01  -0.03   0.11    -0.00   0.02  -0.07
  21   7     0.14   0.13   0.03     0.00   0.03  -0.08    -0.01   0.06  -0.20
  22   6     0.01   0.17   0.05     0.01  -0.05   0.16    -0.00   0.01  -0.05
  23   6    -0.02   0.13   0.03     0.01  -0.02   0.02    -0.00   0.01  -0.06
  24   7    -0.12   0.12   0.03     0.00   0.03  -0.13    -0.00   0.05  -0.20
  25   1     0.03   0.01   0.00     0.00  -0.02   0.04    -0.00  -0.03   0.09
  26   1    -0.01  -0.02  -0.01     0.00   0.00  -0.04    -0.01  -0.03   0.09
  27   1    -0.01   0.03   0.01    -0.00   0.00  -0.03     0.00  -0.03   0.08
  28   1     0.03  -0.01  -0.00    -0.00  -0.02   0.03     0.00  -0.03   0.08
  29   1    -0.07  -0.07  -0.01     0.00   0.01  -0.04     0.00   0.02  -0.08
  30   1    -0.00  -0.05  -0.01    -0.00  -0.03   0.09     0.00  -0.01   0.02
  31   1    -0.02  -0.01  -0.01    -0.00  -0.03   0.11     0.00  -0.02   0.08
  32   1     0.01   0.03   0.00    -0.00  -0.00   0.01     0.00  -0.02   0.09
  33   1     0.05   0.00  -0.00    -0.00   0.02  -0.07     0.00  -0.01   0.03
  34   1     0.01  -0.03  -0.00     0.00   0.00   0.01     0.00  -0.02   0.09
  35   1    -0.03   0.01   0.01     0.01  -0.02   0.10     0.00  -0.02   0.08
  36   1     0.07   0.07   0.02    -0.00   0.01  -0.04    -0.00   0.02  -0.08
  37   1     0.01   0.05   0.01     0.00  -0.03   0.09    -0.00  -0.01   0.02
  38   6    -0.16  -0.01   0.00    -0.00   0.02  -0.09    -0.00  -0.00   0.02
  39   6    -0.16  -0.00  -0.00    -0.01   0.00   0.09    -0.00  -0.00   0.03
  40   6    -0.01  -0.05   0.02     0.00  -0.02  -0.22    -0.01   0.01   0.14
  41   6     0.05   0.02   0.02    -0.00   0.01  -0.04    -0.01   0.01   0.17
  42   6     0.14  -0.03   0.01    -0.00   0.02   0.13    -0.00  -0.01  -0.04
  43   6     0.18  -0.01   0.01    -0.00   0.03   0.20    -0.00  -0.00   0.00
  44   6     0.15   0.01   0.00     0.00   0.02   0.12     0.00  -0.01  -0.04
  45   6     0.05  -0.03  -0.00     0.01   0.01  -0.04    -0.00   0.02   0.17
  46   6    -0.02   0.05  -0.02     0.02  -0.02  -0.20     0.00   0.01   0.14
  47   6     0.03   0.15  -0.02     0.01  -0.01  -0.11     0.01  -0.01  -0.08
  48   7     0.14   0.13  -0.01     0.00   0.02   0.09     0.01  -0.03  -0.22
  49   6     0.01   0.18  -0.02     0.02  -0.02  -0.16     0.01  -0.01  -0.06
  50   6    -0.02   0.13  -0.01     0.01  -0.01  -0.01     0.01  -0.01  -0.06
  51   6     0.02   0.05   0.00     0.01  -0.02  -0.03     0.01   0.03   0.17
  52   6    -0.04  -0.01   0.00     0.00  -0.01   0.10     0.01   0.03   0.19
  53   6    -0.12   0.03  -0.01    -0.01   0.01   0.18     0.01  -0.00  -0.05
  54   7    -0.12   0.12  -0.02    -0.01   0.01   0.14     0.01  -0.03  -0.21
  55   6    -0.17   0.01  -0.01    -0.01   0.01   0.20     0.00  -0.00  -0.04
  56   6    -0.13  -0.01  -0.01    -0.01   0.01   0.18    -0.00  -0.00  -0.04
  57   6    -0.04   0.03  -0.00    -0.01  -0.01   0.09    -0.02   0.03   0.17
  58   6     0.03  -0.05   0.01    -0.01  -0.02  -0.04    -0.02   0.03   0.17
  59   6    -0.02  -0.15   0.01    -0.01  -0.02  -0.02    -0.00  -0.00  -0.05
  60   7    -0.13  -0.13  -0.00    -0.01   0.00   0.15     0.01  -0.02  -0.20
  61   6     0.00  -0.18   0.01    -0.00  -0.03  -0.16    -0.00  -0.01  -0.05
  62   6     0.03  -0.13   0.02    -0.00  -0.01  -0.11    -0.00  -0.01  -0.08
  63   7     0.13  -0.12   0.01    -0.00   0.01   0.10     0.01  -0.03  -0.21
  64   1    -0.02  -0.01   0.01     0.00  -0.01  -0.11    -0.00   0.01   0.08
  65   1     0.01   0.03   0.00    -0.00   0.00  -0.01    -0.00   0.01   0.09
  66   1     0.05   0.00   0.00    -0.00   0.01   0.07    -0.00   0.00   0.04
  67   1     0.01  -0.03  -0.00     0.00   0.00  -0.02    -0.00   0.01   0.10
  68   1    -0.03   0.01  -0.01     0.01  -0.01  -0.11    -0.00   0.01   0.08
  69   1     0.07   0.07  -0.00     0.00   0.01   0.04     0.00  -0.01  -0.09
  70   1     0.01   0.05  -0.00     0.01  -0.01  -0.09     0.00   0.00   0.01
  71   1     0.03   0.01   0.00     0.01  -0.01  -0.04     0.00   0.02   0.09
  72   1    -0.01  -0.02   0.00     0.00  -0.00   0.04     0.00   0.02   0.10
  73   1    -0.01   0.03  -0.00    -0.00  -0.00   0.03    -0.01   0.02   0.09
  74   1     0.03  -0.01   0.00    -0.00  -0.01  -0.04    -0.01   0.01   0.09
  75   1    -0.07  -0.07  -0.00    -0.00   0.00   0.05     0.00  -0.01  -0.09
  76   1    -0.00  -0.05   0.00    -0.00  -0.01  -0.09    -0.00   0.00   0.02
                     13                     14                     15
                        a                      a                      a 
 Frequencies --   100.4378               111.1907               115.4317
 Red. masses --    10.7363                10.7753                10.6880
 Frc consts  --     0.0000                 0.0000                 0.0000
 IR Inten    --    29.0423                 0.3875                 0.3525
 Raman Activ --     0.0000                 0.0000                 0.0000
 Depolar     --     0.0000                 0.0000                 0.0000
 Atom AN      X      Y      Z        X      Y      Z        X      Y      Z
   1   6     0.02   0.04  -0.20     0.01   0.03  -0.17    -0.00   0.00  -0.02
   2   6     0.01   0.05  -0.25     0.01   0.01  -0.10    -0.00  -0.03   0.12
   3   6     0.00  -0.01  -0.01    -0.00  -0.04   0.07     0.00  -0.02   0.08
   4   6     0.00  -0.01  -0.02    -0.00  -0.06   0.14     0.01  -0.02   0.07
   5   6    -0.00  -0.01  -0.02    -0.00  -0.04   0.07     0.00  -0.01   0.04
   6   6    -0.01   0.05  -0.21    -0.01   0.02  -0.11    -0.01   0.07  -0.20
   7   6    -0.01   0.05  -0.19    -0.02   0.04  -0.18    -0.01   0.05  -0.15
   8   6    -0.01  -0.01   0.02    -0.01  -0.00  -0.03     0.00  -0.03   0.11
   9   7     0.00  -0.05   0.12    -0.00  -0.05   0.11     0.01  -0.06   0.23
  10   6    -0.01  -0.02   0.07    -0.01  -0.02   0.02     0.00  -0.04   0.15
  11   6    -0.00  -0.03   0.11    -0.01  -0.02   0.04    -0.00  -0.03   0.10
  12   6    -0.01   0.02  -0.04    -0.01  -0.06   0.19    -0.00   0.00  -0.00
  13   6    -0.01   0.05  -0.12    -0.01  -0.02   0.07    -0.01   0.03  -0.12
  14   6    -0.00   0.01   0.01    -0.01   0.03  -0.12    -0.01   0.02  -0.07
  15   7    -0.00  -0.04   0.18    -0.01   0.03  -0.13    -0.00  -0.01   0.05
  16   6    -0.00   0.03  -0.07    -0.00   0.06  -0.19    -0.01   0.02  -0.06
  17   6    -0.00   0.01  -0.00     0.00   0.04  -0.13    -0.00   0.01  -0.02
  18   6     0.00   0.06  -0.17     0.01  -0.02   0.08     0.01  -0.05   0.20
  19   6     0.01   0.03  -0.08     0.01  -0.05   0.19     0.01  -0.04   0.15
  20   6     0.01  -0.03   0.13     0.01  -0.01   0.04     0.00   0.02  -0.10
  21   7     0.00  -0.05   0.21     0.00   0.04  -0.16    -0.00   0.05  -0.20
  22   6     0.01  -0.04   0.12     0.01  -0.01   0.02     0.00   0.04  -0.17
  23   6     0.01  -0.03   0.06     0.01  -0.00  -0.03     0.00   0.03  -0.12
  24   7    -0.00  -0.06   0.17    -0.00  -0.04   0.09     0.01   0.01  -0.06
  25   1     0.01   0.02  -0.10     0.01   0.02  -0.09    -0.00   0.00  -0.01
  26   1     0.01   0.03  -0.12     0.00   0.01  -0.05    -0.00  -0.02   0.07
  27   1    -0.00   0.03  -0.10    -0.00   0.01  -0.06    -0.00   0.04  -0.11
  28   1    -0.01   0.03  -0.09    -0.01   0.03  -0.10    -0.00   0.03  -0.08
  29   1     0.00  -0.02   0.06    -0.00  -0.02   0.06     0.00  -0.03   0.10
  30   1    -0.01  -0.00   0.00    -0.00  -0.01   0.01     0.00  -0.01   0.04
  31   1    -0.00   0.01  -0.03    -0.00  -0.03   0.10    -0.00  -0.00   0.00
  32   1    -0.00   0.03  -0.08    -0.00  -0.01   0.04    -0.00   0.02  -0.07
  33   1    -0.00   0.02  -0.07    -0.00   0.02  -0.05    -0.00   0.00  -0.01
  34   1    -0.00   0.03  -0.10     0.00  -0.01   0.05     0.00  -0.03   0.11
  35   1     0.00   0.02  -0.05     0.01  -0.03   0.11     0.00  -0.02   0.08
  36   1     0.00  -0.02   0.08     0.00   0.02  -0.07    -0.00   0.02  -0.09
  37   1     0.01  -0.01   0.01     0.00  -0.01   0.02     0.00   0.01  -0.05
  38   6     0.00  -0.01  -0.04    -0.00  -0.05   0.18     0.01  -0.01   0.04
  39   6    -0.00  -0.01   0.04    -0.00   0.03   0.19     0.01  -0.00  -0.01
  40   6    -0.01   0.02   0.05     0.01   0.02   0.20    -0.00   0.00   0.03
  41   6    -0.01   0.03   0.14     0.01   0.00   0.07    -0.01   0.02   0.15
  42   6    -0.00   0.01  -0.00     0.01  -0.02  -0.13    -0.01   0.01   0.07
  43   6    -0.00   0.02   0.07     0.01  -0.03  -0.20    -0.01   0.00   0.04
  44   6     0.00   0.01   0.00    -0.00  -0.02  -0.13    -0.00  -0.00   0.00
  45   6     0.00   0.03   0.14    -0.01   0.01   0.11     0.01  -0.02  -0.22
  46   6     0.01   0.01   0.06    -0.02   0.03   0.22     0.01  -0.02  -0.14
  47   6     0.01  -0.01  -0.12    -0.01   0.01   0.03    -0.00   0.01   0.12
  48   7     0.01  -0.02  -0.19     0.00  -0.02  -0.19    -0.01   0.02   0.21
  49   6     0.01  -0.02  -0.10    -0.01   0.01   0.00    -0.00   0.02   0.19
  50   6     0.01  -0.02  -0.04    -0.01   0.00  -0.04    -0.00   0.01   0.13
  51   6     0.01   0.01   0.20    -0.01  -0.01  -0.17    -0.00  -0.00  -0.01
  52   6     0.00   0.02   0.23    -0.00   0.00  -0.08     0.00  -0.02  -0.15
  53   6     0.00  -0.01   0.02    -0.00   0.03   0.09     0.01  -0.01  -0.07
  54   7     0.00  -0.03  -0.15    -0.00   0.03   0.10     0.01   0.01   0.08
  55   6     0.00  -0.01   0.02    -0.00   0.04   0.16     0.01  -0.01  -0.06
  56   6    -0.00  -0.01   0.02     0.00   0.03   0.09     0.00   0.00  -0.03
  57   6    -0.02   0.01   0.22     0.02  -0.00  -0.13    -0.01   0.03   0.21
  58   6    -0.02   0.01   0.18     0.03  -0.01  -0.20    -0.01   0.03   0.14
  59   6    -0.00  -0.01  -0.04     0.01   0.01  -0.02     0.01  -0.01  -0.13
  60   7     0.01  -0.03  -0.13    -0.00   0.04   0.15     0.02  -0.02  -0.24
  61   6    -0.01  -0.01  -0.10     0.01   0.01   0.03     0.01  -0.01  -0.17
  62   6    -0.00  -0.01  -0.12     0.01   0.01   0.05     0.00  -0.01  -0.11
  63   7     0.00  -0.01  -0.18     0.01  -0.01  -0.13    -0.00  -0.00  -0.08
  64   1    -0.00   0.01   0.03     0.00   0.01   0.11     0.00   0.00   0.01
  65   1    -0.01   0.01   0.08     0.00   0.00   0.03    -0.00   0.01   0.08
  66   1    -0.00   0.01   0.07     0.00  -0.01  -0.06    -0.00   0.00   0.01
  67   1    -0.00   0.01   0.09    -0.00   0.01   0.06     0.00  -0.01  -0.12
  68   1     0.00   0.01   0.04    -0.01   0.01   0.12     0.00  -0.01  -0.08
  69   1     0.00  -0.01  -0.07     0.00  -0.01  -0.09    -0.01   0.01   0.09
  70   1     0.01  -0.00  -0.01    -0.00   0.00   0.01    -0.00   0.00   0.06
  71   1     0.00   0.01   0.10    -0.00  -0.01  -0.09    -0.00  -0.00  -0.00
  72   1     0.00   0.01   0.11    -0.00  -0.00  -0.04     0.00  -0.01  -0.09
  73   1    -0.01   0.01   0.11     0.01  -0.00  -0.07    -0.01   0.02   0.12
  74   1    -0.01   0.01   0.09     0.01  -0.01  -0.11    -0.01   0.01   0.08
  75   1     0.01  -0.01  -0.07    -0.00   0.01   0.07     0.01  -0.01  -0.10
  76   1    -0.00  -0.00  -0.01     0.00   0.00   0.01     0.00  -0.00  -0.04
                     16                     17                     18
                        a                      a                      a 
 Frequencies --   120.5996               121.5583               142.3317
 Red. masses --    10.8940                11.1793                12.0198
 Frc consts  --     0.0000                 0.0000                 0.0000
 IR Inten    --     3.9293                 0.7509                 0.0981
 Raman Activ --     0.0000                 0.0000                 0.0000
 Depolar     --     0.0000                 0.0000                 0.0000
 Atom AN      X      Y      Z        X      Y      Z        X      Y      Z
   1   6    -0.01  -0.05   0.15    -0.00  -0.04   0.12     0.12   0.10   0.04
   2   6    -0.01  -0.06   0.22    -0.00  -0.02   0.03     0.11   0.09   0.03
   3   6     0.00   0.01  -0.02     0.00   0.03  -0.13     0.10   0.10   0.03
   4   6     0.00   0.03  -0.09     0.00   0.04  -0.16    -0.00   0.05   0.02
   5   6     0.00   0.03  -0.10     0.00   0.03  -0.14    -0.10   0.09   0.03
   6   6    -0.01   0.07  -0.21     0.00  -0.02   0.03    -0.11   0.08   0.04
   7   6    -0.01   0.02  -0.05     0.00  -0.05   0.14    -0.11   0.09   0.04
   8   6    -0.00  -0.04   0.15     0.00  -0.01   0.02    -0.11   0.09   0.02
   9   7     0.00  -0.03   0.12     0.00   0.05  -0.17    -0.12   0.10   0.03
  10   6    -0.00  -0.06   0.23     0.00  -0.02   0.05    -0.07  -0.01  -0.02
  11   6    -0.01  -0.04   0.14     0.00  -0.01   0.02    -0.12  -0.11  -0.04
  12   6    -0.01   0.05  -0.16    -0.00   0.04  -0.13    -0.12  -0.11  -0.03
  13   6    -0.02   0.07  -0.26     0.00   0.03  -0.10    -0.12  -0.11  -0.01
  14   6    -0.01  -0.00   0.01     0.01  -0.02   0.08    -0.11  -0.11  -0.03
  15   7    -0.01  -0.06   0.24     0.01  -0.04   0.14    -0.13  -0.12  -0.05
  16   6    -0.01  -0.02   0.07     0.01  -0.03   0.11     0.00  -0.06  -0.01
  17   6    -0.01  -0.02   0.08     0.00  -0.02   0.09     0.11  -0.10  -0.03
  18   6     0.00  -0.04   0.16     0.00   0.02  -0.09     0.11  -0.10  -0.03
  19   6     0.00  -0.01   0.01     0.00   0.04  -0.13     0.11  -0.10  -0.03
  20   6    -0.00   0.03  -0.14     0.00  -0.01   0.02     0.11  -0.09  -0.03
  21   7    -0.01   0.01  -0.09     0.01  -0.05   0.17     0.12  -0.10  -0.04
  22   6    -0.00   0.04  -0.19     0.00  -0.01   0.03     0.07   0.01   0.00
  23   6     0.00   0.03  -0.11     0.00  -0.00   0.01     0.11   0.10   0.03
  24   7     0.01   0.06  -0.21     0.00   0.04  -0.15     0.12   0.12   0.03
  25   1    -0.00  -0.03   0.08    -0.00  -0.02   0.07     0.04   0.03   0.01
  26   1    -0.00  -0.04   0.12    -0.00  -0.01   0.02     0.03   0.03   0.01
  27   1    -0.00   0.04  -0.11     0.00  -0.01   0.02    -0.03   0.02   0.02
  28   1    -0.00   0.01  -0.02     0.00  -0.03   0.09    -0.03   0.03   0.01
  29   1     0.00  -0.01   0.06     0.00   0.02  -0.07    -0.03   0.03   0.01
  30   1    -0.00  -0.02   0.06     0.00  -0.01   0.03     0.01  -0.00  -0.01
  31   1    -0.00   0.03  -0.09    -0.00   0.02  -0.07    -0.04  -0.03  -0.01
  32   1    -0.01   0.04  -0.14    -0.00   0.02  -0.05    -0.03  -0.03   0.00
  33   1    -0.00  -0.00   0.02     0.00  -0.00   0.02    -0.00   0.01   0.01
  34   1     0.00  -0.02   0.09    -0.00   0.01  -0.05     0.03  -0.03  -0.01
  35   1     0.00  -0.00   0.00    -0.00   0.02  -0.08     0.03  -0.03  -0.01
  36   1    -0.01   0.01  -0.04     0.00  -0.02   0.07     0.03  -0.03  -0.01
  37   1    -0.00   0.01  -0.06     0.00  -0.00   0.01    -0.01   0.00   0.00
  38   6     0.00   0.02  -0.07     0.00   0.03  -0.06     0.00  -0.03  -0.01
  39   6    -0.00   0.00  -0.01    -0.00   0.02   0.10     0.00   0.03  -0.01
  40   6     0.00  -0.00  -0.03    -0.01   0.02   0.21     0.12   0.11  -0.01
  41   6     0.01  -0.00  -0.09    -0.01   0.03   0.25     0.12   0.10   0.01
  42   6     0.01  -0.00  -0.04    -0.00  -0.01  -0.07     0.11   0.10  -0.01
  43   6     0.01   0.00  -0.01     0.00  -0.01  -0.13     0.00   0.05  -0.00
  44   6     0.01   0.00  -0.00     0.00  -0.01  -0.13    -0.10   0.10  -0.02
  45   6    -0.00   0.02   0.17    -0.00  -0.00  -0.05    -0.11   0.10  -0.01
  46   6    -0.00   0.02   0.09    -0.00   0.01   0.09    -0.10   0.10  -0.02
  47   6     0.01  -0.00  -0.12    -0.00   0.01   0.08    -0.10   0.09  -0.02
  48   7     0.02  -0.01  -0.19    -0.00  -0.01  -0.06    -0.12   0.11  -0.03
  49   6     0.01  -0.01  -0.15    -0.00   0.01   0.11    -0.07  -0.01  -0.00
  50   6     0.00  -0.01  -0.08    -0.00   0.01   0.07    -0.11  -0.10   0.01
  51   6     0.00   0.00   0.05     0.00  -0.04  -0.20    -0.12  -0.10   0.02
  52   6    -0.00   0.01   0.15    -0.00  -0.03  -0.19    -0.11  -0.09   0.01
  53   6    -0.01   0.00   0.07    -0.01   0.01   0.11    -0.10  -0.10   0.01
  54   7    -0.01  -0.01  -0.05    -0.01   0.03   0.26    -0.12  -0.12   0.01
  55   6    -0.00   0.00   0.05    -0.01   0.02   0.18    -0.00  -0.05   0.01
  56   6     0.00  -0.01   0.03    -0.01   0.02   0.17     0.09  -0.09   0.02
  57   6     0.01  -0.03  -0.14    -0.01   0.01   0.12     0.10  -0.09   0.03
  58   6     0.01  -0.03  -0.10    -0.00  -0.01  -0.08     0.10  -0.09   0.03
  59   6    -0.00  -0.00   0.09     0.00  -0.01  -0.12     0.11  -0.09   0.01
  60   7    -0.01   0.01   0.18    -0.00   0.01   0.04     0.11  -0.11   0.01
  61   6    -0.00   0.00   0.10     0.01  -0.02  -0.19     0.07   0.01  -0.01
  62   6     0.00   0.00   0.06     0.00  -0.01  -0.11     0.12   0.11  -0.02
  63   7     0.01   0.00   0.05     0.01  -0.03  -0.27     0.13   0.12  -0.03
  64   1     0.00  -0.00  -0.01    -0.01   0.01   0.12     0.04   0.03  -0.00
  65   1     0.00  -0.00  -0.05    -0.01   0.01   0.14     0.03   0.03   0.01
  66   1     0.00   0.00   0.01    -0.00  -0.00  -0.03    -0.00  -0.01   0.01
  67   1    -0.00   0.01   0.10     0.00  -0.00  -0.02    -0.03   0.03  -0.00
  68   1    -0.00   0.01   0.05    -0.00   0.01   0.06    -0.03   0.03  -0.00
  69   1     0.01  -0.01  -0.08    -0.00  -0.00  -0.02    -0.03   0.03  -0.01
  70   1     0.00  -0.00  -0.04    -0.00   0.00   0.03     0.01  -0.00   0.00
  71   1     0.00   0.00   0.02     0.00  -0.02  -0.12    -0.04  -0.03   0.01
  72   1    -0.00   0.01   0.08    -0.00  -0.02  -0.10    -0.03  -0.02   0.00
  73   1     0.01  -0.02  -0.08    -0.01   0.01   0.06     0.03  -0.02   0.01
  74   1     0.01  -0.01  -0.06     0.00  -0.01  -0.05     0.03  -0.03   0.01
  75   1    -0.00   0.01   0.08     0.00   0.00   0.01     0.03  -0.03   0.00
  76   1    -0.00   0.00   0.02     0.00  -0.01  -0.06    -0.01   0.00  -0.00
                     19                     20                     21
                        a                      a                      a 
 Frequencies --   143.0095               169.8478               181.8698
 Red. masses --    12.0253                11.8275                11.3768
 Frc consts  --     0.0000                 0.0000                 0.0000
 IR Inten    --     0.4715                 1.1686                 0.8129
 Raman Activ --     0.0000                 0.0000                 0.0000
 Depolar     --     0.0000                 0.0000                 0.0000
 Atom AN      X      Y      Z        X      Y      Z        X      Y      Z
   1   6     0.11   0.11   0.02     0.01   0.01  -0.07    -0.01   0.03  -0.11
   2   6     0.11   0.10   0.02    -0.00  -0.04   0.08    -0.01  -0.04   0.13
   3   6     0.10   0.10   0.02    -0.01  -0.01  -0.00    -0.01  -0.05   0.18
   4   6     0.00   0.05   0.01    -0.01  -0.03   0.06    -0.01  -0.02   0.06
   5   6    -0.09   0.10   0.02    -0.00   0.03  -0.12    -0.01   0.04  -0.12
   6   6    -0.10   0.09   0.02    -0.01  -0.01  -0.02    -0.00   0.01  -0.04
   7   6    -0.10   0.10   0.02    -0.01  -0.00  -0.03     0.00  -0.01   0.04
   8   6    -0.10   0.09   0.02    -0.01   0.03  -0.11    -0.00   0.01  -0.03
   9   7    -0.11   0.11   0.02    -0.01   0.08  -0.29    -0.01   0.07  -0.22
  10   6    -0.06  -0.00   0.00    -0.01  -0.04   0.11     0.00  -0.04   0.13
  11   6    -0.11  -0.10  -0.02    -0.01  -0.05   0.15     0.00  -0.02   0.04
  12   6    -0.11  -0.11  -0.02    -0.01  -0.03   0.09     0.00  -0.04   0.13
  13   6    -0.11  -0.10  -0.03    -0.02   0.04  -0.13    -0.00   0.03  -0.09
  14   6    -0.10  -0.10  -0.03    -0.01   0.01  -0.06    -0.00   0.05  -0.18
  15   7    -0.12  -0.12  -0.02    -0.01  -0.04   0.11    -0.00   0.04  -0.17
  16   6    -0.00  -0.05  -0.02    -0.00   0.03  -0.11     0.00   0.02  -0.06
  17   6     0.10  -0.09  -0.03     0.01  -0.02   0.06     0.00  -0.04   0.15
  18   6     0.11  -0.09  -0.03     0.01   0.01  -0.04    -0.00  -0.02   0.07
  19   6     0.10  -0.10  -0.03     0.01  -0.01   0.02    -0.01   0.02  -0.05
  20   6     0.11  -0.09  -0.02     0.01  -0.03   0.12    -0.00   0.00   0.03
  21   7     0.11  -0.11  -0.02     0.01  -0.07   0.24     0.00  -0.06   0.27
  22   6     0.06   0.01   0.01     0.01   0.01  -0.04    -0.00   0.06  -0.17
  23   6     0.11   0.11   0.02     0.01   0.04  -0.14    -0.01   0.02  -0.07
  24   7     0.12   0.12   0.02    -0.00   0.04  -0.16    -0.01  -0.04   0.13
  25   1     0.03   0.03   0.01     0.00   0.00  -0.02    -0.00   0.02  -0.07
  26   1     0.03   0.03   0.01    -0.00  -0.02   0.06    -0.00  -0.02   0.06
  27   1    -0.03   0.03   0.01    -0.00  -0.01   0.02    -0.00   0.00   0.00
  28   1    -0.03   0.03   0.01    -0.00  -0.01   0.02     0.00  -0.01   0.04
  29   1    -0.03   0.03   0.01    -0.00   0.02  -0.08    -0.00   0.02  -0.06
  30   1     0.01  -0.00  -0.00    -0.00  -0.02   0.06     0.00  -0.03   0.10
  31   1    -0.03  -0.03  -0.01    -0.00  -0.01   0.04     0.00  -0.03   0.09
  32   1    -0.03  -0.03  -0.01    -0.01   0.02  -0.08    -0.00   0.01  -0.03
  33   1    -0.00   0.02  -0.00    -0.00   0.03  -0.08     0.00   0.01  -0.04
  34   1     0.03  -0.03  -0.01     0.00   0.01  -0.04    -0.00  -0.00   0.01
  35   1     0.03  -0.03  -0.01     0.00   0.00  -0.01    -0.00   0.01  -0.05
  36   1     0.03  -0.03  -0.00     0.00  -0.02   0.07     0.00  -0.01   0.07
  37   1    -0.01   0.00   0.00     0.00   0.01  -0.03     0.00   0.03  -0.12
  38   6     0.00  -0.03  -0.01    -0.01  -0.07   0.29    -0.00  -0.02   0.05
  39   6     0.00  -0.03   0.00    -0.01   0.02   0.29    -0.00  -0.01  -0.05
  40   6    -0.12  -0.11   0.00     0.01   0.02   0.09     0.02  -0.01  -0.14
  41   6    -0.12  -0.10   0.01     0.02  -0.01  -0.14     0.00   0.01   0.10
  42   6    -0.11  -0.10   0.01     0.01  -0.00  -0.07    -0.01   0.02   0.19
  43   6    -0.00  -0.05   0.01     0.00  -0.01  -0.12    -0.01   0.01   0.07
  44   6     0.10  -0.10   0.02    -0.01   0.01   0.06    -0.00  -0.02  -0.16
  45   6     0.11  -0.10   0.02    -0.01  -0.00  -0.03     0.00  -0.01  -0.07
  46   6     0.10  -0.11   0.01    -0.01   0.00   0.03     0.00   0.00   0.05
  47   6     0.11  -0.10   0.01    -0.01   0.01   0.12     0.00  -0.01  -0.03
  48   7     0.12  -0.12   0.01    -0.02   0.03   0.25     0.00  -0.04  -0.27
  49   6     0.07   0.01  -0.00    -0.00  -0.01  -0.05    -0.00   0.02   0.19
  50   6     0.11   0.11  -0.00    -0.00  -0.02  -0.14     0.00   0.01   0.07
  51   6     0.12   0.11  -0.00    -0.00  -0.00  -0.07     0.00   0.02   0.12
  52   6     0.11   0.10  -0.00    -0.00   0.03   0.09     0.01  -0.02  -0.14
  53   6     0.10   0.11  -0.00     0.01   0.01   0.00     0.01  -0.03  -0.19
  54   7     0.12   0.12   0.00     0.01  -0.02  -0.16     0.01  -0.02  -0.14
  55   6     0.00   0.06  -0.00     0.00   0.02   0.07     0.00  -0.01  -0.06
  56   6    -0.09   0.10  -0.01     0.01  -0.01  -0.12    -0.00   0.02   0.12
  57   6    -0.10   0.10  -0.01     0.01   0.01  -0.02     0.00   0.01   0.04
  58   6    -0.10   0.11  -0.01     0.01   0.01  -0.02     0.01  -0.00  -0.04
  59   6    -0.10   0.10  -0.01     0.02  -0.01  -0.11     0.01   0.01   0.03
  60   7    -0.11   0.12  -0.00     0.02  -0.03  -0.29    -0.01   0.03   0.22
  61   6    -0.06  -0.00  -0.00     0.01   0.02   0.11     0.01  -0.01  -0.14
  62   6    -0.12  -0.10   0.00     0.00   0.03   0.16     0.01   0.01  -0.04
  63   7    -0.13  -0.12   0.00     0.00   0.02   0.11    -0.00   0.03   0.18
  64   1    -0.04  -0.03  -0.00     0.00   0.01   0.04     0.01  -0.01  -0.09
  65   1    -0.03  -0.03   0.00     0.01  -0.01  -0.08     0.00   0.00   0.04
  66   1    -0.00   0.02   0.00     0.00  -0.01  -0.09    -0.00   0.00   0.04
  67   1     0.03  -0.03   0.01    -0.00  -0.00  -0.04     0.00   0.00  -0.01
  68   1     0.03  -0.03   0.00    -0.00  -0.00  -0.01     0.00   0.01   0.05
  69   1     0.03  -0.03   0.00    -0.01   0.01   0.07    -0.00  -0.01  -0.07
  70   1    -0.01   0.00  -0.00    -0.00  -0.00  -0.03    -0.00   0.01   0.12
  71   1     0.04   0.03  -0.00    -0.00  -0.00  -0.02    -0.00   0.01   0.08
  72   1     0.03   0.03  -0.00     0.00   0.01   0.06     0.00  -0.01  -0.06
  73   1    -0.03   0.03  -0.01     0.00   0.01   0.02     0.00  -0.00   0.00
  74   1    -0.03   0.03  -0.00     0.00   0.01   0.02     0.00  -0.01  -0.05
  75   1    -0.03   0.03  -0.00     0.01  -0.01  -0.09    -0.00   0.01   0.06
  76   1     0.01  -0.00  -0.00    -0.00   0.01   0.07     0.01  -0.01  -0.10
                     22                     23                     24
                        a                      a                      a 
 Frequencies --   185.6358               188.0327               201.0184
 Red. masses --    11.6302                11.6912                11.8163
 Frc consts  --     0.0000                 0.0000                 0.0000
 IR Inten    --     0.3983                 1.0648                 3.8627
 Raman Activ --     0.0000                 0.0000                 0.0000
 Depolar     --     0.0000                 0.0000                 0.0000
 Atom AN      X      Y      Z        X      Y      Z        X      Y      Z
   1   6     0.08   0.01  -0.05     0.06  -0.02   0.04     0.01  -0.00   0.00
   2   6     0.09  -0.01   0.05     0.07   0.01  -0.05     0.01   0.04  -0.13
   3   6     0.10  -0.03   0.12     0.07   0.04  -0.14    -0.00  -0.03   0.08
   4   6     0.05   0.00   0.00     0.04  -0.01   0.02    -0.00   0.03  -0.10
   5   6     0.09   0.03  -0.06     0.07  -0.03   0.09    -0.00   0.05  -0.16
   6   6     0.09   0.02  -0.05     0.06  -0.02   0.07    -0.00   0.02  -0.10
   7   6     0.07   0.01   0.05     0.05   0.03  -0.05    -0.00  -0.04   0.10
   8   6     0.08   0.04   0.05     0.06   0.05  -0.04    -0.00  -0.02   0.08
   9   7     0.10   0.06  -0.03     0.08   0.01   0.07    -0.00   0.04  -0.11
  10   6     0.07   0.09   0.11     0.04   0.11  -0.08    -0.00  -0.03   0.10
  11   6     0.07   0.15  -0.00     0.05   0.09   0.07    -0.01   0.01  -0.04
  12   6     0.12   0.04   0.08     0.09   0.06  -0.05    -0.02   0.02  -0.08
  13   6     0.06  -0.00  -0.02     0.04  -0.01   0.03    -0.01   0.01  -0.02
  14   6    -0.03   0.06  -0.11    -0.02  -0.01   0.14    -0.01  -0.01   0.02
  15   7    -0.02   0.19  -0.16    -0.01   0.03   0.25    -0.01   0.01  -0.05
  16   6    -0.09  -0.00   0.01    -0.07   0.01  -0.03     0.01  -0.04   0.15
  17   6    -0.05  -0.05   0.10    -0.04   0.02  -0.13     0.01  -0.00   0.01
  18   6     0.05   0.00   0.07     0.04   0.04  -0.08     0.01  -0.03   0.10
  19   6     0.13  -0.05  -0.08     0.10  -0.07   0.07     0.01   0.02  -0.08
  20   6     0.08  -0.15  -0.07     0.06  -0.13   0.02     0.01   0.05  -0.18
  21   7    -0.03  -0.18   0.08    -0.02  -0.08  -0.14     0.01   0.07  -0.26
  22   6     0.06  -0.09  -0.14     0.05  -0.12   0.10     0.00  -0.00   0.01
  23   6     0.09  -0.04   0.00     0.07  -0.02  -0.05    -0.00  -0.06   0.22
  24   7     0.11  -0.08   0.15     0.09   0.04  -0.22    -0.01  -0.11   0.36
  25   1     0.02   0.01  -0.04     0.01  -0.02   0.04     0.00   0.01  -0.03
  26   1     0.03   0.00   0.02     0.02   0.00  -0.00     0.00   0.03  -0.11
  27   1     0.02   0.01  -0.02     0.02  -0.01   0.03    -0.00   0.01  -0.04
  28   1     0.01  -0.00   0.03     0.01   0.01  -0.03    -0.00  -0.02   0.07
  29   1     0.04   0.03  -0.00     0.03   0.01   0.02     0.00   0.01  -0.01
  30   1     0.01   0.02   0.07     0.00   0.05  -0.07     0.00  -0.02   0.06
  31   1     0.06  -0.00   0.06     0.04   0.03  -0.05    -0.01   0.01  -0.04
  32   1     0.02  -0.02   0.00     0.01  -0.02  -0.01    -0.00   0.00  -0.00
  33   1    -0.02  -0.01   0.01    -0.02   0.00  -0.03     0.00  -0.02   0.10
  34   1     0.02   0.03   0.03     0.01   0.03  -0.03     0.00  -0.02   0.08
  35   1     0.07  -0.00  -0.05     0.05  -0.03   0.05     0.00   0.00  -0.02
  36   1    -0.04  -0.08   0.01    -0.03  -0.05  -0.04     0.00   0.02  -0.06
  37   1    -0.00  -0.01  -0.09    -0.00  -0.05   0.08     0.00   0.00  -0.01
  38   6     0.01   0.01  -0.07     0.00  -0.02   0.11    -0.00   0.04  -0.11
  39   6    -0.01  -0.00  -0.07    -0.01   0.01   0.11    -0.01   0.03   0.11
  40   6    -0.13  -0.05   0.05    -0.09  -0.05  -0.07    -0.01   0.01   0.08
  41   6    -0.06   0.01  -0.02    -0.04   0.01   0.03    -0.01   0.00   0.01
  42   6     0.03  -0.04  -0.10     0.02  -0.01   0.16    -0.01  -0.00  -0.02
  43   6     0.09   0.00   0.02     0.07  -0.00  -0.03     0.01  -0.01  -0.15
  44   6     0.05   0.03   0.10     0.04   0.00  -0.14     0.01  -0.00  -0.01
  45   6    -0.05  -0.01   0.06    -0.04  -0.02  -0.09     0.02  -0.01  -0.10
  46   6    -0.13   0.06  -0.07    -0.10   0.06   0.08     0.01   0.01   0.08
  47   6    -0.07   0.16  -0.05    -0.06   0.13   0.05     0.00   0.01   0.17
  48   7     0.03   0.16   0.08     0.03   0.10  -0.13     0.00   0.02   0.24
  49   6    -0.05   0.11  -0.11    -0.05   0.11   0.13     0.01  -0.01  -0.01
  50   6    -0.09   0.04   0.01    -0.07   0.02  -0.05     0.01  -0.03  -0.21
  51   6    -0.08   0.00  -0.05    -0.06   0.02   0.04     0.01  -0.00  -0.00
  52   6    -0.09  -0.00   0.04    -0.07  -0.01  -0.06     0.00   0.02   0.13
  53   6    -0.10   0.01   0.10    -0.07  -0.02  -0.16     0.00  -0.01  -0.07
  54   7    -0.12   0.05   0.14    -0.08  -0.01  -0.24     0.01  -0.05  -0.34
  55   6    -0.05  -0.01  -0.01    -0.04   0.00   0.02    -0.01   0.01   0.10
  56   6    -0.09  -0.02  -0.06    -0.07   0.02   0.10    -0.01   0.02   0.15
  57   6    -0.08  -0.01  -0.05    -0.07   0.01   0.08    -0.01   0.01   0.10
  58   6    -0.07  -0.02   0.05    -0.05  -0.02  -0.06     0.00  -0.02  -0.11
  59   6    -0.09  -0.05   0.04    -0.06  -0.04  -0.05     0.00  -0.01  -0.09
  60   7    -0.10  -0.05  -0.04    -0.08  -0.02   0.07    -0.00   0.01   0.08
  61   6    -0.07  -0.11   0.08    -0.04  -0.10  -0.10     0.00  -0.01  -0.10
  62   6    -0.08  -0.14  -0.03    -0.06  -0.10   0.06    -0.01   0.00   0.06
  63   7     0.01  -0.16  -0.16    -0.00  -0.07   0.26    -0.01   0.00   0.07
  64   1    -0.06  -0.01   0.04    -0.04  -0.02  -0.06    -0.00   0.00   0.04
  65   1    -0.02   0.03   0.00    -0.01   0.02  -0.01    -0.00  -0.00  -0.00
  66   1     0.02   0.01   0.01     0.02  -0.00  -0.03     0.00  -0.01  -0.10
  67   1    -0.02  -0.03   0.03    -0.01  -0.03  -0.04     0.01  -0.01  -0.07
  68   1    -0.06   0.01  -0.04    -0.05   0.02   0.06     0.00   0.00   0.02
  69   1     0.05   0.08   0.02     0.03   0.05  -0.03     0.00   0.00   0.06
  70   1     0.01   0.03  -0.07     0.00   0.04   0.10     0.00  -0.00   0.01
  71   1    -0.01  -0.00  -0.04    -0.01   0.01   0.05     0.00   0.00   0.03
  72   1    -0.03  -0.00   0.01    -0.02  -0.00  -0.00     0.00   0.01   0.10
  73   1    -0.02  -0.00  -0.02    -0.02   0.01   0.03    -0.00   0.00   0.04
  74   1    -0.01  -0.00   0.03    -0.01  -0.01  -0.04     0.00  -0.01  -0.06
  75   1    -0.04  -0.03  -0.01    -0.03  -0.01   0.01     0.00   0.00   0.01
  76   1    -0.01  -0.03   0.06     0.00  -0.04  -0.08     0.00  -0.01  -0.06
                     25                     26                     27
                        a                      a                      a 
 Frequencies --   203.4912               203.8438               245.2045
 Red. masses --    12.2665                12.3397                10.8319
 Frc consts  --     0.0000                 0.0000                 0.0000
 IR Inten    --     8.1739                12.3487                 5.6811
 Raman Activ --     0.0000                 0.0000                 0.0000
 Depolar     --     0.0000                 0.0000                 0.0000
 Atom AN      X      Y      Z        X      Y      Z        X      Y      Z
   1   6     0.00  -0.01   0.03    -0.00  -0.03   0.09    -0.01   0.03  -0.07
   2   6     0.00   0.01  -0.06    -0.00  -0.01   0.04    -0.01  -0.03   0.16
   3   6     0.00   0.00  -0.03    -0.00   0.05  -0.16     0.01  -0.03   0.13
   4   6     0.00   0.02  -0.07     0.00   0.02  -0.06     0.00   0.01  -0.02
   5   6     0.00   0.01  -0.04    -0.00  -0.04   0.10    -0.01  -0.02   0.11
   6   6    -0.00   0.02  -0.09    -0.01   0.03  -0.11    -0.00  -0.03   0.17
   7   6    -0.00  -0.01   0.04    -0.01   0.01  -0.04    -0.00   0.02  -0.03
   8   6     0.00  -0.03   0.10    -0.00  -0.06   0.17    -0.01   0.04  -0.12
   9   7     0.00  -0.03   0.09     0.00  -0.13   0.40    -0.01  -0.00   0.03
  10   6    -0.00  -0.01   0.05    -0.01  -0.01  -0.01     0.00   0.05  -0.18
  11   6    -0.01   0.03  -0.10    -0.01   0.05  -0.20     0.01  -0.03   0.08
  12   6    -0.01   0.01  -0.03    -0.01  -0.02   0.05     0.01  -0.02   0.08
  13   6    -0.00  -0.01   0.03    -0.01  -0.03   0.11     0.01  -0.00  -0.00
  14   6    -0.00   0.01  -0.04    -0.01   0.04  -0.14     0.01  -0.00   0.01
  15   7    -0.01   0.05  -0.17    -0.01   0.10  -0.39     0.01  -0.05   0.16
  16   6     0.00  -0.02   0.09    -0.00  -0.01   0.03     0.00   0.05  -0.19
  17   6     0.01  -0.02   0.05     0.00  -0.03   0.13    -0.01   0.01  -0.04
  18   6     0.01  -0.01   0.03    -0.00   0.02  -0.06    -0.01  -0.00   0.01
  19   6     0.01   0.02  -0.08    -0.01   0.03  -0.09    -0.01  -0.02   0.11
  20   6     0.01   0.01  -0.06    -0.00  -0.02   0.09    -0.01  -0.01   0.06
  21   7     0.01  -0.00  -0.01     0.00  -0.08   0.31    -0.01  -0.02   0.10
  22   6     0.00  -0.01   0.01    -0.00   0.01   0.01    -0.00   0.05  -0.16
  23   6     0.00  -0.02   0.08    -0.00   0.03  -0.09    -0.00   0.03  -0.10
  24   7    -0.00  -0.02   0.07     0.00   0.08  -0.27     0.01  -0.02   0.07
  25   1     0.00  -0.00   0.01    -0.00  -0.02   0.08    -0.00   0.01  -0.04
  26   1     0.00   0.01  -0.04    -0.00  -0.02   0.05    -0.00  -0.02   0.09
  27   1    -0.00   0.02  -0.06    -0.00   0.03  -0.09     0.00  -0.02   0.09
  28   1    -0.00  -0.01   0.01    -0.00   0.02  -0.06     0.00   0.01  -0.02
  29   1     0.00  -0.01   0.03    -0.00  -0.03   0.09    -0.01   0.00  -0.00
  30   1     0.00  -0.01   0.03    -0.00  -0.00  -0.00     0.00   0.03  -0.11
  31   1    -0.00  -0.00   0.00    -0.00  -0.02   0.07     0.00  -0.01   0.03
  32   1    -0.00  -0.01   0.03    -0.00  -0.03   0.10     0.00   0.00  -0.01
  33   1     0.00  -0.01   0.06     0.00  -0.01   0.02    -0.00   0.03  -0.12
  34   1     0.00  -0.00   0.02    -0.00   0.02  -0.06    -0.00  -0.00  -0.00
  35   1     0.00   0.01  -0.04    -0.00   0.02  -0.08    -0.00  -0.01   0.05
  36   1     0.00  -0.00  -0.01     0.00  -0.02   0.07    -0.00  -0.00   0.02
  37   1     0.00  -0.00  -0.00    -0.00   0.00   0.00     0.00   0.03  -0.09
  38   6     0.00   0.03  -0.06     0.00   0.03  -0.07     0.01   0.07  -0.36
  39   6    -0.00   0.02   0.09    -0.00   0.01   0.04     0.01  -0.01  -0.37
  40   6    -0.01  -0.01  -0.04     0.00   0.01   0.05    -0.01   0.01   0.08
  41   6    -0.00  -0.01  -0.12     0.00   0.00   0.01    -0.01  -0.00   0.00
  42   6    -0.01   0.02   0.15    -0.00  -0.00  -0.02    -0.01   0.00   0.01
  43   6    -0.00  -0.00  -0.06     0.00  -0.01  -0.08     0.01  -0.02  -0.20
  44   6     0.01  -0.02  -0.14     0.00  -0.00   0.01     0.01  -0.01  -0.05
  45   6     0.00   0.01   0.05     0.01  -0.01  -0.05     0.01   0.00   0.01
  46   6    -0.00   0.01   0.12     0.01  -0.00   0.04     0.01   0.01   0.11
  47   6     0.00  -0.01  -0.08     0.01   0.00   0.10     0.01   0.00   0.06
  48   7     0.01  -0.04  -0.30     0.00   0.01   0.16     0.01   0.01   0.10
  49   6     0.00   0.00  -0.01     0.01  -0.01  -0.01     0.01  -0.02  -0.17
  50   6     0.00   0.01   0.07     0.01  -0.02  -0.13     0.00  -0.02  -0.10
  51   6     0.00  -0.02  -0.10     0.01  -0.00   0.01     0.01  -0.02  -0.07
  52   6    -0.00  -0.01  -0.02     0.00   0.01   0.09    -0.00   0.01   0.17
  53   6    -0.00   0.02   0.16     0.00  -0.01  -0.04    -0.01   0.01   0.14
  54   7    -0.00   0.04   0.25     0.01  -0.03  -0.21    -0.01   0.01   0.07
  55   6    -0.00   0.01   0.08    -0.00   0.01   0.05     0.00  -0.01  -0.02
  56   6     0.01  -0.02  -0.09     0.00   0.01   0.10     0.01   0.00   0.11
  57   6    -0.01   0.02   0.13    -0.00   0.00   0.04    -0.01   0.01   0.17
  58   6    -0.00   0.00   0.03     0.00  -0.01  -0.07    -0.00  -0.01  -0.03
  59   6     0.01  -0.03  -0.20     0.00   0.00  -0.03     0.01  -0.02  -0.12
  60   7     0.02  -0.06  -0.42     0.00   0.02   0.09     0.01   0.00   0.03
  61   6    -0.00  -0.00  -0.00     0.00  -0.00  -0.06     0.01  -0.02  -0.18
  62   6    -0.02   0.02   0.22     0.00   0.01   0.01    -0.01   0.01   0.08
  63   7    -0.03   0.05   0.43    -0.00   0.01   0.00    -0.02   0.02   0.17
  64   1    -0.00  -0.01  -0.07     0.00   0.00   0.03    -0.00   0.00   0.03
  65   1     0.00  -0.01  -0.11    -0.00  -0.00   0.01    -0.00  -0.00  -0.01
  66   1     0.00  -0.00  -0.04     0.00  -0.00  -0.05     0.00  -0.01  -0.12
  67   1    -0.00   0.01   0.05     0.00  -0.00  -0.04     0.00  -0.00  -0.00
  68   1    -0.00   0.01   0.09     0.01  -0.00   0.00     0.00   0.01   0.05
  69   1     0.00  -0.01  -0.07    -0.00  -0.00   0.04     0.00   0.00   0.02
  70   1     0.00   0.00  -0.00     0.00  -0.00   0.00     0.00  -0.01  -0.10
  71   1     0.00  -0.01  -0.08     0.00   0.00   0.02     0.00  -0.01  -0.04
  72   1    -0.00  -0.01  -0.04     0.00   0.01   0.06    -0.00   0.01   0.09
  73   1    -0.01   0.02   0.11    -0.00   0.00   0.02    -0.01   0.01   0.09
  74   1    -0.00   0.01   0.05     0.00  -0.01  -0.04    -0.00  -0.01  -0.02
  75   1     0.01  -0.02  -0.10     0.00   0.00   0.01     0.01   0.00  -0.00
  76   1    -0.00  -0.00  -0.01     0.00  -0.00  -0.04     0.00  -0.01  -0.11
                     28                     29                     30
                        a                      a                      a 
 Frequencies --   260.3667               265.3506               267.3355
 Red. masses --    11.3002                10.4586                10.4814
 Frc consts  --     0.0000                 0.0000                 0.0000
 IR Inten    --     5.8023                 0.9403                 6.6592
 Raman Activ --     0.0000                 0.0000                 0.0000
 Depolar     --     0.0000                 0.0000                 0.0000
 Atom AN      X      Y      Z        X      Y      Z        X      Y      Z
   1   6    -0.06  -0.09  -0.02     0.00   0.05  -0.18     0.01   0.05  -0.17
   2   6    -0.08  -0.10  -0.02    -0.01  -0.06   0.17     0.00  -0.05   0.17
   3   6    -0.08  -0.08  -0.02    -0.01  -0.05   0.15     0.00  -0.04   0.15
   4   6     0.09   0.01  -0.01     0.00   0.00  -0.00    -0.01   0.00  -0.00
   5   6     0.17  -0.04   0.00     0.01   0.05  -0.16    -0.01   0.05  -0.16
   6   6     0.04  -0.10  -0.01    -0.00   0.04  -0.16    -0.00   0.06  -0.16
   7   6    -0.09   0.03   0.00     0.00  -0.05   0.16     0.01  -0.05   0.15
   8   6    -0.02   0.15   0.03     0.00  -0.04   0.16     0.00  -0.06   0.15
   9   7     0.15   0.11   0.04     0.01   0.01  -0.01    -0.01  -0.00  -0.02
  10   6    -0.00   0.09   0.01     0.00   0.00   0.01    -0.00  -0.02   0.02
  11   6    -0.08  -0.07  -0.01    -0.01   0.04  -0.14    -0.01   0.04  -0.14
  12   6    -0.09  -0.08  -0.01    -0.01   0.05  -0.18    -0.01   0.05  -0.17
  13   6    -0.10  -0.08  -0.02    -0.00  -0.05   0.17    -0.00  -0.04   0.17
  14   6    -0.08  -0.07  -0.02    -0.00  -0.04   0.14     0.00  -0.04   0.14
  15   7    -0.10  -0.09  -0.02    -0.01   0.00  -0.00    -0.00  -0.00  -0.01
  16   6     0.09   0.01  -0.01    -0.00   0.00  -0.00    -0.01  -0.00   0.01
  17   6     0.17  -0.02  -0.00     0.00   0.04  -0.16    -0.01   0.04  -0.15
  18   6     0.05  -0.08  -0.02     0.00   0.04  -0.16    -0.01   0.05  -0.15
  19   6    -0.07   0.04   0.01     0.00  -0.04   0.16    -0.00  -0.04   0.15
  20   6    -0.01   0.16   0.04     0.00  -0.04   0.16    -0.00  -0.04   0.15
  21   7     0.16   0.13   0.04     0.01   0.00  -0.01    -0.01   0.00  -0.01
  22   6     0.01   0.11   0.01     0.00   0.00   0.01     0.00  -0.01   0.01
  23   6    -0.07  -0.05  -0.01     0.00   0.04  -0.14     0.01   0.04  -0.13
  24   7    -0.11  -0.08  -0.01    -0.01  -0.01   0.01     0.00   0.00   0.01
  25   1    -0.01  -0.03  -0.01     0.00   0.03  -0.10     0.00   0.03  -0.10
  26   1    -0.02  -0.03  -0.01    -0.00  -0.03   0.09    -0.00  -0.02   0.09
  27   1     0.01  -0.07  -0.01    -0.00   0.02  -0.08    -0.00   0.03  -0.08
  28   1    -0.06   0.00  -0.00    -0.00  -0.03   0.09     0.01  -0.03   0.08
  29   1     0.09   0.07   0.02     0.00   0.00  -0.00    -0.00  -0.00  -0.00
  30   1     0.03   0.03  -0.00     0.00   0.00   0.01    -0.00  -0.01   0.01
  31   1    -0.03  -0.03  -0.00    -0.00   0.03  -0.10    -0.01   0.03  -0.09
  32   1    -0.03  -0.02  -0.01     0.00  -0.03   0.10     0.00  -0.03   0.09
  33   1     0.02   0.05   0.00    -0.00   0.00  -0.00    -0.00  -0.00   0.00
  34   1     0.01  -0.06  -0.01    -0.00   0.02  -0.09    -0.00   0.02  -0.08
  35   1    -0.06   0.01   0.00     0.00  -0.02   0.09     0.00  -0.02   0.08
  36   1     0.09   0.08   0.02     0.00   0.00   0.00    -0.00  -0.00   0.00
  37   1     0.04   0.03  -0.00     0.00   0.00   0.00    -0.00  -0.00   0.00
  38   6     0.09   0.18   0.02    -0.00   0.01  -0.00    -0.00  -0.01   0.01
  39   6     0.09   0.18   0.02    -0.00   0.01   0.00    -0.00   0.01   0.01
  40   6    -0.09  -0.08  -0.01    -0.01   0.02   0.18     0.01  -0.02  -0.18
  41   6    -0.10  -0.08   0.01     0.00  -0.02  -0.18    -0.00   0.02   0.18
  42   6    -0.08  -0.07   0.01    -0.00  -0.02  -0.15    -0.01   0.01   0.15
  43   6     0.09   0.01   0.02    -0.00   0.00   0.00     0.00   0.00   0.00
  44   6     0.17  -0.03   0.01     0.00   0.01   0.16     0.02  -0.02  -0.15
  45   6     0.04  -0.08   0.00    -0.00   0.01   0.16     0.01  -0.02  -0.16
  46   6    -0.07   0.04  -0.01     0.01  -0.02  -0.15     0.00   0.02   0.16
  47   6    -0.00   0.16  -0.02     0.01  -0.02  -0.16     0.00   0.02   0.16
  48   7     0.16   0.13  -0.02     0.01  -0.00   0.01     0.01  -0.00  -0.01
  49   6     0.01   0.11   0.01     0.00   0.00  -0.01     0.00   0.00   0.01
  50   6    -0.07  -0.05   0.01    -0.00   0.02   0.14    -0.00  -0.02  -0.14
  51   6    -0.06  -0.09   0.01    -0.00   0.02   0.18    -0.00  -0.03  -0.18
  52   6    -0.08  -0.10   0.00    -0.00  -0.03  -0.17    -0.01   0.02   0.18
  53   6    -0.08  -0.08   0.00    -0.00  -0.03  -0.15    -0.01   0.02   0.16
  54   7    -0.11  -0.08  -0.01    -0.01  -0.00  -0.01    -0.01  -0.00   0.01
  55   6     0.09   0.00   0.01    -0.00   0.00   0.00     0.00   0.00   0.00
  56   6     0.17  -0.05  -0.00    -0.00   0.02   0.16     0.02  -0.03  -0.17
  57   6     0.04  -0.10  -0.01    -0.01   0.02   0.16     0.01  -0.03  -0.17
  58   6    -0.08   0.03   0.00     0.01  -0.02  -0.16    -0.01   0.02   0.16
  59   6    -0.02   0.15  -0.01     0.01  -0.02  -0.16    -0.01   0.03   0.16
  60   7     0.16   0.11  -0.02     0.01   0.00   0.01     0.01   0.01  -0.02
  61   6    -0.00   0.09   0.01     0.00   0.00  -0.01     0.00   0.01   0.02
  62   6    -0.08  -0.06  -0.01    -0.01   0.02   0.15     0.01  -0.01  -0.15
  63   7    -0.10  -0.09  -0.01    -0.01   0.00   0.00     0.00   0.00  -0.01
  64   1    -0.03  -0.02  -0.01    -0.00   0.01   0.10     0.01  -0.01  -0.10
  65   1    -0.03  -0.02   0.00     0.00  -0.01  -0.10    -0.00   0.01   0.10
  66   1     0.02   0.04   0.01    -0.00   0.00   0.00     0.00   0.00   0.00
  67   1     0.01  -0.06   0.00    -0.00   0.01   0.09     0.01  -0.01  -0.09
  68   1    -0.06   0.01  -0.00     0.00  -0.01  -0.09    -0.00   0.01   0.09
  69   1     0.09   0.07  -0.01     0.00   0.00  -0.00     0.00   0.00   0.00
  70   1     0.04   0.03   0.01     0.00   0.00  -0.00     0.00   0.00   0.00
  71   1    -0.01  -0.03   0.00    -0.00   0.01   0.10     0.00  -0.02  -0.10
  72   1    -0.02  -0.03   0.00    -0.00  -0.02  -0.09    -0.00   0.01   0.09
  73   1     0.00  -0.07  -0.00    -0.01   0.01   0.09     0.01  -0.02  -0.09
  74   1    -0.06   0.01   0.00     0.00  -0.01  -0.09    -0.01   0.01   0.09
  75   1     0.09   0.07  -0.01     0.00   0.00   0.00     0.00   0.00  -0.00
  76   1     0.03   0.02   0.01     0.00   0.00  -0.01     0.00   0.00   0.01
                     31                     32                     33
                        a                      a                      a 
 Frequencies --   272.6541               282.1162               297.9177
 Red. masses --    11.4249                11.8142                11.9306
 Frc consts  --     0.0000                 0.0000                 0.0000
 IR Inten    --     0.3815                 3.9652                 0.2520
 Raman Activ --     0.0000                 0.0000                 0.0000
 Depolar     --     0.0000                 0.0000                 0.0000
 Atom AN      X      Y      Z        X      Y      Z        X      Y      Z
   1   6    -0.02  -0.07  -0.03     0.08   0.04   0.02     0.12   0.13   0.04
   2   6    -0.08  -0.13  -0.03    -0.03  -0.08  -0.01     0.06   0.06   0.02
   3   6    -0.14  -0.08  -0.01    -0.16  -0.01   0.00     0.01   0.06   0.02
   4   6     0.02   0.01  -0.01    -0.11   0.02  -0.03    -0.02   0.00   0.00
   5   6     0.18  -0.05  -0.02     0.05  -0.07  -0.01     0.10  -0.09  -0.03
   6   6     0.07  -0.09  -0.03     0.07  -0.08  -0.00     0.11  -0.11  -0.03
   7   6    -0.04   0.02   0.01     0.07  -0.09  -0.03     0.13  -0.15  -0.05
   8   6     0.02   0.14   0.05     0.06  -0.08  -0.04     0.09  -0.18  -0.06
   9   7     0.18   0.10   0.05     0.07  -0.11  -0.01     0.12  -0.20  -0.06
  10   6     0.02   0.17   0.04    -0.02   0.09  -0.01    -0.02  -0.02  -0.01
  11   6    -0.03   0.07   0.01     0.02   0.16   0.06    -0.04   0.01   0.01
  12   6     0.01  -0.03  -0.01     0.07   0.05   0.03    -0.03  -0.04  -0.00
  13   6    -0.06  -0.10  -0.02    -0.03  -0.04  -0.01    -0.10  -0.09  -0.03
  14   6    -0.13  -0.06  -0.01    -0.14   0.01   0.00    -0.17  -0.04  -0.01
  15   7    -0.14   0.03   0.02    -0.13   0.14   0.07    -0.17  -0.00   0.01
  16   6     0.02   0.01  -0.01    -0.11   0.02  -0.03    -0.12   0.01   0.00
  17   6     0.19  -0.06  -0.03     0.05  -0.06  -0.02    -0.08   0.02   0.01
  18   6     0.10  -0.11  -0.04     0.09  -0.05  -0.00    -0.05   0.04   0.02
  19   6     0.00  -0.02   0.01     0.12  -0.09  -0.02    -0.04   0.03   0.00
  20   6     0.04   0.07   0.03     0.09  -0.12  -0.04    -0.02   0.04   0.00
  21   7     0.18   0.04   0.01     0.08  -0.13  -0.02    -0.08   0.04   0.01
  22   6     0.02   0.11   0.02     0.00   0.07  -0.02    -0.02   0.10   0.02
  23   6    -0.05   0.01  -0.00     0.02   0.14   0.04     0.06   0.20   0.06
  24   7    -0.16  -0.03   0.00    -0.14   0.12   0.06     0.02   0.20   0.07
  25   1     0.01  -0.02  -0.01     0.06   0.01   0.00     0.06   0.04   0.01
  26   1    -0.02  -0.06  -0.01    -0.00  -0.06  -0.01     0.02   0.01   0.00
  27   1     0.02  -0.06  -0.02     0.02  -0.02   0.00     0.03  -0.04  -0.01
  28   1    -0.05   0.00   0.00     0.02  -0.02  -0.01     0.06  -0.04  -0.01
  29   1     0.09   0.07   0.02     0.01  -0.03  -0.01     0.02  -0.07  -0.02
  30   1     0.02   0.05   0.01    -0.05   0.03  -0.02    -0.04  -0.00  -0.00
  31   1     0.03  -0.01  -0.01     0.05   0.01   0.01     0.00  -0.01  -0.00
  32   1    -0.02  -0.05  -0.01    -0.00  -0.04  -0.01    -0.03  -0.05  -0.02
  33   1     0.01   0.06   0.01    -0.03   0.04  -0.01    -0.04   0.02   0.00
  34   1     0.02  -0.06  -0.02     0.03  -0.01   0.01    -0.01   0.02   0.01
  35   1    -0.03  -0.01   0.00     0.05  -0.03  -0.00    -0.01   0.01  -0.00
  36   1     0.08   0.04   0.01     0.01  -0.05  -0.01    -0.02   0.01   0.00
  37   1     0.02   0.03   0.00    -0.04   0.02  -0.02    -0.03   0.03   0.00
  38   6    -0.00   0.20   0.02    -0.12   0.20  -0.02    -0.01   0.06   0.01
  39   6    -0.01  -0.19  -0.00    -0.12   0.20   0.04     0.00  -0.07  -0.01
  40   6    -0.01   0.03  -0.01     0.08   0.06  -0.02     0.04   0.04   0.01
  41   6     0.07   0.10   0.00    -0.03  -0.05   0.00     0.10   0.09  -0.01
  42   6     0.13   0.06   0.01    -0.15   0.01  -0.01     0.17   0.04   0.00
  43   6    -0.03  -0.01  -0.01    -0.11   0.02   0.03     0.12  -0.01  -0.00
  44   6    -0.19   0.07  -0.02     0.05  -0.07   0.01     0.09  -0.02   0.01
  45   6    -0.09   0.11  -0.02     0.10  -0.06  -0.00     0.06  -0.04   0.01
  46   6     0.00   0.02   0.01     0.12  -0.10   0.01     0.04  -0.03   0.00
  47   6    -0.04  -0.08   0.02     0.09  -0.12   0.02     0.02  -0.04  -0.00
  48   7    -0.19  -0.04   0.00     0.08  -0.14   0.01     0.08  -0.04   0.00
  49   6    -0.02  -0.11   0.00     0.01   0.07   0.02     0.02  -0.10   0.01
  50   6     0.05  -0.00  -0.01     0.03   0.15  -0.02    -0.07  -0.20   0.03
  51   6     0.02   0.07  -0.02     0.09   0.03  -0.01    -0.13  -0.13   0.02
  52   6     0.09   0.13  -0.00    -0.03  -0.08  -0.00    -0.07  -0.07   0.01
  53   6     0.14   0.08   0.00    -0.17  -0.01  -0.01    -0.01  -0.07   0.01
  54   7     0.15   0.03   0.01    -0.14   0.13  -0.04    -0.03  -0.21   0.04
  55   6    -0.02  -0.01  -0.01    -0.12   0.02   0.02     0.02  -0.01  -0.01
  56   6    -0.18   0.05  -0.02     0.06  -0.08   0.00    -0.10   0.10  -0.02
  57   6    -0.07   0.10  -0.02     0.07  -0.08  -0.01    -0.11   0.12  -0.02
  58   6     0.04  -0.02   0.01     0.07  -0.09   0.01    -0.12   0.16  -0.03
  59   6    -0.03  -0.15   0.03     0.06  -0.09   0.02    -0.08   0.20  -0.03
  60   7    -0.18  -0.11   0.02     0.08  -0.11  -0.00    -0.11   0.21  -0.03
  61   6    -0.02  -0.17   0.01    -0.01   0.10   0.02     0.02   0.02  -0.01
  62   6     0.03  -0.07   0.00     0.02   0.17  -0.03     0.04  -0.01   0.01
  63   7     0.14  -0.03   0.01    -0.13   0.16  -0.05     0.17   0.00   0.02
  64   1    -0.03   0.01  -0.01     0.06   0.01  -0.01     0.00   0.01   0.00
  65   1     0.02   0.05   0.00    -0.01  -0.05   0.01     0.03   0.05  -0.01
  66   1    -0.01  -0.06   0.00    -0.03   0.04   0.01     0.03  -0.02  -0.00
  67   1    -0.02   0.06  -0.01     0.03  -0.01  -0.00     0.01  -0.02   0.01
  68   1     0.03   0.01   0.01     0.05  -0.03   0.00     0.01  -0.01  -0.00
  69   1    -0.08  -0.04   0.00     0.01  -0.05   0.00     0.03  -0.01   0.00
  70   1    -0.02  -0.03  -0.00    -0.04   0.02   0.02     0.03  -0.03   0.00
  71   1    -0.01   0.02  -0.01     0.06   0.01  -0.00    -0.06  -0.04   0.00
  72   1     0.02   0.06  -0.00    -0.01  -0.06   0.00    -0.02  -0.01   0.00
  73   1    -0.01   0.06  -0.01     0.02  -0.02  -0.00    -0.03   0.04  -0.01
  74   1     0.05  -0.00   0.01     0.02  -0.03   0.01    -0.05   0.05  -0.01
  75   1    -0.09  -0.07   0.01     0.02  -0.03   0.00    -0.01   0.07  -0.01
  76   1    -0.02  -0.05  -0.00    -0.05   0.03   0.02     0.04   0.01  -0.00
                     34                     35                     36
                        a                      a                      a 
 Frequencies --   300.9301               303.9766               335.0777
 Red. masses --    11.9996                10.8899                11.7571
 Frc consts  --     0.0000                 0.0000                 0.0000
 IR Inten    --     0.0296                 3.2927                 0.1411
 Raman Activ --     0.0000                 0.0000                 0.0000
 Depolar     --     0.0000                 0.0000                 0.0000
 Atom AN      X      Y      Z        X      Y      Z        X      Y      Z
   1   6    -0.10  -0.11  -0.03     0.01   0.01  -0.05    -0.06   0.06   0.04
   2   6    -0.10  -0.10  -0.04    -0.01  -0.02  -0.04    -0.11   0.01  -0.01
   3   6    -0.11  -0.07  -0.03    -0.04  -0.01  -0.02    -0.14   0.02  -0.01
   4   6    -0.05   0.00  -0.00    -0.02  -0.06   0.19    -0.08   0.01  -0.02
   5   6    -0.12   0.08   0.03     0.01  -0.01   0.01    -0.11  -0.00  -0.02
   6   6    -0.11   0.10   0.04     0.01   0.00  -0.05    -0.08   0.00  -0.01
   7   6    -0.11   0.12   0.04     0.00   0.02  -0.06    -0.01  -0.08  -0.01
   8   6    -0.07   0.14   0.05     0.01   0.01  -0.01    -0.03  -0.14  -0.03
[...]
  74   1     0.03  -0.34   0.05    -0.06   0.74  -0.11     0.01  -0.09   0.01
  75   1     0.00   0.00  -0.00    -0.00  -0.00   0.00     0.00  -0.00   0.00
  76   1    -0.00  -0.01   0.00     0.00   0.02  -0.00    -0.00  -0.00   0.00
                    214                    215                    216
                        a                      a                      a 
 Frequencies --  3165.6707              3168.7591              3169.0911
 Red. masses --     1.9536                 1.9611                 1.9612
 Frc consts  --     0.0000                 0.0000                 0.0000
 IR Inten    --   101.6129               253.2148                17.9930
 Raman Activ --     0.0000                 0.0000                 0.0000
 Depolar     --     0.0000                 0.0000                 0.0000
 Atom AN      X      Y      Z        X      Y      Z        X      Y      Z
   1   6    -0.00   0.04   0.01     0.00   0.01   0.00    -0.00  -0.01  -0.00
   2   6     0.09   0.01   0.01     0.01   0.00   0.00    -0.01  -0.00  -0.00
   3   6     0.00  -0.00  -0.00     0.00  -0.00  -0.00    -0.00   0.00   0.00
   4   6     0.00   0.00   0.00     0.00   0.00   0.00     0.00  -0.00  -0.00
   5   6     0.00  -0.00  -0.00    -0.00   0.00   0.00     0.00  -0.00  -0.00
   6   6    -0.01   0.00   0.00     0.00  -0.00  -0.00    -0.01   0.00   0.00
   7   6    -0.00   0.04   0.01    -0.00   0.00   0.00    -0.00   0.00   0.00
   8   6     0.00   0.00   0.00     0.00   0.00   0.00     0.00  -0.00  -0.00
   9   7     0.00  -0.00  -0.00     0.00  -0.00  -0.00    -0.00   0.00   0.00
  10   6    -0.00   0.00   0.00    -0.00   0.00   0.00     0.00   0.00   0.00
  11   6     0.00   0.00   0.00     0.00  -0.00  -0.00    -0.00   0.00   0.00
  12   6     0.00   0.00   0.00     0.00  -0.00  -0.00     0.00   0.01   0.00
  13   6     0.00   0.00  -0.00    -0.00  -0.00  -0.00     0.01   0.00  -0.00
  14   6     0.00  -0.00  -0.00     0.00  -0.00  -0.00     0.00  -0.00  -0.00
  15   7    -0.00  -0.00   0.00     0.00   0.00   0.00    -0.00  -0.00  -0.00
  16   6     0.00  -0.00  -0.00    -0.00   0.00   0.00     0.00  -0.00  -0.00
  17   6     0.00   0.00   0.00    -0.00  -0.00  -0.00     0.00   0.01   0.00
  18   6     0.01  -0.00  -0.00    -0.12   0.01   0.01     0.18  -0.02  -0.01
  19   6     0.00  -0.01  -0.00    -0.01   0.10   0.03     0.01  -0.16  -0.04
  20   6    -0.00   0.00   0.00     0.00   0.00   0.00    -0.01  -0.00  -0.00
  21   7    -0.00   0.00   0.00     0.00  -0.00  -0.00    -0.00   0.00   0.00
  22   6     0.00   0.00   0.00    -0.00   0.00   0.00     0.00  -0.00  -0.00
  23   6    -0.00   0.00   0.00    -0.00   0.00   0.00     0.00   0.00  -0.00
  24   7    -0.00  -0.00  -0.00    -0.00  -0.00  -0.00     0.00   0.00   0.00
  25   1    -0.01  -0.13  -0.04    -0.00  -0.02  -0.01     0.00   0.02   0.01
  26   1    -0.30  -0.03  -0.02    -0.04  -0.00  -0.00     0.04   0.00   0.00
  27   1     0.03  -0.00  -0.00    -0.01   0.00   0.00     0.02  -0.00  -0.00
  28   1     0.01  -0.12  -0.04     0.00  -0.01  -0.00     0.00  -0.00  -0.00
  29   1    -0.00   0.00  -0.00    -0.00   0.00   0.00     0.00  -0.00  -0.00
  30   1    -0.00  -0.00  -0.00    -0.00  -0.00  -0.00     0.00  -0.00  -0.00
  31   1    -0.00  -0.01  -0.00     0.00   0.00   0.00    -0.00  -0.02  -0.01
  32   1    -0.00  -0.00  -0.00     0.01   0.00   0.00    -0.03  -0.00  -0.00
  33   1    -0.00  -0.00   0.00     0.01   0.00   0.00    -0.01  -0.00   0.00
  34   1    -0.03   0.00   0.00     0.38  -0.06  -0.02    -0.59   0.09   0.03
  35   1    -0.00   0.02   0.01     0.04  -0.33  -0.09    -0.06   0.52   0.14
  36   1    -0.00  -0.00  -0.00     0.00  -0.00  -0.00    -0.00   0.00   0.00
  37   1     0.00  -0.00  -0.00    -0.00  -0.01  -0.00     0.00   0.01   0.00
  38   6     0.00  -0.00   0.00    -0.00  -0.00   0.00     0.00  -0.00  -0.00
  39   6     0.00  -0.00  -0.00    -0.00   0.00  -0.00    -0.00   0.00  -0.00
  40   6     0.00   0.00  -0.00    -0.00  -0.00   0.00    -0.00  -0.01   0.00
  41   6     0.00   0.00   0.00    -0.01  -0.00  -0.00    -0.01  -0.00  -0.00
  42   6     0.00   0.00   0.00    -0.00   0.00   0.00    -0.00   0.00  -0.00
  43   6     0.00  -0.00   0.00    -0.00   0.00  -0.00    -0.00   0.00  -0.00
  44   6     0.00   0.00  -0.00    -0.00  -0.01   0.00    -0.00  -0.00   0.00
  45   6     0.02  -0.00   0.00    -0.18   0.03  -0.01    -0.12   0.02  -0.01
  46   6     0.00  -0.01   0.00    -0.01   0.16  -0.02    -0.00   0.10  -0.01
  47   6    -0.00  -0.00   0.00     0.01   0.00   0.00     0.00   0.00   0.00
  48   7    -0.00   0.00  -0.00     0.00  -0.00   0.00     0.00  -0.00   0.00
  49   6     0.00   0.00  -0.00    -0.00   0.00  -0.00    -0.00   0.00  -0.00
  50   6    -0.00   0.00  -0.00    -0.00   0.00   0.00    -0.00  -0.00   0.00
  51   6     0.00   0.12  -0.02     0.00   0.01  -0.00     0.00   0.00  -0.00
  52   6     0.24   0.01  -0.00     0.02   0.00  -0.00     0.01   0.00  -0.00
  53   6     0.00  -0.01   0.00     0.00  -0.00   0.00     0.00  -0.00   0.00
  54   7    -0.00  -0.00   0.00    -0.00  -0.00   0.00    -0.00  -0.00   0.00
  55   6     0.00   0.00  -0.00     0.00   0.00  -0.00    -0.00   0.00  -0.00
  56   6    -0.00  -0.00   0.00    -0.00   0.00  -0.00    -0.00   0.00  -0.00
  57   6    -0.01   0.00  -0.00     0.00  -0.00   0.00     0.00  -0.00   0.00
  58   6    -0.00   0.02  -0.00    -0.00   0.00  -0.00     0.00  -0.00   0.00
  59   6     0.00   0.00   0.00     0.00   0.00  -0.00    -0.00   0.00  -0.00
  60   7     0.00  -0.00   0.00     0.00  -0.00   0.00     0.00  -0.00   0.00
  61   6    -0.00   0.00  -0.00    -0.00   0.00  -0.00    -0.00  -0.00   0.00
  62   6     0.00   0.00  -0.00     0.00  -0.00   0.00     0.00  -0.00   0.00
  63   7    -0.00  -0.00   0.00     0.00   0.00  -0.00     0.00   0.00  -0.00
  64   1    -0.00  -0.01   0.00     0.00   0.01  -0.00     0.00   0.02  -0.00
  65   1    -0.01  -0.00  -0.00     0.02   0.00   0.00     0.02   0.00   0.00
  66   1    -0.00  -0.00  -0.00     0.01   0.00   0.00     0.01   0.00   0.00
  67   1    -0.05   0.01  -0.00     0.59  -0.11   0.03     0.38  -0.07   0.02
  68   1    -0.00   0.04  -0.00     0.04  -0.52   0.06     0.03  -0.34   0.04
  69   1    -0.00  -0.00   0.00     0.00  -0.00   0.00     0.00  -0.00   0.00
  70   1     0.00  -0.01   0.00    -0.00  -0.01   0.00    -0.00  -0.01   0.00
  71   1    -0.04  -0.35   0.05    -0.00  -0.03   0.00    -0.00  -0.01   0.00
  72   1    -0.80  -0.07   0.02    -0.05  -0.00   0.00    -0.02  -0.00   0.00
  73   1     0.04  -0.01   0.00    -0.01   0.00  -0.00    -0.01   0.00  -0.00
  74   1     0.00  -0.06   0.01     0.00  -0.00   0.00    -0.00   0.00  -0.00
  75   1    -0.00   0.00  -0.00    -0.00   0.00  -0.00    -0.00   0.00   0.00
  76   1    -0.00  -0.00   0.00    -0.00  -0.00   0.00    -0.00   0.00  -0.00
                    217                    218                    219
                        a                      a                      a 
 Frequencies --  3174.8330              3175.1690              3348.7192
 Red. masses --     1.9480                 1.9477                 1.8926
 Frc consts  --     0.0000                 0.0000                 0.0000
 IR Inten    --     5.0671                87.2731                 9.9510
 Raman Activ --     0.0000                 0.0000                 0.0000
 Depolar     --     0.0000                 0.0000                 0.0000
 Atom AN      X      Y      Z        X      Y      Z        X      Y      Z
   1   6     0.00   0.00   0.00    -0.00   0.01   0.00     0.00  -0.00  -0.00
   2   6    -0.01  -0.00  -0.00     0.02   0.00   0.00    -0.00   0.00   0.00
   3   6    -0.00   0.00   0.00     0.00  -0.00  -0.00    -0.00   0.00   0.00
   4   6     0.00  -0.00  -0.00     0.00  -0.00  -0.00    -0.00  -0.00  -0.00
   5   6     0.00   0.01   0.00     0.00   0.01   0.00     0.00  -0.00  -0.00
   6   6     0.18  -0.02  -0.01     0.18  -0.02  -0.01     0.00   0.00   0.00
   7   6     0.01  -0.10  -0.03     0.01  -0.10  -0.03    -0.00   0.00   0.00
   8   6    -0.00  -0.00  -0.00    -0.00  -0.00  -0.00     0.00  -0.00  -0.00
   9   7    -0.00   0.00   0.00    -0.00   0.00   0.00     0.01  -0.01  -0.00
  10   6     0.00  -0.00  -0.00     0.00  -0.00  -0.00     0.00   0.00   0.00
  11   6    -0.00   0.00   0.00     0.00   0.00   0.00    -0.00   0.00   0.00
  12   6    -0.00  -0.00  -0.00    -0.00  -0.00  -0.00    -0.00  -0.00  -0.00
  13   6    -0.00  -0.00   0.00    -0.00  -0.00   0.00    -0.00  -0.00   0.00
  14   6    -0.00   0.00   0.00    -0.00   0.00   0.00    -0.00   0.00   0.00
  15   7     0.00   0.00   0.00     0.00   0.00   0.00    -0.00  -0.00  -0.00
  16   6     0.00  -0.00  -0.00     0.00  -0.00  -0.00     0.00  -0.00  -0.00
  17   6     0.00   0.00   0.00     0.00   0.00   0.00     0.00  -0.00  -0.00
  18   6     0.00  -0.00  -0.00     0.00  -0.00  -0.00    -0.00   0.00   0.00
  19   6     0.00  -0.00  -0.00     0.00  -0.00  -0.00    -0.00   0.00   0.00
  20   6    -0.00  -0.00  -0.00    -0.00  -0.00  -0.00    -0.00  -0.00  -0.00
  21   7    -0.00   0.00   0.00    -0.00   0.00   0.00     0.00  -0.00  -0.00
  22   6     0.00  -0.00  -0.00     0.00   0.00   0.00     0.00   0.00   0.00
  23   6    -0.00   0.00   0.00    -0.00   0.00   0.00     0.00  -0.00  -0.00
  24   7    -0.00  -0.00   0.00    -0.00  -0.00  -0.00     0.00   0.00   0.00
  25   1    -0.00  -0.00  -0.00    -0.00  -0.02  -0.01     0.00   0.00   0.00
  26   1     0.02   0.00   0.00    -0.07  -0.01  -0.01     0.00  -0.00   0.00
  27   1    -0.58   0.08   0.05    -0.58   0.08   0.05    -0.00   0.00   0.00
  28   1    -0.03   0.31   0.10    -0.03   0.30   0.10    -0.00   0.00   0.00
  29   1    -0.00   0.00   0.00    -0.00   0.00   0.00    -0.02   0.02   0.01
  30   1     0.00   0.01   0.00     0.00   0.01   0.00    -0.00  -0.00  -0.00
  31   1     0.00   0.01   0.00     0.00   0.01   0.00     0.00   0.00   0.00
  32   1     0.00   0.00   0.00     0.00   0.00   0.00     0.00   0.00  -0.00
  33   1    -0.00  -0.00  -0.00    -0.00  -0.00  -0.00    -0.00  -0.00   0.00
  34   1    -0.01   0.00   0.00    -0.01   0.00   0.00     0.00  -0.00  -0.00
  35   1    -0.00   0.01   0.00    -0.00   0.01   0.00    -0.00  -0.00  -0.00
  36   1     0.00  -0.00  -0.00     0.00  -0.00  -0.00    -0.00   0.01   0.00
  37   1     0.00  -0.00  -0.00     0.00  -0.00  -0.00    -0.00  -0.00  -0.00
  38   6     0.00  -0.00  -0.00     0.00  -0.00  -0.00     0.00  -0.00   0.00
  39   6    -0.00   0.00   0.00     0.00  -0.00   0.00    -0.00   0.00  -0.00
  40   6     0.00   0.00  -0.00    -0.00  -0.00   0.00     0.00   0.00   0.00
  41   6     0.00  -0.00   0.00    -0.00  -0.00  -0.00     0.00   0.00  -0.00
  42   6     0.00  -0.00   0.00    -0.00   0.00  -0.00     0.00  -0.00   0.00
  43   6    -0.00   0.00  -0.00     0.00  -0.00   0.00    -0.00   0.00  -0.00
  44   6    -0.00  -0.00  -0.00     0.00   0.00   0.00    -0.00   0.00  -0.00
  45   6    -0.00   0.00  -0.00     0.00  -0.00   0.00     0.00  -0.00   0.00
  46   6    -0.00   0.00  -0.00     0.00  -0.00   0.00     0.00  -0.00   0.00
  47   6     0.00   0.00  -0.00    -0.00  -0.00   0.00    -0.00   0.00  -0.00
  48   7     0.00  -0.00   0.00    -0.00   0.00  -0.00    -0.04   0.05  -0.01
  49   6    -0.00   0.00  -0.00     0.00   0.00   0.00    -0.00   0.00  -0.00
  50   6     0.00  -0.00   0.00    -0.00   0.00  -0.00     0.00   0.00  -0.00
  51   6    -0.00   0.00  -0.00    -0.00   0.01  -0.00    -0.00   0.00  -0.00
  52   6     0.01   0.00  -0.00     0.03   0.00  -0.00    -0.00  -0.00   0.00
  53   6     0.00  -0.00   0.00     0.00  -0.00   0.00     0.00  -0.00   0.00
  54   7     0.00   0.00   0.00    -0.00  -0.00   0.00    -0.00  -0.00  -0.00
  55   6    -0.00   0.00  -0.00     0.00  -0.00   0.00     0.00   0.00  -0.00
  56   6    -0.00  -0.01   0.00     0.00   0.01  -0.00    -0.00   0.00  -0.00
  57   6    -0.18   0.03  -0.02     0.17  -0.03   0.02     0.00  -0.00   0.00
  58   6    -0.00   0.10  -0.02     0.00  -0.10   0.01     0.00  -0.00   0.00
  59   6     0.00   0.00   0.00    -0.00  -0.00  -0.00    -0.00   0.00  -0.00
  60   7     0.00  -0.00   0.00    -0.00   0.00  -0.00    -0.16   0.19  -0.04
  61   6    -0.00   0.00  -0.00     0.00  -0.00   0.00    -0.00   0.00  -0.00
  62   6     0.00  -0.00   0.00     0.00   0.00  -0.00     0.00  -0.00   0.00
  63   7    -0.00  -0.00   0.00     0.00   0.00  -0.00     0.00   0.00  -0.00
  64   1    -0.00  -0.01   0.00     0.00   0.01  -0.00    -0.00  -0.00   0.00
  65   1    -0.00  -0.00  -0.00     0.00   0.00   0.00    -0.00   0.00  -0.00
  66   1     0.00   0.00   0.00    -0.00  -0.00  -0.00     0.00   0.00   0.00
  67   1     0.01  -0.00   0.00    -0.01   0.00  -0.00     0.00  -0.00   0.00
  68   1     0.00  -0.01   0.00    -0.00   0.01  -0.00     0.00  -0.00   0.00
  69   1    -0.00   0.00   0.00     0.00  -0.00   0.00     0.15  -0.18   0.03
  70   1    -0.00   0.00  -0.00     0.00  -0.00   0.00    -0.00  -0.00   0.00
  71   1    -0.00  -0.00   0.00    -0.00  -0.03   0.00    -0.00  -0.00   0.00
  72   1    -0.03  -0.00   0.00    -0.08  -0.01   0.00    -0.00  -0.00   0.00
  73   1     0.58  -0.10   0.06    -0.58   0.10  -0.06     0.00  -0.00   0.00
  74   1     0.02  -0.33   0.05    -0.02   0.32  -0.05     0.00  -0.00   0.00
  75   1     0.00  -0.00   0.00    -0.00   0.00  -0.00     0.62  -0.69   0.13
  76   1    -0.00  -0.01   0.00     0.00   0.01  -0.00    -0.00  -0.00   0.00
                    220                    221                    222
                        a                      a                      a 
 Frequencies --  3349.3901              3356.7681              3357.3906
 Red. masses --     1.8924                 1.8873                 1.8872
 Frc consts  --     0.0000                 0.0000                 0.0000
 IR Inten    --    36.6683                 0.4212                 3.8201
 Raman Activ --     0.0000                 0.0000                 0.0000
 Depolar     --     0.0000                 0.0000                 0.0000
 Atom AN      X      Y      Z        X      Y      Z        X      Y      Z
   1   6    -0.00   0.00   0.00    -0.00   0.00   0.00    -0.00  -0.00  -0.00
   2   6     0.00  -0.00  -0.00     0.00   0.00  -0.00    -0.00  -0.00  -0.00
   3   6     0.00  -0.00  -0.00     0.00  -0.00  -0.00     0.00  -0.00  -0.00
   4   6     0.00   0.00   0.00    -0.00  -0.00  -0.00     0.00  -0.00  -0.00
   5   6    -0.00   0.00   0.00     0.00   0.00   0.00     0.00   0.00   0.00
   6   6     0.00  -0.00  -0.00     0.00  -0.00  -0.00     0.00  -0.00  -0.00
   7   6     0.00  -0.00  -0.00     0.00  -0.00  -0.00     0.00  -0.00  -0.00
   8   6    -0.00   0.00   0.00    -0.00  -0.00  -0.00    -0.00  -0.00  -0.00
   9   7    -0.17   0.18   0.06    -0.00   0.00   0.00    -0.04   0.04   0.01
  10   6    -0.00   0.00   0.00     0.00  -0.00  -0.00     0.00  -0.00  -0.00
  11   6     0.00  -0.00  -0.00    -0.00  -0.00  -0.00     0.00  -0.00  -0.00
  12   6     0.00   0.00   0.00     0.00  -0.00  -0.00     0.00   0.00   0.00
  13   6     0.00   0.00   0.00    -0.00   0.00   0.00     0.00   0.00   0.00
  14   6     0.00  -0.00  -0.00    -0.00   0.00   0.00    -0.00   0.00   0.00
  15   7     0.00   0.00   0.00     0.00   0.00   0.00     0.00   0.00   0.00
  16   6    -0.00   0.00   0.00    -0.00  -0.00  -0.00     0.00  -0.00  -0.00
  17   6    -0.00   0.00   0.00     0.00  -0.00  -0.00     0.00  -0.00  -0.00
  18   6     0.00  -0.00  -0.00    -0.00   0.00   0.00    -0.00   0.00   0.00
  19   6     0.00  -0.00  -0.00    -0.00   0.00   0.00    -0.00   0.00   0.00
  20   6    -0.00   0.00   0.00     0.00  -0.00  -0.00     0.00  -0.00  -0.00
  21   7    -0.04   0.04   0.01     0.01  -0.01  -0.00     0.17  -0.18  -0.05
  22   6    -0.00   0.00   0.00     0.00  -0.00  -0.00     0.00  -0.00  -0.00
  23   6     0.00   0.00   0.00    -0.00   0.00   0.00    -0.00   0.00   0.00
  24   7    -0.00  -0.00  -0.00    -0.00  -0.00  -0.00    -0.00  -0.00  -0.00
  25   1    -0.00  -0.00  -0.00    -0.00  -0.00  -0.00    -0.00  -0.00  -0.00
  26   1    -0.00  -0.00  -0.00    -0.00  -0.00  -0.00    -0.00  -0.00  -0.00
  27   1     0.00  -0.00  -0.00    -0.00   0.00   0.00    -0.00   0.00   0.00
  28   1     0.00  -0.00  -0.00    -0.00   0.00   0.00    -0.00   0.00   0.00
  29   1     0.64  -0.65  -0.22     0.01  -0.01  -0.00     0.16  -0.16  -0.05
  30   1    -0.00  -0.00  -0.00     0.00   0.00   0.00     0.00   0.00   0.00
  31   1    -0.00  -0.00  -0.00     0.00   0.00   0.00     0.00   0.00   0.00
  32   1    -0.00   0.00   0.00     0.00   0.00   0.00     0.00   0.00   0.00
  33   1     0.00   0.00   0.00     0.00  -0.00  -0.00    -0.00  -0.00  -0.00
  34   1     0.00  -0.00  -0.00    -0.00   0.00   0.00    -0.00   0.00   0.00
  35   1     0.00  -0.00  -0.00    -0.00  -0.00  -0.00    -0.00   0.00   0.00
  36   1     0.16  -0.16  -0.05    -0.03   0.03   0.01    -0.64   0.66   0.19
  37   1    -0.00  -0.00  -0.00     0.00   0.00   0.00     0.00   0.00   0.00
  38   6    -0.00   0.00   0.00     0.00  -0.00   0.00    -0.00   0.00  -0.00
  39   6     0.00  -0.00   0.00    -0.00   0.00  -0.00     0.00  -0.00  -0.00
  40   6     0.00  -0.00   0.00     0.00   0.00   0.00    -0.00  -0.00  -0.00
  41   6    -0.00  -0.00  -0.00     0.00   0.00  -0.00    -0.00  -0.00   0.00
  42   6     0.00  -0.00   0.00    -0.00   0.00  -0.00     0.00  -0.00   0.00
  43   6     0.00   0.00  -0.00     0.00  -0.00   0.00    -0.00   0.00  -0.00
  44   6    -0.00  -0.00  -0.00     0.00  -0.00   0.00    -0.00   0.00  -0.00
  45   6    -0.00  -0.00   0.00    -0.00   0.00  -0.00     0.00  -0.00   0.00
  46   6     0.00   0.00  -0.00    -0.00   0.00  -0.00     0.00  -0.00   0.00
  47   6    -0.00   0.00  -0.00     0.00  -0.00   0.00    -0.00   0.00  -0.00
  48   7    -0.00   0.00  -0.00     0.16  -0.19   0.03    -0.01   0.01  -0.00
  49   6    -0.00   0.00  -0.00     0.00  -0.00   0.00    -0.00   0.00  -0.00
  50   6     0.00   0.00   0.00    -0.00   0.00  -0.00     0.00  -0.00   0.00
  51   6    -0.00  -0.00   0.00    -0.00  -0.00   0.00     0.00   0.00  -0.00
  52   6    -0.00  -0.00   0.00    -0.00  -0.00   0.00     0.00   0.00  -0.00
  53   6     0.00  -0.00  -0.00     0.00  -0.00   0.00    -0.00  -0.00   0.00
  54   7    -0.00  -0.00  -0.00    -0.00  -0.00   0.00     0.00   0.00  -0.00
  55   6    -0.00   0.00  -0.00     0.00  -0.00   0.00    -0.00  -0.00  -0.00
  56   6    -0.00   0.00  -0.00     0.00   0.00  -0.00    -0.00  -0.00   0.00
  57   6     0.00  -0.00   0.00     0.00  -0.00   0.00     0.00  -0.00   0.00
  58   6     0.00  -0.00   0.00     0.00  -0.00   0.00    -0.00  -0.00   0.00
  59   6    -0.00   0.00  -0.00    -0.00  -0.00  -0.00     0.00   0.00   0.00
  60   7    -0.01   0.01  -0.00    -0.04   0.05  -0.01     0.00  -0.00   0.00
  61   6    -0.00   0.00  -0.00     0.00  -0.00   0.00     0.00  -0.00   0.00
  62   6     0.00  -0.00   0.00     0.00  -0.00   0.00    -0.00   0.00  -0.00
  63   7     0.00   0.00  -0.00     0.00   0.00  -0.00    -0.00  -0.00   0.00
  64   1     0.00   0.00  -0.00     0.00   0.00  -0.00    -0.00   0.00  -0.00
  65   1     0.00   0.00   0.00     0.00   0.00   0.00     0.00   0.00  -0.00
  66   1    -0.00   0.00  -0.00    -0.00  -0.00  -0.00     0.00   0.00   0.00
  67   1     0.00  -0.00   0.00    -0.00   0.00  -0.00     0.00  -0.00  -0.00
  68   1     0.00  -0.00   0.00    -0.00   0.00  -0.00     0.00  -0.00   0.00
  69   1     0.01  -0.01   0.00    -0.62   0.70  -0.10     0.02  -0.03   0.00
  70   1    -0.00  -0.00   0.00     0.00   0.00  -0.00    -0.00  -0.00   0.00
  71   1    -0.00   0.00  -0.00    -0.00  -0.00   0.00    -0.00  -0.00   0.00
  72   1     0.00  -0.00  -0.00    -0.00  -0.00   0.00    -0.00  -0.00   0.00
  73   1    -0.00   0.00  -0.00    -0.00   0.00  -0.00    -0.00   0.00  -0.00
  74   1     0.00  -0.00   0.00    -0.00   0.00  -0.00     0.00   0.00  -0.00
  75   1     0.02  -0.02   0.00     0.16  -0.17   0.03    -0.01   0.01  -0.00
  76   1    -0.00  -0.00   0.00     0.00   0.00  -0.00     0.00   0.00  -0.00
