76
 energy: -125.683354284829 gnorm: 2.101354755358 xtb: 6.4.1 (bd6e46d)
C        12.47888400000000    3.50599600000000    0.78768400000000
C        13.36886200000000    2.56573700000000    0.58948800000000
C        12.70736100000000    1.30566200000000    0.28868100000000
C        13.06579900000000    0.00000000000000    0.00000000000000
C        12.24062100000000   -1.13107200000000   -0.08521600000000
C        12.69618600000000   -2.33979600000000    0.49609100000000
C        11.72349200000000   -3.27234300000000    0.29593600000000
C        10.69239800000000   -2.60464200000000   -0.40705200000000
N        11.02912300000000   -1.32378200000000   -0.62396600000000
C         9.53443700000000   -3.33075700000000   -0.73876900000000
C         8.21633600000000   -2.88806100000000   -0.62523400000000
C         6.90399000000000   -3.49019500000000   -0.72221300000000
C         5.98236200000000   -2.54354800000000   -0.51612800000000
C         6.67924800000000   -1.29771700000000   -0.27939700000000
N         8.00032200000000   -1.57746900000000   -0.35908300000000
C         6.28000600000000    0.00428000000000   -0.01139400000000
C         7.11261800000000    1.14095600000000    0.06451400000000
C         6.67847500000000    2.34294600000000   -0.54562600000000
C         7.67398800000000    3.25933400000000   -0.35367000000000
C         8.68813900000000    2.58609100000000    0.37026100000000
N         8.32294200000000    1.31826900000000    0.60908500000000
C         9.85778100000000    3.29304700000000    0.69176000000000
C        11.17303400000000    2.88952300000000    0.62174500000000
N        11.36265600000000    1.57841900000000    0.32534300000000
H        12.64614900000000    4.53454000000000    1.02627300000000
H        14.43912100000000    2.68907400000000    0.63850700000000
H        13.65670700000000   -2.52549900000000    1.01466700000000
H        11.76037400000000   -4.32895200000000    0.62126300000000
H        10.42583800000000   -0.55637200000000   -1.17148500000000
H         9.62282800000000   -4.36618400000000   -1.11711600000000
H         6.70531500000000   -4.55089600000000   -0.93095800000000
H         4.91295300000000   -2.73548200000000   -0.53536200000000
H         5.20506300000000    0.09354900000000    0.12635000000000
H         5.72482100000000    2.53450300000000   -1.07442400000000
H         7.65956700000000    4.30956300000000   -0.70011200000000
H         8.91626700000000    0.56082500000000    1.18108100000000
H         9.78927300000000    4.35045200000000    1.04847600000000
C        14.09076600000000    0.00000000000000    0.00000000000000
C        15.30697100000000    0.00000000000000    0.00000000000000
C        22.49372900000000    3.50175300000000    0.64229200000000
C        23.45071400000000    2.61195800000000    0.47028800000000
C        22.76416600000000    1.34992000000000    0.24811200000000
C        23.13115800000000    0.02685400000000    0.00273100000000
C        22.30750300000000   -1.10738400000000   -0.03737700000000
C        22.76156300000000   -2.28527300000000    0.60592600000000
C        21.78167800000000   -3.22137600000000    0.44140200000000
C        20.75835000000000   -2.58424800000000   -0.29845900000000
N        21.09990300000000   -1.31815900000000   -0.57484700000000
C        19.58572900000000   -3.31357000000000   -0.59771400000000
C        18.28093700000000   -2.87113600000000   -0.52825200000000
C        16.99416800000000   -3.52128900000000   -0.67132500000000
C        16.05629100000000   -2.59632700000000   -0.50491800000000
C        16.68994500000000   -1.31991100000000   -0.24959000000000
N        18.02634400000000   -1.56716800000000   -0.27944000000000
C        16.28244700000000    0.00000000000000    0.00000000000000
C        17.12275600000000    1.12694200000000    0.04845500000000
C        16.67969600000000    2.31311300000000   -0.58334400000000
C        17.68095600000000    3.21662800000000   -0.40530300000000
C        18.70768800000000    2.56531500000000    0.32767700000000
N        18.33892300000000    1.30417700000000    0.58827600000000
C        19.86313000000000    3.29202600000000    0.63086500000000
C        21.19363700000000    2.86360600000000    0.53987700000000
N        21.44166200000000    1.56141000000000    0.30053100000000
H        22.65463900000000    4.56808600000000    0.83451800000000
H        24.52220000000000    2.73558500000000    0.48120100000000
H        24.23151800000000   -0.05192800000000   -0.15204100000000
H        23.71920500000000   -2.44434700000000    1.13767400000000
H        21.81255200000000   -4.26194100000000    0.81696400000000
H        20.50477300000000   -0.57644800000000   -1.16489100000000
H        19.66272600000000   -4.36085100000000   -0.91017400000000
H        16.76782000000000   -4.55974900000000   -0.87516700000000
H        14.98680700000000   -2.73621300000000   -0.54622000000000
H        15.72839600000000    2.50018900000000   -1.11044000000000
H        17.67076700000000    4.26290800000000   -0.76821100000000
H        18.92668200000000    0.55012000000000    1.16645400000000
H        19.82248700000000    4.34672800000000    0.97447300000000
76
 energy: -126.125190536886 gnorm: 0.452600176392 xtb: 6.4.1 (bd6e46d)
C        12.47062487867332    3.51207686915220    0.78993160817112
C        13.37449624522407    2.55837825875704    0.58753914487756
C        12.65380797395649    1.32894099574074    0.29134884577340
C        12.93122290299913    0.00097939405797    0.00072774938207
C        12.20942512715032   -1.14425308807676   -0.08080385339745
C        12.69712373534429   -2.33927273714462    0.49632388140583
C        11.72321351139618   -3.27743381089430    0.29182641452010
C        10.68476273140254   -2.61745489397654   -0.41046604519616
N        11.01307306670843   -1.32553998251708   -0.62731135224279
C         9.52230836852227   -3.33610363033169   -0.74378724667875
C         8.21488449000445   -2.87859072733578   -0.62788117389641
C         6.90443947239616   -3.49749583674265   -0.72517738311132
C         5.97818932952795   -2.54569956844780   -0.51554727976390
C         6.68801180341928   -1.30098368763221   -0.27560939712296
N         8.00876202440621   -1.56955144705470   -0.35699437210696
C         6.27650213866479   -0.00478506494671   -0.00956443780868
C         7.10350349478025    1.13714408033782    0.06302036776876
C         6.67414113048385    2.34443456761363   -0.54395579431349
C         7.67230863769532    3.26239028690828   -0.35098923956809
C         8.69258479042351    2.59552198219565    0.37183550010072
N         8.32889826688369    1.31254654786035    0.60842659110341
C         9.86527300616782    3.30367517693687    0.69873311110084
C        11.16918435655418    2.88566316308387    0.62518003743134
N        11.35198455558391    1.57922187140034    0.32423330296676
H        12.64527445277716    4.53759396159727    1.02696499398507
H        14.44046789043942    2.68573687044482    0.63839257065933
H        13.64963173794594   -2.51985562514175    1.01246494638938
H        11.75795534446394   -4.32234073814100    0.61834458832055
H        10.43489443157347   -0.57141008343643   -1.15887368976873
H         9.62388444003743   -4.36495493333502   -1.11052517930685
H         6.70688953350599   -4.54820057872758   -0.93054702224870
H         4.91355028754691   -2.73220872482232   -0.53449073559512
H         5.20482869294450    0.09739666522740    0.12187695820699
H         5.73075410993291    2.53088356156602   -1.07099675775326
H         7.66205707548714    4.30262144659052   -0.69720404425597
H         8.90564969843740    0.57491614556416    1.16733417196090
H         9.78535039250539    4.34917644804605    1.04228468995975
C        14.14268606848965    0.00017131649548   -0.00169834688324
C        15.21502587878087   -0.00206449373000    0.00147404533881
C        22.49086069158886    3.51263318659916    0.64562431156954
C        23.45339000243316    2.60644609808824    0.46828339711239
C        22.75622034164505    1.34656411356377    0.24283416597787
C        23.14176658179036    0.03622435565788   -0.00016711488082
C        22.31779799227997   -1.10381622742903   -0.03614741428651
C        22.76615646784581   -2.28696050225129    0.60426494006034
C        21.78296509788795   -3.22478649635802    0.43880646507155
C        20.75285132943864   -2.59334608466167   -0.30002376178192
N        21.09449399334980   -1.31205455772948   -0.57415443724693
C        19.57836492181608   -3.31843924216971   -0.60243782825778
C        18.28137873809442   -2.87047677859588   -0.53234757075904
C        16.99541543740920   -3.52822279150052   -0.67376109523032
C        16.05253906700438   -2.59110848265823   -0.50372090589142
C        16.74540080081930   -1.34222590147407   -0.25193052780366
N        18.04383911017649   -1.56605987625137   -0.27782254342511
C        16.44574903794497   -0.00407769643434   -0.00091163066616
C        17.15981361518712    1.13845536315672    0.04409201645994
C        16.68159201280195    2.31200965763749   -0.58197398842130
C        17.68219510808073    3.22482437265986   -0.40179484472612
C        18.71417356222636    2.57968972711684    0.32937909206141
N        18.35590409875753    1.30682226595709    0.59177904504135
C        19.87747559484468    3.29973177536927    0.63633341004526
C        21.19382235367937    2.85686865874739    0.54312423054216
N        21.43308806242528    1.55602949381319    0.29946846892129
H        22.65278588388274    4.56777965476105    0.83461330361460
H        24.52162909373782    2.73481290246574    0.48085467914229
H        24.22880891503977   -0.05718507714955   -0.14693980285053
H        23.71329216889968   -2.44106622151209    1.13420267121760
H        21.80985854249569   -4.25507738404945    0.81386537306174
H        20.51520636862848   -0.59041012372742   -1.15083302661136
H        19.66528179956846   -4.36134132781224   -0.90488494677346
H        16.77102949286651   -4.56092949747236   -0.87535155174728
H        14.98690802683692   -2.73385464182589   -0.54669682388233
H        15.73542091141064    2.49427185181143   -1.10736810077425
H        17.67310372215923    4.25727830297142   -0.76531043321746
H        18.91761657642362    0.56426239144947    1.15322263356128
H        19.81889640528638    4.34546378209516    0.96799297736947
76
 energy: -126.244859146270 gnorm: 0.271266801756 xtb: 6.4.1 (bd6e46d)
C        12.45573919912894    3.51757780949438    0.79531310410637
C        13.36302623252299    2.55119141250275    0.58224640834996
C        12.57352220385500    1.35424399233024    0.28532922343080
C        12.82352615029382    0.01667459810193    0.00887357428082
C        12.15857702716543   -1.15622897008296   -0.06666326246444
C        12.68642866280871   -2.34568048318205    0.48855297269113
C        11.72004135539986   -3.29042765230305    0.27483544290070
C        10.66126891032936   -2.65047581163130   -0.42119626938336
N        10.96969754623642   -1.34712789267362   -0.62045482012616
C         9.49739705499706   -3.35157846727698   -0.75709586876540
C         8.20884979529323   -2.86082511412138   -0.64111950213871
C         6.90438819052173   -3.50184554094182   -0.73236447851988
C         5.97753892548713   -2.54873899065155   -0.51158550692427
C         6.70457030616256   -1.30792831092617   -0.26110823389871
N         8.02616133395425   -1.55560483323838   -0.35260610554798
C         6.27242510755416   -0.01969095061260   -0.00255703919996
C         7.08957099962546    1.13239283060180    0.06149002781065
C         6.66602976443635    2.34664748846564   -0.53289088705140
C         7.66453446684786    3.26655108724651   -0.33892215793835
C         8.69406260493061    2.61471348336885    0.37788560231722
N         8.33224346003232    1.31529393326713    0.59346341774198
C         9.86254627835167    3.33004609597204    0.71745718879498
C        11.15000478488108    2.89114347559085    0.64200927032407
N        11.29664855921232    1.59561168132192    0.32427657531909
H        12.64148239287974    4.54400244640941    1.02961354907965
H        14.43314460309969    2.66952913496043    0.63650827110494
H        13.62877889539320   -2.50253238148388    1.00824768170355
H        11.75091645326734   -4.31557863264757    0.61124544060105
H        10.43631638841770   -0.60998480722745   -1.12884325604840
H         9.61845243028972   -4.37680323150662   -1.09010374617885
H         6.71231247046157   -4.54523584309638   -0.93164599199386
H         4.91426928575349   -2.72144296406711   -0.53073147584481
H         5.20162237940182    0.10489766476607    0.10329445904685
H         5.73962095571649    2.52112777433149   -1.06447688556261
H         7.66742610923056    4.29042169743898   -0.69069266345429
H         8.88476513503226    0.60595101297270    1.13013772598742
H         9.76966544570141    4.36587598551750    1.02504963485739
C        14.07741308846465   -0.00092289603727    0.00069919101175
C        15.28949719063482   -0.01007776205703   -0.00223650079811
C        22.48935893273627    3.52040913090978    0.65284829370031
C        23.44942003599390    2.59929878229709    0.46224399015392
C        22.73963509330060    1.34309031110749    0.22555144157865
C        23.15628814730429    0.04779754810588   -0.00997235339900
C        22.33595754410858   -1.10070224837118   -0.03638135144798
C        22.77494899668274   -2.29080731174393    0.59295864258075
C        21.78928392495513   -3.22924117719503    0.42694192159163
C        20.74979042689107   -2.61003787096755   -0.30454211321847
N        21.09359029040057   -1.31298843926742   -0.55873481026166
C        19.57883071277076   -3.33723343102028   -0.61731982205702
C        18.29532876940484   -2.88046147046294   -0.54941668506622
C        17.00155952498694   -3.53648956934870   -0.68000041805086
C        16.06459456773783   -2.58603486672488   -0.49948253804554
C        16.82476010873899   -1.36642221624211   -0.24483314382930
N        18.10689879981072   -1.58038730022396   -0.27699711115304
C        16.54927716163199   -0.02514478765619   -0.00921328945938
C        17.20935765991548    1.14796665737875    0.03174213166961
C        16.69601005094295    2.31981527179237   -0.57132515831458
C        17.68677326718523    3.24429954494040   -0.38594862681995
C        18.73734001147336    2.61687542488196    0.33729687042665
N        18.40010866244247    1.32964405860265    0.58378353929592
C        19.90365316123154    3.32103485160027    0.65022436913869
C        21.19886177411637    2.84487974189635    0.55779745136635
N        21.41474411291266    1.54573881759253    0.29732796687589
H        22.64778660937094    4.56974410811528    0.83673815030777
H        24.51718272519362    2.72994156591659    0.47824654876700
H        24.23156323803161   -0.07068736361109   -0.12755155278074
H        23.70459411358005   -2.43299258787340    1.12762170955775
H        21.80319270832933   -4.24307992583966    0.80690490884122
H        20.53646700647369   -0.62057645920915   -1.11270908894131
H        19.67645912876638   -4.37800466340892   -0.88829885116113
H        16.78035043139183   -4.56682646735933   -0.87755824697165
H        14.99630702632084   -2.72025425973509   -0.54724789229589
H        15.75741136430023    2.47682638307325   -1.09951071670375
H        17.68026550280491    4.25506900340656   -0.75939692564878
H        18.91617656572059    0.60110885830544    1.12109343899976
H        19.81610769826753    4.35966928744310    0.94788821115429
76
 energy: -126.307935080842 gnorm: 0.161933275894 xtb: 6.4.1 (bd6e46d)
C        12.42913935656148    3.52378859906006    0.80719641347988
C        13.33352866444782    2.54768390587200    0.57452579545368
C        12.51473513600216    1.37270256144943    0.27127672367826
C        12.79739642591212    0.02884384237361    0.01575613648336
C        12.13622690113924   -1.17286991963184   -0.05473020724132
C        12.67065212283167   -2.36147438738406    0.48046070990333
C        11.71670101288313   -3.31657405697291    0.24770812141731
C        10.63984309683684   -2.69753535547661   -0.43525957503197
N        10.93146003914890   -1.38043022505992   -0.59805531540508
C         9.47034592150834   -3.37921803534661   -0.77523517209056
C         8.20284202776280   -2.84448916773819   -0.66128264512676
C         6.90395138073284   -3.49862630103589   -0.74502358271278
C         5.98091447059090   -2.54601538884866   -0.50095855345127
C         6.72373215645719   -1.31125906468391   -0.24032687733791
N         8.04476818759411   -1.54445372366029   -0.34896825010619
C         6.27027373326306   -0.03017663688160    0.00641399635026
C         7.07355599755572    1.13448797317120    0.05893574654888
C         6.64944811113710    2.35280743260107   -0.51658137107445
C         7.64331130856988    3.27776437456478   -0.31983207203600
C         8.68140819006249    2.64516619586048    0.38815503355300
N         8.33007841465591    1.33016745107475    0.56976092006917
C         9.84001838023462    3.37395205152942    0.74404849907088
C        11.11471164466704    2.91027964826779    0.66837306510657
N        11.23794043073656    1.61906265507705    0.32673654545450
H        12.62908257090175    4.55084938958795    1.03804936646041
H        14.40579542080041    2.64597680473159    0.63046488553635
H        13.59986096152333   -2.48566210054340    1.00973604419462
H        11.74090170678757   -4.32706292430383    0.59518058541936
H        10.41702676441169   -0.66061302124921   -1.08070596725144
H         9.59679198473800   -4.41400819106669   -1.05427629937477
H         6.72100874853275   -4.53948421667056   -0.93931214891510
H         4.91636313316034   -2.69855754463709   -0.51826947749210
H         5.19726809634415    0.11507018539257    0.06767178836918
H         5.73752323547783    2.50965914066632   -1.05760351241517
H         7.66481261974972    4.28715680448260   -0.68140774317757
H         8.86868087223753    0.64100158627010    1.07694355887464
H         9.73201078439233    4.41410389525871    0.99835955296353
C        14.08652841023221   -0.00402308137509    0.00342295448990
C        15.29126488371721   -0.01722196574385   -0.00665039539033
C        22.48948501426976    3.51989779392444    0.66533107772897
C        23.44000901081781    2.58787517292599    0.44928737417618
C        22.71836327818097    1.33706668795575    0.20186534712864
C        23.16806418717833    0.05362414035527   -0.02237165682863
C        22.35746611318185   -1.10596858612652   -0.03662549387964
C        22.79258213568296   -2.30069611068947    0.57556833703970
C        21.80797662786050   -3.24104252992338    0.40871284051396
C        20.76059702223462   -2.63728253537572   -0.31206897830925
N        21.09943227953891   -1.32563391942986   -0.53448934260129
C        19.59858968928232   -3.37438032879360   -0.63901209819925
C        18.32501661313533   -2.90474418762274   -0.57516556295553
C        17.02087440151485   -3.54681447518635   -0.69297036366746
C        16.09450416300527   -2.58332062249875   -0.49304261612159
C        16.88650459295665   -1.38515184179794   -0.23091478487459
N        18.17190092187860   -1.60493167050080   -0.27852148215810
C        16.57373070737455   -0.04275156160123   -0.01673298685836
C        17.23111358945219    1.16272104154362    0.02199429019507
C        16.71478781717866    2.33684617089845   -0.55954243198248
C        17.69072234671388    3.27781750973705   -0.36011715734549
C        18.75824514053858    2.66961997829536    0.34838781062692
N        18.43990844792395    1.36538808084292    0.56022792171515
C        19.93030620786904    3.35629284335155    0.66914059608903
C        21.20390457266409    2.83501100115600    0.57981294530868
N        21.39269764582652    1.53754293093094    0.29586575358492
H        22.64194406840147    4.56783444431766    0.84527908356016
H        24.50756836443603    2.71684686313894    0.46741866839614
H        24.23994069286978   -0.08946826362913   -0.09082537235545
H        23.70695057282387   -2.42588813558313    1.12019812469355
H        21.80235313640584   -4.24031445670024    0.79778845862044
H        20.55433391221160   -0.65373107196739   -1.05813213427859
H        19.70804710968445   -4.42247243471455   -0.86061423578931
H        16.80187603670718   -4.57721475312362   -0.88635768268375
H        15.02478390652265   -2.69819292305088   -0.54538729952742
H        15.78742368054639    2.45966873991027   -1.09480193206904
H        17.68967268404406    4.27325462348848   -0.74592227405995
H        18.93655087215691    0.65073723532922    1.06983469996220
H        19.82458713263010    4.40118496123294    0.91220827996077
76
 energy: -126.352020507583 gnorm: 0.081121184134 xtb: 6.4.1 (bd6e46d)
C        12.39248828049142    3.52548510201007    0.82372705028401
C        13.28139852481752    2.53683846982927    0.56487593674361
C        12.44040381738000    1.37808151043887    0.25792643558187
C        12.77400039285983    0.03854205614060    0.02532032667486
C        12.11196098177665   -1.18145602685327   -0.03685793357384
C        12.65272573092964   -2.37552488392343    0.47215510569637
C        11.71820503214817   -3.34563170308118    0.22172645706231
C        10.62543577203329   -2.74421961078262   -0.44383704386286
N        10.89377702282622   -1.41270852229685   -0.56588396076518
C         9.44942982252665   -3.41103604676905   -0.78460499301400
C         8.20076062091936   -2.83242499194412   -0.67559141580173
C         6.90393167946342   -3.48920434046250   -0.75817270422968
C         5.98685987887978   -2.53740825160034   -0.48673881534673
C         6.74297198545054   -1.30814940134179   -0.22521381706658
N         8.06155795161164   -1.53758185175100   -0.34868478350884
C         6.27146697940148   -0.03173232014696    0.00660675502317
C         7.05704724268662    1.14449179389713    0.05310492965278
C         6.62316759944319    2.36545443673485   -0.50239714103228
C         7.60649235698790    3.29791573926503   -0.30031459818791
C         8.65673279526950    2.68175311798200    0.39580766313889
N         8.32170493949091    1.35504986502382    0.54667811576295
C         9.80283681658311    3.42562651386565    0.76207968741451
C        11.06805004118318    2.93232322933575    0.69178473575503
N        11.16322475994663    1.63873566917581    0.33808270154585
H        12.61137520048200    4.55174594394284    1.05307761066469
H        14.35636395198685    2.60973341694856    0.61387453073314
H        13.57568363824306   -2.47025328194371    1.00876018400700
H        11.74088326617296   -4.35372855206617    0.57173802545752
H        10.37184896637789   -0.69758315162495   -1.03842716175921
H         9.56606881695496   -4.45789632589663   -1.01415233358514
H         6.73223900856381   -4.53012064681027   -0.95532745973750
H         4.91962665531568   -2.66614654174557   -0.49504626803926
H         5.19834974396032    0.12536699547425    0.02710491498603
H         5.71785980726288    2.50373647845366   -1.05299328293875
H         7.64437060989660    4.30044768673777   -0.66967882273347
H         8.86807891382042    0.66426228049620    1.03154209579640
H         9.68119637815578    4.47316954605837    0.96963777533602
C        14.09487997270385   -0.00957563054799    0.00765118988289
C        15.28820707236502   -0.01851991826436   -0.01267420715483
C        22.49083799058764    3.51194370957593    0.67835071150188
C        23.42867875604783    2.57231454860427    0.43234399434576
C        22.69460581500678    1.32762483289741    0.18493351946044
C        23.17279097936695    0.05239424515036   -0.02440736765434
C        22.37868630691131   -1.11912039153448   -0.03265241043750
C        22.81994374300201   -2.31820883309790    0.55983630250264
C        21.84186286567168   -3.26224884941542    0.39042891698057
C        20.78399935553844   -2.67123343850201   -0.31721657781829
N        21.11171155896050   -1.34845524983246   -0.51069377008663
C        19.63436262164219   -3.42174441931165   -0.65286821910762
C        18.36673616043283   -2.93234517561809   -0.59797123811897
C        17.05143646859094   -3.55222843856290   -0.71019380575692
C        16.14650473635819   -2.57087767114535   -0.48496577198725
C        16.96469619198312   -1.38967496092351   -0.21819374310489
N        18.24957465528193   -1.62806369772299   -0.28832311326514
C        16.59795596857911   -0.05432759758113   -0.02702268619940
C        17.25737299289280    1.16958991764847    0.00533295495883
C        16.73590889181719    2.35075664297997   -0.54901474404563
C        17.68970406950479    3.31228332287975   -0.33528335852551
C        18.77281349218972    2.72056719963856    0.35414624547085
N        18.48050814350863    1.39927498241405    0.52691842973990
C        19.95068959989661    3.39409287491971    0.67939789832530
C        21.20579389717675    2.82848313049542    0.59586162773582
N        21.37041046658169    1.53289496007783    0.29588730027303
H        22.63560405337999    4.55974631704530    0.86145180920174
H        24.49651816524450    2.69672095746954    0.44685974166349
H        24.24330177555471   -0.10487688941610   -0.04863318138588
H        23.72703594167837   -2.42623075047638    1.11409103202374
H        21.81781351808600   -4.25444411678015    0.78744251651422
H        20.55716794453641   -0.67539064755176   -1.01138903152049
H        19.75517847469417   -4.47687457833213   -0.82965180238780
H        16.83111590033716   -4.58386670859284   -0.90275881437201
H        15.07381590167436   -2.66106916773430   -0.53319323398626
H        15.81292180264693    2.44321730625511   -1.08768811695747
H        17.68795738661704    4.30553858486897   -0.72495798025309
H        18.98324872432337    0.68760314466908    1.02505313423236
H        19.84178965632742    4.44837605258520    0.87208034718056
76
 energy: -126.382691130013 gnorm: 0.048680213465 xtb: 6.4.1 (bd6e46d)
C        12.34991335171792    3.52302389023994    0.83755394317250
C        13.21920516866700    2.52305768484680    0.55742512923555
C        12.36806457037715    1.37033941554025    0.25460471115244
C        12.75257956727685    0.04239976174237    0.03850592520426
C        12.08862121533134   -1.18664590012951   -0.01909977939405
C        12.63997982506882   -2.38960218904619    0.46425981609434
C        11.72569059122966   -3.37429220125577    0.20106857024286
C        10.61744141894629   -2.78176979051228   -0.44343964647853
N        10.86229644896076   -1.44048109068286   -0.53248172535616
C         9.43638365809331   -3.43991374415273   -0.78139337792126
C         8.20159229948991   -2.82695829988631   -0.68316453873165
C         6.90195137275197   -3.47624396702787   -0.76614301261989
C         5.99328208279553   -2.52298001705274   -0.47510430431468
C         6.75956677288755   -1.29902759651535   -0.21816172917703
N         8.07577940126062   -1.53408312497913   -0.35084984767125
C         6.27564073987964   -0.02390260036350   -0.00341025787654
C         7.04154232192692    1.16170744937957    0.04474596511801
C         6.58686825606194    2.38468681845656   -0.49204139490840
C         7.55593606404283    3.32753870488467   -0.28353225780207
C         8.62156390340346    2.72029916581829    0.39964041552145
N         8.30688015405411    1.38750580544527    0.52848040005572
C         9.75903787012361    3.47160603171220    0.76753889898319
C        11.01805669024164    2.94847434993099    0.70986227679349
N        11.09178227356048    1.64946524969186    0.35445075136614
H        12.58453750702784    4.54578604889369    1.07164734019558
H        14.29540017978762    2.57247269181786    0.59213293200204
H        13.56149493546440   -2.46452264345530    1.00588563934482
H        11.75605405195107   -4.38875478440472    0.53739781352089
H        10.31201311034957   -0.73255727911786   -0.99108579873539
H         9.52868931112171   -4.49720323082482   -0.97463164460491
H         6.73842970872956   -4.51661568349759   -0.97474152685314
H         4.92363530658538   -2.62955033523162   -0.46703927940131
H         5.20302856446109    0.13117809169955   -0.01548230024703
H         5.68076672970630    2.50580027005169   -1.04644199488755
H         7.59909279564599    4.33015245573596   -0.65241696239912
H         8.87558413586754    0.68837262818739    0.98454837539732
H         9.63077740215037    4.52697776015292    0.93820126993716
C        14.09682162532212   -0.01727395933146    0.01390248601058
C        15.28786001479960   -0.01526018055037   -0.02040675907403
C        22.49391411290308    3.49966457241310    0.68633192836234
C        23.41887559868850    2.55418498067804    0.41886703540236
C        22.67321399345446    1.31598074061526    0.17729854514185
C        23.16988338033682    0.04379528166273   -0.01459887044289
C        22.39734039662465   -1.13903410331118   -0.02485301719372
C        22.85709199492799   -2.34227497006579    0.54837424312093
C        21.88980939755277   -3.29337974974988    0.37484948135082
C        20.81806108071373   -2.70829992487101   -0.31881123379984
N        21.12938684930469   -1.37965376480757   -0.49135628616192
C        19.67772326130711   -3.46682269595757   -0.65550983605370
C        18.41416383307792   -2.95285004604324   -0.61534932567317
C        17.09075098042736   -3.55200916310219   -0.72448155004572
C        16.20825253423484   -2.55555148429597   -0.47944298389263
C        17.04013284070070   -1.38179781134376   -0.21544489883052
N        18.32233778451918   -1.64268597512155   -0.30365878369236
C        16.62244094986039   -0.05882501912078   -0.04086341714382
C        17.28441627962584    1.17376521509424   -0.01269397726821
C        16.75034611869023    2.36484117400529   -0.53975071196340
C        17.68190661023598    3.34444103764710   -0.31544505132985
C        18.78118742794152    2.76128025285894    0.35187979920599
N        18.51574422486480    1.42805095933911    0.49202149072447
C        19.96269450485647    3.42774422386519    0.67632454586345