76
 energy: -126.503853628735 gnorm: 0.000299880087 xtb: 6.4.1 (bd6e46d)
C        11.72815560523885    3.34721030061588    0.82556676287495
C        12.69882617924449    2.44336600446406    0.58967438549393
C        12.02116486135454    1.21918857323919    0.20300826135171
C        12.70308317518385    0.03638675820749   -0.14243389927499
C        12.06868903416720   -1.16096201817934   -0.51057056893173
C        12.68566581171667   -2.37484510074343   -0.91546973677807
C        11.69286539430792   -3.27531627562494   -1.17348347125499
C        10.44684239058299   -2.63006916997634   -0.93528540146161
N        10.72633012999596   -1.35641852350816   -0.54270836098271
C         9.18674323767702   -3.19351851446787   -1.07271813685505
C         7.96022677199085   -2.57996036199026   -0.85984880520507
C         6.69308000611700   -3.27695927710078   -1.02828239752626
C         5.73025342590746   -2.37946059882558   -0.74781766861264
C         6.41653307862384   -1.14096005198573   -0.41393542949485
N         7.75482436973256   -1.29950873152155   -0.48817408506097
C         5.75302396836777    0.03266929534983   -0.07886149908227
C         6.36218356544428    1.23851466068309    0.23209246669378
C         5.74061533936329    2.47399162298270    0.57255713490079
C         6.72939210558238    3.38501190706220    0.79904218551818
C         7.98049458040604    2.72978122517859    0.60536972106423
N         7.70606528384831    1.44343566912181    0.26330335007296
C         9.24112770589633    3.28780926000096    0.75460349271707
C        10.46839438599116    2.66191118015869    0.59201369672671
N        10.68667629196957    1.37812996722565    0.22021324235684
H        11.81901956878599    4.37143782813556    1.13266008947446
H        13.76232827795634    2.55314297020713    0.67196436557314
H        13.74365509235459   -2.52194485071781   -1.00911277434597
H        11.80266868326302   -4.29090793296397   -1.50076547584474
H        10.04560629512792   -0.64333857228435   -0.30778652422107
H         9.16030638401200   -4.22923899595631   -1.38235590951820
H         6.59642063331282   -4.30548549661488   -1.31947112304626
H         4.66423852420484   -2.50337529205016   -0.75729242472749
H         4.67308821776734    0.00500593380639   -0.06352691826457
H         4.68093761936358    2.62959263486338    0.63250233707481
H         6.61743889340239    4.41539849554588    1.07605327686447
H         8.38562262584228    0.72121931405959    0.05681181801392
H         9.26997276488551    4.32976406791475    1.04256737439139
C        14.10398841445060    0.04602483735650   -0.11403003821547
C        15.31670460813823    0.05947718056185   -0.07165352725554
C        22.81872913349083    3.31099590377781   -0.14081840507100
C        23.75438449590054    2.35449263853016    0.00336747546127
C        23.03285338524721    1.09595568476150    0.11188883730696
C        23.66149362726607   -0.13302298683758    0.26778139787915
C        23.01725847552125   -1.35558654043205    0.37824438573596
C        23.60079698110173   -2.64381872134623    0.54718108186961
C        22.58528034063407   -3.55077876205019    0.61923575207068
C        21.35534852597359   -2.84085006597812    0.49559670805538
N        21.66856258072358   -1.52648665693679    0.34989771385405
C        20.07866017642699   -3.38090249857795    0.53192464110291
C        18.87098519706567   -2.70724405682394    0.42314955819035
C        17.59025993068198   -3.38753501053086    0.51229722252925
C        16.64688423707081   -2.43693328466964    0.36662275154400
C        17.36243875448401   -1.18719547020583    0.18270526717347
N        18.69183553856385   -1.37882066287024    0.22941783509116
C        16.71674474136146    0.04892149568204   -0.01590566859191
C        17.38678951939087    1.27445625069494   -0.15685940395072
C        16.80985620286838    2.55325396654772   -0.37981345436981
C        17.82846974436943    3.45975822851662   -0.44023254430297
C        19.05132938181001    2.75340745946191   -0.26256938675762
N        18.73240405936108    1.43978153019612   -0.09856563708535
C        20.32628659273102    3.29999437711578   -0.26034366269935
C        21.53276121152747    2.62848779005651   -0.12003430624453
N        21.70062776667483    1.29915495638763    0.03658109044412
H        22.94518916464465    4.37097190301631   -0.25225192486114
H        24.82280067130291    2.45055814400575    0.03663017045720
H        24.74112824239318   -0.13664518005063    0.30804133173520
H        24.65466128197245   -2.83516935446305    0.60606588005508
H        22.66575624770892   -4.61298906625407    0.74680115789285
H        21.01209117054194   -0.76325623931103    0.23745957611066
H        20.01816715211185   -4.45204071477347    0.66776684822973
H        17.46788133932578   -4.44188811359653    0.67030216354822
H        15.57910265566670   -2.53160505474002    0.39427599664989
H        15.75982408474189    2.73967478281005   -0.49098020531957
H        17.75112116443663    4.51809929675701   -0.59680986548374
H        19.38879250270315    0.68075980370989    0.04349704141133
H        20.38390839765926    4.37199033780284   -0.38986618383577
