119
 energy: -206.006508275414 gnorm: 1.092177121055 xtb: 6.4.1 (bd6e46d)
Zn       10.46583300000000    0.03079300000000   -0.00863000000000
C        12.79482400000000   -3.11600000000000    1.31405900000000
C        13.71093200000000   -2.17179300000000    1.26377700000000
C        13.29975200000000   -1.11788900000000    0.34248500000000
C        13.91862300000000    0.00645700000000   -0.00392500000000
C        13.21458000000000    1.22640500000000   -0.36803000000000
C        13.54269100000000    2.18646000000000   -1.21550400000000
C        12.50791100000000    3.20274600000000   -1.23240200000000
C        11.57164300000000    2.82628400000000   -0.38551000000000
N        11.97363400000000    1.59327300000000    0.17830700000000
C        10.31056900000000    3.47128300000000   -0.00635800000000
C         9.21535200000000    2.83650100000000    0.34440200000000
C         8.14172600000000    3.15445600000000    1.31343000000000
C         7.30416300000000    2.15770300000000    1.23626400000000
C         7.74246100000000    1.15402000000000    0.25581200000000
N         8.84739900000000    1.59287300000000   -0.22848100000000
C         7.13162600000000   -0.09925100000000   -0.15773600000000
C         7.79578600000000   -1.20375800000000   -0.41216100000000
C         7.42193800000000   -2.26669900000000   -1.36968800000000
C         8.37068500000000   -3.16045500000000   -1.28066900000000
C         9.35640900000000   -2.72300500000000   -0.29779100000000
N         9.00336300000000   -1.57720000000000    0.19900600000000
C        10.58729700000000   -3.37907600000000    0.14793000000000
C        11.71033800000000   -2.73321400000000    0.41505100000000
N        12.03893800000000   -1.48577300000000   -0.18335300000000
H        12.85508600000000   -4.02578100000000    1.93160500000000
H        14.62725900000000   -2.21174200000000    1.84182500000000
H        14.47005600000000    2.20325600000000   -1.81664700000000
H        12.52481000000000    4.10743400000000   -1.84502300000000
H        10.26284600000000    4.56608600000000   -0.01013600000000
H         8.08890500000000    4.03318200000000    1.93842200000000
H         6.39253300000000    2.12203300000000    1.85358800000000
H         6.03337500000000   -0.09634100000000   -0.25700700000000
H         6.55308200000000   -2.31916400000000   -2.01863800000000
H         8.36783900000000   -4.07676400000000   -1.87942800000000
H        10.55181500000000   -4.47487700000000    0.25985500000000
Zn       45.36979800000000   -0.01658300000000   -0.01306300000000
C        43.04080700000001    2.83020900000000    1.87044200000000
C        42.12470000000000    1.91171900000000    1.64586800000000
C        42.53588000000000    1.04702200000000    0.54505400000000
C        41.91700900000000    0.00645700000000   -0.00392500000000
C        42.62105100000000   -1.12476800000000   -0.58802800000000
C        42.29294100000000   -1.91093900000000   -1.59889500000000
C        43.32772100000000   -2.90644900000000   -1.80403500000000
C        44.26398900000000   -2.69363200000000   -0.90200500000000
N        43.86199800000000   -1.58662000000000   -0.11923300000000
C        45.52506300000000   -3.39777300000000   -0.64909100000000
C        46.62028000000000   -2.83908100000000   -0.18665800000000
C        47.69390600000000   -3.33128600000000    0.70656400000000
C        48.53146900000000   -2.33751900000000    0.81564900000000
C        48.09317100000000   -1.16937000000000    0.03841400000000
N        46.98823300000001   -1.51076200000000   -0.51888600000000
C        48.70400600000000    0.13886500000000   -0.13545600000000
C        48.03984500000000    1.27139800000000   -0.18056200000000
C        48.41369400000000    2.49352400000000   -0.92427700000000
C        47.46494700000000    3.35525100000000   -0.67099900000000
C        46.47922300000000    2.74305700000000    0.21366500000000
N        46.83226900000000    1.52497800000000    0.48927500000000
C        45.24833500000000    3.30505100000000    0.77335900000000
C        44.12529400000000    2.62084600000000    0.91602700000000
N        43.79669400000001    1.50607100000000    0.09659200000000
H        42.98054500000000    3.60963300000000    2.64604600000000
H        41.20837300000001    1.84373900000000    2.22129400000000
H        41.36557600000000   -1.81592200000000   -2.19271900000000
H        43.31082200000000   -3.68178300000000   -2.57385500000000
H        45.57278600000000   -4.47287100000000   -0.85590500000000
H        47.74672700000000   -4.31070300000000    1.15769100000000
H        49.44309900000000   -2.41699100000000    1.42887400000000
H        49.80225600000000    0.15442100000000   -0.23354300000000
H        49.28255000000000    2.66546800000000   -1.55223000000000
H        47.46779300000001    4.36673300000000   -1.08937600000000
H        45.28381700000000    4.36106800000000    1.08662800000000
C        16.89063400000000    0.01758800000000    0.00011600000000
C        18.10616700000000   -0.00775500000000   -0.01036300000000
C        19.52768400000000   -0.02917900000000   -0.01453900000000
C        20.73624600000000   -0.03138900000000   -0.01443400000000
C        22.15732100000000   -0.01243000000000   -0.01506100000000
C        23.36846300000000    0.01758800000000    0.00011600000000
C        32.46581000000000    0.01758800000000    0.00011600000000
C        33.68134300000000   -0.00775500000000   -0.01036300000000
C        35.10286000000000   -0.02917900000000   -0.01453900000000
C        36.31142100000000   -0.03138900000000   -0.01443400000000
C        37.73249700000000   -0.01243000000000   -0.01506100000000
C        38.94363900000000    0.01758800000000    0.00011600000000
Zn       27.95705300000000    0.02920600000000    0.00494400000000
C        25.67724300000000   -3.23224200000000   -0.90472100000000
C        24.72103300000000   -2.33289100000000   -1.00674800000000
C        25.11340700000000   -1.17058700000000   -0.20423200000000
C        24.47829100000000   -0.01931400000000    0.00803400000000
C        25.16374800000000    1.25528600000000    0.23426400000000
C        24.82845800000000    2.33388600000000    0.93850400000000
C        25.85299900000000    3.35320200000000    0.84792200000000
C        26.80359600000000    2.85627800000000    0.07455800000000
N        26.42660200000000    1.53967300000000   -0.34158500000000
C        28.05073600000000    3.46797900000000   -0.34230800000000
C        29.15228800000000    2.80072200000000   -0.67407900000000
C        30.14583400000000    3.05270700000000   -1.70824900000000
C        31.03971700000000    2.09184700000000   -1.60676500000000
C        30.66001900000000    1.17996400000000   -0.50278800000000
N        29.56510400000000    1.62928200000000    0.00457900000000
C        31.31722600000000   -0.01931400000000    0.00803400000000
C        30.69381500000000   -1.08849600000000    0.46955100000000
C        31.07252700000000   -2.02061100000000    1.54502700000000
C        30.13185900000000   -2.93475700000000    1.63089300000000
C        29.12355700000000   -2.63897900000000    0.63346600000000
N        29.46133200000000   -1.58560100000000   -0.01582900000000
C        27.87116400000000   -3.34598600000000    0.30227200000000
C        26.75728700000000   -2.74928900000000   -0.04506900000000
N        26.37517500000000   -1.46653200000000    0.37261400000000
H        25.67758700000000   -4.22331600000000   -1.39595600000000
H        23.81249900000000   -2.45458600000000   -1.58789600000000
H        23.90360600000000    2.45223700000000    1.51543000000000
H        25.88029400000000    4.34236700000000    1.30457300000000
H        28.13667600000000    4.56535700000000   -0.40433100000000
H        30.17850600000000    3.85892300000000   -2.43507300000000
H        31.93277900000000    1.97887900000000   -2.24053900000000
H        31.98727800000000   -1.94620500000000    2.15519600000000
H        30.15090500000000   -3.74836600000000    2.33916000000000
H        27.90964900000000   -4.44594500000000    0.36130900000000
119
 energy: -206.331744374483 gnorm: 0.410917798567 xtb: 6.4.1 (bd6e46d)
Zn       10.47581442056687    0.03083052105983   -0.00757738770520
C        12.79426306459426   -3.12432147980406    1.30683167953304
C        13.72403411387545   -2.17064835272458    1.26087112058643
C        13.29480196196766   -1.12052300185842    0.34914337892577
C        13.89824898487603    0.02408004028533   -0.00682540008169
C        13.20278007453407    1.22193992003189   -0.36011237892045
C        13.55329776819585    2.21131413087518   -1.23185694502478
C        12.53475894928488    3.20498538261995   -1.24497931614479
C        11.56523649430672    2.80640520858855   -0.37850804246815
N        11.95427716300762    1.57867218880995    0.18140646240710
C        10.32773570571771    3.47076976356635   -0.00750167077650
C         9.20472344662489    2.82238091067305    0.34560147107839
C         8.14425778535908    3.16160070189527    1.29875446164113
C         7.28069495235247    2.15005391044479    1.23890690064894
C         7.73527092785542    1.15487371858674    0.27030201977511
N         8.87546873833774    1.57716489712260   -0.21490281059269
C         7.12103847740864   -0.07872183917763   -0.15131844044698
C         7.79935572595621   -1.20850582401417   -0.41724816663727
C         7.41457561248992   -2.26496040871476   -1.35798368843731
C         8.37781819508940   -3.18028873319954   -1.27752172792038
C         9.36543227260921   -2.73352739856607   -0.30496270033898
N         9.01004297062852   -1.55748244056894    0.17802173702422
C        10.56967264768543   -3.38489392970387    0.14074204422582
C        11.71716331879155   -2.71982122563930    0.41657832354205
N        12.03511185130414   -1.48582200336542   -0.16033334660552
H        12.84809027332462   -4.02097362623994    1.92450509623837
H        14.63099921506137   -2.20385562804135    1.83934106360310
H        14.46740690193243    2.21000181513091   -1.81747458133279
H        12.53020782269232    4.10452725409122   -1.84552657676660
H        10.27557985074211    4.56234732793948   -0.00492813184191
H         8.09483386907721    4.03169709715835    1.93327515250644
H         6.38927546730638    2.11434217732376    1.85215987864501
H         6.03529590361603   -0.08973088456037   -0.26098809105464
H         6.55494977364131   -2.31116971205339   -2.01224459084999
H         8.37692700420958   -4.07978724189325   -1.87606998688447
H        10.54769654118325   -4.47066018473611    0.26032265075846
Zn       45.35982683042914   -0.01680904426394   -0.01204116050035
C        43.04138272311169    2.83972176895015    1.86488760706152
C        42.11160555152084    1.91113953989040    1.64277582013873
C        42.54087267437190    1.04841415572454    0.55207105794277
C        41.93731221304827   -0.01021152637264   -0.01005254229646
C        42.63285542932670   -1.12180542447401   -0.57943414207428
C        42.28234349679958   -1.93231830081026   -1.61955218114788
C        43.30088009980580   -2.90632192311792   -1.81679674511336
C        44.27039636167453   -2.67540952090571   -0.89143170881454
N        43.88133269376168   -1.57284347798099   -0.11349386612536
C        45.50788986609133   -3.39706335590822   -0.65012207438235
C        46.63090720432886   -2.82542216323637   -0.18285292001489
C        47.69136802114327   -3.33557824325253    0.69081829260130
C        48.55494149877751   -2.33048821043077    0.81965612161522
C        48.10037085971476   -1.17289186079494    0.05249355311678
N        46.96015409700625   -1.49785365399299   -0.50262941827693
C        48.71459474185809    0.11749173862999   -0.13295297033903
C        48.03626929179364    1.27700997439270   -0.18468460713007
C        48.42105030922497    2.48963683992913   -0.91310083559932
C        47.45780985205437    3.37415884599177   -0.66421951811835
C        46.47019935815123    2.75473401691187    0.20856951897902
N        46.82559606840684    1.50949155001690    0.46499523904575
C        45.26596507891140    3.31211530319274    0.76737206319061
C        44.11848010893615    2.60740739746953    0.91505456538502
N        43.80056859596863    1.50184930395581    0.11925102199166
H        42.98754359392870    3.60622706232477    2.63817949956640
H        41.20463568242145    1.83645161523925    2.21738158376456
H        41.36823150467796   -1.82239196908989   -2.19479498256832
H        43.30542749877118   -3.67883380598873   -2.57381380542046
H        45.56005650337573   -4.47016626514252   -0.85010703640790
H        47.74079751248218   -4.30828863767831    1.15290795613255
H        49.44635819320445   -2.40916840298393    1.42889615052089
H        49.80033684318652    0.14866326411864   -0.23867256444893
H        49.28068110466048    2.65642480774199   -1.54742941787454
H        47.45870426458404    4.36908243819573   -1.08551348525546
H        45.28793649158461    4.35684762860881    1.08630057501089
C        16.88937197973641    0.01727103696819    0.00052467905986
C        18.11401493759058   -0.00822728053611   -0.00992232360918
C        19.50635356292743   -0.02842891233531   -0.01462030552034
C        20.72966502377065   -0.03037172808261   -0.01445089853759
C        22.07965398979823   -0.01156241640638   -0.01450284498705
C        23.27717057321699    0.03042850860185   -0.00304875050269
C        32.54966626050496    0.02752240343409    0.00093065670904
C        33.74993287159572   -0.00727156072793   -0.00888394912213
C        35.10644746656000   -0.02803100646857   -0.01573069519392
C        36.33005182288185   -0.03062714317511   -0.01492495457243
C        37.72313116476093   -0.01316893960429   -0.01459057089957
C        38.94652114576385    0.01673687818161    0.00071355221940
Zn       27.94925216758746    0.03149948882242    0.00382654543492
C        25.68040415726184   -3.25090913271847   -0.89897993421173
C        24.71841692050572   -2.33066686363248   -0.99931205375044
C        25.16448455671274   -1.19431417304876   -0.21039161291400
C        24.55692281550152   -0.00413220056799    0.00753534800169
C        25.21079126143168    1.26506868061935    0.23394507578066
C        24.82323610692679    2.35722794755749    0.94924748015572
C        25.83204076642990    3.35644076139454    0.85456774357106
C        26.81488808075077    2.84166434391187    0.06983442285208
N        26.45302019218501    1.53478049062389   -0.33431435952528
C        28.03752446859964    3.47019971072906   -0.34299664588738
C        29.15981434239159    2.79320330530051   -0.67564154455882
C        30.14977852190239    3.06100828424734   -1.69736556679491
C        31.05633521834670    2.08006773290479   -1.60539066632494
C        30.64340623156016    1.18489620569685   -0.52190836247758
N        29.53050409832094    1.62092576240244   -0.00821118435408
C        31.26573732850964   -0.00511093587798   -0.00000735777821
C        30.65457773252301   -1.10817101179377    0.48329880698422
C        31.08045536149909   -2.01641805770868    1.53592470286311
C        30.12567049608169   -2.95149362972769    1.62990765824554
C        29.11243551490913   -2.65182672874455    0.64372982770549
N        29.44355996906915   -1.56192937744757   -0.00742488252246
C        27.89023055727353   -3.35533324224245    0.31125747236688
C        26.74639872986813   -2.74226408697471   -0.05174213045044
N        26.39252036355369   -1.46430267883548    0.34989015437544
H        25.68154062556701   -4.22070443453391   -1.39256498311189
H        23.81405807881848   -2.44459457535961   -1.58294188118466
H        23.90412909635361    2.45407660819446    1.51502468940748
H        25.87142421872525    4.33783398292661    1.30621458411259
H        28.12263377599939    4.56089648348244   -0.40898420787782
H        30.17253223775414    3.85768914059183   -2.42841174722485
H        31.93226035213625    1.97272117966214   -2.23662331276176
H        31.98152422560471   -1.94074099661454    2.14673813518792
H        30.14473849546959   -3.75390499284885    2.33949538361962
H        27.91463166946106   -4.44440234644195    0.35870070354025
119
 energy: -206.465268536007 gnorm: 0.184057740094 xtb: 6.4.1 (bd6e46d)
Zn       10.48778677141176    0.02994652322786   -0.00505097588162
C        12.79638273826952   -3.13100350842576    1.29183702540135
C        13.73934837182414   -2.17026848833614    1.25319207109647
C        13.28380483016645   -1.11895891242954    0.36344011325905
C        13.85742859770446    0.05024099773860   -0.00880392555522
C        13.18403905166378    1.22015813243723   -0.35816963677359
C        13.56228009578690    2.24029154571882   -1.24144002056936
C        12.56688396006770    3.20462450743000   -1.24784632181310
C        11.56168028452406    2.78010952132298   -0.37355798246282
N        11.92729179833083    1.55856999077964    0.16993931332234
C        10.35097788084648    3.45833518788963   -0.00665845428286
C         9.20386432099840    2.79785052535059    0.35134785007759
C         8.14512180600110    3.16388932832010    1.27171105329113
C         7.25467410556340    2.14712531205935    1.23190807139992
C         7.73129630118386    1.15256421666709    0.29256843095415
N         8.91698925871015    1.54592409544096   -0.17697843562321
C         7.11455029033489   -0.05691254085838   -0.14286204070437
C         7.80617688805261   -1.20456497274013   -0.42963548326004
C         7.40999951709463   -2.26628420079328   -1.33646677225869
C         8.38018596037135   -3.20209477230135   -1.26453973566774
C         9.37627022103728   -2.73959332530356   -0.31805470248506
N         9.02702956465098   -1.52344116251412    0.13267789746662
C        10.55292805523674   -3.38453610302782    0.13186528494099
C        11.71845502847667   -2.70278347415714    0.42235086932399
N        12.02407986994872   -1.48130765335212   -0.12067984923516
H        12.83637974574575   -4.01596780374801    1.90940477670529
H        14.64086884613435   -2.18976770734096    1.83238986595440
H        14.46650141256803    2.22162481710726   -1.81823186006548
H        12.53864611312129    4.09999098709137   -1.84304388366321
H        10.30041809120098    4.54792910761444    0.00021761902817
H         8.10480931837240    4.02681507361180    1.91683377659572
H         6.37955682273931    2.10197189476291    1.84761192014797
H         6.03795755842924   -0.07871383727066   -0.26343298175113
H         6.55829891418130   -2.29891988449855   -1.99651427369090
H         8.39189390828158   -4.08879642007292   -1.86713834600074
H        10.54351268471619   -4.46275384144579    0.25664905893486
Zn       45.34786566837953   -0.01640047551759   -0.00940470080021
C        43.03927917343509    2.84906990339566    1.85141093875530
C        42.09628142167643    1.91222565694942    1.63514552523686
C        42.55181935147037    1.04430585109923    0.56578448883024
C        41.97790039560035   -0.03538865665655   -0.01691949831822
C        42.65150207473489   -1.12036241138399   -0.57720130876331
C        42.27333611760529   -1.95900318522089   -1.63433028132746
C        43.26874915843069   -2.90543275626965   -1.81952495945975
C        44.27393019264110   -2.65046769838210   -0.88166789862624
N        43.90824026783425   -1.55089933008901   -0.12103210263038
C        45.48463070216351   -3.38498763154487   -0.64697197443045
C        46.63175837228020   -2.80237498332483   -0.17264320535817
C        47.69049888855609   -3.33280450766639    0.66382835466625
C        48.58096494165047   -2.32631278079916    0.81331749861886
C        48.10434723751609   -1.17475164809367    0.07480207208518
N        46.91862539239579   -1.47419182257339   -0.45955485984245
C        48.72107949850727    0.09448644871406   -0.12868465822948
C        48.02944178679552    1.27543358146929   -0.19759375711555
C        48.42562081073842    2.48694146908417   -0.89171923310992
C        47.45544588026159    3.39317982923394   -0.64741389896413
C        46.45936485382362    2.76312653031720    0.19683281877079
N        46.80861413637664    1.48444864581409    0.41412048884667
C        45.28271903519748    3.31341000576936    0.75857847640467
C        44.11720370637169    2.58957812076628    0.91759819595235
N        43.81161994047431    1.49001770033868    0.15742999767333
H        42.99925868638012    3.60411780870594    2.62241383761135
H        41.19475814858887    1.82392602578062    2.20791367129766
H        41.36914255877696   -1.83367841643377   -2.19772727484682
H        43.29699020282499   -3.67483122495415   -2.57051813786708
H        45.53521438928770   -4.45694166667858   -0.84237994074548
H        47.73082039989927   -4.30043634938195    1.13766664420542
H        49.45607659289539   -2.39616840890751    1.42672339769988
H        49.79767452029989    0.13829162285302   -0.24310235219589
H        49.27732847395441    2.64146575527011   -1.53424814119450
H        47.44373796877452    4.37627634671221   -1.07506812328088
H        45.29211426040815    4.34977090415967    1.08119030898540
C        16.88691931780040    0.01681075206862    0.00098541432947
C        18.11810136983151   -0.00848191977041   -0.00951273504376
C        19.47759688812233   -0.02687951597063   -0.01465066813789
C        20.70979093683264   -0.02887130983083   -0.01470186803667
C        22.03079843528038   -0.01207882904870   -0.01215160262171
C        23.25254987752562    0.04614739951268   -0.00716953607448
C        32.58904188034538    0.03480182700362    0.00321815038837
C        33.80818583258887   -0.00941283311031   -0.00587565256635
C        35.12878212838690   -0.02630142050415   -0.01655143331773
C        36.35958538450317   -0.02891889121186   -0.01539953979390
C        37.71970775432509   -0.01446286359770   -0.01427907723772
C        38.94993519411468    0.01448079691805    0.00131466842104
Zn       27.94202152737021    0.03522668016165    0.00131760574223
C        25.68385620315880   -3.27030192494766   -0.88534556278855
C        24.71834548232325   -2.32881534934577   -0.98472433102225
C        25.19447505130100   -1.20292284943160   -0.21820927327538
C        24.58457043807735    0.02187915142527    0.00431821140476
C        25.25026820838684    1.27161159800909    0.23346236637377
C        24.81876181532028    2.38359425617752    0.95476480444738
C        25.80691021802643    3.35712022820560    0.85326689269009
C        26.82712901370888    2.82459210580395    0.06894542603889
N        26.49003156115895    1.52224360222957   -0.30010138568296
C        28.01840467482952    3.46792102653626   -0.34624938653827
C        29.15975900441643    2.77916460009323   -0.68215776438223
C        30.15739474370766    3.06691859226435   -1.67620872977647
C        31.07375443113806    2.06887950884277   -1.59683412901189
C        30.63494459476928    1.18048752387320   -0.54683359039504
N        29.48106858240619    1.59509967313146   -0.04521511371539
C        31.25397004660039    0.01140961589310   -0.01130850927243
C        30.63078543895777   -1.11517185120791    0.49558838041513
C        31.08294678512462   -2.01507271914147    1.51986963424222
C        30.12187797245195   -2.97102505851027    1.61922080017418
C        29.09733414300509   -2.65986493815281    0.65872391824507
N        29.41568504741888   -1.51922226787056    0.02606805352591
C        27.90926443112228   -3.36216677309789    0.32166435840935
C        26.74534037092721   -2.73754644167791   -0.06430041778523
N        26.41820770306079   -1.45500510178740    0.29808648799533
H        25.68854748185585   -4.22234142139430   -1.38355919019508
H        23.81792841335904   -2.42760281645823   -1.57002818483559
H        23.90380756318613    2.45784146506228    1.51302315522654
H        25.85546463647104    4.33121389676632    1.30595983455135
H        28.09475045407204    4.55246559477795   -0.41389147094969
H        30.16385006030970    3.85666999942408   -2.41061611729614
H        31.93513470343296    1.96157583135596   -2.22818576333527
H        31.97150003382544   -1.93345840070577    2.12952866714983
H        30.13415673382574   -3.76585139754342    2.33508476411285
H        27.92111324048182   -4.44376523972795    0.35899371451478
119
 energy: -206.534403265259 gnorm: 0.079946272202 xtb: 6.4.1 (bd6e46d)
Zn       10.49335987793862    0.02954170011025   -0.00132510693084
C        12.80027875918099   -3.13397752649893    1.27686454177241
C        13.74982058921386   -2.16897793642858    1.24671355212432
C        13.26779889143121   -1.11439105417423    0.38415998054956
C        13.80828594048920    0.06989678068497   -0.00651744374432
C        13.16442967643384    1.21568447835191   -0.36445445410249
C        13.57140865106657    2.26459422788024   -1.24461565777247
C        12.59518571096145    3.20947315436061   -1.24126041483868
C        11.55928417727538    2.75795552303879   -0.36968732500732
N        11.90084643039495    1.53872272217498    0.14255700228390
C        10.37311249988423    3.43770113846335   -0.00278074960509
C         9.21706072746954    2.76438716086185    0.36838599443261
C         8.14722068224177    3.16068421978732    1.24531958813763
C         7.23389219060698    2.15000145548244    1.21561194549584
C         7.73302365432749    1.14340342197831    0.31755676397820
N         8.96134234309370    1.50623005297340   -0.12270045998628
C         7.11539474785230   -0.04133660439811   -0.13546934854742
C         7.82019985835677   -1.19243329759912   -0.45212101528029
C         7.40838581177799   -2.26850631510492   -1.31644835810457
C         8.37606694528832   -3.21933067219482   -1.24519205825543
C         9.38746309367972   -2.73616011113738   -0.33612432855563
N         9.05308991509654   -1.48220774401554    0.07407518679275
C        10.54218438559850   -3.37811867811915    0.12468144861689
C        11.71500545853891   -2.68513032649333    0.43447746609686
N        12.00559575949550   -1.46752009788220   -0.07669389087301
H        12.82634760622101   -4.01795762485349    1.88725436316052
H        14.65598971248215   -2.17434288971021    1.81764674120179
H        14.47487289888258    2.23360746902947   -1.81666960168230
H        12.54608439218460    4.10330935063112   -1.83440228133366
H        10.32822796003080    4.52462168325020   -0.00096199544479
H         8.11376626145857    4.02455855749818    1.88806858053262
H         6.36197026438853    2.09225792774683    1.83273886314599
H         6.04138049424176   -0.06948731479066   -0.25672698807691
H         6.55635915335401   -2.28891397986434   -1.97266545061167
H         8.40463729396522   -4.10515160194960   -1.84689125271653
H        10.54291525769834   -4.45381004806558    0.24437417655576
Zn       45.34227753463091   -0.01667858569596   -0.00568165303669
C        43.03538354944227    2.85475852872763    1.83725215601903
C        42.08572232228693    1.91223171674059    1.62849328865883
C        42.56757991479962    1.03599467016936    0.58523380826588
C        42.02642558286004   -0.05509371865775   -0.01835868197576
C        42.67087584036152   -1.11474246317765   -0.58254722986753
C        42.26412215062624   -1.98229436875367   -1.64193834077940
C        43.24042470141828   -2.91138896435155   -1.81391759661964
C        44.27625555192260   -2.62933404306964   -0.87371327253687
N        43.93453068181390   -1.52612542082601   -0.14429718021957
C        45.46243033820117   -3.36537560347676   -0.63927913488163
C        46.61852919398593   -2.77263079404778   -0.14966316824395
C        47.68838722392169   -3.32475233108531    0.63850224734268
C        48.60174281515405   -2.32611665751003    0.79677202998679
C        48.10261643832668   -1.17038423880159    0.10105659552470
N        46.87425346929281   -1.44524035880910   -0.39882676444488
C        48.72023640841617    0.07780672026195   -0.12431375749412
C        48.01541656217741    1.26768126754146   -0.22195405181558
C        48.42723154709705    2.48540783323852   -0.87165925682263
C        47.45956556423016    3.40652480881862   -0.62522328455697
C        46.44816639183333    2.76309724185172    0.17842088725044
N        46.78255409779494    1.45479461128206    0.34886695486189
C        45.29343850339857    3.30839635192382    0.75028925594111
C        44.12063181091379    2.56991236739852    0.92625251797522
N        43.82999315947806    1.46816698502928    0.19816288091886
H        43.00931224543496    3.61018288088455    2.60100722906459
H        41.17957766865386    1.81158877260181    2.19053515025367
H        41.36075090099428   -1.84578611084461   -2.19849381488548
H        43.28954742322287   -3.67967493670322   -2.56259613554349
H        45.50736052297857   -4.43376794817042   -0.83920015206300
H        47.72185349302793   -4.29287132183910    1.10983826466164
H        49.47365964022869   -2.38386207025378    1.41391023999208
H        49.79425411384573    0.12798211239806   -0.23821012994597
H        49.27926359388132    2.62720127520712   -1.51269255067960
H        47.43099217287116    4.38858523180520   -1.05216145599081
H        45.29267704184291    4.34324268423844    1.06738939650573
C        16.87034458066330    0.01658181735067    0.00100774606525
C        18.11090353920996   -0.00779457783544   -0.01053697717640
C        19.44559353084658   -0.02590324149662   -0.01354434261392
C        20.68410394527309   -0.02748258455691   -0.01571540178039
C        22.00058387874293   -0.01086470526195   -0.01063209819600
C        23.22787960289827    0.05915849772417   -0.00611530454306
C        32.62228801526484    0.03659980688667    0.00076280400965
C        33.84747622704506   -0.01339284701158   -0.00407623954003
C        35.16132035444516   -0.02527780090694   -0.01389579912669
C        36.39786652163425   -0.02727752369459   -0.01567665617172
C        37.73220415988924   -0.01612579361259   -0.01521843022307
C        38.97109301543620    0.01141138111183    0.00114934340854
Zn       27.94306551542760    0.03867245414591   -0.00230686100232
C        25.68739355852858   -3.28398635729753   -0.87052911577075