119
 energy: -207.194127159942 gnorm: 0.000505111522 xtb: 6.4.1 (bd6e46d)
Zn       11.91945640498655   -0.00445649944967   -0.01098117021195
C        14.44789164179265   -3.44309850925904   -0.00397227250166
C        15.40258787820184   -2.48157982578524   -0.00415287523242
C        14.71522900867605   -1.22178765247301   -0.00605463504686
C        15.35585777602415    0.02837070360269   -0.00662698799938
C        14.69169028485826    1.26610228568213   -0.00712432819928
C        15.35484088729269    2.53880960073601   -0.00472969237858
C        14.38189420882860    3.48188026743315   -0.00441403141011
C        13.12811139460736    2.78297167687209   -0.00690641491856
N        13.34843636343670    1.43803317722138   -0.00829657380072
C        11.88775381263974    3.39891695439188   -0.00860431574845
C        10.65996268434464    2.75818674003251   -0.01266214647320
C         9.38759765935853    3.42787749922307   -0.01615724029606
C         8.43937193717167    2.46225608119322   -0.02051062905834
C         9.13171846824354    1.20166072900429   -0.01913616604024
N        10.47389517086150    1.41211993105786   -0.01450024444449
C         8.51141172624958   -0.03708476844980   -0.02154302613147
C         9.15517704323575   -1.26377370152692   -0.01868144180934
C         8.48701687421086   -2.53735478693179   -0.01959238361772
C         9.45352330085304   -3.48467477822596   -0.01502984388113
C        10.71287064766612   -2.79079166724885   -0.01163714381757
N        10.50113701735866   -1.44854557251176   -0.01390845700632
C        11.95270107696674   -3.40792524009217   -0.00765531990062
C        13.18099866876628   -2.76832496513148   -0.00620904733997
N        13.37554284289850   -1.41939503573264   -0.00729157582288
H        14.57497416061352   -4.50846772613790   -0.00273446443537
H        16.46926533560331   -2.59704863711134   -0.00312049986306
H        16.41913907029102    2.67461977046351   -0.00328168286915
H        14.48854896842651    4.54948647139562   -0.00271667199919
H        11.87834288191111    4.48006972432943   -0.00720732433019
H         9.25699062975839    4.49306649151058   -0.01551536481097
H         7.37201058318522    2.57359572516191   -0.02416396695356
H         7.43044424794424   -0.04737789575825   -0.02546222589544
H         7.42196261975112   -2.66908360230974   -0.02316596170710
H         9.34330018756263   -4.55215834310608   -0.01405288931638
H        11.96401802995180   -4.48905915074294   -0.00619142104987
Zn       43.93139218684266    0.02647066463540   -0.00756059565645
C        41.41234290646225    3.41695281755496    0.60630298813475
C        40.45501375335813    2.47326233683691    0.43620073268899
C        41.13887731700577    1.23171210718851    0.21188610841858
C        40.49494860816120    0.00265537124333   -0.00687404810105
C        41.15572034050737   -1.21758979572289   -0.22468115397211
C        40.48898162180419   -2.46875416236514   -0.44802937887608
C        41.45928361185241   -3.39928074530400   -0.61708237061550
C        42.71504703463847   -2.71435528941827   -0.49649224533472
N        42.49849808625738   -1.39011876395665   -0.25795110225387
C        43.95368840688850   -3.32335734715496   -0.60954748733095
C        45.18324467738845   -2.69530044462911   -0.50093471908478
C        46.45374583791346   -3.35700035027766   -0.62483146151882
C        47.40463030973242   -2.40853513877219   -0.45808568362635
C        46.71575971968478   -1.16649965847073   -0.23181386794177
N        45.37300579477164   -1.37089261198439   -0.26340211650323
C        47.33945624616537    0.05135840874083   -0.01481690625427
C        46.69905712857172    1.25987495847769    0.20566442852051
C        47.37072791503905    2.51183991614305    0.42913304256669
C        46.40684724065201    3.44603517813421    0.60168147090642
C        45.14555995464092    2.76580375125486    0.48336018141080
N        45.35360021342070    1.44446543300367    0.24408675765917
C        43.90743949541927    3.37592282835178    0.59676449480582
C        42.67738928814050    2.74955774221056    0.48523546666925
N        42.47914353835605    1.42260529491502    0.24585227507625
H        41.28819357362853    4.46578828774219    0.79562328499910
H        39.38863004838243    2.58974176765494    0.45748277990623
H        39.42429776397449   -2.59979237055604   -0.47004715287076
H        41.34965324734360   -4.44973456839719   -0.80604666638443
H        43.96008297904800   -4.38748206503746   -0.80080201960132
H        46.58139021034995   -4.40560759739948   -0.81405242647809
H        48.47168601894012   -2.52023176766368   -0.48254427157144
H        48.42044694491992    0.05931955322029   -0.01764189044183
H        48.43614063793421    2.63932321387352    0.44782985232950
H        46.52002103183627    4.49631673605896    0.79087526200714
H        43.89911262261707    4.43980159936877    0.78929715182294
C        16.75352147153644    0.04074838557831   -0.00636476801642
C        17.97345517006971    0.05059965831266   -0.00441387862885
C        19.30968324732351    0.05699371513585   -0.00675598517856
C        20.53416326498093    0.05830018208111   -0.00150834628242
C        21.87026240926340    0.05726349984848   -0.00373630790377
C        23.09037961428433    0.05209207036703   -0.00094785600534
C        32.76018016472251   -0.01192990513663   -0.00996042230894
C        33.98032758859374   -0.01560943652245   -0.00950185913204
C        35.31650614205698   -0.01719969990675   -0.00911382961078
C        36.54088375143278   -0.01674119619807   -0.00908990610213
C        37.87719431257098   -0.01203616161361   -0.00859623787117
C        39.09714538826807   -0.00646919958726   -0.00734810567111
Zn       27.92526963080559    0.01989624905042   -0.00714973032122
C        25.40811970493349   -3.40412057142820    0.37397722260738
C        24.45000580273417   -2.45114229587775    0.27157340637027
C        25.13293680015073   -1.19711929482132    0.13211037532292
C        24.48740521262918    0.04352584420978   -0.00258705861032
C        25.14938434100234    1.27517639300094   -0.13897415672573
C        24.48333207401255    2.53838789752632   -0.27714481213388
C        25.45417999777966    3.47802537143798   -0.38289254926293
C        26.70868658587377    2.78581812418751   -0.30918663408755
N        26.49203145402534    1.44825826109699   -0.16104634211236
C        27.94790053235164    3.39905617887518   -0.37882941397675
C        29.17872951605779    2.76903035846083   -0.31058482636067
C        30.44242395816302    3.44409229056747   -0.38630584859417
C        31.40053575472637    2.49136508600395   -0.28171908985964
C        30.71758012831528    1.23723539251003   -0.14306055538875
N        29.37737881464686    1.42861215331623   -0.16296371892397
C        31.36304893007702   -0.00353257646114   -0.00977023612810
C        30.70112990262536   -1.23552699815508    0.12330651177515
C        31.36719797884730   -2.49902493533381    0.25896540782955
C        30.39637008446547   -3.43879456242900    0.36368305927267
C        29.14183061005287   -2.74640964819016    0.29152981019398
N        29.35846043451915   -1.40866739382462    0.14515826176965
C        27.90262297135336   -3.35953227450307    0.36229932897976
C        26.67180942091904   -2.72921719353260    0.29679338303159
N        26.47312063796284   -1.38869516463378    0.15007296912039
H        25.28487752342219   -4.46351042017796    0.49079609321614
H        23.38371020199080   -2.56903132216746    0.28722367461758
H        23.41871609257782    2.67088380482280   -0.28954389296683
H        25.34526367886024    4.53895647745137   -0.49977549568486
H        27.95517637125143    4.47374881237240   -0.49766860118026
H        30.56567508860322    4.50342985677388   -0.50360392305222
H        32.46683753103179    2.60944643139529   -0.29575625295365
H        32.43181651392187   -2.63154744855559    0.27096665246761
H        30.50531103605847   -4.49989607776925    0.47906131834524
H        27.89537969912996   -4.43435612100991    0.47996598915180
