 Entering Gaussian System
 *********************************************
 Gaussian 98:
 frequency output generated by the xtb code
 *********************************************
                         Standard orientation:
 --------------------------------------------------------------------
  Center     Atomic     Atomic              Coordinates (Angstroms)
  Number     Number      Type              X           Y           Z
 --------------------------------------------------------------------
    1         28             0       25.576747    0.014352    0.004106
    2          6             0       28.071451   -3.023522    1.556949
    3          6             0       29.023283   -2.148190    1.162203
    4          6             0       28.337583   -1.043604    0.561700
    5          6             0       29.003601    0.054080    0.010123
    6          6             0       28.313162    1.149634   -0.514351
    7          6             0       28.974762    2.292807   -1.067715
    8          6             0       28.005448    3.173156   -1.404361
    9          6             0       26.757553    2.555032   -1.069466
   10          7             0       26.960502    1.310172   -0.536817
   11          6             0       25.537135    3.167532   -1.267283
   12          6             0       24.330602    2.552088   -1.005626
   13          6             0       23.061445    3.174836   -1.250473
   14          6             0       22.117350    2.258017   -0.946784
   15          6             0       22.813518    1.082334   -0.508219
   16          7             0       24.164481    1.278514   -0.540448
   17          6             0       22.170896   -0.076469   -0.122441
   18          6             0       22.843121   -1.189263    0.340449
   19          6             0       22.177554   -2.383831    0.775571
   20          6             0       23.139951   -3.223878    1.213949
   21          6             0       24.389993   -2.542159    1.037532
   22          7             0       24.195196   -1.304115    0.494408
   23          6             0       25.605311   -3.087423    1.396479
   24          6             0       26.810960   -2.447779    1.194750
   25          7             0       26.988432   -1.226999    0.600534
   26          1             0       28.188949   -3.971278    2.045355
   27          1             0       30.088125   -2.214842    1.269490
   28          1             0       30.037315    2.382522   -1.180207
   29          1             0       28.102958    4.147031   -1.843262
   30          1             0       25.526749    4.171348   -1.663643
   31          1             0       22.937682    4.177181   -1.612458
   32          1             0       21.049466    2.344246   -1.003267
   33          1             0       21.093366   -0.108829   -0.171483
   34          1             0       21.115317   -2.531148    0.744795
   35          1             0       23.040367   -4.211983    1.619864
   36          1             0       25.615279   -4.067218    1.848975
   37         28             0       58.202141    0.036420   -0.004212
   38          6             0       55.722101    3.160075    1.395874
   39          6             0       54.766027    2.271493    1.043409
   40          6             0       55.446262    1.134693    0.499640
   41          6             0       54.773996    0.016311   -0.000296
   42          6             0       55.458377   -1.102277   -0.482691
   43          6             0       54.790457   -2.261654   -0.992897
   44          6             0       55.755298   -3.155482   -1.305832
   45          6             0       57.006753   -2.530461   -0.998184
   46          7             0       56.810404   -1.268348   -0.505159
   47          6             0       58.223890   -3.152912   -1.184456
   48          6             0       59.433969   -2.538142   -0.938454
   49          6             0       60.699187   -3.177033   -1.161049
   50          6             0       61.649291   -2.264106   -0.864658
   51          6             0       60.960473   -1.073411   -0.456011
   52          7             0       59.607973   -1.256518   -0.499102
   53          6             0       61.611204    0.085719   -0.085417
   54          6             0       60.945553    1.219517    0.333858
   55          6             0       61.619097    2.420016    0.739308
   56          6             0       60.659752    3.290332    1.121651
   57          6             0       59.404064    2.619322    0.944480
   58          7             0       59.592402    1.357976    0.455214
   59          6             0       58.189655    3.194735    1.255998
   60          6             0       56.979948    2.558504    1.068434
   61          7             0       56.796511    1.311644    0.532999
   62          1             0       55.609019    4.131709    1.835993
   63          1             0       53.701476    2.349904    1.144850
   64          1             0       53.727189   -2.351689   -1.097602
   65          1             0       55.652589   -4.143374   -1.710890
   66          1             0       58.228433   -4.166914   -1.554101
   67          1             0       60.816363   -4.187077   -1.503256
   68          1             0       62.716766   -2.361649   -0.908978
   69          1             0       62.689754    0.103410   -0.116353
   70          1             0       62.683843    2.551028    0.727258
   71          1             0       60.764891    4.292152    1.490892
   72          1             0       58.184198    4.194225    1.663229
   73          6             0       30.405799    0.061258   -0.002899
   74          6             0       31.618179    0.060080   -0.009885
   75          6             0       41.283013    0.026289   -0.024225
   76          6             0       42.495868    0.023808   -0.020992
   77          6             0       52.159238    0.010148   -0.011193
   78          6             0       53.371701    0.012557   -0.006544
   79         28             0       36.450528    0.042125   -0.033604
   80          6             0       33.977929   -3.380960    0.029867
   81          6             0       33.020250   -2.430124   -0.057463
   82          6             0       33.695290   -1.167663   -0.025879
   83          6             0       33.019901    0.055994   -0.019890
   84          6             0       33.705040    1.274065   -0.023898
   85          6             0       33.040481    2.541994    0.006413
   86          6             0       34.004541    3.484653   -0.097337
   87          6             0       35.251389    2.785676   -0.181861
   88          7             0       35.054662    1.432508   -0.111244
   89          6             0       36.462549    3.419421   -0.367220
   90          6             0       37.668608    2.752279   -0.422028
   91          6             0       38.920473    3.412224   -0.640075
   92          6             0       39.878020    2.461474   -0.551163
   93          6             0       39.204783    1.229226   -0.271363
   94          7             0       37.856110    1.410449   -0.222735
   95          6             0       39.881659    0.030229   -0.028643
   96          6             0       39.195767   -1.164901    0.207563
   97          6             0       39.859651   -2.403240    0.482672
   98          6             0       38.895612   -3.348387    0.560577
   99          6             0       37.648954   -2.678642    0.342772
  100          7             0       37.846080   -1.336879    0.152643
  101          6             0       36.438037   -3.336611    0.283794
  102          6             0       35.230988   -2.692397    0.108095
  103          7             0       35.044344   -1.337239    0.047795
  104          1             0       33.868441   -4.447928    0.042621
  105          1             0       31.957967   -2.547493   -0.144928
  106          1             0       31.980123    2.668178    0.103579
  107          1             0       33.903304    4.552339   -0.116504
  108          1             0       36.466886    4.493442   -0.474095
  109          1             0       39.029111    4.461732   -0.833149
  110          1             0       40.939103    2.558812   -0.669995
  111          1             0       40.919593   -2.508379    0.604907
  112          1             0       38.996655   -4.399865    0.747002
  113          1             0       36.434541   -4.411350    0.383283
  114         28             0       47.327438    0.016711   -0.019462
  115          6             0       44.867497   -3.364167   -0.595929
  116          6             0       43.907950   -2.413962   -0.523915
  117          6             0       44.577230   -1.177936   -0.251402
  118          6             0       43.897196    0.021429   -0.019362
  119          6             0       44.580470    1.219116    0.211916
  120          6             0       43.914594    2.457649    0.481364
  121          6             0       44.876602    3.405742    0.548701
  122          6             0       46.124039    2.737760    0.329685
  123          7             0       45.929563    1.393944    0.151776
  124          6             0       47.332343    3.398735    0.252137
  125          6             0       48.539576    2.755779    0.072619
  126          6             0       49.789636    3.446259   -0.031892
  127          6             0       50.749211    2.496616   -0.111509
  128          6             0       50.078693    1.233037   -0.047356
  129          7             0       48.729838    1.400303    0.034899
  130          6             0       50.757504    0.011617   -0.013943
  131          6             0       50.074781   -1.207671    0.016326
  132          6             0       50.741178   -2.473350    0.080573
  133          6             0       49.779274   -3.420024   -0.005884
  134          6             0       48.531707   -2.725559   -0.113714
  135          7             0       48.725734   -1.370807   -0.071653
  136          6             0       47.323210   -3.364614   -0.298902
  137          6             0       46.116777   -2.700177   -0.375319
  138          7             0       45.925848   -1.356425   -0.192736
  139          1             0       44.761735   -4.415759   -0.779043
  140          1             0       42.847850   -2.514035   -0.649056
  141          1             0       42.854896    2.560789    0.607624
  142          1             0       44.773757    4.458298    0.727919
  143          1             0       47.333271    4.474689    0.337503
  144          1             0       49.896137    4.513571   -0.040631
  145          1             0       51.810035    2.615296   -0.213154
  146          1             0       51.801133   -2.595295    0.186996
  147          1             0       49.882570   -4.487666    0.000570
  148          1             0       47.321554   -4.440204   -0.388669
 --------------------------------------------------------------------
     1 basis functions        1 primitive gaussians
     1 alpha electrons        1 beta electrons

 Harmonic frequencies (cm**-1), IR intensities (km*mol⁻¹),
 Raman scattering activities (A**4/amu), Raman depolarization ratios,
 reduced masses (AMU), force constants (mDyne/A) and normal coordinates:
                      1                      2                      3
                        a                      a                      a 
 Frequencies --    -5.7636                -4.7526                -2.2601
 Red. masses --    12.0490                13.4013                17.3430
 Frc consts  --     0.0000                 0.0000                 0.0000
 IR Inten    --   118.4890                97.7744                 9.1217
 Raman Activ --     0.0000                 0.0000                 0.0000
 Depolar     --     0.0000                 0.0000                 0.0000
 Atom AN      X      Y      Z        X      Y      Z        X      Y      Z
   1  28     0.00   0.01   0.01     0.01  -0.01   0.12     0.00   0.09   0.06
   2   6     0.00   0.00   0.00     0.05   0.11   0.19     0.00   0.00  -0.04
   3   6     0.00   0.01   0.00     0.04   0.10   0.12     0.00   0.00  -0.04
   4   6     0.00   0.01   0.00     0.02   0.06   0.08     0.00   0.01  -0.02
   5   6     0.00   0.01   0.00     0.00   0.06   0.06     0.00   0.01  -0.03
   6   6    -0.00   0.01   0.01    -0.02   0.07   0.09     0.00   0.01  -0.02
   7   6    -0.00   0.01   0.01    -0.04   0.11   0.15     0.00   0.00  -0.05
   8   6    -0.00   0.01   0.01    -0.06   0.12   0.22     0.00   0.00  -0.05
   9   6    -0.00   0.01   0.01    -0.05   0.08   0.18     0.00   0.02  -0.02
  10   7    -0.00   0.01   0.01    -0.02   0.05   0.12     0.00   0.02  -0.01
  11   6    -0.00   0.01   0.01    -0.06   0.05   0.19     0.01   0.03  -0.00
  12   6    -0.00   0.00   0.01    -0.05  -0.02   0.08     0.01   0.05   0.04
  13   6    -0.00   0.00   0.01    -0.07  -0.08   0.01     0.01   0.07   0.08
  14   6    -0.00   0.00   0.01    -0.04  -0.15  -0.14     0.00   0.08   0.12
  15   6    -0.00   0.00   0.00    -0.01  -0.13  -0.13    -0.00   0.08   0.11
  16   7    -0.00   0.00   0.01    -0.02  -0.06  -0.00     0.00   0.06   0.07
  17   6     0.00  -0.00   0.00     0.02  -0.18  -0.21    -0.01   0.09   0.14
  18   6     0.00   0.00   0.00     0.04  -0.13  -0.13    -0.01   0.08   0.11
  19   6     0.00  -0.00  -0.00     0.07  -0.14  -0.13    -0.01   0.08   0.12
  20   6     0.00  -0.00  -0.00     0.07  -0.07   0.01    -0.01   0.06   0.07
  21   6     0.00   0.00   0.00     0.05  -0.01   0.08    -0.00   0.04   0.04
  22   7     0.00   0.00   0.00     0.04  -0.05  -0.00    -0.00   0.06   0.06
  23   6     0.00   0.00   0.00     0.06   0.06   0.17    -0.00   0.02  -0.00
  24   6     0.00   0.00   0.00     0.04   0.08   0.17     0.00   0.02  -0.02
  25   7     0.00   0.00   0.00     0.02   0.05   0.11     0.00   0.02  -0.01
  26   1     0.00   0.00  -0.00     0.02   0.04   0.07     0.00  -0.00  -0.02
  27   1     0.00   0.00   0.00     0.01   0.03   0.03     0.00  -0.00  -0.02
  28   1    -0.00   0.00   0.00    -0.01   0.04   0.04     0.00  -0.00  -0.02
  29   1    -0.00   0.00   0.00    -0.02   0.04   0.08     0.00  -0.00  -0.02
  30   1    -0.00   0.00   0.00    -0.02   0.02   0.07     0.00   0.01  -0.00
  31   1    -0.00   0.00   0.00    -0.03  -0.02   0.01     0.00   0.02   0.02
  32   1    -0.00   0.00   0.00    -0.01  -0.06  -0.07     0.00   0.03   0.05
  33   1     0.00  -0.00   0.00     0.01  -0.07  -0.09    -0.00   0.03   0.05
  34   1     0.00  -0.00  -0.00     0.02  -0.06  -0.06    -0.00   0.03   0.04
  35   1     0.00  -0.00  -0.00     0.03  -0.01   0.02    -0.00   0.02   0.02
  36   1     0.00   0.00  -0.00     0.02   0.02   0.07    -0.00   0.01  -0.00
  37  28    -0.00   0.03   0.07    -0.00   0.00   0.04     0.00   0.08  -0.07
  38   6    -0.05  -0.11   0.20    -0.01   0.00   0.00     0.01   0.02   0.02
  39   6    -0.04  -0.10   0.13    -0.01   0.00   0.01     0.00   0.02   0.03
  40   6    -0.02  -0.06   0.08    -0.00  -0.00   0.01     0.00   0.02   0.01
  41   6     0.00  -0.06   0.05    -0.00  -0.00   0.01     0.00   0.02   0.02
  42   6     0.02  -0.07   0.09     0.00  -0.00   0.01    -0.00   0.02   0.01
  43   6     0.04  -0.11   0.16     0.00  -0.00   0.01    -0.00   0.02   0.03
  44   6     0.06  -0.12   0.23     0.00   0.00   0.01    -0.00   0.02   0.02
  45   6     0.04  -0.07   0.18     0.00   0.00   0.01    -0.00   0.03  -0.00
  46   7     0.02  -0.05   0.11     0.00   0.00   0.01    -0.00   0.03  -0.01
  47   6     0.06  -0.05   0.18     0.00   0.00   0.01    -0.00   0.03  -0.02
  48   6     0.05   0.02   0.06     0.00   0.00   0.02    -0.00   0.04  -0.05
  49   6     0.06   0.08  -0.03     0.00   0.00   0.03    -0.00   0.05  -0.07
  50   6     0.04   0.16  -0.19     0.00  -0.00   0.04    -0.00   0.06  -0.10
  51   6     0.02   0.14  -0.18     0.00  -0.00   0.03    -0.00   0.06  -0.09
  52   7     0.02   0.07  -0.04     0.00   0.00   0.03    -0.00   0.05  -0.06
  53   6    -0.01   0.19  -0.28    -0.00  -0.00   0.04    -0.00   0.06  -0.10
  54   6    -0.04   0.14  -0.19    -0.00  -0.00   0.03    -0.00   0.05  -0.08
  55   6    -0.06   0.16  -0.20    -0.00   0.00   0.03    -0.00   0.06  -0.09
  56   6    -0.07   0.08  -0.04    -0.01   0.00   0.03     0.00   0.05  -0.07
  57   6    -0.05   0.02   0.05    -0.01   0.00   0.02     0.00   0.04  -0.04
  58   7    -0.03   0.07  -0.05    -0.00   0.00   0.03     0.00   0.05  -0.06
  59   6    -0.05  -0.05   0.16    -0.01   0.00   0.01     0.00   0.03  -0.02
  60   6    -0.04  -0.07   0.16    -0.01   0.00   0.01     0.00   0.03  -0.00
  61   7    -0.02  -0.05   0.10    -0.00   0.00   0.01     0.00   0.03  -0.01
  62   1    -0.02  -0.04   0.07    -0.00   0.00   0.00     0.00   0.00   0.01
  63   1    -0.01  -0.03   0.04    -0.00  -0.00   0.00     0.00   0.00   0.01
  64   1     0.01  -0.04   0.04     0.00  -0.00   0.00    -0.00   0.00   0.01
  65   1     0.02  -0.04   0.08     0.00   0.00   0.00    -0.00   0.01   0.01
  66   1     0.02  -0.02   0.07     0.00   0.00   0.00    -0.00   0.01  -0.00
  67   1     0.03   0.02   0.01     0.00   0.00   0.01    -0.00   0.01  -0.02
  68   1     0.01   0.06  -0.09     0.00  -0.00   0.01    -0.00   0.02  -0.03
  69   1    -0.01   0.07  -0.11    -0.00  -0.00   0.01    -0.00   0.02  -0.04
  70   1    -0.02   0.06  -0.09    -0.00  -0.00   0.01    -0.00   0.02  -0.03
  71   1    -0.03   0.02   0.00    -0.00   0.00   0.01     0.00   0.01  -0.02
  72   1    -0.02  -0.02   0.07    -0.00   0.00   0.00     0.00   0.01  -0.00
  73   6     0.00   0.01   0.00    -0.00   0.07   0.03     0.00   0.00  -0.04
  74   6     0.00   0.01   0.00    -0.00   0.06   0.00     0.00  -0.00  -0.06
  75   6     0.00   0.02  -0.02    -0.00  -0.02  -0.05    -0.00  -0.06  -0.01
  76   6     0.00   0.01  -0.03    -0.00  -0.03  -0.04    -0.00  -0.06   0.02
  77   6     0.00  -0.07   0.01    -0.00  -0.01   0.01     0.00   0.01   0.05
  78   6     0.00  -0.07   0.03    -0.00  -0.00   0.01     0.00   0.01   0.04
  79  28     0.00   0.03   0.01    -0.00   0.04  -0.16     0.00  -0.09  -0.20
  80   6     0.00   0.01   0.01    -0.04   0.04  -0.07    -0.02  -0.02  -0.12
  81   6     0.00   0.01   0.01    -0.03   0.05  -0.04    -0.02  -0.01  -0.09
  82   6     0.00   0.01   0.01    -0.01   0.05  -0.04    -0.01  -0.02  -0.08
  83   6     0.00   0.01   0.01    -0.00   0.05  -0.02     0.00  -0.01  -0.07
  84   6    -0.00   0.01   0.01     0.01   0.05  -0.04     0.01  -0.02  -0.09
  85   6    -0.00   0.01   0.01     0.03   0.05  -0.04     0.02  -0.01  -0.10
  86   6    -0.00   0.01   0.02     0.03   0.04  -0.07     0.02  -0.02  -0.12
  87   6    -0.00   0.01   0.02     0.03   0.03  -0.08     0.02  -0.03  -0.12
  88   7    -0.00   0.02   0.01     0.01   0.03  -0.07     0.01  -0.03  -0.11
  89   6    -0.00   0.02   0.02     0.03   0.01  -0.10     0.02  -0.04  -0.12
  90   6    -0.00   0.02   0.01     0.02   0.00  -0.09     0.02  -0.05  -0.10
  91   6    -0.00   0.02   0.01     0.03  -0.01  -0.10     0.03  -0.06  -0.09
  92   6    -0.00   0.02   0.00     0.02  -0.02  -0.08     0.02  -0.06  -0.06
  93   6    -0.00   0.02  -0.00     0.01  -0.01  -0.07     0.01  -0.06  -0.06
  94   7    -0.00   0.02   0.01     0.01   0.00  -0.09     0.01  -0.05  -0.09
  95   6     0.00   0.02  -0.01    -0.00  -0.01  -0.06     0.00  -0.06  -0.04
  96   6     0.00   0.02  -0.00    -0.01  -0.01  -0.07    -0.01  -0.06  -0.06
  97   6     0.00   0.02  -0.01    -0.02  -0.02  -0.08    -0.02  -0.06  -0.06
  98   6     0.01   0.02   0.00    -0.03  -0.01  -0.10    -0.03  -0.06  -0.10
  99   6     0.00   0.02   0.00    -0.03   0.00  -0.09    -0.02  -0.05  -0.11
 100   7     0.00   0.02   0.00    -0.01   0.00  -0.08    -0.01  -0.05  -0.09
 101   6     0.00   0.02   0.01    -0.03   0.01  -0.10    -0.02  -0.04  -0.13
 102   6     0.00   0.01   0.01    -0.03   0.03  -0.08    -0.02  -0.03  -0.12
 103   7     0.00   0.01   0.01    -0.02   0.03  -0.07    -0.01  -0.03  -0.11
 104   1     0.00   0.00   0.00    -0.01   0.01  -0.02    -0.01  -0.01  -0.04
 105   1     0.00   0.00   0.00    -0.01   0.02  -0.01    -0.01  -0.00  -0.03
 106   1    -0.00   0.00   0.00     0.01   0.02  -0.01     0.01  -0.00  -0.03
 107   1    -0.00   0.00   0.01     0.01   0.01  -0.02     0.01  -0.01  -0.04
 108   1    -0.00   0.00   0.01     0.01   0.00  -0.03     0.01  -0.01  -0.04
 109   1    -0.00   0.01   0.00     0.01  -0.00  -0.03     0.01  -0.02  -0.03
 110   1    -0.00   0.01  -0.00     0.01  -0.01  -0.02     0.01  -0.02  -0.01
 111   1     0.00   0.01  -0.00    -0.01  -0.01  -0.02    -0.01  -0.02  -0.01
 112   1     0.00   0.01   0.00    -0.01  -0.00  -0.03    -0.01  -0.02  -0.03
 113   1     0.00   0.00   0.00    -0.01   0.00  -0.03    -0.01  -0.01  -0.04
 114  28     0.00  -0.05  -0.09    -0.00  -0.04   0.00    -0.00  -0.07   0.21
 115   6    -0.03   0.00  -0.06     0.01  -0.03  -0.00     0.03  -0.06   0.10
 116   6    -0.02   0.01  -0.05     0.01  -0.03  -0.01     0.02  -0.06   0.07
 117   6    -0.01  -0.00  -0.04     0.00  -0.02  -0.01     0.01  -0.05   0.06
 118   6     0.00   0.00  -0.04    -0.00  -0.03  -0.02    -0.00  -0.06   0.05
 119   6     0.01  -0.00  -0.04    -0.01  -0.02  -0.02    -0.01  -0.05   0.07
 120   6     0.02   0.01  -0.05    -0.01  -0.03  -0.02    -0.02  -0.06   0.07
 121   6     0.03  -0.00  -0.06    -0.01  -0.02  -0.01    -0.03  -0.06   0.10
 122   6     0.02  -0.01  -0.05    -0.01  -0.02  -0.00    -0.02  -0.04   0.11
 123   7     0.01  -0.01  -0.05    -0.01  -0.02  -0.01    -0.01  -0.05   0.10
 124   6     0.03  -0.02  -0.06    -0.01  -0.02   0.01    -0.03  -0.04   0.13
 125   6     0.02  -0.04  -0.04    -0.01  -0.02   0.01    -0.02  -0.02   0.12
 126   6     0.03  -0.05  -0.04    -0.01  -0.01   0.01    -0.03  -0.01   0.12
 127   6     0.02  -0.06  -0.02    -0.01  -0.01   0.01    -0.02  -0.00   0.10
 128   6     0.01  -0.05  -0.02    -0.00  -0.01   0.01    -0.01  -0.01   0.09
 129   7     0.01  -0.04  -0.04    -0.01  -0.02   0.01    -0.01  -0.02   0.11
 130   6     0.00  -0.06  -0.01    -0.00  -0.01   0.01    -0.00  -0.00   0.07
 131   6    -0.01  -0.05  -0.02     0.00  -0.01   0.01     0.01  -0.01   0.09
 132   6    -0.02  -0.06  -0.02     0.00  -0.01   0.01     0.02  -0.00   0.09
 133   6    -0.03  -0.05  -0.04     0.01  -0.01   0.02     0.03  -0.01   0.12
 134   6    -0.02  -0.03  -0.05     0.01  -0.02   0.01     0.02  -0.02   0.12
 135   7    -0.01  -0.04  -0.04     0.00  -0.02   0.01     0.01  -0.02   0.11
 136   6    -0.03  -0.02  -0.06     0.01  -0.02   0.01     0.03  -0.04   0.13
 137   6    -0.02  -0.01  -0.06     0.01  -0.02   0.00     0.02  -0.04   0.11
 138   7    -0.01  -0.01  -0.05     0.00  -0.02  -0.00     0.01  -0.05   0.10
 139   1    -0.01   0.00  -0.02     0.00  -0.01   0.00     0.01  -0.02   0.03
 140   1    -0.01   0.00  -0.01     0.00  -0.01  -0.01     0.01  -0.02   0.01
 141   1     0.01   0.00  -0.01    -0.00  -0.01  -0.01    -0.01  -0.02   0.02
 142   1     0.01   0.00  -0.02    -0.00  -0.01  -0.00    -0.01  -0.02   0.03
 143   1     0.01  -0.01  -0.02    -0.00  -0.01   0.00    -0.01  -0.01   0.04
 144   1     0.01  -0.01  -0.01    -0.00  -0.00   0.00    -0.01  -0.00   0.04
 145   1     0.01  -0.02  -0.00    -0.00  -0.00   0.00    -0.01   0.00   0.03
 146   1    -0.01  -0.02  -0.00     0.00  -0.00   0.00     0.01   0.00   0.02
 147   1    -0.01  -0.01  -0.01     0.00  -0.00   0.01     0.01  -0.00   0.04
 148   1    -0.01  -0.01  -0.02     0.00  -0.01   0.00     0.01  -0.01   0.04
                      4                      5                      6
                        a                      a                      a 
 Frequencies --    -1.8637                 4.6284                 6.1235
 Red. masses --    16.9822                16.5635                11.2320
 Frc consts  --     0.0000                 0.0000                 0.0000
 IR Inten    --     3.0382                 6.9372                 0.5710
 Raman Activ --     0.0000                 0.0000                 0.0000
 Depolar     --     0.0000                 0.0000                 0.0000
 Atom AN      X      Y      Z        X      Y      Z        X      Y      Z
   1  28    -0.00  -0.01  -0.16     0.00  -0.15   0.02    -0.00  -0.00  -0.00
   2   6    -0.01   0.03   0.02     0.06  -0.05  -0.05     0.00   0.08   0.15
   3   6    -0.01   0.03   0.01     0.05  -0.03  -0.04     0.00   0.06   0.11
   4   6    -0.00   0.02  -0.01     0.02  -0.03  -0.03    -0.00   0.03   0.05
   5   6    -0.00   0.02  -0.01     0.00  -0.02  -0.03    -0.00   0.00  -0.00
   6   6     0.00   0.02  -0.01    -0.02  -0.03  -0.03    -0.00  -0.02  -0.05
   7   6     0.00   0.03   0.03    -0.04  -0.03  -0.05    -0.00  -0.05  -0.11
   8   6     0.01   0.04   0.03    -0.06  -0.05  -0.05    -0.00  -0.07  -0.15
   9   6     0.00   0.02  -0.01    -0.05  -0.06  -0.03    -0.00  -0.05  -0.13
  10   7     0.00   0.01  -0.03    -0.03  -0.06  -0.02    -0.00  -0.03  -0.07
  11   6     0.00   0.01  -0.03    -0.06  -0.08  -0.01    -0.00  -0.07  -0.16
  12   6     0.00  -0.01  -0.09    -0.05  -0.09   0.02    -0.00  -0.06  -0.14
  13   6     0.00  -0.03  -0.13    -0.06  -0.10   0.05    -0.00  -0.07  -0.18
  14   6     0.00  -0.05  -0.20    -0.04  -0.10   0.09    -0.00  -0.06  -0.13
  15   6     0.00  -0.05  -0.18    -0.02  -0.09   0.08    -0.00  -0.03  -0.06
  16   7     0.00  -0.02  -0.13    -0.03  -0.09   0.04    -0.00  -0.03  -0.08
  17   6     0.01  -0.06  -0.22    -0.00  -0.10   0.10    -0.00  -0.01  -0.00
  18   6     0.01  -0.05  -0.18     0.02  -0.09   0.08    -0.00   0.01   0.06
  19   6     0.01  -0.05  -0.19     0.04  -0.10   0.08     0.00   0.04   0.13
  20   6     0.00  -0.03  -0.13     0.06  -0.10   0.04     0.00   0.06   0.18
  21   6    -0.00  -0.01  -0.09     0.05  -0.09   0.02     0.00   0.05   0.14
  22   7     0.00  -0.02  -0.12     0.03  -0.09   0.04    -0.00   0.03   0.08
  23   6    -0.01   0.01  -0.03     0.06  -0.08  -0.02     0.00   0.07   0.17
  24   6    -0.01   0.02  -0.01     0.05  -0.06  -0.03     0.00   0.06   0.13
  25   7    -0.00   0.01  -0.03     0.03  -0.06  -0.02    -0.00   0.03   0.07
  26   1    -0.00   0.01   0.01     0.02  -0.01  -0.02     0.00   0.03   0.06
  27   1    -0.00   0.01   0.01     0.01  -0.00  -0.01     0.00   0.02   0.03
  28   1     0.00   0.01   0.01    -0.01  -0.00  -0.02    -0.00  -0.02  -0.03
  29   1     0.00   0.01   0.02    -0.02  -0.01  -0.02    -0.00  -0.03  -0.06
  30   1     0.00   0.01  -0.00    -0.02  -0.02  -0.01    -0.00  -0.02  -0.06
  31   1    -0.00  -0.01  -0.04    -0.02  -0.03   0.01    -0.00  -0.03  -0.07
  32   1     0.00  -0.02  -0.07    -0.01  -0.03   0.04    -0.00  -0.02  -0.04
  33   1     0.00  -0.02  -0.08    -0.00  -0.03   0.04    -0.00  -0.00  -0.00
  34   1     0.00  -0.02  -0.07     0.01  -0.03   0.03     0.00   0.01   0.04
  35   1     0.00  -0.01  -0.03     0.02  -0.03   0.01     0.00   0.03   0.07
  36   1    -0.00   0.01  -0.00     0.02  -0.03  -0.01     0.00   0.03   0.06
  37  28     0.00   0.00  -0.18     0.00  -0.15  -0.01     0.00  -0.00   0.00
  38   6     0.02  -0.01  -0.03     0.06  -0.05   0.05    -0.00  -0.07   0.16
  39   6     0.02  -0.00  -0.01     0.04  -0.03   0.04    -0.00  -0.05   0.11
  40   6     0.01  -0.00  -0.03     0.02  -0.03   0.03     0.00  -0.03   0.05
  41   6     0.00  -0.00  -0.02     0.00  -0.02   0.03     0.00  -0.00   0.00
  42   6    -0.01  -0.00  -0.03    -0.02  -0.03   0.03     0.00   0.02  -0.05
  43   6    -0.02  -0.01  -0.01    -0.04  -0.03   0.05     0.00   0.04  -0.10
  44   6    -0.02  -0.01  -0.02    -0.06  -0.05   0.05     0.00   0.06  -0.15
  45   6    -0.02  -0.01  -0.05    -0.05  -0.06   0.03     0.00   0.05  -0.12
  46   7    -0.01  -0.00  -0.05    -0.03  -0.06   0.02     0.00   0.02  -0.07
  47   6    -0.02  -0.00  -0.07    -0.06  -0.08   0.02     0.00   0.06  -0.16
  48   6    -0.01   0.00  -0.10    -0.05  -0.09  -0.01     0.00   0.05  -0.14
  49   6    -0.02   0.00  -0.13    -0.06  -0.10  -0.04     0.00   0.07  -0.18
  50   6    -0.01   0.01  -0.16    -0.04  -0.11  -0.08     0.00   0.05  -0.14
  51   6    -0.01   0.01  -0.15    -0.02  -0.10  -0.07     0.00   0.03  -0.07
  52   7    -0.01   0.00  -0.12    -0.03  -0.09  -0.03     0.00   0.03  -0.08
  53   6    -0.00   0.01  -0.17    -0.00  -0.10  -0.10     0.00   0.01  -0.01
  54   6     0.00   0.01  -0.15     0.02  -0.10  -0.07     0.00  -0.01   0.06
  55   6     0.01   0.01  -0.16     0.04  -0.10  -0.08    -0.00  -0.04   0.12
  56   6     0.02   0.01  -0.13     0.06  -0.10  -0.04    -0.00  -0.06   0.17
  57   6     0.01   0.00  -0.10     0.05  -0.09  -0.02    -0.00  -0.05   0.14
  58   7     0.01   0.00  -0.12     0.02  -0.09  -0.04     0.00  -0.02   0.07
  59   6     0.02  -0.00  -0.07     0.06  -0.08   0.02    -0.00  -0.07   0.17
  60   6     0.02  -0.00  -0.05     0.05  -0.06   0.03    -0.00  -0.06   0.13
  61   7     0.01  -0.00  -0.06     0.03  -0.06   0.02     0.00  -0.03   0.07
  62   1     0.01  -0.00  -0.01     0.02  -0.01   0.02    -0.00  -0.03   0.06
  63   1     0.01  -0.00   0.00     0.01  -0.00   0.02    -0.00  -0.02   0.03
  64   1    -0.01  -0.00   0.00    -0.01  -0.00   0.02     0.00   0.01  -0.03
  65   1    -0.01  -0.00  -0.00    -0.02  -0.01   0.02     0.00   0.02  -0.06
  66   1    -0.01  -0.00  -0.02    -0.02  -0.02   0.01     0.00   0.02  -0.06
  67   1    -0.01   0.00  -0.04    -0.02  -0.03  -0.01     0.00   0.02  -0.07
  68   1    -0.00   0.00  -0.05    -0.01  -0.03  -0.03     0.00   0.02  -0.04
  69   1    -0.00   0.00  -0.06    -0.00  -0.03  -0.04     0.00   0.00  -0.00
  70   1     0.00   0.00  -0.05     0.01  -0.03  -0.03    -0.00  -0.01   0.04
  71   1     0.01   0.00  -0.04     0.02  -0.03  -0.01    -0.00  -0.02   0.07
  72   1     0.01  -0.00  -0.02     0.02  -0.02   0.01    -0.00  -0.03   0.06
  73   6    -0.00   0.02   0.01    -0.00   0.00  -0.04    -0.00   0.00  -0.00
  74   6    -0.00   0.02   0.02    -0.00   0.02  -0.05    -0.00   0.00  -0.00
  75   6    -0.00  -0.00   0.08     0.00   0.10  -0.00     0.00   0.00   0.00
  76   6    -0.00  -0.01   0.08     0.00   0.10  -0.00    -0.00   0.00   0.00
  77   6    -0.00  -0.00   0.02    -0.00   0.02   0.05     0.00  -0.00   0.00
  78   6    -0.00  -0.00   0.00    -0.00   0.00   0.04     0.00  -0.00   0.00
  79  28     0.00   0.02   0.14    -0.00   0.14  -0.09    -0.00   0.00   0.00
  80   6    -0.01   0.02   0.05     0.03   0.04  -0.07    -0.00   0.00   0.10
  81   6    -0.01   0.02   0.04     0.02   0.04  -0.06    -0.00   0.00   0.08
  82   6    -0.00   0.02   0.04     0.01   0.04  -0.06    -0.00   0.00   0.04
  83   6    -0.00   0.02   0.03    -0.00   0.03  -0.05    -0.00   0.00  -0.00
  84   6     0.00   0.02   0.04    -0.01   0.04  -0.05    -0.00   0.00  -0.04
  85   6     0.01   0.02   0.04    -0.02   0.04  -0.06    -0.00   0.00  -0.08
  86   6     0.01   0.02   0.05    -0.03   0.04  -0.06    -0.00   0.00  -0.10
  87   6     0.01   0.01   0.06    -0.02   0.05  -0.06    -0.00  -0.00  -0.07
  88   7     0.00   0.01   0.06    -0.01   0.06  -0.05    -0.00   0.00  -0.04
  89   6     0.01   0.01   0.07    -0.03   0.06  -0.05    -0.00  -0.00  -0.08
  90   6     0.01   0.01   0.08    -0.02   0.08  -0.03     0.00  -0.00  -0.05
  91   6     0.01   0.00   0.08    -0.02   0.09  -0.02     0.00  -0.01  -0.05
  92   6     0.01   0.00   0.08    -0.02   0.10  -0.01     0.00  -0.00  -0.03
  93   6     0.00   0.00   0.07    -0.01   0.09  -0.01     0.00  -0.00  -0.01
  94   7     0.00   0.01   0.08    -0.01   0.08  -0.03     0.00  -0.00  -0.03
  95   6    -0.00   0.00   0.07     0.00   0.10  -0.01    -0.00   0.00   0.00
  96   6    -0.00   0.00   0.07     0.01   0.09  -0.02     0.00   0.00   0.02
  97   6    -0.01   0.00   0.08     0.02   0.10  -0.01     0.00   0.01   0.03
  98   6    -0.01   0.01   0.08     0.03   0.09  -0.02     0.00   0.01   0.05
  99   6    -0.01   0.01   0.08     0.02   0.08  -0.04     0.00   0.01   0.05
 100   7    -0.00   0.01   0.08     0.01   0.08  -0.03    -0.00   0.01   0.03
 101   6    -0.01   0.01   0.07     0.03   0.06  -0.05    -0.00   0.01   0.08
 102   6    -0.01   0.01   0.06     0.02   0.05  -0.06    -0.00   0.01   0.07
 103   7    -0.00   0.01   0.06     0.01   0.06  -0.06    -0.00   0.00   0.04
 104   1    -0.00   0.00   0.02     0.01   0.01  -0.02    -0.00   0.00   0.04
 105   1    -0.00   0.01   0.01     0.01   0.01  -0.02    -0.00  -0.00   0.03
 106   1     0.00   0.01   0.01    -0.01   0.01  -0.02    -0.00   0.00  -0.03
 107   1     0.00   0.00   0.02    -0.01   0.01  -0.02    -0.00  -0.00  -0.04
 108   1     0.00   0.00   0.02    -0.01   0.02  -0.01    -0.00  -0.00  -0.03
 109   1     0.00   0.00   0.02    -0.01   0.03  -0.01     0.00  -0.00  -0.02
 110   1     0.00  -0.00   0.02    -0.00   0.03   0.00     0.00  -0.00  -0.01
 111   1    -0.00  -0.00   0.02     0.00   0.03   0.00     0.00   0.00   0.01
 112   1    -0.00   0.00   0.02     0.01   0.03  -0.01     0.00   0.00   0.02
 113   1    -0.00   0.00   0.02     0.01   0.02  -0.02    -0.00   0.00   0.03
 114  28    -0.00  -0.01   0.18    -0.00   0.15   0.08     0.00  -0.00  -0.00
 115   6    -0.00  -0.01   0.11    -0.02   0.09   0.01    -0.00   0.01  -0.06
 116   6    -0.00  -0.01   0.10    -0.02   0.10   0.00    -0.00   0.01  -0.03
 117   6    -0.00  -0.01   0.09    -0.01   0.09   0.01    -0.00   0.00  -0.02
 118   6    -0.00  -0.01   0.09     0.00   0.10   0.01     0.00   0.00   0.00
 119   6    -0.00  -0.01   0.09     0.01   0.09   0.01     0.00  -0.00   0.02
 120   6    -0.00  -0.01   0.10     0.02   0.10   0.01    -0.00  -0.01   0.03
 121   6     0.00  -0.01   0.11     0.02   0.09   0.02     0.00  -0.01   0.06
 122   6     0.00  -0.01   0.10     0.02   0.08   0.03     0.00  -0.01   0.05
 123   7    -0.00  -0.01   0.10     0.01   0.08   0.03     0.00  -0.00   0.03
 124   6    -0.00  -0.01   0.10     0.03   0.07   0.04     0.00  -0.01   0.08
 125   6    -0.00  -0.01   0.09     0.02   0.06   0.05     0.00  -0.00   0.08
 126   6    -0.00  -0.00   0.07     0.03   0.04   0.06     0.00  -0.00   0.10
 127   6    -0.00  -0.00   0.05     0.02   0.04   0.06     0.00  -0.00   0.08
 128   6    -0.00  -0.00   0.05     0.01   0.04   0.05     0.00  -0.00   0.04
 129   7    -0.00  -0.01   0.08     0.01   0.06   0.05     0.00  -0.00   0.04
 130   6    -0.00  -0.00   0.04    -0.00   0.04   0.05     0.00  -0.00   0.00
 131   6     0.00  -0.00   0.06    -0.01   0.04   0.05     0.00  -0.00  -0.04
 132   6     0.00  -0.00   0.06    -0.02   0.04   0.06     0.00  -0.01  -0.08
 133   6     0.00  -0.00   0.08    -0.03   0.04   0.06     0.00  -0.00  -0.11
 134   6     0.00  -0.01   0.09    -0.02   0.06   0.05     0.00  -0.00  -0.08
 135   7     0.00  -0.01   0.08    -0.01   0.06   0.05     0.00  -0.00  -0.04
 136   6     0.00  -0.01   0.10    -0.03   0.07   0.04    -0.00   0.00  -0.08
 137   6    -0.00  -0.01   0.10    -0.02   0.08   0.03    -0.00   0.01  -0.06
 138   7    -0.00  -0.01   0.10    -0.01   0.08   0.03    -0.00   0.00  -0.03
 139   1    -0.00  -0.00   0.03    -0.01   0.03   0.00    -0.00   0.00  -0.02
 140   1    -0.00  -0.00   0.03    -0.00   0.03  -0.00    -0.00   0.00  -0.01
 141   1    -0.00  -0.00   0.03     0.00   0.03  -0.00    -0.00  -0.00   0.01
 142   1     0.00  -0.00   0.03     0.01   0.03   0.01     0.00  -0.00   0.02
 143   1    -0.00  -0.00   0.03     0.01   0.02   0.01     0.00  -0.00   0.03
 144   1    -0.00  -0.00   0.02     0.01   0.01   0.02     0.00  -0.00   0.04
 145   1    -0.00  -0.00   0.01     0.01   0.01   0.02     0.00   0.00   0.03
 146   1     0.00  -0.00   0.01    -0.01   0.01   0.02     0.00  -0.00  -0.03
 147   1     0.00  -0.00   0.02    -0.01   0.01   0.02     0.00  -0.00  -0.04
 148   1    -0.00  -0.00   0.03    -0.01   0.02   0.01    -0.00   0.00  -0.03
                      7                      8                      9
                        a                      a                      a 
 Frequencies --     9.9098                11.7336                14.5020
 Red. masses --    11.2224                13.3726                11.2247
 Frc consts  --     0.0000                 0.0000                 0.0000
 IR Inten    --     3.0102                 2.1883                 0.3699
 Raman Activ --     0.0000                 0.0000                 0.0000
 Depolar     --     0.0000                 0.0000                 0.0000
 Atom AN      X      Y      Z        X      Y      Z        X      Y      Z
   1  28     0.00  -0.00  -0.00    -0.00   0.04   0.02    -0.00  -0.00   0.00
   2   6    -0.00  -0.04  -0.09    -0.08  -0.02   0.08     0.01   0.01   0.01
   3   6    -0.00  -0.03  -0.05    -0.06  -0.05   0.07     0.01  -0.00  -0.01
   4   6    -0.00  -0.01  -0.02    -0.03  -0.04   0.05     0.00  -0.00  -0.01
   5   6     0.00   0.00   0.00    -0.00  -0.05   0.06     0.00  -0.00  -0.00
   6   6    -0.00   0.01   0.03     0.03  -0.04   0.05     0.00   0.00  -0.00
   7   6    -0.00   0.02   0.05     0.06  -0.04   0.07     0.00   0.00   0.00
   8   6    -0.00   0.04   0.08     0.08  -0.02   0.08     0.00  -0.01  -0.02
   9   6    -0.00   0.03   0.08     0.07   0.01   0.05     0.00  -0.01  -0.03
  10   7    -0.00   0.02   0.04     0.04  -0.01   0.04     0.00  -0.01  -0.02
  11   6    -0.00   0.05   0.12     0.08   0.03   0.04    -0.00  -0.03  -0.07
  12   6    -0.00   0.04   0.11     0.06   0.04  -0.00    -0.00  -0.03  -0.08
  13   6    -0.00   0.06   0.16     0.08   0.06  -0.04    -0.00  -0.05  -0.12
  14   6    -0.00   0.05   0.13     0.06   0.06  -0.09    -0.00  -0.04  -0.10
  15   6    -0.00   0.03   0.06     0.03   0.05  -0.08     0.00  -0.02  -0.05
  16   7    -0.00   0.03   0.06     0.03   0.04  -0.03    -0.00  -0.02  -0.04
  17   6     0.00   0.01   0.00     0.00   0.06  -0.10     0.00  -0.00   0.01
  18   6     0.00  -0.02  -0.06    -0.02   0.05  -0.07    -0.00   0.02   0.05
  19   6     0.00  -0.04  -0.12    -0.05   0.07  -0.08    -0.00   0.04   0.11
  20   6     0.00  -0.06  -0.16    -0.08   0.07  -0.02    -0.00   0.05   0.13
  21   6     0.00  -0.05  -0.12    -0.07   0.05   0.01     0.00   0.03   0.08
  22   7     0.00  -0.03  -0.06    -0.03   0.04  -0.02     0.00   0.02   0.05
  23   6     0.00  -0.06  -0.13    -0.08   0.03   0.05     0.00   0.03   0.07
  24   6     0.00  -0.04  -0.08    -0.07   0.01   0.06     0.00   0.01   0.03
  25   7     0.00  -0.02  -0.05    -0.04  -0.01   0.05     0.00   0.01   0.02
  26   1    -0.00  -0.02  -0.03    -0.03  -0.00   0.03     0.00   0.00   0.00
  27   1    -0.00  -0.01  -0.01    -0.02  -0.02   0.02     0.00  -0.00  -0.01
  28   1    -0.00   0.01   0.01     0.02  -0.02   0.02     0.00   0.00   0.01
  29   1    -0.00   0.01   0.03     0.03  -0.00   0.03     0.00  -0.00  -0.01
  30   1    -0.00   0.02   0.05     0.03   0.01   0.02    -0.00  -0.01  -0.03
  31   1    -0.00   0.02   0.06     0.03   0.02  -0.01    -0.00  -0.02  -0.05
  32   1    -0.00   0.02   0.04     0.02   0.02  -0.04     0.00  -0.01  -0.03
  33   1     0.00   0.00   0.00     0.00   0.02  -0.04    -0.00  -0.00   0.00
  34   1     0.00  -0.01  -0.04    -0.02   0.02  -0.03    -0.00   0.01   0.04
  35   1     0.00  -0.02  -0.06    -0.03   0.02  -0.00    -0.00   0.02   0.05
  36   1     0.00  -0.02  -0.05    -0.03   0.01   0.02     0.00   0.01   0.03
  37  28     0.00  -0.00   0.00     0.00  -0.04   0.02     0.00   0.00   0.00
  38   6    -0.00  -0.04   0.09     0.08   0.02   0.08    -0.01  -0.01   0.01
  39   6    -0.00  -0.03   0.05     0.06   0.04   0.07    -0.01   0.00  -0.01
  40   6    -0.00  -0.01   0.03     0.03   0.04   0.05    -0.00   0.00  -0.01
  41   6     0.00  -0.00   0.00     0.00   0.05   0.05    -0.00  -0.00  -0.00
  42   6    -0.00   0.01  -0.02    -0.03   0.04   0.05    -0.00  -0.00   0.00
  43   6    -0.00   0.02  -0.05    -0.06   0.05   0.07    -0.00  -0.01   0.01
  44   6    -0.00   0.03  -0.08    -0.08   0.02   0.07    -0.00   0.00  -0.01
  45   6     0.00   0.03  -0.08    -0.06  -0.00   0.05     0.00   0.01  -0.03
  46   7     0.00   0.02  -0.04    -0.03   0.01   0.04    -0.00   0.00  -0.02
  47   6     0.00   0.05  -0.13    -0.08  -0.03   0.04     0.00   0.03  -0.08
  48   6     0.00   0.04  -0.12    -0.06  -0.04  -0.00     0.00   0.03  -0.09
  49   6     0.00   0.06  -0.17    -0.08  -0.06  -0.04     0.00   0.05  -0.13
  50   6     0.00   0.05  -0.13    -0.06  -0.07  -0.09     0.00   0.04  -0.11
  51   6     0.00   0.03  -0.07    -0.03  -0.05  -0.08    -0.00   0.02  -0.05
  52   7     0.00   0.03  -0.07    -0.03  -0.04  -0.03     0.00   0.02  -0.05
  53   6     0.00   0.01  -0.00    -0.00  -0.06  -0.10    -0.00   0.00   0.00
  54   6     0.00  -0.02   0.06     0.03  -0.06  -0.07    -0.00  -0.01   0.06
  55   6     0.00  -0.04   0.13     0.05  -0.07  -0.07     0.00  -0.03   0.11
  56   6     0.00  -0.06   0.17     0.08  -0.07  -0.02    -0.00  -0.05   0.13
  57   6     0.00  -0.04   0.12     0.06  -0.05   0.01    -0.00  -0.03   0.09
  58   7     0.00  -0.02   0.07     0.03  -0.05  -0.02    -0.00  -0.02   0.05
  59   6    -0.00  -0.05   0.13     0.08  -0.03   0.05    -0.00  -0.03   0.07
  60   6    -0.00  -0.04   0.09     0.07  -0.01   0.06    -0.01  -0.01   0.03
  61   7    -0.00  -0.02   0.05     0.04   0.01   0.05    -0.00  -0.01   0.02
  62   1    -0.00  -0.02   0.03     0.03   0.00   0.03    -0.00  -0.00   0.00
  63   1    -0.00  -0.01   0.01     0.02   0.02   0.02    -0.00   0.00  -0.01
  64   1    -0.00   0.00  -0.01    -0.02   0.02   0.02    -0.00  -0.00   0.01
  65   1    -0.00   0.01  -0.03    -0.03   0.01   0.02    -0.00   0.00  -0.01
  66   1     0.00   0.02  -0.05    -0.03  -0.01   0.01     0.00   0.01  -0.03
  67   1     0.00   0.02  -0.06    -0.03  -0.02  -0.01     0.00   0.02  -0.05
  68   1     0.00   0.02  -0.04    -0.02  -0.02  -0.04     0.00   0.01  -0.04
  69   1     0.00   0.00  -0.00    -0.00  -0.02  -0.04    -0.00   0.00   0.00
  70   1     0.00  -0.01   0.04     0.02  -0.02  -0.03     0.00  -0.01   0.04
  71   1     0.00  -0.02   0.06     0.03  -0.02  -0.00    -0.00  -0.02   0.05
  72   1    -0.00  -0.02   0.05     0.03  -0.01   0.02    -0.00  -0.01   0.03
  73   6     0.00   0.00   0.00     0.00  -0.08   0.07     0.00   0.00  -0.00
  74   6     0.00   0.00   0.00     0.00  -0.09   0.08     0.00   0.00  -0.00
  75   6    -0.00   0.00   0.00     0.00  -0.01  -0.10    -0.00   0.00   0.00
  76   6    -0.00   0.00   0.00     0.00   0.01  -0.10     0.00   0.00   0.00
  77   6     0.00  -0.00   0.00     0.00   0.09   0.07    -0.00  -0.00  -0.00
  78   6     0.00  -0.00   0.00     0.00   0.08   0.07    -0.00  -0.00  -0.00
  79  28    -0.00   0.00   0.00    -0.00  -0.13  -0.03    -0.00   0.01  -0.00
  80   6     0.00   0.00   0.10     0.03  -0.08   0.06     0.00  -0.00  -0.19
  81   6     0.00  -0.00   0.06     0.02  -0.09   0.08     0.00   0.00  -0.14
  82   6     0.00   0.00   0.03     0.01  -0.08   0.06     0.00   0.00  -0.07
  83   6     0.00   0.00   0.00     0.00  -0.09   0.07     0.00   0.00  -0.00
  84   6     0.00   0.00  -0.03    -0.01  -0.08   0.06     0.00   0.00   0.06
  85   6     0.00   0.00  -0.06    -0.02  -0.09   0.09     0.00   0.00   0.14
  86   6     0.00  -0.00  -0.10    -0.03  -0.08   0.07     0.00   0.01   0.19
  87   6     0.00  -0.01  -0.09    -0.02  -0.07   0.03     0.00   0.01   0.15
  88   7     0.00  -0.00  -0.05    -0.01  -0.08   0.03     0.00   0.01   0.08
  89   6    -0.00  -0.01  -0.14    -0.04  -0.06  -0.01     0.00   0.02   0.17
  90   6    -0.00  -0.02  -0.12    -0.03  -0.05  -0.04    -0.00   0.02   0.13
  91   6    -0.00  -0.03  -0.17    -0.04  -0.04  -0.08    -0.00   0.03   0.15
  92   6    -0.00  -0.03  -0.13    -0.03  -0.03  -0.10    -0.00   0.02   0.09
  93   6    -0.00  -0.01  -0.06    -0.02  -0.04  -0.08    -0.00   0.01   0.05
  94   7    -0.00  -0.01  -0.07    -0.02  -0.05  -0.05    -0.00   0.01   0.07
  95   6    -0.00   0.00   0.00     0.00  -0.03  -0.09    -0.00   0.00   0.00
  96   6    -0.00   0.01   0.06     0.02  -0.04  -0.08    -0.00  -0.01  -0.04
  97   6    -0.00   0.03   0.13     0.03  -0.03  -0.10    -0.00  -0.02  -0.09
  98   6    -0.00   0.03   0.17     0.04  -0.04  -0.08    -0.00  -0.02  -0.14
  99   6    -0.00   0.02   0.13     0.03  -0.05  -0.05    -0.00  -0.01  -0.13
 100   7    -0.00   0.01   0.07     0.02  -0.05  -0.05    -0.00  -0.01  -0.07
 101   6     0.00   0.02   0.14     0.03  -0.06  -0.01    -0.00  -0.01  -0.17
 102   6     0.00   0.01   0.10     0.02  -0.07   0.02    -0.00  -0.00  -0.15
 103   7     0.00   0.01   0.05     0.01  -0.08   0.03     0.00  -0.00  -0.08
 104   1     0.00   0.00   0.04     0.01  -0.02   0.02     0.00  -0.00  -0.07
 105   1     0.00  -0.00   0.02     0.00  -0.03   0.03     0.00   0.00  -0.04
 106   1     0.00   0.00  -0.02    -0.00  -0.03   0.03     0.00  -0.00   0.04
 107   1     0.00  -0.00  -0.04    -0.01  -0.02   0.02     0.00   0.00   0.07
 108   1    -0.00  -0.01  -0.05    -0.01  -0.02  -0.00     0.00   0.01   0.07
 109   1    -0.00  -0.01  -0.06    -0.02  -0.01  -0.02    -0.00   0.01   0.06
 110   1    -0.00  -0.01  -0.04    -0.01  -0.01  -0.04    -0.00   0.01   0.02
 111   1    -0.00   0.01   0.04     0.01  -0.01  -0.04    -0.00  -0.01  -0.02
 112   1    -0.00   0.01   0.06     0.02  -0.01  -0.02    -0.00  -0.01  -0.05
 113   1    -0.00   0.01   0.05     0.01  -0.02  -0.00    -0.00  -0.01  -0.07
 114  28    -0.00  -0.00  -0.00     0.00   0.13  -0.03     0.00  -0.01   0.00
 115   6    -0.00  -0.03   0.16     0.04   0.04  -0.07     0.00  -0.03   0.15
 116   6    -0.00  -0.02   0.13     0.03   0.03  -0.10     0.00  -0.02   0.10
 117   6    -0.00  -0.01   0.06     0.02   0.04  -0.08     0.00  -0.01   0.05
 118   6    -0.00   0.00   0.00     0.00   0.03  -0.09     0.00  -0.00   0.00
 119   6    -0.00   0.01  -0.06    -0.02   0.04  -0.08     0.00   0.01  -0.04
 120   6    -0.00   0.03  -0.13    -0.03   0.03  -0.10     0.01   0.02  -0.09
 121   6    -0.00   0.03  -0.16    -0.04   0.04  -0.08     0.01   0.02  -0.14
 122   6    -0.00   0.02  -0.12    -0.03   0.05  -0.05     0.00   0.01  -0.13
 123   7    -0.00   0.01  -0.07    -0.02   0.05  -0.05     0.00   0.01  -0.07
 124   6     0.00   0.01  -0.13    -0.03   0.06  -0.02     0.00   0.01  -0.17
 125   6     0.00   0.00  -0.09    -0.02   0.07   0.02     0.00   0.00  -0.15
 126   6     0.00  -0.00  -0.10    -0.02   0.08   0.06     0.00  -0.00  -0.19
 127   6     0.00  -0.00  -0.06    -0.02   0.09   0.08     0.00  -0.01  -0.14
 128   6     0.00  -0.00  -0.03    -0.01   0.08   0.06    -0.00  -0.00  -0.07
 129   7     0.00   0.00  -0.05    -0.01   0.08   0.02     0.00  -0.00  -0.08
 130   6     0.00  -0.00  -0.00     0.00   0.09   0.07    -0.00  -0.00  -0.00
 131   6     0.00  -0.00   0.03     0.01   0.08   0.06    -0.00  -0.00   0.07
 132   6     0.00   0.00   0.06     0.02   0.09   0.09    -0.00   0.00   0.14
 133   6     0.00  -0.00   0.10     0.03   0.08   0.07    -0.00  -0.00   0.19
 134   6     0.00  -0.00   0.09     0.02   0.07   0.03    -0.00  -0.01   0.15
 135   7     0.00  -0.00   0.05     0.01   0.08   0.03    -0.00  -0.01   0.08
 136   6    -0.00  -0.01   0.13     0.03   0.06  -0.01    -0.00  -0.02   0.18
 137   6    -0.00  -0.02   0.12     0.03   0.05  -0.04     0.00  -0.02   0.13
 138   7    -0.00  -0.01   0.06     0.02   0.05  -0.05     0.00  -0.01   0.07
 139   1    -0.00  -0.01   0.06     0.02   0.01  -0.02     0.00  -0.01   0.06
 140   1    -0.00  -0.01   0.04     0.01   0.01  -0.04     0.00  -0.01   0.02
 141   1    -0.00   0.01  -0.04    -0.01   0.01  -0.04     0.00   0.01  -0.02
 142   1    -0.00   0.01  -0.06    -0.02   0.01  -0.03     0.00   0.01  -0.05
 143   1     0.00   0.00  -0.05    -0.01   0.02  -0.00     0.00   0.00  -0.07
 144   1     0.00  -0.00  -0.04    -0.01   0.02   0.02     0.00  -0.00  -0.07
 145   1     0.00  -0.00  -0.01    -0.00   0.03   0.03     0.00  -0.00  -0.04
 146   1     0.00   0.00   0.01     0.00   0.03   0.03    -0.00   0.00   0.04
 147   1     0.00  -0.00   0.04     0.01   0.02   0.02    -0.00  -0.00   0.07
 148   1    -0.00  -0.00   0.05     0.01   0.02  -0.00    -0.00  -0.01   0.07
                     10                     11                     12
                        a                      a                      a 
 Frequencies --    19.2706                21.5215                23.3352
 Red. masses --    12.6719                12.0326                11.9883
 Frc consts  --     0.0000                 0.0000                 0.0000
 IR Inten    --    23.9519               106.9541               306.1177
 Raman Activ --     0.0000                 0.0000                 0.0000
 Depolar     --     0.0000                 0.0000                 0.0000
 Atom AN      X      Y      Z        X      Y      Z        X      Y      Z
   1  28     0.00   0.03   0.03    -0.00  -0.01   0.04     0.00   0.03  -0.01
   2   6    -0.02   0.02   0.04    -0.07  -0.04   0.05     0.05   0.06  -0.01
   3   6    -0.01  -0.02  -0.04    -0.05  -0.08   0.00     0.04   0.03  -0.11
   4   6    -0.01  -0.02  -0.05    -0.02  -0.07  -0.00     0.02   0.01  -0.11
   5   6    -0.00  -0.04  -0.08    -0.00  -0.09  -0.02    -0.00   0.00  -0.15
   6   6     0.01  -0.02  -0.04     0.02  -0.07   0.01    -0.02   0.02  -0.10
   7   6     0.01  -0.01  -0.02     0.05  -0.07   0.03    -0.04   0.03  -0.09
   8   6     0.02   0.03   0.06     0.07  -0.03   0.08    -0.05   0.06   0.01
   9   6     0.01   0.04   0.08     0.05  -0.00   0.08    -0.04   0.05   0.04
  10   7     0.01   0.01   0.02     0.03  -0.03   0.04    -0.02   0.03  -0.03
  11   6     0.02   0.06   0.12     0.07   0.03   0.10    -0.04   0.06   0.10
  12   6     0.01   0.05   0.07     0.05   0.04   0.05    -0.04   0.03   0.08
  13   6     0.02   0.04   0.05     0.06   0.05   0.02    -0.05   0.02   0.09
  14   6     0.01   0.02  -0.04     0.05   0.04  -0.06    -0.03  -0.02   0.02
  15   6     0.01   0.01  -0.05     0.02   0.03  -0.07    -0.01  -0.02  -0.01
  16   7     0.01   0.03   0.01     0.03   0.02  -0.00    -0.02   0.01   0.02
  17   6     0.01  -0.01  -0.09     0.01   0.02  -0.10     0.01  -0.05  -0.04
  18   6     0.00   0.01  -0.05    -0.02   0.03  -0.06     0.02  -0.02  -0.01
  19   6    -0.01   0.02  -0.02    -0.04   0.05  -0.04     0.04  -0.02   0.03
  20   6    -0.02   0.05   0.06    -0.07   0.06   0.04     0.04   0.02   0.09
  21   6    -0.01   0.05   0.07    -0.06   0.04   0.06     0.03   0.04   0.08
  22   7    -0.00   0.03   0.01    -0.03   0.03   0.00     0.02   0.01   0.02
  23   6    -0.02   0.07   0.11    -0.07   0.04   0.10     0.04   0.07   0.09
  24   6    -0.02   0.04   0.06    -0.06  -0.00   0.07     0.04   0.05   0.03
  25   7    -0.01   0.01   0.01    -0.03  -0.03   0.03     0.02   0.03  -0.03
  26   1    -0.01   0.01   0.02    -0.03  -0.01   0.02     0.02   0.02   0.01
  27   1    -0.00  -0.01  -0.02    -0.01  -0.03  -0.01     0.01   0.01  -0.05
  28   1     0.00  -0.01  -0.02     0.01  -0.03   0.00    -0.01   0.01  -0.04
  29   1     0.01   0.01   0.03     0.03  -0.00   0.03    -0.02   0.02   0.01
  30   1     0.01   0.02   0.05     0.03   0.01   0.04    -0.02   0.02   0.04
  31   1     0.01   0.02   0.03     0.02   0.02   0.01    -0.02   0.01   0.04
  32   1     0.00   0.00  -0.02     0.01   0.01  -0.03    -0.01  -0.01   0.00
  33   1     0.00  -0.01  -0.04     0.00   0.01  -0.04     0.00  -0.02  -0.02
  34   1    -0.00   0.00  -0.02    -0.01   0.02  -0.02     0.01  -0.01   0.00
  35   1    -0.01   0.02   0.03    -0.03   0.02   0.02     0.02   0.01   0.04
  36   1    -0.01   0.03   0.05    -0.03   0.02   0.04     0.02   0.03   0.04
  37  28    -0.00  -0.03   0.03     0.00  -0.01  -0.04     0.00   0.03   0.01
  38   6     0.01  -0.02   0.04    -0.07  -0.03  -0.06     0.05   0.05   0.01
  39   6     0.01   0.01  -0.04    -0.05  -0.08   0.00     0.04   0.03   0.10
  40   6     0.00   0.02  -0.05    -0.02  -0.07   0.01     0.02   0.02   0.11
  41   6    -0.00   0.04  -0.09     0.00  -0.10   0.03    -0.00   0.00   0.15
  42   6    -0.00   0.02  -0.05     0.02  -0.07   0.00    -0.02   0.02   0.10
  43   6    -0.01   0.01  -0.03     0.05  -0.07  -0.02    -0.04   0.03   0.09
  44   6    -0.01  -0.02   0.05     0.07  -0.03  -0.08    -0.05   0.05  -0.00
  45   6    -0.01  -0.04   0.07     0.06  -0.00  -0.08    -0.03   0.05  -0.03
  46   7    -0.01  -0.01   0.01     0.03  -0.03  -0.04    -0.02   0.03   0.03
  47   6    -0.01  -0.06   0.11     0.07   0.03  -0.11    -0.04   0.05  -0.10
  48   6    -0.01  -0.04   0.07     0.06   0.04  -0.06    -0.03   0.03  -0.08
  49   6    -0.01  -0.04   0.06     0.07   0.06  -0.03    -0.04   0.01  -0.09
  50   6    -0.01  -0.02  -0.03     0.05   0.05   0.06    -0.03  -0.02  -0.02
  51   6    -0.01  -0.01  -0.04     0.02   0.03   0.07    -0.01  -0.02   0.01
  52   7    -0.01  -0.03   0.01     0.03   0.03  -0.00    -0.02   0.01  -0.02
  53   6    -0.00   0.00  -0.08     0.00   0.03   0.11     0.00  -0.04   0.04
  54   6    -0.00  -0.01  -0.04    -0.02   0.03   0.06     0.02  -0.02   0.00
  55   6     0.00  -0.02  -0.02    -0.05   0.05   0.04     0.03  -0.02  -0.03
  56   6     0.01  -0.05   0.06    -0.07   0.07  -0.05     0.04   0.02  -0.09
  57   6     0.01  -0.05   0.07    -0.06   0.05  -0.07     0.03   0.03  -0.08
  58   7     0.00  -0.03   0.02    -0.03   0.03  -0.01     0.02   0.01  -0.03
  59   6     0.02  -0.06   0.11    -0.07   0.04  -0.11     0.04   0.06  -0.10
  60   6     0.01  -0.04   0.06    -0.06  -0.00  -0.08     0.03   0.05  -0.03
  61   7     0.01  -0.01   0.01    -0.03  -0.03  -0.03     0.02   0.03   0.03
  62   1     0.00  -0.01   0.02    -0.03  -0.01  -0.03     0.02   0.02  -0.01
  63   1     0.00   0.01  -0.02    -0.01  -0.03   0.01     0.01   0.01   0.05
  64   1    -0.00   0.01  -0.02     0.01  -0.03   0.00    -0.01   0.01   0.04
  65   1    -0.00  -0.01   0.02     0.03  -0.01  -0.03    -0.02   0.02  -0.01
  66   1    -0.01  -0.02   0.05     0.03   0.01  -0.05    -0.02   0.02  -0.04
  67   1    -0.00  -0.02   0.03     0.03   0.02  -0.02    -0.02   0.01  -0.04
  68   1    -0.00  -0.00  -0.02     0.02   0.02   0.03    -0.01  -0.01  -0.00
  69   1    -0.00   0.00  -0.04     0.00   0.01   0.05     0.00  -0.02   0.02
  70   1     0.00  -0.00  -0.01    -0.01   0.02   0.02     0.01  -0.01  -0.00
  71   1     0.01  -0.02   0.03    -0.03   0.02  -0.02     0.02   0.01  -0.04
  72   1     0.01  -0.02   0.05    -0.03   0.02  -0.04     0.02   0.02  -0.04
  73   6    -0.00  -0.07  -0.12    -0.00  -0.12  -0.03    -0.00  -0.01  -0.20
  74   6    -0.00  -0.08  -0.12    -0.00  -0.11  -0.03    -0.00  -0.02  -0.20
  75   6    -0.00  -0.00   0.17     0.00   0.12   0.00    -0.00  -0.04   0.01
  76   6    -0.00   0.02   0.17     0.00   0.12  -0.01    -0.00  -0.04  -0.01
  77   6     0.00   0.07  -0.13     0.00  -0.12   0.05    -0.00  -0.02   0.19
  78   6     0.00   0.06  -0.12     0.00  -0.13   0.05    -0.00  -0.00   0.20
  79  28     0.00  -0.10  -0.03    -0.00   0.01  -0.07    -0.00  -0.04   0.06
  80   6     0.03  -0.07  -0.12     0.09  -0.06  -0.04     0.00  -0.02  -0.01
  81   6     0.02  -0.07  -0.13     0.06  -0.08  -0.04     0.01  -0.02  -0.11
  82   6     0.01  -0.07  -0.10     0.03  -0.07  -0.04     0.00  -0.02  -0.10
  83   6    -0.00  -0.07  -0.11    -0.00  -0.09  -0.03    -0.00  -0.02  -0.15
  84   6    -0.01  -0.07  -0.10    -0.03  -0.07  -0.03    -0.00  -0.02  -0.10
  85   6    -0.02  -0.07  -0.13    -0.06  -0.08  -0.03    -0.01  -0.02  -0.10
  86   6    -0.03  -0.07  -0.12    -0.09  -0.06  -0.04    -0.00  -0.02  -0.00
  87   6    -0.02  -0.06  -0.08    -0.07  -0.03  -0.04     0.00  -0.01   0.05
  88   7    -0.01  -0.06  -0.07    -0.04  -0.03  -0.04     0.00  -0.02  -0.02
  89   6    -0.02  -0.05  -0.04    -0.09   0.00  -0.04     0.01  -0.01   0.12
  90   6    -0.01  -0.04   0.02    -0.07   0.04  -0.03     0.01  -0.01   0.12
  91   6    -0.00  -0.03   0.08    -0.08   0.07  -0.02     0.01  -0.01   0.14
  92   6     0.00  -0.01   0.13    -0.06   0.10  -0.00     0.01  -0.02   0.08
  93   6    -0.00  -0.02   0.11    -0.03   0.08  -0.01     0.00  -0.03   0.05
  94   7    -0.00  -0.04   0.05    -0.04   0.05  -0.03     0.01  -0.02   0.07
  95   6    -0.00  -0.01   0.14    -0.00   0.10   0.00    -0.00  -0.03   0.03
  96   6     0.00  -0.02   0.11     0.03   0.08   0.00    -0.01  -0.02   0.06
  97   6    -0.00  -0.01   0.14     0.06   0.10   0.02    -0.01  -0.02   0.09
  98   6     0.01  -0.02   0.08     0.08   0.07   0.00    -0.02  -0.01   0.14
  99   6     0.01  -0.04   0.03     0.07   0.04  -0.02    -0.01  -0.01   0.12
 100   7     0.00  -0.03   0.05     0.04   0.05  -0.02    -0.01  -0.02   0.08
 101   6     0.02  -0.05  -0.03     0.09   0.01  -0.04    -0.01  -0.01   0.12
 102   6     0.02  -0.06  -0.07     0.07  -0.03  -0.04    -0.01  -0.01   0.04
 103   7     0.01  -0.06  -0.07     0.04  -0.03  -0.04    -0.00  -0.02  -0.02
 104   1     0.01  -0.02  -0.04     0.03  -0.02  -0.01     0.00  -0.01   0.00
 105   1     0.01  -0.02  -0.05     0.02  -0.03  -0.01     0.00  -0.01  -0.05
 106   1    -0.01  -0.02  -0.04    -0.02  -0.03  -0.00    -0.00  -0.01  -0.05
 107   1    -0.01  -0.02  -0.04    -0.03  -0.02  -0.01     0.00  -0.01   0.01
 108   1    -0.01  -0.01  -0.01    -0.03   0.00  -0.01     0.01  -0.00   0.05
 109   1    -0.00  -0.01   0.02    -0.03   0.02  -0.01     0.01  -0.00   0.05
 110   1     0.00  -0.00   0.05    -0.02   0.04   0.01     0.00  -0.01   0.02
 111   1    -0.00  -0.00   0.05     0.02   0.04   0.01    -0.00  -0.01   0.02
 112   1     0.00  -0.01   0.02     0.03   0.02   0.00    -0.01  -0.00   0.05
 113   1     0.01  -0.01  -0.01     0.03   0.00  -0.01    -0.01  -0.00   0.05
 114  28    -0.00   0.10  -0.02     0.00   0.00   0.07    -0.00  -0.04  -0.06
 115   6    -0.00   0.03   0.08    -0.08   0.07   0.01     0.02  -0.01  -0.13
 116   6    -0.01   0.02   0.13    -0.06   0.10  -0.01     0.01  -0.02  -0.08
 117   6    -0.00   0.03   0.11    -0.03   0.08   0.00     0.00  -0.02  -0.05
 118   6    -0.00   0.02   0.14     0.00   0.10  -0.00    -0.00  -0.03  -0.03
 119   6     0.00   0.03   0.11     0.03   0.08  -0.00    -0.01  -0.02  -0.05
 120   6     0.01   0.02   0.13     0.06   0.10  -0.02    -0.01  -0.02  -0.09
 121   6     0.00   0.03   0.08     0.08   0.07  -0.00    -0.02  -0.01  -0.14
 122   6    -0.00   0.04   0.03     0.07   0.04   0.02    -0.01  -0.01  -0.12
 123   7    -0.00   0.04   0.05     0.04   0.05   0.02    -0.01  -0.02  -0.07
 124   6    -0.01   0.05  -0.03     0.09   0.00   0.04    -0.01  -0.01  -0.12
 125   6    -0.01   0.05  -0.07     0.07  -0.03   0.05    -0.01  -0.01  -0.04
 126   6    -0.02   0.06  -0.11     0.09  -0.07   0.05     0.00  -0.02   0.01
 127   6    -0.02   0.06  -0.13     0.07  -0.09   0.05     0.01  -0.02   0.11
 128   6    -0.01   0.06  -0.10     0.03  -0.07   0.05     0.00  -0.02   0.10
 129   7    -0.01   0.06  -0.07     0.04  -0.04   0.05    -0.00  -0.02   0.02
 130   6    -0.00   0.07  -0.11     0.00  -0.09   0.04    -0.00  -0.02   0.15
 131   6     0.01   0.06  -0.10    -0.03  -0.07   0.04    -0.00  -0.02   0.10
 132   6     0.02   0.06  -0.13    -0.06  -0.09   0.04    -0.01  -0.02   0.10
 133   6     0.02   0.06  -0.12    -0.09  -0.07   0.04    -0.00  -0.02   0.01
 134   6     0.01   0.05  -0.07    -0.07  -0.03   0.04     0.01  -0.01  -0.04
 135   7     0.01   0.06  -0.07    -0.04  -0.04   0.05     0.00  -0.02   0.02
 136   6     0.01   0.05  -0.03    -0.09   0.00   0.04     0.01  -0.01  -0.12
 137   6     0.00   0.04   0.03    -0.07   0.04   0.03     0.01  -0.01  -0.12
 138   7     0.00   0.04   0.05    -0.04   0.04   0.02     0.01  -0.02  -0.07
 139   1    -0.00   0.01   0.02    -0.03   0.02   0.00     0.01  -0.00  -0.05
 140   1    -0.00   0.01   0.05    -0.02   0.04  -0.01     0.00  -0.01  -0.02
 141   1     0.00   0.01   0.05     0.02   0.04  -0.01    -0.00  -0.01  -0.02
 142   1     0.00   0.01   0.02     0.03   0.02  -0.00    -0.01  -0.00  -0.05
 143   1    -0.00   0.01  -0.01     0.03   0.00   0.01    -0.01  -0.00  -0.05
 144   1    -0.01   0.02  -0.04     0.03  -0.02   0.01     0.00  -0.00  -0.00
 145   1    -0.01   0.02  -0.05     0.02  -0.03   0.01     0.00  -0.01   0.05
 146   1     0.01   0.02  -0.05    -0.02  -0.03   0.01    -0.00  -0.01   0.05
 147   1     0.01   0.02  -0.04    -0.03  -0.02   0.01    -0.00  -0.00  -0.01
 148   1     0.00   0.01  -0.01    -0.03   0.00   0.01     0.01  -0.00  -0.05
                     13                     14                     15
                        a                      a                      a 
 Frequencies --    26.5377                28.2743                29.8257
 Red. masses --    10.9392                11.3234                11.0262
 Frc consts  --     0.0000                 0.0000                 0.0000
 IR Inten    --    27.5223                23.2477                 1.2781
 Raman Activ --     0.0000                 0.0000                 0.0000
 Depolar     --     0.0000                 0.0000                 0.0000
 Atom AN      X      Y      Z        X      Y      Z        X      Y      Z
   1  28    -0.01  -0.00  -0.00     0.00  -0.01   0.01    -0.00   0.00   0.00
   2   6     0.01  -0.07  -0.14    -0.03  -0.03   0.01    -0.01   0.10   0.20
   3   6     0.01  -0.07  -0.14    -0.02  -0.00   0.09    -0.01   0.10   0.18
   4   6     0.01  -0.03  -0.06    -0.01   0.01   0.09    -0.01   0.05   0.08
   5   6     0.00   0.00   0.00     0.00   0.02   0.13    -0.01   0.00  -0.00
   6   6     0.00   0.03   0.07     0.01   0.01   0.09    -0.01  -0.04  -0.09
   7   6     0.01   0.07   0.14     0.02  -0.00   0.08    -0.01  -0.09  -0.18
   8   6     0.00   0.06   0.13     0.03  -0.03   0.00    -0.01  -0.09  -0.19
   9   6     0.00   0.03   0.06     0.02  -0.03  -0.03    -0.01  -0.04  -0.09
  10   7     0.00   0.02   0.03     0.01  -0.01   0.03    -0.01  -0.02  -0.05
  11   6    -0.00  -0.00  -0.01     0.02  -0.04  -0.09    -0.00  -0.01  -0.01
  12   6    -0.00  -0.03  -0.07     0.02  -0.02  -0.07    -0.00   0.03   0.07
  13   6    -0.00  -0.05  -0.14     0.03  -0.02  -0.08    -0.00   0.06   0.16
  14   6    -0.00  -0.05  -0.13     0.02   0.01  -0.02    -0.00   0.06   0.16
  15   6    -0.00  -0.02  -0.05     0.01   0.02   0.01    -0.00   0.03   0.07
  16   7    -0.00  -0.02  -0.04     0.01  -0.00  -0.02    -0.00   0.02   0.04
  17   6    -0.00   0.00   0.02    -0.00   0.03   0.04     0.00  -0.00  -0.01
  18   6    -0.01   0.03   0.07    -0.01   0.02   0.01     0.01  -0.03  -0.09
  19   6    -0.01   0.05   0.15    -0.02   0.01  -0.02     0.01  -0.07  -0.17
  20   6    -0.01   0.05   0.14    -0.02  -0.02  -0.07     0.01  -0.06  -0.16
  21   6    -0.00   0.02   0.06    -0.02  -0.03  -0.06     0.00  -0.02  -0.06
  22   7    -0.00   0.01   0.04    -0.01  -0.00  -0.02     0.00  -0.01  -0.04
  23   6     0.00  -0.01  -0.01    -0.02  -0.05  -0.08    -0.00   0.02   0.03
  24   6     0.01  -0.04  -0.07    -0.02  -0.03  -0.02    -0.01   0.06   0.10
  25   7     0.00  -0.02  -0.04    -0.01  -0.01   0.03    -0.01   0.03   0.06
  26   1     0.00  -0.03  -0.05    -0.01  -0.01  -0.01    -0.01   0.04   0.08
  27   1     0.00  -0.03  -0.05    -0.01   0.00   0.04    -0.01   0.04   0.07
  28   1     0.00   0.03   0.05     0.01   0.00   0.04    -0.00  -0.03  -0.07
  29   1     0.00   0.02   0.05     0.01  -0.01  -0.01    -0.00  -0.03  -0.07
  30   1    -0.00  -0.00  -0.00     0.01  -0.02  -0.04    -0.00  -0.00  -0.00
  31   1    -0.00  -0.02  -0.05     0.01  -0.01  -0.03    -0.00   0.02   0.06
  32   1    -0.00  -0.02  -0.05     0.00   0.01  -0.00    -0.00   0.02   0.06
  33   1    -0.00   0.00   0.01    -0.00   0.02   0.02     0.00  -0.00  -0.01
  34   1    -0.00   0.02   0.06    -0.01   0.01  -0.00     0.01  -0.03  -0.07
  35   1    -0.00   0.02   0.05    -0.01  -0.01  -0.03     0.00  -0.02  -0.06
  36   1     0.00  -0.00  -0.00    -0.01  -0.02  -0.04    -0.00   0.01   0.01
  37  28    -0.01  -0.00   0.00    -0.00   0.01   0.02    -0.00  -0.00   0.00
  38   6     0.01  -0.08   0.18     0.03   0.03   0.01     0.01  -0.09   0.19
  39   6     0.01  -0.07   0.17     0.02   0.00   0.09     0.01  -0.09   0.18
  40   6     0.01  -0.03   0.08     0.01  -0.01   0.10     0.01  -0.04   0.08
  41   6     0.00   0.00  -0.01    -0.00  -0.02   0.14     0.01  -0.00  -0.00
  42   6     0.00   0.04  -0.08    -0.01  -0.00   0.09     0.01   0.04  -0.09
  43   6     0.01   0.07  -0.17    -0.02   0.01   0.08     0.01   0.08  -0.18
  44   6     0.00   0.07  -0.16    -0.03   0.03   0.00     0.01   0.08  -0.19
  45   6     0.00   0.03  -0.07    -0.02   0.03  -0.03     0.01   0.04  -0.10
  46   7     0.00   0.02  -0.04    -0.01   0.01   0.03     0.01   0.02  -0.05
  47   6    -0.00  -0.00   0.00    -0.03   0.04  -0.08     0.00   0.01  -0.02
  48   6    -0.00  -0.03   0.08    -0.02   0.02  -0.07     0.00  -0.02   0.06
  49   6    -0.00  -0.06   0.16    -0.03   0.01  -0.08     0.00  -0.05   0.15
  50   6    -0.00  -0.06   0.15    -0.02  -0.01  -0.02     0.00  -0.05   0.15
  51   6    -0.00  -0.03   0.07    -0.01  -0.02   0.01     0.00  -0.02   0.07
  52   7    -0.00  -0.02   0.04    -0.01   0.00  -0.02     0.00  -0.01   0.03
  53   6    -0.00   0.00  -0.01     0.00  -0.03   0.04     0.00   0.00  -0.01
  54   6    -0.00   0.03  -0.08     0.01  -0.02   0.01    -0.00   0.03  -0.08
  55   6    -0.01   0.06  -0.16     0.02  -0.01  -0.02    -0.01   0.06  -0.16
  56   6    -0.01   0.05  -0.15     0.02   0.02  -0.08    -0.01   0.05  -0.15
  57   6    -0.00   0.02  -0.06     0.02   0.03  -0.07    -0.00   0.02  -0.06
  58   7    -0.00   0.01  -0.04     0.01   0.00  -0.02    -0.00   0.01  -0.04
  59   6     0.00  -0.01   0.02     0.02   0.04  -0.08     0.00  -0.02   0.03
  60   6     0.01  -0.04   0.09     0.02   0.03  -0.02     0.01  -0.05   0.10
  61   7     0.00  -0.02   0.05     0.01   0.01   0.03     0.01  -0.03   0.05
  62   1     0.00  -0.03   0.07     0.01   0.01  -0.01     0.00  -0.03   0.07
  63   1     0.00  -0.03   0.06     0.01  -0.00   0.04     0.00  -0.03   0.06
  64   1     0.00   0.03  -0.06    -0.01   0.00   0.04     0.00   0.03  -0.07
  65   1     0.00   0.03  -0.06    -0.01   0.01  -0.01     0.00   0.03  -0.07
  66   1    -0.00  -0.00   0.00    -0.01   0.02  -0.04     0.00   0.00  -0.01
  67   1    -0.00  -0.02   0.06    -0.01   0.01  -0.03     0.00  -0.02   0.06
  68   1    -0.00  -0.02   0.06    -0.01  -0.01  -0.00     0.00  -0.02   0.06
  69   1    -0.00   0.00  -0.00     0.00  -0.01   0.02    -0.00   0.00  -0.00
  70   1    -0.00   0.02  -0.06     0.01  -0.01  -0.00    -0.00   0.02  -0.06
  71   1    -0.00   0.02  -0.06     0.01   0.01  -0.03    -0.00   0.02  -0.05
  72   1     0.00  -0.00   0.01     0.01   0.02  -0.04     0.00  -0.01   0.01
  73   6     0.00   0.01   0.01     0.00   0.03   0.16    -0.01  -0.00  -0.00
  74   6     0.00   0.01   0.01     0.00   0.04   0.15    -0.01  -0.01  -0.00
  75   6    -0.01  -0.01  -0.00    -0.00  -0.01   0.23     0.00   0.00   0.00
  76   6    -0.01  -0.01  -0.00    -0.00   0.00   0.23     0.00   0.00   0.00
  77   6     0.01   0.01  -0.01    -0.00  -0.03   0.16     0.01   0.00  -0.00
  78   6     0.01   0.01  -0.01    -0.00  -0.02   0.17     0.01  -0.00  -0.00
  79  28     0.00   0.00   0.00     0.00  -0.01  -0.02    -0.02  -0.01  -0.00
  80   6     0.00   0.01  -0.13    -0.03   0.01  -0.12    -0.01  -0.01   0.03
  81   6     0.01   0.01  -0.13    -0.02   0.03   0.00    -0.01  -0.01   0.05
  82   6     0.00   0.01  -0.06    -0.01   0.02   0.05    -0.01  -0.01   0.02
  83   6     0.00   0.01   0.00     0.00   0.03   0.11    -0.01  -0.01  -0.00
  84   6     0.01   0.01   0.06     0.01   0.02   0.05    -0.01  -0.01  -0.03
  85   6     0.02   0.01   0.13     0.02   0.03   0.00    -0.02  -0.01  -0.06
  86   6     0.02   0.01   0.13     0.03   0.01  -0.12    -0.02  -0.01  -0.03
  87   6     0.01   0.01   0.06     0.02  -0.00  -0.12    -0.01  -0.00   0.01
  88   7     0.01   0.00   0.03     0.01   0.01  -0.03    -0.01  -0.00   0.00
  89   6     0.01  -0.00  -0.00     0.02  -0.02  -0.18    -0.01   0.00   0.06
  90   6    -0.00  -0.01  -0.06     0.02  -0.03  -0.09    -0.00   0.01   0.09
  91   6    -0.01  -0.03  -0.14     0.03  -0.04  -0.06    -0.00   0.02   0.13
  92   6    -0.01  -0.03  -0.14     0.03  -0.03   0.08    -0.00   0.02   0.11
  93   6    -0.01  -0.02  -0.06     0.01  -0.01   0.10    -0.00   0.01   0.05
  94   7    -0.00  -0.01  -0.03     0.01  -0.01   0.01    -0.00   0.00   0.05
  95   6    -0.01  -0.00  -0.00    -0.00  -0.01   0.17    -0.00  -0.00   0.00
  96   6    -0.01   0.01   0.06    -0.01  -0.01   0.10    -0.00  -0.01  -0.05
  97   6    -0.02   0.02   0.13    -0.03  -0.03   0.07     0.00  -0.02  -0.11
  98   6    -0.02   0.02   0.13    -0.03  -0.04  -0.07     0.00  -0.03  -0.13
  99   6    -0.01   0.01   0.06    -0.02  -0.03  -0.10    -0.00  -0.02  -0.09
 100   7    -0.01   0.01   0.03    -0.01  -0.01   0.00    -0.00  -0.01  -0.05
 101   6    -0.01   0.01   0.00    -0.02  -0.02  -0.18    -0.00  -0.01  -0.06
 102   6     0.00   0.00  -0.06    -0.02  -0.00  -0.13    -0.01  -0.01  -0.01
 103   7     0.00   0.01  -0.03    -0.01   0.01  -0.03    -0.01  -0.01  -0.01
 104   1     0.00   0.00  -0.05    -0.01   0.00  -0.05    -0.00  -0.00   0.01
 105   1     0.00   0.00  -0.05    -0.01   0.01   0.02    -0.01  -0.00   0.03
 106   1     0.01   0.00   0.05     0.01   0.01   0.01    -0.01  -0.00  -0.03
 107   1     0.01   0.00   0.05     0.01   0.00  -0.05    -0.01  -0.00  -0.01
 108   1     0.00  -0.00  -0.00     0.01  -0.01  -0.07    -0.00   0.00   0.02
 109   1    -0.00  -0.01  -0.05     0.01  -0.01  -0.03    -0.00   0.01   0.05
 110   1    -0.00  -0.01  -0.05     0.01  -0.01   0.04    -0.00   0.01   0.04
 111   1    -0.01   0.01   0.05    -0.01  -0.01   0.04     0.00  -0.01  -0.04
 112   1    -0.01   0.01   0.05    -0.01  -0.01  -0.04     0.00  -0.01  -0.05
 113   1    -0.00   0.00   0.00    -0.01  -0.01  -0.08    -0.00  -0.00  -0.02
 114  28     0.00   0.00  -0.00    -0.00   0.01  -0.03     0.02   0.01  -0.00
 115   6    -0.01  -0.03   0.14    -0.03   0.03  -0.06     0.00  -0.02   0.11
 116   6    -0.01  -0.03   0.14    -0.03   0.02   0.07     0.00  -0.01   0.09
 117   6    -0.01  -0.02   0.06    -0.01   0.01   0.10     0.00  -0.00   0.04
 118   6    -0.01  -0.01   0.00    -0.00   0.01   0.17     0.00   0.00   0.00
 119   6    -0.01   0.01  -0.06     0.01   0.01   0.10     0.00   0.01  -0.04
 120   6    -0.02   0.02  -0.13     0.03   0.02   0.07     0.00   0.02  -0.08
 121   6    -0.02   0.02  -0.14     0.03   0.03  -0.07     0.00   0.02  -0.11
 122   6    -0.01   0.01  -0.07     0.02   0.02  -0.10     0.00   0.01  -0.08
 123   7    -0.01   0.01  -0.04     0.01   0.01   0.00     0.00   0.01  -0.04
 124   6    -0.01   0.01  -0.01     0.01   0.02  -0.19     0.01   0.01  -0.07
 125   6     0.00   0.00   0.05     0.01   0.00  -0.13     0.01   0.00  -0.03
 126   6     0.01   0.01   0.12     0.02  -0.01  -0.12     0.01   0.00  -0.00
 127   6     0.01   0.01   0.12     0.02  -0.03   0.00     0.02   0.00   0.02
 128   6     0.00   0.01   0.05     0.01  -0.02   0.05     0.01   0.00   0.01
 129   7     0.00   0.00   0.03     0.01  -0.00  -0.03     0.01   0.00  -0.02
 130   6     0.01   0.01  -0.01    -0.00  -0.02   0.11     0.01   0.00  -0.00
 131   6     0.01   0.00  -0.06    -0.01  -0.02   0.05     0.01   0.00  -0.01
 132   6     0.02   0.00  -0.13    -0.02  -0.02   0.00     0.02   0.00  -0.03
 133   6     0.02   0.00  -0.13    -0.02  -0.01  -0.12     0.01   0.00  -0.00
 134   6     0.01   0.00  -0.05    -0.01   0.00  -0.13     0.01   0.00   0.03
 135   7     0.01   0.00  -0.03    -0.01  -0.00  -0.03     0.01   0.00   0.01
 136   6     0.01  -0.00   0.01    -0.01   0.02  -0.18     0.01  -0.00   0.07
 137   6    -0.00  -0.01   0.07    -0.02   0.02  -0.10     0.00  -0.01   0.08
 138   7    -0.00  -0.01   0.04    -0.01   0.01   0.00     0.00  -0.00   0.04
 139   1    -0.00  -0.01   0.05    -0.01   0.01  -0.04     0.00  -0.01   0.04
 140   1    -0.00  -0.01   0.05    -0.01   0.01   0.04     0.00  -0.01   0.03
 141   1    -0.01   0.01  -0.05     0.01   0.01   0.04     0.00   0.01  -0.03
 142   1    -0.01   0.01  -0.05     0.01   0.01  -0.04     0.00   0.01  -0.04
 143   1    -0.00   0.00  -0.00     0.00   0.01  -0.08     0.00   0.00  -0.03
 144   1     0.00   0.00   0.05     0.01  -0.00  -0.05     0.00   0.00  -0.00
 145   1     0.00   0.00   0.05     0.01  -0.01   0.02     0.01   0.00   0.01
 146   1     0.01   0.00  -0.05    -0.01  -0.01   0.01     0.01   0.00  -0.02
 147   1     0.01   0.00  -0.05    -0.01  -0.00  -0.05     0.00   0.00  -0.00
 148   1     0.00  -0.00   0.00    -0.01   0.01  -0.08     0.00  -0.00   0.03
                     16                     17                     18
                        a                      a                      a 
 Frequencies --    36.4697                37.2128                47.3128
 Red. masses --    16.2125                11.1749                16.0754
 Frc consts  --     0.0000                 0.0000                 0.0000
 IR Inten    --     0.1247                33.7878                 2.2641
 Raman Activ --     0.0000                 0.0000                 0.0000
 Depolar     --     0.0000                 0.0000                 0.0000
 Atom AN      X      Y      Z        X      Y      Z        X      Y      Z
   1  28     0.21   0.00   0.00    -0.02  -0.00  -0.00     0.01  -0.08   0.03
   2   6     0.09   0.03   0.07     0.00  -0.08  -0.15    -0.07  -0.08   0.04
   3   6     0.09   0.03   0.06     0.00  -0.07  -0.13    -0.05  -0.11   0.02
   4   6     0.08   0.01   0.03     0.00  -0.03  -0.06    -0.02  -0.10   0.02
   5   6     0.08  -0.00  -0.00     0.00   0.00   0.00     0.00  -0.11   0.02
   6   6     0.08  -0.01  -0.03    -0.00   0.03   0.06     0.02  -0.10   0.01
   7   6     0.09  -0.03  -0.06    -0.00   0.06   0.13     0.05  -0.12   0.01
   8   6     0.09  -0.03  -0.07    -0.00   0.07   0.15     0.07  -0.09   0.02
   9   6     0.09  -0.01  -0.05    -0.00   0.03   0.08     0.06  -0.05   0.03
  10   7     0.09  -0.00  -0.03    -0.00   0.02   0.05     0.03  -0.07   0.02
  11   6     0.09  -0.00  -0.02    -0.01   0.01   0.03     0.08  -0.02   0.04
  12   6     0.09   0.01   0.01    -0.01  -0.01  -0.03     0.06   0.00   0.03
  13   6     0.09   0.02   0.04    -0.01  -0.03  -0.09     0.08   0.03   0.02
  14   6     0.09   0.02   0.05    -0.01  -0.04  -0.10     0.06   0.04  -0.02
  15   6     0.10   0.01   0.02    -0.01  -0.02  -0.05     0.03   0.02  -0.03
  16   7     0.10   0.01   0.01    -0.01  -0.01  -0.02     0.04  -0.00   0.00
  17   6     0.10   0.00  -0.00    -0.01   0.00   0.01     0.01   0.02  -0.05
  18   6     0.10  -0.01  -0.02    -0.01   0.02   0.05    -0.02   0.02  -0.03
  19   6     0.10  -0.02  -0.05    -0.02   0.05   0.11    -0.05   0.03  -0.03
  20   6     0.10  -0.02  -0.04    -0.02   0.04   0.09    -0.07   0.03   0.01
  21   6     0.10  -0.01  -0.01    -0.01   0.01   0.03    -0.06   0.00   0.03
  22   7     0.11  -0.00  -0.01    -0.01   0.01   0.02    -0.03  -0.00   0.00
  23   6     0.09   0.00   0.02    -0.01  -0.02  -0.04    -0.07  -0.02   0.05
  24   6     0.09   0.02   0.04    -0.00  -0.04  -0.09    -0.06  -0.05   0.04
  25   7     0.09   0.01   0.02    -0.00  -0.02  -0.05    -0.03  -0.07   0.03
  26   1     0.03   0.01   0.03     0.00  -0.03  -0.06    -0.03  -0.02   0.01
  27   1     0.03   0.01   0.02     0.00  -0.02  -0.04    -0.01  -0.04   0.00
  28   1     0.03  -0.01  -0.02    -0.00   0.02   0.05     0.02  -0.04  -0.00
  29   1     0.03  -0.01  -0.03    -0.00   0.03   0.06     0.03  -0.03   0.01
  30   1     0.03  -0.00  -0.01    -0.00   0.00   0.01     0.03  -0.00   0.02
  31   1     0.03   0.01   0.01    -0.00  -0.01  -0.04     0.03   0.01   0.01
  32   1     0.03   0.01   0.02    -0.00  -0.01  -0.04     0.02   0.02  -0.01
  33   1     0.03   0.00  -0.00    -0.00   0.00   0.00     0.00   0.01  -0.02
  34   1     0.03  -0.01  -0.02    -0.01   0.02   0.04    -0.01   0.01  -0.02
  35   1     0.03  -0.01  -0.02    -0.01   0.01   0.03    -0.03   0.01   0.01
  36   1     0.03   0.00   0.01    -0.00  -0.01  -0.02    -0.03  -0.00   0.02
  37  28    -0.20  -0.00   0.00    -0.04  -0.00   0.00    -0.01   0.08   0.03
  38   6    -0.09  -0.02   0.05    -0.01  -0.06   0.14     0.07   0.09   0.03
  39   6    -0.09  -0.02   0.04    -0.01  -0.06   0.12     0.05   0.11   0.02
  40   6    -0.08  -0.01   0.02    -0.01  -0.03   0.06     0.02   0.10   0.02
  41   6    -0.08  -0.00  -0.00    -0.01   0.00  -0.00    -0.00   0.11   0.02
  42   6    -0.08   0.01  -0.02    -0.01   0.03  -0.06    -0.02   0.10   0.01
  43   6    -0.09   0.02  -0.05    -0.01   0.05  -0.12    -0.05   0.12   0.01
  44   6    -0.09   0.02  -0.06    -0.02   0.06  -0.14    -0.08   0.09   0.03
  45   6    -0.09   0.01  -0.04    -0.02   0.03  -0.08    -0.06   0.05   0.03
  46   7    -0.09   0.00  -0.02    -0.02   0.02  -0.05    -0.03   0.07   0.02
  47   6    -0.09  -0.00  -0.02    -0.02   0.01  -0.04    -0.08   0.02   0.04
  48   6    -0.09  -0.01   0.01    -0.02  -0.01   0.03    -0.06  -0.00   0.03
  49   6    -0.09  -0.01   0.03    -0.02  -0.03   0.09    -0.08  -0.03   0.01
  50   6    -0.09  -0.01   0.03    -0.02  -0.03   0.10    -0.06  -0.04  -0.03
  51   6    -0.10  -0.01   0.02    -0.02  -0.01   0.04    -0.03  -0.02  -0.03
  52   7    -0.10  -0.00   0.00    -0.02  -0.01   0.02    -0.04   0.00   0.00
  53   6    -0.10  -0.00   0.00    -0.02   0.00  -0.00    -0.00  -0.03  -0.05
  54   6    -0.10   0.01  -0.01    -0.02   0.02  -0.05     0.02  -0.02  -0.03
  55   6    -0.10   0.01  -0.03    -0.03   0.04  -0.10     0.05  -0.04  -0.03
  56   6    -0.09   0.01  -0.03    -0.03   0.03  -0.08     0.07  -0.03   0.01
  57   6    -0.09   0.01  -0.01    -0.02   0.01  -0.02     0.06  -0.00   0.02
  58   7    -0.10   0.00  -0.00    -0.02   0.01  -0.02     0.03   0.00   0.00
  59   6    -0.09  -0.00   0.02    -0.02  -0.02   0.04     0.07   0.02   0.04
  60   6    -0.09  -0.01   0.03    -0.01  -0.04   0.09     0.06   0.05   0.03
  61   7    -0.09  -0.00   0.02    -0.01  -0.02   0.05     0.03   0.07   0.03
  62   1    -0.03  -0.01   0.02    -0.00  -0.02   0.05     0.03   0.03   0.01
  63   1    -0.03  -0.01   0.01    -0.00  -0.02   0.04     0.01   0.04   0.00
  64   1    -0.03   0.01  -0.02    -0.00   0.02  -0.04    -0.02   0.04  -0.00
  65   1    -0.03   0.01  -0.02    -0.01   0.02  -0.05    -0.03   0.03   0.01
  66   1    -0.03   0.00  -0.01    -0.01   0.00  -0.01    -0.03   0.00   0.02
  67   1    -0.03  -0.00   0.01    -0.01  -0.01   0.03    -0.03  -0.01   0.01
  68   1    -0.03  -0.00   0.01    -0.01  -0.01   0.04    -0.02  -0.02  -0.01
  69   1    -0.03  -0.00   0.00    -0.01   0.00  -0.00    -0.00  -0.01  -0.02
  70   1    -0.03   0.00  -0.01    -0.01   0.01  -0.04     0.02  -0.02  -0.01
  71   1    -0.03   0.00  -0.01    -0.01   0.01  -0.03     0.03  -0.01   0.01
  72   1    -0.03  -0.00   0.01    -0.01  -0.01   0.02     0.03   0.00   0.02
  73   6     0.07  -0.00  -0.00     0.00   0.00   0.00     0.00  -0.10   0.02
  74   6     0.07  -0.00   0.00     0.00   0.00  -0.00     0.00   0.00  -0.00
  75   6     0.00   0.00   0.00     0.02  -0.00  -0.00     0.00   0.08  -0.03
  76   6    -0.00   0.00   0.00     0.02  -0.00  -0.00    -0.00  -0.08  -0.03
  77   6    -0.07   0.00   0.00    -0.01   0.00  -0.00    -0.00  -0.01   0.00
  78   6    -0.07  -0.00  -0.00    -0.01   0.00  -0.00    -0.00   0.10   0.02
  79  28     0.09  -0.00   0.00     0.03   0.00   0.00     0.00   0.20  -0.04
  80   6     0.05  -0.01  -0.12     0.00   0.01   0.18     0.04   0.06  -0.04
  81   6     0.05  -0.00  -0.12     0.00   0.00   0.16     0.03   0.05  -0.04
  82   6     0.06  -0.00  -0.05     0.01   0.00   0.08     0.02   0.05  -0.03
  83   6     0.07  -0.00   0.00     0.00   0.00  -0.00     0.00   0.04  -0.02
  84   6     0.06   0.00   0.06     0.01   0.00  -0.08    -0.02   0.05  -0.03
  85   6     0.05  -0.00   0.12     0.00   0.00  -0.17    -0.03   0.05  -0.05
  86   6     0.05   0.00   0.12     0.00  -0.00  -0.19    -0.04   0.06  -0.05
  87   6     0.05   0.01   0.06     0.01  -0.00  -0.11    -0.03   0.07  -0.03
  88   7     0.06   0.01   0.03     0.01  -0.00  -0.06    -0.02   0.08  -0.03
  89   6     0.04   0.01  -0.01     0.02   0.00  -0.04    -0.03   0.09  -0.01
[...]
  50   6    -0.00   0.00   0.00    -0.00   0.00   0.00     0.00  -0.00  -0.00
  51   6    -0.00  -0.00  -0.00    -0.00  -0.00  -0.00     0.00   0.00   0.00
  52   7     0.00  -0.00  -0.00     0.00  -0.00  -0.00    -0.00   0.00   0.00
  53   6    -0.00   0.00   0.00     0.00   0.00  -0.00     0.00  -0.00   0.00
  54   6     0.00  -0.00  -0.00     0.00  -0.00  -0.00    -0.00  -0.00  -0.00
  55   6     0.00   0.00  -0.00     0.01   0.00  -0.00     0.00   0.00  -0.00
  56   6     0.00   0.00   0.00     0.00   0.01   0.00     0.00   0.00   0.00
  57   6     0.00  -0.00   0.00    -0.00  -0.00   0.00    -0.00  -0.00  -0.00
  58   7     0.00  -0.00  -0.00    -0.00  -0.00  -0.00     0.00  -0.00  -0.00
  59   6    -0.00   0.00   0.00    -0.00   0.00   0.00    -0.00   0.00   0.00
  60   6     0.00   0.00   0.00     0.00   0.00   0.00     0.00   0.00   0.00
  61   7     0.00  -0.00  -0.00     0.00  -0.00  -0.00     0.00  -0.00  -0.00
  62   1     0.02  -0.14  -0.06     0.02  -0.15  -0.07     0.01  -0.04  -0.02
  63   1     0.31  -0.02  -0.03     0.34  -0.03  -0.03     0.09  -0.01  -0.01
  64   1    -0.22  -0.02  -0.02    -0.35  -0.03  -0.03     0.14   0.01   0.01
  65   1    -0.01  -0.10  -0.04    -0.02  -0.16  -0.07     0.01   0.07   0.03
  66   1     0.00  -0.00  -0.00     0.00  -0.00  -0.00    -0.00   0.00   0.00
  67   1     0.00  -0.02  -0.01     0.00  -0.01  -0.00    -0.00   0.00   0.00
  68   1     0.02  -0.00  -0.00     0.01  -0.00  -0.00    -0.00   0.00   0.00
  69   1     0.00   0.00  -0.00    -0.00   0.00   0.00    -0.00  -0.00   0.00
  70   1    -0.00  -0.00   0.00    -0.02  -0.00   0.00    -0.00  -0.00   0.00
  71   1    -0.00  -0.00  -0.00    -0.00  -0.02  -0.01    -0.00  -0.00  -0.00
  72   1    -0.00  -0.00  -0.00    -0.00  -0.00  -0.00    -0.00  -0.00  -0.00
  73   6     0.00   0.00  -0.00    -0.00   0.00   0.00    -0.00  -0.00   0.00
  74   6    -0.00  -0.00   0.00     0.00  -0.00   0.00    -0.00   0.00  -0.00
  75   6     0.00   0.00   0.00    -0.00   0.00   0.00    -0.00  -0.00  -0.00
  76   6    -0.00   0.00  -0.00     0.00   0.00  -0.00     0.00   0.00  -0.00
  77   6     0.00  -0.00  -0.00    -0.00  -0.00  -0.00    -0.00   0.00   0.00
  78   6    -0.00   0.00   0.00    -0.00   0.00   0.00    -0.00  -0.00  -0.00
  79  28     0.00   0.00  -0.00    -0.00   0.00  -0.00     0.00  -0.00   0.00
  80   6    -0.00  -0.00   0.00    -0.00  -0.02   0.00    -0.00  -0.06   0.00
  81   6    -0.00  -0.00  -0.00    -0.03  -0.00  -0.00    -0.11  -0.01  -0.01
  82   6    -0.00   0.00  -0.00    -0.00   0.00  -0.00    -0.00   0.00  -0.00
  83   6     0.00  -0.00  -0.00    -0.00  -0.00  -0.00    -0.00   0.00  -0.00
  84   6     0.00   0.00  -0.00     0.00   0.00  -0.00    -0.00  -0.00   0.00
  85   6     0.01  -0.00  -0.00     0.01  -0.00  -0.00    -0.14   0.01   0.01
  86   6     0.00  -0.01   0.00     0.00  -0.01   0.00    -0.00   0.08  -0.00
  87   6    -0.00   0.00   0.00    -0.00  -0.00   0.00     0.00   0.00  -0.00
  88   7    -0.00   0.00  -0.00    -0.00   0.00   0.00     0.00  -0.00  -0.00
  89   6    -0.00  -0.00   0.00     0.00  -0.00  -0.00    -0.00   0.00  -0.00
  90   6     0.00  -0.00  -0.00    -0.00   0.00   0.00     0.00  -0.00   0.00
  91   6    -0.00  -0.06   0.01     0.00   0.02  -0.00    -0.00  -0.00   0.00
  92   6    -0.10  -0.01   0.01     0.02   0.00  -0.00    -0.01  -0.00   0.00
  93   6    -0.00   0.00  -0.00     0.00  -0.00   0.00    -0.00   0.00  -0.00
  94   7     0.00   0.00  -0.00    -0.00  -0.00   0.00     0.00   0.00  -0.00
  95   6    -0.00  -0.00   0.00     0.00  -0.00   0.00     0.00  -0.00   0.00
  96   6    -0.00  -0.00   0.00     0.00   0.00  -0.00     0.00   0.00  -0.00
  97   6    -0.09   0.01  -0.01     0.11  -0.01   0.01     0.01  -0.00   0.00
  98   6    -0.00   0.05  -0.01     0.00  -0.07   0.01     0.00  -0.00   0.00
  99   6     0.00   0.00   0.00    -0.00  -0.00  -0.00    -0.00   0.00  -0.00
 100   7     0.00  -0.00   0.00    -0.00   0.00  -0.00     0.00   0.00   0.00
 101   6    -0.00   0.00  -0.00     0.00  -0.00   0.00    -0.00  -0.00   0.00
 102   6     0.00  -0.00   0.00     0.00   0.00   0.00     0.00  -0.00   0.00
 103   7     0.00   0.00   0.00     0.00   0.00  -0.00     0.00   0.00   0.00
 104   1     0.00   0.01  -0.00     0.01   0.05  -0.00     0.02   0.19  -0.00
 105   1     0.01   0.00   0.00     0.08   0.01   0.01     0.36   0.04   0.03
 106   1    -0.04   0.00   0.00    -0.03   0.00   0.00     0.47  -0.06  -0.04
 107   1    -0.00   0.02  -0.00    -0.00   0.02  -0.00     0.02  -0.25   0.00
 108   1    -0.00   0.01  -0.00     0.00   0.00   0.00    -0.00  -0.01   0.00
 109   1     0.02   0.19  -0.03    -0.00  -0.05   0.01     0.00   0.01  -0.00
 110   1     0.34   0.03  -0.04    -0.08  -0.01   0.01     0.03   0.00  -0.00
 111   1     0.29  -0.03   0.03    -0.37   0.04  -0.04    -0.02   0.00  -0.00
 112   1     0.02  -0.16   0.03    -0.02   0.21  -0.04    -0.00   0.01  -0.00
 113   1    -0.00  -0.00   0.00     0.00   0.01  -0.00    -0.00   0.00  -0.00
 114  28    -0.00   0.00   0.00     0.00   0.00   0.00    -0.00  -0.00  -0.00
 115   6     0.00   0.06   0.01    -0.00  -0.06  -0.01     0.00   0.02   0.00
 116   6     0.10   0.01   0.01    -0.10  -0.01  -0.01     0.03   0.00   0.00
 117   6     0.00  -0.00  -0.00    -0.00   0.00   0.00     0.00  -0.00  -0.00
 118   6     0.00  -0.00  -0.00    -0.00  -0.00  -0.00     0.00   0.00   0.00
 119   6     0.00   0.00   0.00    -0.00  -0.00  -0.00     0.00   0.00   0.00
 120   6     0.11  -0.01  -0.01    -0.05   0.00   0.01     0.01  -0.00  -0.00
 121   6     0.00  -0.07  -0.01    -0.00   0.03   0.00     0.00  -0.00  -0.00
 122   6    -0.00  -0.00   0.00     0.00   0.00  -0.00    -0.00  -0.00   0.00
 123   7    -0.00   0.00   0.00     0.00  -0.00  -0.00    -0.00   0.00   0.00
 124   6     0.00  -0.00  -0.00    -0.00  -0.00  -0.00    -0.00   0.00   0.00
 125   6     0.00  -0.00  -0.00     0.00  -0.00  -0.00     0.00   0.00  -0.00
 126   6    -0.00  -0.05   0.00    -0.00  -0.06   0.00    -0.00  -0.01   0.00
 127   6    -0.08  -0.01   0.01    -0.10  -0.01   0.01    -0.01  -0.00   0.00
 128   6    -0.00   0.00   0.00    -0.00   0.00   0.00    -0.00   0.00   0.00
 129   7     0.00   0.00  -0.00     0.00   0.00  -0.00     0.00   0.00  -0.00
 130   6    -0.00  -0.00   0.00    -0.00  -0.00   0.00    -0.00   0.00  -0.00
 131   6     0.00   0.00   0.00     0.00   0.00   0.00    -0.00  -0.00  -0.00
 132   6     0.05  -0.00   0.01     0.07  -0.01   0.01    -0.03   0.00  -0.00
 133   6     0.00  -0.03   0.00     0.00  -0.04   0.00    -0.00   0.01  -0.00
 134   6    -0.00  -0.00  -0.00    -0.00  -0.00  -0.00     0.00   0.00   0.00
 135   7    -0.00   0.00  -0.00    -0.00   0.00  -0.00     0.00  -0.00   0.00
 136   6     0.00   0.00   0.00    -0.00  -0.00  -0.00     0.00   0.00   0.00
 137   6    -0.00   0.00  -0.00     0.00  -0.00   0.00    -0.00   0.00  -0.00
 138   7    -0.00  -0.00  -0.00     0.00   0.00   0.00    -0.00  -0.00  -0.00
 139   1    -0.02  -0.18  -0.03     0.02   0.18   0.03    -0.00  -0.05  -0.01
 140   1    -0.33  -0.03  -0.04     0.31   0.03   0.04    -0.09  -0.01  -0.01
 141   1    -0.36   0.04   0.04     0.17  -0.02  -0.02    -0.02   0.00   0.00
 142   1    -0.02   0.21   0.04     0.01  -0.09  -0.01    -0.00   0.01   0.00
 143   1     0.00   0.01   0.00    -0.00   0.00   0.00     0.00  -0.00  -0.00
 144   1     0.01   0.14  -0.00     0.02   0.18  -0.00     0.00   0.02  -0.00
 145   1     0.26   0.03  -0.02     0.34   0.04  -0.03     0.04   0.00  -0.00
 146   1    -0.17   0.02  -0.02    -0.24   0.03  -0.02     0.08  -0.01   0.01
 147   1    -0.01   0.09  -0.00    -0.01   0.12  -0.00     0.00  -0.04   0.00
 148   1     0.00  -0.00  -0.00    -0.00   0.01   0.00     0.00  -0.00  -0.00
                    436                    437                    438
                        a                      a                      a 
 Frequencies --  3173.2529              3173.6025              3174.3825
 Red. masses --     1.9581                 1.9594                 1.9574
 Frc consts  --     0.0000                 0.0000                 0.0000
 IR Inten    --     5.0211                30.0355                78.6128
 Raman Activ --     0.0000                 0.0000                 0.0000
 Depolar     --     0.0000                 0.0000                 0.0000
 Atom AN      X      Y      Z        X      Y      Z        X      Y      Z
   1  28    -0.00   0.00   0.00     0.00   0.00  -0.00    -0.00  -0.00   0.00
   2   6     0.00  -0.00   0.00    -0.00   0.01  -0.00    -0.00   0.00  -0.00
   3   6     0.00  -0.00   0.00    -0.02   0.00  -0.00    -0.00   0.00  -0.00
   4   6     0.00   0.00  -0.00    -0.00  -0.00   0.00    -0.00  -0.00   0.00
   5   6     0.00   0.00  -0.00    -0.00  -0.00   0.00     0.00  -0.00  -0.00
   6   6     0.00  -0.00   0.00    -0.00   0.00  -0.00    -0.00   0.00  -0.00
   7   6     0.01   0.00  -0.00    -0.03  -0.00   0.00    -0.01  -0.00   0.00
   8   6     0.00   0.01  -0.00    -0.00  -0.01   0.01    -0.00  -0.00   0.00
   9   6    -0.00   0.00   0.00     0.00  -0.00   0.00     0.00   0.00  -0.00
  10   7    -0.00  -0.00   0.00     0.00   0.00  -0.00     0.00   0.00  -0.00
  11   6     0.00   0.00  -0.00    -0.00  -0.00   0.00    -0.00  -0.00   0.00
  12   6    -0.00  -0.00   0.00    -0.00  -0.00  -0.00    -0.00  -0.00   0.00
  13   6     0.00  -0.00   0.00     0.00  -0.00   0.00     0.00  -0.00   0.00
  14   6     0.00  -0.00   0.00     0.00   0.00  -0.00     0.00  -0.00   0.00
  15   6     0.00   0.00   0.00     0.00   0.00  -0.00     0.00   0.00  -0.00
  16   7    -0.00  -0.00  -0.00     0.00   0.00  -0.00    -0.00   0.00  -0.00
  17   6     0.00  -0.00  -0.00    -0.00  -0.00  -0.00     0.00   0.00   0.00
  18   6    -0.00   0.00  -0.00     0.00  -0.00   0.00     0.00  -0.00   0.00
  19   6    -0.00  -0.00  -0.00    -0.00  -0.00   0.00     0.00   0.00   0.00
  20   6     0.00  -0.00   0.00     0.00   0.00  -0.00     0.00   0.00  -0.00
  21   6     0.00  -0.00   0.00    -0.00   0.00  -0.00    -0.00   0.00  -0.00
  22   7    -0.00   0.00  -0.00     0.00  -0.00   0.00    -0.00  -0.00   0.00
  23   6    -0.00  -0.00   0.00    -0.00   0.00  -0.00    -0.00   0.00  -0.00
  24   6    -0.00  -0.00   0.00     0.00   0.00  -0.00     0.00  -0.00   0.00
  25   7    -0.00   0.00  -0.00     0.00  -0.00   0.00     0.00  -0.00   0.00
  26   1    -0.00   0.00  -0.00     0.00  -0.03   0.01     0.00  -0.01   0.00
  27   1    -0.00   0.00  -0.00     0.07  -0.00   0.01     0.02  -0.00   0.00
  28   1    -0.04  -0.00   0.00     0.09   0.01  -0.01     0.02   0.00  -0.00
  29   1    -0.00  -0.02   0.01     0.00   0.04  -0.02     0.00   0.01  -0.00
  30   1     0.00  -0.00   0.00    -0.00   0.00  -0.00     0.00   0.00  -0.00
  31   1    -0.00   0.00  -0.00    -0.00   0.00  -0.00    -0.00   0.01  -0.00
  32   1    -0.00   0.00  -0.00    -0.00   0.00  -0.00    -0.01   0.00  -0.00
  33   1    -0.00  -0.00  -0.00     0.00   0.00   0.00    -0.00  -0.00  -0.00
  34   1     0.00   0.00   0.00     0.00   0.00  -0.00    -0.01  -0.00  -0.00
  35   1     0.00   0.00  -0.00    -0.00  -0.00   0.00    -0.00  -0.01   0.00
  36   1     0.00   0.00  -0.00    -0.00  -0.00   0.00     0.00  -0.00   0.00
  37  28    -0.00  -0.00   0.00    -0.00  -0.00  -0.00    -0.00   0.00  -0.00
  38   6     0.00  -0.01  -0.00     0.00  -0.06  -0.02    -0.00   0.00   0.00
  39   6     0.01  -0.00  -0.00     0.11  -0.01  -0.01    -0.01   0.00   0.00
  40   6     0.00   0.00   0.00     0.00   0.00   0.00    -0.00  -0.00  -0.00
  41   6     0.00  -0.00  -0.00     0.00   0.00   0.00     0.00  -0.00   0.00
  42   6     0.00  -0.00  -0.00     0.00  -0.00  -0.00    -0.00   0.00   0.00
  43   6    -0.00  -0.00  -0.00     0.15   0.01   0.01    -0.01  -0.00  -0.00
  44   6     0.00   0.00   0.00     0.00   0.07   0.03    -0.00  -0.00  -0.00
  45   6    -0.00   0.00   0.00    -0.00   0.00   0.00     0.00   0.00   0.00
  46   7    -0.00   0.00  -0.00    -0.00  -0.00  -0.00     0.00   0.00   0.00
  47   6    -0.00   0.00   0.00     0.00   0.00   0.00    -0.00  -0.00  -0.00
  48   6     0.00   0.00   0.00     0.00  -0.00  -0.00    -0.00  -0.00  -0.00
  49   6    -0.00   0.00   0.00    -0.00   0.00   0.00     0.00  -0.00  -0.00
  50   6    -0.00   0.00   0.00    -0.00   0.00   0.00     0.00  -0.00  -0.00
  51   6    -0.00  -0.00  -0.00    -0.00  -0.00  -0.00     0.00   0.00   0.00
  52   7     0.00  -0.00  -0.00    -0.00  -0.00  -0.00    -0.00   0.00   0.00
  53   6     0.00   0.00  -0.00     0.00   0.00  -0.00     0.00   0.00  -0.00
  54   6     0.00   0.00   0.00    -0.00   0.00   0.00     0.00  -0.00  -0.00
  55   6    -0.00   0.00  -0.00    -0.00  -0.00   0.00     0.00   0.00  -0.00
  56   6    -0.00  -0.00  -0.00    -0.00  -0.00  -0.00     0.00   0.00   0.00
  57   6     0.00   0.00   0.00     0.00   0.00   0.00    -0.00   0.00   0.00
  58   7    -0.00   0.00  -0.00    -0.00   0.00   0.00    -0.00  -0.00  -0.00
  59   6     0.00  -0.00  -0.00     0.00  -0.00  -0.00    -0.00   0.00   0.00
  60   6    -0.00  -0.00   0.00    -0.00  -0.00  -0.00     0.00  -0.00  -0.00
  61   7    -0.00   0.00   0.00    -0.00   0.00   0.00     0.00  -0.00  -0.00
  62   1    -0.00   0.02   0.01    -0.02   0.17   0.08     0.00  -0.01  -0.00
  63   1    -0.04   0.00   0.00    -0.38   0.03   0.04     0.02  -0.00  -0.00
  64   1     0.00   0.00   0.00    -0.49  -0.04  -0.05     0.03   0.00   0.00
  65   1    -0.00  -0.00  -0.00    -0.02  -0.22  -0.09     0.00   0.01   0.01
  66   1     0.00  -0.00  -0.00     0.00  -0.01  -0.00     0.00   0.00   0.00
  67   1     0.00  -0.00  -0.00     0.00  -0.01  -0.00    -0.00   0.01   0.00
  68   1     0.00  -0.00  -0.00     0.01  -0.00  -0.00    -0.01   0.00   0.00
  69   1    -0.00   0.00  -0.00    -0.00  -0.00   0.00    -0.00  -0.00   0.00
  70   1     0.00   0.00  -0.00     0.00   0.00  -0.00    -0.01  -0.00   0.00
  71   1     0.00   0.00   0.00     0.00   0.01   0.00    -0.00  -0.01  -0.00
  72   1     0.00   0.00   0.00     0.00   0.00   0.00     0.00  -0.00  -0.00
  73   6     0.00   0.00   0.00    -0.00  -0.00   0.00     0.00  -0.00   0.00
  74   6     0.00  -0.00   0.00    -0.00   0.00  -0.00    -0.00   0.00   0.00
  75   6    -0.00  -0.00  -0.00    -0.00   0.00   0.00    -0.00   0.00   0.00
  76   6    -0.00   0.00  -0.00     0.00  -0.00   0.00    -0.00  -0.00  -0.00
  77   6     0.00   0.00   0.00     0.00  -0.00  -0.00    -0.00   0.00   0.00
  78   6     0.00  -0.00   0.00     0.00   0.00   0.00     0.00   0.00  -0.00
  79  28     0.00   0.00  -0.00     0.00  -0.00   0.00     0.00  -0.00  -0.00
  80   6    -0.00  -0.01   0.00    -0.00  -0.02   0.00    -0.00  -0.00   0.00
  81   6    -0.01  -0.00  -0.00    -0.03  -0.00  -0.00    -0.01  -0.00  -0.00
  82   6    -0.00   0.00  -0.00    -0.00   0.00  -0.00    -0.00   0.00  -0.00
  83   6     0.00  -0.00  -0.00    -0.00   0.00  -0.00     0.00   0.00  -0.00
  84   6     0.00   0.00  -0.00    -0.00  -0.00   0.00    -0.00  -0.00   0.00
  85   6     0.03  -0.00  -0.00    -0.04   0.00   0.00    -0.01   0.00   0.00
  86   6     0.00  -0.02   0.00    -0.00   0.02  -0.00    -0.00   0.00  -0.00
  87   6    -0.00   0.00   0.00     0.00   0.00  -0.00     0.00   0.00   0.00
  88   7    -0.00   0.00   0.00     0.00  -0.00  -0.00     0.00  -0.00  -0.00
  89   6    -0.00  -0.00   0.00    -0.00   0.00  -0.00    -0.00  -0.00   0.00
  90   6     0.00  -0.00  -0.00     0.00  -0.00   0.00     0.00  -0.00  -0.00
  91   6    -0.00  -0.08   0.01    -0.00  -0.01   0.00    -0.00  -0.07   0.01
  92   6    -0.15  -0.01   0.02    -0.01  -0.00   0.00    -0.13  -0.01   0.01
  93   6    -0.00   0.00  -0.00    -0.00   0.00  -0.00    -0.00   0.00  -0.00
  94   7     0.00   0.00  -0.00     0.00   0.00  -0.00     0.00   0.00  -0.00
  95   6    -0.00  -0.00   0.00    -0.00   0.00  -0.00    -0.00   0.00  -0.00
  96   6     0.00   0.00  -0.00    -0.00  -0.00   0.00    -0.00  -0.00   0.00
  97   6     0.12  -0.01   0.01    -0.02   0.00  -0.00    -0.14   0.01  -0.01
  98   6     0.00  -0.06   0.01    -0.00   0.01  -0.00    -0.00   0.07  -0.01
  99   6    -0.00  -0.00  -0.00     0.00   0.00  -0.00     0.00   0.00   0.00
 100   7    -0.00   0.00  -0.00     0.00  -0.00   0.00     0.00  -0.00   0.00
 101   6     0.00  -0.00   0.00    -0.00  -0.00   0.00    -0.00   0.00  -0.00
 102   6     0.00   0.00   0.00     0.00  -0.00   0.00     0.00  -0.00  -0.00
 103   7     0.00   0.00   0.00     0.00   0.00   0.00     0.00  -0.00   0.00
 104   1     0.00   0.03  -0.00     0.01   0.05  -0.00     0.00   0.01  -0.00
 105   1     0.04   0.00   0.00     0.09   0.01   0.01     0.02   0.00   0.00
 106   1    -0.09   0.01   0.01     0.12  -0.01  -0.01     0.03  -0.00  -0.00
 107   1    -0.01   0.06  -0.00     0.01  -0.07   0.00     0.00  -0.01   0.00
 108   1    -0.00   0.01  -0.00    -0.00  -0.00   0.00    -0.00   0.00  -0.00
 109   1     0.02   0.24  -0.04     0.00   0.02  -0.00     0.02   0.21  -0.04
 110   1     0.48   0.04  -0.05     0.04   0.00  -0.00     0.43   0.04  -0.05
 111   1    -0.40   0.04  -0.05     0.06  -0.01   0.01     0.45  -0.04   0.05
 112   1    -0.02   0.19  -0.03     0.00  -0.03   0.01     0.02  -0.21   0.04
 113   1     0.00   0.01  -0.00    -0.00   0.00  -0.00    -0.00  -0.00   0.00
 114  28    -0.00  -0.00  -0.00    -0.00   0.00   0.00     0.00   0.00   0.00
 115   6     0.00   0.06   0.01     0.00   0.00   0.00    -0.00  -0.07  -0.01
 116   6     0.12   0.01   0.01    -0.00  -0.00  -0.00    -0.13  -0.01  -0.01
 117   6     0.00  -0.00  -0.00     0.00   0.00   0.00    -0.00   0.00   0.00
 118   6     0.00   0.00   0.00    -0.00  -0.00  -0.00    -0.00  -0.00  -0.00
 119   6    -0.00  -0.00  -0.00     0.00   0.00  -0.00    -0.00  -0.00  -0.00
 120   6    -0.12   0.01   0.01     0.00  -0.00  -0.00    -0.12   0.01   0.01
 121   6    -0.00   0.06   0.01     0.00  -0.00  -0.00    -0.00   0.06   0.01
 122   6     0.00   0.00  -0.00    -0.00  -0.00  -0.00     0.00   0.00  -0.00
 123   7     0.00  -0.00  -0.00    -0.00  -0.00   0.00     0.00  -0.00  -0.00
 124   6    -0.00   0.00   0.00     0.00   0.00   0.00    -0.00   0.00   0.00
 125   6    -0.00  -0.00   0.00    -0.00   0.00   0.00     0.00  -0.00   0.00
 126   6     0.00   0.02  -0.00     0.00   0.06  -0.00    -0.00  -0.01   0.00
 127   6     0.02   0.00  -0.00     0.11   0.01  -0.01    -0.01  -0.00   0.00
 128   6     0.00  -0.00  -0.00     0.00  -0.00  -0.00    -0.00   0.00   0.00
 129   7    -0.00  -0.00   0.00    -0.00  -0.00   0.00     0.00   0.00  -0.00
 130   6     0.00   0.00  -0.00     0.00  -0.00   0.00     0.00  -0.00   0.00
 131   6    -0.00  -0.00  -0.00     0.00   0.00   0.00    -0.00  -0.00  -0.00
 132   6    -0.01   0.00  -0.00     0.13  -0.01   0.01    -0.01   0.00  -0.00
 133   6    -0.00   0.01  -0.00     0.00  -0.07   0.00    -0.00   0.00   0.00
 134   6     0.00  -0.00   0.00    -0.00  -0.00  -0.00     0.00   0.00  -0.00
 135   7     0.00  -0.00   0.00    -0.00   0.00  -0.00     0.00   0.00   0.00
 136   6     0.00   0.00   0.00     0.00  -0.00  -0.00    -0.00  -0.00  -0.00
 137   6    -0.00   0.00  -0.00     0.00   0.00   0.00     0.00  -0.00   0.00
 138   7    -0.00  -0.00  -0.00    -0.00   0.00  -0.00     0.00   0.00   0.00
 139   1    -0.02  -0.19  -0.03    -0.00  -0.00  -0.00     0.02   0.21   0.04
 140   1    -0.40  -0.04  -0.05     0.00   0.00   0.00     0.43   0.04   0.05
 141   1     0.39  -0.04  -0.05    -0.02   0.00   0.00     0.38  -0.04  -0.05
 142   1     0.02  -0.19  -0.03    -0.00   0.01   0.00     0.02  -0.18  -0.03
 143   1    -0.00  -0.01  -0.00     0.00  -0.00  -0.00    -0.00  -0.00  -0.00
 144   1    -0.00  -0.05   0.00    -0.02  -0.19   0.00     0.00   0.02  -0.00
 145   1    -0.07  -0.01   0.01    -0.35  -0.04   0.03     0.03   0.00  -0.00
 146   1     0.05  -0.01   0.00    -0.41   0.05  -0.04     0.03  -0.00   0.00
 147   1     0.00  -0.03   0.00    -0.02   0.22  -0.00     0.00  -0.01   0.00
 148   1     0.00  -0.01  -0.00     0.00   0.00   0.00    -0.00   0.00   0.00
