      -----------------------------------------------------------      
     |                   =====================                   |     
     |                           x T B                           |     
     |                   =====================                   |     
     |                         S. Grimme                         |     
     |          Mulliken Center for Theoretical Chemistry        |     
     |                    University of Bonn                     |     
      -----------------------------------------------------------      

   * xtb version 6.4.1 (bd6e46d) compiled by 'conda@4901f00b25ba' on 2021-06-10

   xtb is free software: you can redistribute it and/or modify it under
   the terms of the GNU Lesser General Public License as published by
   the Free Software Foundation, either version 3 of the License, or
   (at your option) any later version.
   
   xtb is distributed in the hope that it will be useful,
   but WITHOUT ANY WARRANTY; without even the implied warranty of
   MERCHANTABILITY or FITNESS FOR A PARTICULAR PURPOSE.  See the
   GNU Lesser General Public License for more details.
   
   Cite this work as:
   * C. Bannwarth, E. Caldeweyher, S. Ehlert, A. Hansen, P. Pracht,
     J. Seibert, S. Spicher, S. Grimme, WIREs Comput. Mol. Sci., 2020, 11,
     e01493. DOI: 10.1002/wcms.1493
   
   for GFN2-xTB:
   * C. Bannwarth, S. Ehlert and S. Grimme., J. Chem. Theory Comput., 2019,
     15, 1652-1671. DOI: 10.1021/acs.jctc.8b01176
   for GFN1-xTB:
   * S. Grimme, C. Bannwarth, P. Shushkov, J. Chem. Theory Comput., 2017,
     13, 1989-2009. DOI: 10.1021/acs.jctc.7b00118
   for GFN0-xTB:
   * P. Pracht, E. Caldeweyher, S. Ehlert, S. Grimme, ChemRxiv, 2019, preprint.
     DOI: 10.26434/chemrxiv.8326202.v1
   for GFN-FF:
   * S. Spicher and S. Grimme, Angew. Chem. Int. Ed., 2020, 59, 15665-15673.
     DOI: 10.1002/anie.202004239
   
   for DFT-D4:
   * E. Caldeweyher, C. Bannwarth and S. Grimme, J. Chem. Phys., 2017,
     147, 034112. DOI: 10.1063/1.4993215
   * E. Caldeweyher, S. Ehlert, A. Hansen, H. Neugebauer, S. Spicher,
     C. Bannwarth and S. Grimme, J. Chem. Phys., 2019, 150, 154122.
     DOI: 10.1063/1.5090222
   * E. Caldeweyher, J.-M. Mewes, S. Ehlert and S. Grimme, Phys. Chem. Chem. Phys.
     2020, 22, 8499-8512. DOI: 10.1039/D0CP00502A
   
   for sTDA-xTB:
   * S. Grimme and C. Bannwarth, J. Chem. Phys., 2016, 145, 054103.
     DOI: 10.1063/1.4959605
   
   in the mass-spec context:
   * V. Asgeirsson, C. Bauer and S. Grimme, Chem. Sci., 2017, 8, 4879.
     DOI: 10.1039/c7sc00601b
   * J. Koopman and S. Grimme, ACS Omega 2019, 4, 12, 15120-15133.
     DOI: 10.1021/acsomega.9b02011
   
   for metadynamics refer to:
   * S. Grimme, J. Chem. Theory Comput., 2019, 155, 2847-2862
     DOI: 10.1021/acs.jctc.9b00143
   
   for SPH calculations refer to:
   * S. Spicher and S. Grimme, J. Chem. Theory Comput., 2021, 17, 1701-1714
     DOI: 10.1021/acs.jctc.0c01306
   
   with help from (in alphabetical order)
   P. Atkinson, C. Bannwarth, F. Bohle, G. Brandenburg, E. Caldeweyher
   M. Checinski, S. Dohm, S. Ehlert, S. Ehrlich, I. Gerasimov, J. Koopman
   C. Lavigne, S. Lehtola, F. März, M. Müller, F. Musil, H. Neugebauer
   J. Pisarek, C. Plett, P. Pracht, J. Seibert, P. Shushkov, S. Spicher
   M. Stahn, M. Steiner, T. Strunk, J. Stückrath, T. Rose, and J. Unsleber
   
 * started run on 2021/11/19 at 12:16:12.501     

           -------------------------------------------------
          |                Calculation Setup                |
           -------------------------------------------------

          program call               : /home/jeff/miniconda3/bin/xtb input_structure_1.xyz --gfn 2 --ohess normal --parallel 1 --etemp 300 --chrg 0 --uhf 0 -I det_control.in
          hostname                   : jelfscompute1
          coordinate file            : input_structure_1.xyz
          omp threads                :                     1
          number of atoms            :                   148
          number of electrons        :                   506
          charge                     :                     0
          spin                       :                   0.0
          first test random number   :      0.47907571454523

   ID    Z sym.   atoms
    1   28 Ni     1, 37, 79, 114
    2    6 C      2-9, 11-15, 17-21, 23, 24, 38-45, 47-51, 53-57, 59, 60,
                  73-78, 80-87, 89-93, 95-99, 101, 102, 115-122, 124-128,
                  130-134, 136, 137
    3    7 N      10, 16, 22, 25, 46, 52, 58, 61, 88, 94, 100, 103, 123, 129,
                  135, 138
    4    1 H      26-36, 62-72, 104-113, 139-148

molecular fragmentation (1/2 indicates fragments):
111111111111111111111111111111111111222222222222222222222222222222222222
222222222222222222222222222222222222222222222222222222222222222222222222
2222
# atoms in fragment 1/2:    36   112
 fragment masses (1/2) :      366.02     1168.12
CMA distance (Bohr)    :  43.426
constraining FC (au)   :  0.0500

           -------------------------------------------------
          |                 G F N 2 - x T B                 |
           -------------------------------------------------

        Reference                      10.1021/acs.jctc.8b01176
      * Hamiltonian:
        H0-scaling (s, p, d)           1.850000    2.230000    2.230000
        zeta-weighting                 0.500000
      * Dispersion:
        s8                             2.700000
        a1                             0.520000
        a2                             5.000000
        s9                             5.000000
      * Repulsion:
        kExp                           1.500000    1.000000
        rExp                           1.000000
      * Coulomb:
        alpha                          2.000000
        third order                    shell-resolved
        anisotropic                    true
        a3                             3.000000
        a5                             4.000000
        cn-shift                       1.200000
        cn-exp                         4.000000
        max-rad                        5.000000


          ...................................................
          :                      SETUP                      :
          :.................................................:
          :  # basis functions                 490          :
          :  # atomic orbitals                 486          :
          :  # shells                          258          :
          :  # electrons                       506          :
          :  max. iterations                   250          :
          :  Hamiltonian                  GFN2-xTB          :
          :  restarted?                      false          :
          :  GBSA solvation                  false          :
          :  PC potential                    false          :
          :  electronic temp.          300.0000000     K    :
          :  accuracy                    1.0000000          :
          :  -> integral cutoff          0.2500000E+02      :
          :  -> integral neglect         0.1000000E-07      :
          :  -> SCF convergence          0.1000000E-05 Eh   :
          :  -> wf. convergence          0.1000000E-03 e    :
          :  Broyden damping             0.4000000          :
          ...................................................

 iter      E             dE          RMSdq      gap      omega  full diag
   1   -274.4544235 -0.274454E+03  0.870E+00    0.68       0.0  T
   2   -269.1837363  0.527069E+01  0.680E+00    0.01       1.0  T
   3   -180.6055855  0.885782E+02  0.129E+01    0.03       1.0  T
   4   -226.1412278 -0.455356E+02  0.793E+00    0.03       1.0  T
   5   -138.9205562  0.872207E+02  0.102E+01    0.11       1.0  T
   6    -74.8997085  0.640208E+02  0.121E+01    0.14       1.0  T
   7   -260.7903011 -0.185891E+03  0.719E+00    0.10       1.0  T
   8   -269.7243350 -0.893403E+01  0.418E+00    0.21       1.0  T
   9   -265.1781136  0.454622E+01  0.472E+00    0.03       1.0  T
  10   -271.6860332 -0.650792E+01  0.403E+00    0.01       1.0  T
  11   -273.4114107 -0.172538E+01  0.264E+00    0.26       1.0  T
  12   -273.7480823 -0.336672E+00  0.280E+00    0.10       1.0  T
  13   -274.9485705 -0.120049E+01  0.184E+00    0.39       1.0  T
  14   -275.0335295 -0.849590E-01  0.163E+00    0.23       1.0  T
  15   -275.0661880 -0.326586E-01  0.155E+00    0.23       1.0  T
  16   -275.0887848 -0.225968E-01  0.149E+00    0.25       1.0  T
  17   -275.1191910 -0.304062E-01  0.124E+00    0.12       1.0  T
  18   -274.2909579  0.828233E+00  0.242E+00    0.09       1.0  T
  19   -272.7209449  0.157001E+01  0.386E+00    0.01       1.0  T
  20   -273.5259325 -0.804988E+00  0.331E+00    0.01       1.0  T
  21   -273.9773679 -0.451435E+00  0.290E+00    0.03       1.0  T
  22   -274.0026756 -0.253077E-01  0.287E+00    0.02       1.0  T
  23   -269.1629761  0.483970E+01  0.594E+00    0.05       1.0  T
  24   -269.1721346 -0.915852E-02  0.593E+00    0.05       1.0  T
  25   -269.1439323  0.282024E-01  0.595E+00    0.07       1.0  T
  26   -268.2699840  0.873948E+00  0.609E+00    0.02       1.0  T
  27   -269.0800365 -0.810052E+00  0.593E+00    0.06       1.0  T
  28   -269.0764486  0.358784E-02  0.594E+00    0.06       1.0  T
  29   -267.7652163  0.131123E+01  0.635E+00    0.02       1.0  T
  30   -269.2772753 -0.151206E+01  0.603E+00    0.07       1.0  T
  31   -265.1747033  0.410257E+01  0.734E+00    0.02       1.0  T
  32   -264.9001966  0.274507E+00  0.740E+00    0.10       1.0  T
  33   -266.8294968 -0.192930E+01  0.703E+00    0.04       1.0  T
  34   -265.0212528  0.180824E+01  0.761E+00    0.03       1.0  T
  35   -265.0398838 -0.186310E-01  0.762E+00    0.04       1.0  T
  36   -264.6616557  0.378228E+00  0.783E+00    0.01       1.0  T
  37   -264.8191875 -0.157532E+00  0.783E+00    0.02       1.0  T
  38   -264.8868126 -0.676252E-01  0.785E+00    0.04       1.0  T
  39   -265.0265755 -0.139763E+00  0.788E+00    0.06       1.0  T
  40   -267.5008123 -0.247424E+01  0.718E+00    0.01       1.0  T
  41   -269.0097707 -0.150896E+01  0.658E+00    0.04       1.0  T
  42   -269.2765678 -0.266797E+00  0.645E+00    0.04       1.0  T
  43   -268.1955698  0.108100E+01  0.692E+00    0.04       1.0  T
  44   -269.0044100 -0.808840E+00  0.660E+00    0.06       1.0  T
  45   -268.1960895  0.808321E+00  0.735E+00    0.02       1.0  T
  46   -266.0291114  0.216698E+01  0.854E+00    0.09       1.0  T
  47   -266.0162866  0.128248E-01  0.856E+00    0.09       1.0  T
  48   -266.3326603 -0.316374E+00  0.841E+00    0.07       1.0  T
  49   -267.4473039 -0.111464E+01  0.789E+00    0.02       1.0  T
  50   -267.1148349  0.332469E+00  0.803E+00    0.03       1.0  T
  51   -268.0755031 -0.960668E+00  0.756E+00    0.01       1.0  T
  52   -267.6657658  0.409737E+00  0.776E+00    0.02       1.0  T
  53   -269.3952908 -0.172952E+01  0.669E+00    0.04       1.0  T
  54   -271.4428892 -0.204760E+01  0.547E+00    0.02       1.0  T
  55   -271.4918447 -0.489554E-01  0.544E+00    0.02       1.0  T
  56   -271.7968573 -0.305013E+00  0.528E+00    0.02       1.0  T
  57   -271.6947791  0.102078E+00  0.534E+00    0.02       1.0  T
  58   -272.4836489 -0.788870E+00  0.489E+00    0.03       1.0  T
  59   -272.9897935 -0.506145E+00  0.462E+00    0.02       1.0  T
  60   -273.1944352 -0.204642E+00  0.452E+00    0.01       1.0  T
  61   -273.1947681 -0.332945E-03  0.452E+00    0.01       1.0  T
  62   -273.6033459 -0.408578E+00  0.433E+00    0.03       1.0  T
  63   -273.5408136  0.625323E-01  0.436E+00    0.03       1.0  T
  64   -273.5437516 -0.293800E-02  0.436E+00    0.03       1.0  T
  65   -273.6339580 -0.902064E-01  0.431E+00    0.04       1.0  T
  66   -273.7216371 -0.876791E-01  0.424E+00    0.04       1.0  T
  67   -273.7162780  0.535915E-02  0.424E+00    0.04       1.0  T
  68   -273.6132065  0.103071E+00  0.414E+00    0.02       1.0  T
  69   -273.7682209 -0.155014E+00  0.389E+00    0.03       1.0  T
  70   -273.7846851 -0.164642E-01  0.384E+00    0.02       1.0  T
  71   -274.2298746 -0.445190E+00  0.321E+00    0.02       1.0  T
  72   -274.3632505 -0.133376E+00  0.300E+00    0.01       1.0  T
  73   -274.6799884 -0.316738E+00  0.250E+00    0.01       1.0  T
  74   -274.9156760 -0.235688E+00  0.210E+00    0.00       1.0  T
  75   -274.9539999 -0.383239E-01  0.202E+00    0.01       1.0  T
  76   -274.9768077 -0.228078E-01  0.204E+00    0.02       1.0  T
  77   -274.9263167  0.504910E-01  0.212E+00    0.01       1.0  T
  78   -275.0883757 -0.162059E+00  0.170E+00    0.03       1.0  T
  79   -275.0762472  0.121284E-01  0.141E+00    0.02       1.0  T
  80   -275.1199653 -0.437180E-01  0.125E+00    0.03       1.0  T
  81   -275.1832783 -0.633130E-01  0.105E+00    0.05       1.0  T
  82   -275.1694849  0.137933E-01  0.104E+00    0.04       1.0  T
  83   -275.1931358 -0.236509E-01  0.101E+00    0.05       1.0  T
  84   -275.1361181  0.570177E-01  0.122E+00    0.03       1.0  T
  85   -275.1760671 -0.399490E-01  0.100E+00    0.05       1.0  T
  86   -275.1677290  0.833804E-02  0.103E+00    0.05       1.0  T
  87   -275.1767278 -0.899878E-02  0.101E+00    0.05       1.0  T
  88   -275.1751279  0.159986E-02  0.101E+00    0.05       1.0  T
  89   -275.1732930  0.183498E-02  0.102E+00    0.05       1.0  T
  90   -275.1882163 -0.149234E-01  0.994E-01    0.05       1.0  T
  91   -275.1859564  0.225996E-02  0.101E+00    0.05       1.0  T
  92   -275.1789531  0.700327E-02  0.101E+00    0.05       1.0  T
  93   -275.1966150 -0.176619E-01  0.930E-01    0.05       1.0  T
  94   -275.1987354 -0.212044E-02  0.874E-01    0.05       1.0  T
  95   -275.2180379 -0.193025E-01  0.715E-01    0.07       1.0  T
  96   -275.2277971 -0.975923E-02  0.627E-01    0.07       1.0  T
  97   -275.2423222 -0.145251E-01  0.515E-01    0.07       1.0  T
  98   -275.2503122 -0.798993E-02  0.417E-01    0.08       1.0  T
  99   -275.2601316 -0.981941E-02  0.330E-01    0.09       1.0  T
 100   -275.2715407 -0.114092E-01  0.234E-01    0.11       1.0  T
 101   -275.2748089 -0.326819E-02  0.198E-01    0.12       1.0  T
 102   -275.2772779 -0.246901E-02  0.164E-01    0.12       1.0  T
 103   -275.2786883 -0.141041E-02  0.126E-01    0.13       1.0  T
 104   -275.2792472 -0.558829E-03  0.115E-01    0.13       1.0  T
 105   -275.2795195 -0.272330E-03  0.107E-01    0.13       1.0  T
 106   -275.2794613  0.582020E-04  0.108E-01    0.13       1.0  T
 107   -275.2792354  0.225930E-03  0.107E-01    0.13       1.0  T
 108   -275.2791970  0.383507E-04  0.103E-01    0.13       1.0  T
 109   -275.2793947 -0.197635E-03  0.942E-02    0.13       1.0  T
 110   -275.2797110 -0.316300E-03  0.876E-02    0.13       1.0  T
 111   -275.2799197 -0.208785E-03  0.834E-02    0.14       1.0  T
 112   -275.2802953 -0.375538E-03  0.723E-02    0.14       1.0  T
 113   -275.2806199 -0.324602E-03  0.606E-02    0.14       1.0  T
 114   -275.2809630 -0.343079E-03  0.466E-02    0.15       1.0  T
 115   -275.2812136 -0.250686E-03  0.321E-02    0.16       1.0  T
 116   -275.2813539 -0.140229E-03  0.197E-02    0.16       1.0  T
 117   -275.2813920 -0.381630E-04  0.144E-02    0.16       1.0  T
 118   -275.2814082 -0.161442E-04  0.112E-02    0.17       1.0  T
 119   -275.2814172 -0.906396E-05  0.819E-03    0.17       1.0  T
 120   -275.2814211 -0.382928E-05  0.611E-03    0.17       1.3  T
 121   -275.2814224 -0.134597E-05  0.417E-03    0.17       2.0  T
 122   -275.2814231 -0.692047E-06  0.289E-03    0.17       2.8  T
 123   -275.2814233 -0.157111E-06  0.204E-03    0.17       4.0  T
 124   -275.2814233 -0.684913E-07  0.150E-03    0.17       5.5  T
 125   -275.2814234 -0.438841E-07  0.124E-03    0.17       6.7  T
 126   -275.2814234 -0.566907E-07  0.103E-03    0.17       8.0  T
 127   -275.2814235 -0.579187E-07  0.914E-04    0.17       9.0  T
 128   -275.2814235 -0.436482E-07  0.755E-04    0.17      10.9  T

   *** convergence criteria satisfied after 128 iterations ***

         #    Occupation            Energy/Eh            Energy/eV
      -------------------------------------------------------------
         1        2.0000           -0.6882256             -18.7276
       ...           ...                  ...                  ...
       247        2.0000           -0.3491298              -9.5003
       248        1.9995           -0.3461804              -9.4200
       249        1.9990           -0.3454350              -9.3998
       250        1.9988           -0.3452761              -9.3954
       251        1.9973           -0.3445193              -9.3748
       252        1.9662           -0.3421127              -9.3094
       253        1.9188           -0.3412550              -9.2860 (HOMO)
       254        0.0631           -0.3349978              -9.1158 (LUMO)
       255        0.0572           -0.3349011              -9.1131
       256        0.0001           -0.3290499              -8.9539
       257        0.0001           -0.3288516              -8.9485
       258                         -0.3221752              -8.7668
       ...                                ...                  ...
       486                          1.4330035              38.9940
      -------------------------------------------------------------
                  HL-Gap            0.0062572 Eh            0.1703 eV
             Fermi-level           -0.3382509 Eh           -9.2043 eV

 SCC (total)                   0 d,  0 h,  0 min,  6.924 sec
 SCC setup                      ...        0 min,  0.004 sec (  0.058%)
 Dispersion                     ...        0 min,  0.008 sec (  0.122%)
 classical contributions        ...        0 min,  0.001 sec (  0.016%)
 integral evaluation            ...        0 min,  0.075 sec (  1.084%)
 iterations                     ...        0 min,  6.604 sec ( 95.382%)
 molecular gradient             ...        0 min,  0.225 sec (  3.252%)
 printout                       ...        0 min,  0.006 sec (  0.086%)

         :::::::::::::::::::::::::::::::::::::::::::::::::::::
         ::                     SUMMARY                     ::
         :::::::::::::::::::::::::::::::::::::::::::::::::::::
         :: total energy            -270.664277901543 Eh    ::
         :: gradient norm              0.716629423673 Eh/a0 ::
         :: HOMO-LUMO gap              0.170267354258 eV    ::
         ::.................................................::
         :: SCC energy              -275.281423537940 Eh    ::
         :: -> isotropic ES            0.140744771739 Eh    ::
         :: -> anisotropic ES          0.019801490352 Eh    ::
         :: -> anisotropic XC          0.124492939324 Eh    ::
         :: -> dispersion             -0.236228012166 Eh    ::
         :: repulsion energy           4.616480891795 Eh    ::
         :: add. restraining           0.000000000000 Eh    ::
         :: total charge              -0.000000000133 e     ::
         :::::::::::::::::::::::::::::::::::::::::::::::::::::

      ----------------------------------------------------------- 
     |                   =====================                   |
     |                        A N C O P T                        |
     |                   =====================                   |
     |               Approximate Normal Coordinate               |
     |                Rational Function Optimizer                |
      ----------------------------------------------------------- 

          ...................................................
          :                      SETUP                      :
          :.................................................:
          :   optimization level            normal          :
          :   max. optcycles                   444          :
          :   ANC micro-cycles                  20          :
          :   degrees of freedom               438          :
          :.................................................:
          :   RF solver                   davidson          :
          :   write xtbopt.log                true          :
          :   linear?                        false          :
          :   energy convergence         0.5000000E-05 Eh   :
          :   grad. convergence          0.1000000E-02 Eh/α :
          :   maximium RF displ.         1.0000000          :
          :   Hlow (freq-cutoff)         0.1000000E-01      :
          :   Hmax (freq-cutoff)         5.0000000          :
          :   S6 in model hess.         20.0000000          :
          ...................................................

generating ANC from model Hessian ...
Using Lindh-Hessian (1995)
 Shifting diagonal of input Hessian by    1.0025105231916163E-002
 Lowest  eigenvalues of input Hessian
    0.010000    0.010002    0.010003    0.010007    0.010013    0.010016
    0.010017    0.010021    0.000000    0.000000    0.000000    0.000000
    0.000000    0.000000    0.010031    0.010034    0.010068    0.010091
 Highest eigenvalues
    2.203901    2.203901    2.210995    2.393222    2.512584    2.732931


........................................................................
.............................. CYCLE    1 ..............................
........................................................................
   1   -275.2814236 -0.275281E+03  0.482E-04    0.17       0.0  T
   2   -275.2814232  0.339469E-06  0.161E-03    0.17       5.1  T
   3   -275.2814235 -0.248273E-06  0.100E-03    0.17       8.2  T
   4   -275.2814233  0.179764E-06  0.160E-03    0.17       5.1  T
   5   -275.2814234 -0.704912E-07  0.118E-03    0.17       7.0  T
   6   -275.2814236 -0.227231E-06  0.254E-04    0.17      32.3  T
   7   -275.2814236  0.987239E-08  0.232E-04    0.17      35.4  T
     SCC iter.                  ...        0 min,  0.361 sec
     gradient                   ...        0 min,  0.225 sec
 * total energy  :  -270.6642780 Eh     change       -0.5614567E-07 Eh
   gradient norm :     0.7166327 Eh/α   predicted     0.0000000E+00 (-100.00%)
   displ. norm   :     0.5851675 α      lambda       -0.3195578E+00
   maximum displ.:     0.1798027 α      in ANC's #151, #149, #150, ...

........................................................................
.............................. CYCLE    2 ..............................
........................................................................
   1   -275.2695992 -0.275270E+03  0.397E-01    0.18       0.0  T
   2   -275.2560014  0.135979E-01  0.365E-01    0.16       1.0  T
   3   -275.2441831  0.118183E-01  0.425E-01    0.10       1.0  T
   4   -275.2735490 -0.293659E-01  0.225E-01    0.23       1.0  T
   5   -275.2175366  0.560124E-01  0.553E-01    0.06       1.0  T
   6   -275.2792788 -0.617422E-01  0.154E-01    0.19       1.0  T
   7   -275.2818169 -0.253813E-02  0.108E-01    0.24       1.0  T
   8   -275.2823867 -0.569818E-03  0.948E-02    0.22       1.0  T
   9   -275.2828496 -0.462856E-03  0.837E-02    0.24       1.0  T
  10   -275.2828385  0.110544E-04  0.752E-02    0.23       1.0  T
  11   -275.2829483 -0.109722E-03  0.602E-02    0.20       1.0  T
  12   -275.2832647 -0.316468E-03  0.436E-02    0.20       1.0  T
  13   -275.2833943 -0.129592E-03  0.416E-02    0.20       1.0  T
  14   -275.2833590  0.353742E-04  0.388E-02    0.20       1.0  T
  15   -275.2834555 -0.965472E-04  0.321E-02    0.19       1.0  T
  16   -275.2835174 -0.619087E-04  0.269E-02    0.20       1.0  T
  17   -275.2835396 -0.221828E-04  0.226E-02    0.20       1.0  T
  18   -275.2835853 -0.456920E-04  0.171E-02    0.20       1.0  T
  19   -275.2836061 -0.208282E-04  0.127E-02    0.20       1.0  T
  20   -275.2836139 -0.781152E-05  0.105E-02    0.20       1.0  T
  21   -275.2836256 -0.117085E-04  0.564E-03    0.20       1.5  T
  22   -275.2836291 -0.342744E-05  0.295E-03    0.20       2.8  T
  23   -275.2836301 -0.103636E-05  0.141E-03    0.20       5.8  T
  24   -275.2836303 -0.251758E-06  0.562E-04    0.20      14.6  T
  25   -275.2836304 -0.508853E-07  0.729E-05    0.20     112.7  T
     SCC iter.                  ...        0 min,  1.276 sec
     gradient                   ...        0 min,  0.225 sec
 * total energy  :  -270.9193314 Eh     change       -0.2550535E+00 Eh
   gradient norm :     0.3977225 Eh/α   predicted    -0.2145679E+00 ( -15.87%)
   displ. norm   :     0.6867985 α      lambda       -0.2117061E+00
   maximum displ.:     0.2277853 α      in ANC's #151, #149, #150, ...

........................................................................
.............................. CYCLE    3 ..............................
........................................................................
   1   -275.3200684 -0.275320E+03  0.424E-01    0.20       0.0  T
   2   -275.3138106  0.625778E-02  0.344E-01    0.30       1.0  T
   3   -275.3127230  0.108762E-02  0.335E-01    0.19       1.0  T
   4   -275.3179626 -0.523962E-02  0.295E-01    0.22       1.0  T
   5   -275.3328364 -0.148739E-01  0.974E-02    0.25       1.0  T
   6   -275.3340749 -0.123851E-02  0.531E-02    0.25       1.0  T
   7   -275.3342794 -0.204496E-03  0.407E-02    0.22       1.0  T
   8   -275.3344017 -0.122224E-03  0.322E-02    0.26       1.0  T
   9   -275.3344565 -0.548613E-04  0.238E-02    0.23       1.0  T
  10   -275.3345336 -0.770987E-04  0.138E-02    0.24       1.0  T
  11   -275.3345483 -0.146371E-04  0.952E-03    0.24       1.0  T
  12   -275.3345463  0.191455E-05  0.978E-03    0.23       1.0  T
  13   -275.3345598 -0.134299E-04  0.489E-03    0.24       1.7  T
  14   -275.3345644 -0.458282E-05  0.192E-03    0.24       4.3  T
  15   -275.3345648 -0.404421E-06  0.112E-03    0.24       7.3  T
  16   -275.3345647  0.240814E-07  0.914E-04    0.24       9.0  T
  17   -275.3345649 -0.112450E-06  0.722E-04    0.24      11.4  T
     SCC iter.                  ...        0 min,  0.872 sec
     gradient                   ...        0 min,  0.225 sec
 * total energy  :  -271.0809031 Eh     change       -0.1615716E+00 Eh
   gradient norm :     0.1735448 Eh/α   predicted    -0.1557831E+00 (  -3.58%)
   displ. norm   :     0.7633358 α      lambda       -0.1142656E+00
   maximum displ.:     0.2493347 α      in ANC's #151, #149, #150, ...

........................................................................
.............................. CYCLE    4 ..............................
........................................................................
   1   -275.4067024 -0.275407E+03  0.383E-01    0.25       0.0  T
   2   -275.4074487 -0.746341E-03  0.241E-01    0.40       1.0  T
   3   -275.4065386  0.910124E-03  0.214E-01    0.28       1.0  T
   4   -275.3953922  0.111464E-01  0.289E-01    0.27       1.0  T
   5   -275.4118280 -0.164358E-01  0.790E-02    0.31       1.0  T
   6   -275.4127879 -0.959959E-03  0.399E-02    0.34       1.0  T
   7   -275.4130432 -0.255238E-03  0.218E-02    0.31       1.0  T
   8   -275.4130267  0.164595E-04  0.196E-02    0.32       1.0  T
   9   -275.4130473 -0.205933E-04  0.162E-02    0.32       1.0  T
  10   -275.4130889 -0.416145E-04  0.773E-03    0.32       1.1  T
  11   -275.4130984 -0.946649E-05  0.371E-03    0.32       2.2  T
  12   -275.4130984 -0.674552E-07  0.296E-03    0.32       2.8  T
  13   -275.4130998 -0.139588E-05  0.147E-03    0.32       5.6  T
  14   -275.4131000 -0.162687E-06  0.102E-03    0.32       8.1  T
  15   -275.4131001 -0.139444E-06  0.597E-04    0.32      13.8  T
  16   -275.4131002 -0.170160E-07  0.423E-04    0.32      19.5  T
     SCC iter.                  ...        0 min,  0.821 sec
     gradient                   ...        0 min,  0.225 sec
 * total energy  :  -271.1754151 Eh     change       -0.9451208E-01 Eh
   gradient norm :     0.1085861 Eh/α   predicted    -0.9042321E-01 (  -4.33%)
   displ. norm   :     0.8233067 α      lambda       -0.8191259E-01
   maximum displ.:     0.2340731 α      in ANC's #77, #151, #74, ...

........................................................................
.............................. CYCLE    5 ..............................
........................................................................
   1   -275.4814590 -0.275481E+03  0.382E-01    0.38       0.0  T
   2   -275.4813582  0.100788E-03  0.238E-01    0.50       1.0  T
   3   -275.4692561  0.121021E-01  0.302E-01    0.49       1.0  T
   4   -275.4765514 -0.729527E-02  0.211E-01    0.43       1.0  T
   5   -275.4840623 -0.751094E-02  0.711E-02    0.46       1.0  T
   6   -275.4850815 -0.101924E-02  0.292E-02    0.49       1.0  T
   7   -275.4851374 -0.558257E-04  0.199E-02    0.48       1.0  T
   8   -275.4850394  0.979121E-04  0.257E-02    0.48       1.0  T
   9   -275.4851654 -0.125951E-03  0.813E-03    0.49       1.0  T
  10   -275.4851765 -0.110998E-04  0.360E-03    0.48       2.3  T
  11   -275.4851780 -0.150043E-05  0.195E-03    0.48       4.2  T
  12   -275.4851779  0.144033E-06  0.146E-03    0.48       5.6  T
  13   -275.4851783 -0.487503E-06  0.643E-04    0.48      12.8  T
  14   -275.4851784 -0.366946E-07  0.436E-04    0.48      18.9  T
     SCC iter.                  ...        0 min,  0.718 sec
     gradient                   ...        0 min,  0.225 sec
 * total energy  :  -271.2470337 Eh     change       -0.7161854E-01 Eh
   gradient norm :     0.0937851 Eh/α   predicted    -0.6871887E-01 (  -4.05%)
   displ. norm   :     0.8656067 α      lambda       -0.6692466E-01
   maximum displ.:     0.2689895 α      in ANC's #74, #77, #46, ...

........................................................................
.............................. CYCLE    6 ..............................
........................................................................
   1   -275.5453524 -0.275545E+03  0.389E-01    0.64       0.0  T
   2   -275.5428516  0.250079E-02  0.268E-01    0.72       1.0  T
   3   -275.5265029  0.163487E-01  0.354E-01    0.77       1.0  T
   4   -275.5450178 -0.185149E-01  0.141E-01    0.72       1.0  T
   5   -275.5473625 -0.234470E-02  0.685E-02    0.72       1.0  T
   6   -275.5482413 -0.878809E-03  0.301E-02    0.76       1.0  T
   7   -275.5482047  0.365896E-04  0.269E-02    0.74       1.0  T
   8   -275.5482589 -0.541980E-04  0.174E-02    0.74       1.0  T
   9   -275.5483182 -0.592683E-04  0.488E-03    0.74       1.7  T
  10   -275.5483206 -0.241492E-05  0.267E-03    0.74       3.1  T
  11   -275.5483214 -0.809050E-06  0.145E-03    0.74       5.7  T
  12   -275.5483215 -0.111369E-06  0.940E-04    0.74       8.7  T
  13   -275.5483217 -0.161034E-06  0.423E-04    0.74      19.5  T
     SCC iter.                  ...        0 min,  0.668 sec
     gradient                   ...        0 min,  0.226 sec
 * total energy  :  -271.3076804 Eh     change       -0.6064671E-01 Eh
   gradient norm :     0.0805047 Eh/α   predicted    -0.5853482E-01 (  -3.48%)
   displ. norm   :     0.9090487 α      lambda       -0.5924160E-01
   maximum displ.:     0.2847791 α      in ANC's #74, #46, #13, ...

........................................................................
.............................. CYCLE    7 ..............................
........................................................................
   1   -275.5973053 -0.275597E+03  0.392E-01    1.00       0.0  T
   2   -275.5950466  0.225870E-02  0.273E-01    1.08       1.0  T
   3   -275.5841042  0.109423E-01  0.321E-01    1.12       1.0  T
   4   -275.5987351 -0.146309E-01  0.955E-02    1.10       1.0  T
   5   -275.5993859 -0.650840E-03  0.518E-02    1.11       1.0  T
   6   -275.5997262 -0.340289E-03  0.321E-02    1.13       1.0  T
   7   -275.5997684 -0.421783E-04  0.190E-02    1.11       1.0  T
   8   -275.5998024 -0.340388E-04  0.103E-02    1.11       1.0  T
   9   -275.5998236 -0.211533E-04  0.407E-03    1.12       2.0  T
  10   -275.5998255 -0.187518E-05  0.217E-03    1.12       3.8  T
  11   -275.5998260 -0.476394E-06  0.126E-03    1.12       6.5  T
  12   -275.5998261 -0.178742E-06  0.751E-04    1.12      10.9  T
  13   -275.5998262 -0.681106E-07  0.426E-04    1.12      19.3  T
     SCC iter.                  ...        0 min,  0.666 sec
     gradient                   ...        0 min,  0.226 sec
 * total energy  :  -271.3637593 Eh     change       -0.5607889E-01 Eh
   gradient norm :     0.0714699 Eh/α   predicted    -0.5409854E-01 (  -3.53%)
   displ. norm   :     0.9537888 α      lambda       -0.5793144E-01
   maximum displ.:     0.3173686 α      in ANC's #13, #46, #74, ...

........................................................................
.............................. CYCLE    8 ..............................
........................................................................
   1   -275.6368045 -0.275637E+03  0.384E-01    1.23       0.0  T
   2   -275.6354945  0.130999E-02  0.267E-01    1.29       1.0  T
   3   -275.6267650  0.872950E-02  0.291E-01    1.26       1.0  T
   4   -275.6383556 -0.115906E-01  0.731E-02    1.26       1.0  T
   5   -275.6386477 -0.292098E-03  0.385E-02    1.29       1.0  T
   6   -275.6386482 -0.439726E-06  0.299E-02    1.28       1.0  T
   7   -275.6387658 -0.117635E-03  0.140E-02    1.28       1.0  T
   8   -275.6387940 -0.281566E-04  0.493E-03    1.28       1.7  T
   9   -275.6387963 -0.229914E-05  0.294E-03    1.28       2.8  T
  10   -275.6387971 -0.817736E-06  0.177E-03    1.28       4.6  T
  11   -275.6387974 -0.355129E-06  0.999E-04    1.28       8.2  T
  12   -275.6387975 -0.543887E-07  0.645E-04    1.28      12.8  T
     SCC iter.                  ...        0 min,  0.615 sec
     gradient                   ...        0 min,  0.226 sec
 * total energy  :  -271.4201377 Eh     change       -0.5637842E-01 Eh
   gradient norm :     0.0690896 Eh/α   predicted    -0.5531623E-01 (  -1.88%)
   displ. norm   :     0.9663865 α      lambda       -0.5800524E-01
   maximum displ.:     0.3547987 α      in ANC's #13, #46, #30, ...

........................................................................
.............................. CYCLE    9 ..............................
........................................................................
   1   -275.6718675 -0.275672E+03  0.339E-01    1.27       0.0  T
   2   -275.6708813  0.986162E-03  0.249E-01    1.30       1.0  T
   3   -275.6640803  0.680101E-02  0.249E-01    1.27       1.0  T
   4   -275.6727673 -0.868703E-02  0.647E-02    1.26       1.0  T
   5   -275.6730489 -0.281535E-03  0.403E-02    1.28       1.0  T
   6   -275.6731950 -0.146107E-03  0.255E-02    1.27       1.0  T
   7   -275.6732451 -0.501272E-04  0.127E-02    1.28       1.0  T
   8   -275.6732681 -0.230310E-04  0.421E-03    1.28       2.0  T
   9   -275.6732696 -0.142697E-05  0.271E-03    1.28       3.0  T
  10   -275.6732703 -0.788529E-06  0.161E-03    1.28       5.1  T
  11   -275.6732707 -0.330457E-06  0.799E-04    1.28      10.3  T
  12   -275.6732707 -0.324046E-07  0.559E-04    1.28      14.7  T
     SCC iter.                  ...        0 min,  0.616 sec
     gradient                   ...        0 min,  0.226 sec
 * total energy  :  -271.4762767 Eh     change       -0.5613897E-01 Eh
   gradient norm :     0.0672191 Eh/α   predicted    -0.5608832E-01 (  -0.09%)
   displ. norm   :     0.9419938 α      lambda       -0.5352510E-01
   maximum displ.:     0.3923085 α      in ANC's #13, #20, #30, ...

........................................................................
.............................. CYCLE   10 ..............................
........................................................................
   1   -275.7041144 -0.275704E+03  0.274E-01    1.25       0.0  T
   2   -275.7028386  0.127584E-02  0.225E-01    1.26       1.0  T
   3   -275.7004588  0.237973E-02  0.184E-01    1.23       1.0  T
   4   -275.7048170 -0.435814E-02  0.534E-02    1.22       1.0  T
   5   -275.7050817 -0.264716E-03  0.334E-02    1.24       1.0  T
   6   -275.7051217 -0.400337E-04  0.219E-02    1.23       1.0  T
   7   -275.7051469 -0.252217E-04  0.132E-02    1.24       1.0  T
   8   -275.7051912 -0.442260E-04  0.451E-03    1.24       1.8  T
   9   -275.7051952 -0.401623E-05  0.208E-03    1.24       4.0  T
  10   -275.7051955 -0.287430E-06  0.124E-03    1.24       6.6  T
  11   -275.7051957 -0.190615E-06  0.513E-04    1.24      16.0  T
  12   -275.7051957 -0.143355E-07  0.319E-04    1.24      25.7  T
     SCC iter.                  ...        0 min,  0.616 sec
     gradient                   ...        0 min,  0.226 sec
 * total energy  :  -271.5207059 Eh     change       -0.4442927E-01 Eh
   gradient norm :     0.0654595 Eh/α   predicted    -0.5051036E-01 (  13.69%)
   displ. norm   :     0.8251454 α      lambda       -0.3727908E-01
   maximum displ.:     0.4090404 α      in ANC's #13, #20, #30, ...

........................................................................
.............................. CYCLE   11 ..............................
........................................................................
   1   -275.7359348 -0.275736E+03  0.212E-01    1.24       0.0  T
   2   -275.7355729  0.361896E-03  0.157E-01    1.27       1.0  T
   3   -275.7311331  0.443989E-02  0.147E-01    1.24       1.0  T
   4   -275.7361646 -0.503152E-02  0.418E-02    1.25       1.0  T
   5   -275.7363490 -0.184429E-03  0.228E-02    1.26       1.0  T
   6   -275.7363076  0.414358E-04  0.169E-02    1.26       1.0  T
   7   -275.7363547 -0.471567E-04  0.777E-03    1.26       1.1  T
   8   -275.7363696 -0.148715E-04  0.255E-03    1.26       3.2  T
   9   -275.7363701 -0.485074E-06  0.164E-03    1.26       5.0  T
  10   -275.7363702 -0.162830E-06  0.915E-04    1.26       9.0  T
  11   -275.7363703 -0.202526E-07  0.656E-04    1.26      12.5  T
     SCC iter.                  ...        0 min,  0.566 sec
     gradient                   ...        0 min,  0.226 sec
 * total energy  :  -271.5528289 Eh     change       -0.3212293E-01 Eh
   gradient norm :     0.0555184 Eh/α   predicted    -0.3133066E-01 (  -2.47%)
   displ. norm   :     0.8309383 α      lambda       -0.3396848E-01
   maximum displ.:     0.4609454 α      in ANC's #13, #20, #30, ...

........................................................................
.............................. CYCLE   12 ..............................
........................................................................
   1   -275.8114345 -0.275811E+03  0.201E-01    1.27       0.0  T
   2   -275.8113667  0.677821E-04  0.133E-01    1.29       1.0  T
   3   -275.8074243  0.394240E-02  0.105E-01    1.27       1.0  T
   4   -275.8113848 -0.396045E-02  0.342E-02    1.28       1.0  T
   5   -275.8116000 -0.215241E-03  0.191E-02    1.29       1.0  T
   6   -275.8115962  0.381556E-05  0.117E-02    1.29       1.0  T
   7   -275.8116104 -0.142254E-04  0.631E-03    1.28       1.3  T
   8   -275.8116199 -0.950790E-05  0.213E-03    1.28       3.9  T
   9   -275.8116202 -0.254888E-06  0.141E-03    1.28       5.8  T
  10   -275.8116203 -0.984303E-07  0.897E-04    1.28       9.2  T
  11   -275.8116203 -0.340694E-07  0.538E-04    1.28      15.3  T
     SCC iter.                  ...        0 min,  0.566 sec
     gradient                   ...        0 min,  0.227 sec
 * total energy  :  -271.5820024 Eh     change       -0.2917358E-01 Eh
   gradient norm :     0.0475528 Eh/α   predicted    -0.2871117E-01 (  -1.59%)
   displ. norm   :     0.8875026 α      lambda       -0.2862396E-01
   maximum displ.:     0.5367669 α      in ANC's #13, #20, #30, ...

........................................................................
.............................. CYCLE   13 ..............................
........................................................................
   1   -275.8738588 -0.275874E+03  0.149E-01    1.27       0.0  T
   2   -275.8737741  0.846812E-04  0.104E-01    1.27       1.0  T
   3   -275.8715622  0.221192E-02  0.954E-02    1.27       1.0  T
   4   -275.8739088 -0.234666E-02  0.240E-02    1.27       1.0  T
   5   -275.8739847 -0.758975E-04  0.140E-02    1.27       1.0  T
   6   -275.8739712  0.134968E-04  0.104E-02    1.27       1.0  T
   7   -275.8739924 -0.211373E-04  0.375E-03    1.27       2.2  T
   8   -275.8739947 -0.232528E-05  0.139E-03    1.27       5.9  T
   9   -275.8739948 -0.653098E-07  0.976E-04    1.27       8.4  T
  10   -275.8739949 -0.107408E-06  0.577E-04    1.27      14.2  T
     SCC iter.                  ...        0 min,  0.515 sec
     gradient                   ...        0 min,  0.227 sec
 * total energy  :  -271.6076271 Eh     change       -0.2562466E-01 Eh
   gradient norm :     0.0447243 Eh/α   predicted    -0.2558498E-01 (  -0.15%)
   displ. norm   :     0.9088737 α      lambda       -0.2619007E-01
   maximum displ.:     0.5460606 α      in ANC's #13, #20, #18, ...

........................................................................
.............................. CYCLE   14 ..............................
........................................................................
   1   -275.9071795 -0.275907E+03  0.139E-01    1.27       0.0  T
   2   -275.9070230  0.156492E-03  0.991E-02    1.27       1.0  T
   3   -275.9048098  0.221317E-02  0.906E-02    1.27       1.0  T
   4   -275.9072297 -0.241989E-02  0.234E-02    1.27       1.0  T
   5   -275.9073355 -0.105831E-03  0.124E-02    1.27       1.0  T
   6   -275.9073332  0.239117E-05  0.894E-03    1.27       1.0  T
   7   -275.9073434 -0.102811E-04  0.428E-03    1.27       1.9  T
   8   -275.9073463 -0.288336E-05  0.182E-03    1.27       4.5  T
   9   -275.9073467 -0.339049E-06  0.112E-03    1.27       7.4  T
  10   -275.9073467 -0.634107E-07  0.732E-04    1.27      11.2  T
  11   -275.9073467 -0.276478E-07  0.395E-04    1.27      20.8  T
     SCC iter.                  ...        0 min,  0.567 sec
     gradient                   ...        0 min,  0.227 sec
 * total energy  :  -271.6308605 Eh     change       -0.2323345E-01 Eh
   gradient norm :     0.0437050 Eh/α   predicted    -0.2391220E-01 (   2.92%)
   displ. norm   :     0.9111187 α      lambda       -0.2360466E-01
   maximum displ.:     0.5715167 α      in ANC's #13, #20, #18, ...

........................................................................
.............................. CYCLE   15 ..............................
........................................................................
   1   -275.9525035 -0.275953E+03  0.129E-01    1.22       0.0  T
   2   -275.9524843  0.192014E-04  0.857E-02    1.23       1.0  T
   3   -275.9512305  0.125387E-02  0.742E-02    1.22       1.0  T
   4   -275.9525119 -0.128139E-02  0.200E-02    1.22       1.0  T
   5   -275.9525823 -0.704429E-04  0.102E-02    1.22       1.0  T
   6   -275.9525806  0.171053E-05  0.716E-03    1.23       1.1  T
   7   -275.9525855 -0.492981E-05  0.382E-03    1.22       2.2  T
   8   -275.9525887 -0.317114E-05  0.121E-03    1.22       6.8  T
   9   -275.9525888 -0.147216E-06  0.689E-04    1.22      11.9  T
  10   -275.9525888 -0.225157E-08  0.451E-04    1.22      18.2  T
     SCC iter.                  ...        0 min,  0.516 sec
     gradient                   ...        0 min,  0.227 sec
 * total energy  :  -271.6519650 Eh     change       -0.2110443E-01 Eh
   gradient norm :     0.0294554 Eh/α   predicted    -0.2159989E-01 (   2.35%)
   displ. norm   :     0.9254834 α      lambda       -0.2097881E-01
   maximum displ.:     0.5892310 α      in ANC's #13, #20, #18, ...

........................................................................
.............................. CYCLE   16 ..............................
........................................................................
   1   -275.9831924 -0.275983E+03  0.135E-01    1.19       0.0  T
   2   -275.9831701  0.223387E-04  0.874E-02    1.19       1.0  T
   3   -275.9817332  0.143682E-02  0.698E-02    1.19       1.0  T
   4   -275.9831861 -0.145283E-02  0.182E-02    1.19       1.0  T
   5   -275.9832632 -0.771230E-04  0.969E-03    1.19       1.0  T
   6   -275.9832657 -0.250899E-05  0.697E-03    1.19       1.2  T
   7   -275.9832700 -0.426137E-05  0.342E-03    1.19       2.4  T
   8   -275.9832718 -0.180390E-05  0.120E-03    1.19       6.9  T
   9   -275.9832719 -0.165400E-06  0.660E-04    1.19      12.5  T
  10   -275.9832720 -0.249438E-07  0.443E-04    1.19      18.6  T
     SCC iter.                  ...        0 min,  0.515 sec
     gradient                   ...        0 min,  0.267 sec
 * total energy  :  -271.6703024 Eh     change       -0.1833741E-01 Eh
   gradient norm :     0.0337598 Eh/α   predicted    -0.1947378E-01 (   6.20%)
   displ. norm   :     0.9246541 α      lambda       -0.1979266E-01
   maximum displ.:     0.5752480 α      in ANC's #13, #20, #18, ...

........................................................................
.............................. CYCLE   17 ..............................
........................................................................
   1   -276.0036350 -0.276004E+03  0.158E-01    1.19       0.0  T
   2   -276.0035647  0.703273E-04  0.103E-01    1.19       1.0  T
   3   -276.0010445  0.252021E-02  0.934E-02    1.19       1.0  T
   4   -276.0036541 -0.260961E-02  0.211E-02    1.19       1.0  T
   5   -276.0037311 -0.770706E-04  0.126E-02    1.19       1.0  T
   6   -276.0037355 -0.434389E-05  0.867E-03    1.19       1.0  T
   7   -276.0037427 -0.725070E-05  0.361E-03    1.19       2.3  T
   8   -276.0037448 -0.208314E-05  0.171E-03    1.19       4.8  T
   9   -276.0037452 -0.417906E-06  0.807E-04    1.19      10.2  T
  10   -276.0037453 -0.203368E-07  0.567E-04    1.19      14.5  T
     SCC iter.                  ...        0 min,  0.517 sec
     gradient                   ...        0 min,  0.228 sec
 * total energy  :  -271.6870719 Eh     change       -0.1676952E-01 Eh
   gradient norm :     0.0372720 Eh/α   predicted    -0.1835754E-01 (   9.47%)
   displ. norm   :     0.8989592 α      lambda       -0.1779793E-01
   maximum displ.:     0.5668060 α      in ANC's #13, #20, #18, ...

........................................................................
.............................. CYCLE   18 ..............................
........................................................................
   1   -276.0359044 -0.276036E+03  0.145E-01    1.17       0.0  T
   2   -276.0358778  0.265438E-04  0.973E-02    1.17       1.0  T
   3   -276.0344483  0.142952E-02  0.819E-02    1.17       1.0  T
   4   -276.0359255 -0.147722E-02  0.218E-02    1.17       1.0  T
   5   -276.0359788 -0.533002E-04  0.144E-02    1.17       1.0  T
   6   -276.0359757  0.310190E-05  0.955E-03    1.17       1.0  T
   7   -276.0359938 -0.180920E-04  0.338E-03    1.17       2.4  T
   8   -276.0359967 -0.287679E-05  0.148E-03    1.17       5.6  T
   9   -276.0359970 -0.297257E-06  0.775E-04    1.17      10.6  T
  10   -276.0359970 -0.242816E-07  0.465E-04    1.17      17.7  T
     SCC iter.                  ...        0 min,  0.516 sec
     gradient                   ...        0 min,  0.228 sec
 * total energy  :  -271.7025103 Eh     change       -0.1543836E-01 Eh
   gradient norm :     0.0371983 Eh/α   predicted    -0.1609047E-01 (   4.22%)
   displ. norm   :     0.9017114 α      lambda       -0.1707481E-01
   maximum displ.:     0.5830048 α      in ANC's #13, #20, #18, ...

........................................................................
.............................. CYCLE   19 ..............................
........................................................................
   1   -276.0673829 -0.276067E+03  0.137E-01    1.15       0.0  T
   2   -276.0673074  0.755585E-04  0.955E-02    1.15       1.0  T
   3   -276.0661795  0.112792E-02  0.871E-02    1.15       1.0  T
   4   -276.0674630 -0.128355E-02  0.188E-02    1.15       1.0  T
   5   -276.0674997 -0.366905E-04  0.125E-02    1.15       1.0  T
   6   -276.0674991  0.623024E-06  0.855E-03    1.15       1.0  T
   7   -276.0675090 -0.996009E-05  0.304E-03    1.15       2.7  T
   8   -276.0675114 -0.236560E-05  0.136E-03    1.15       6.0  T
   9   -276.0675117 -0.312932E-06  0.764E-04    1.15      10.8  T
  10   -276.0675118 -0.372902E-07  0.464E-04    1.15      17.7  T
     SCC iter.                  ...        0 min,  0.516 sec
     gradient                   ...        0 min,  0.228 sec
 * total energy  :  -271.7169876 Eh     change       -0.1447737E-01 Eh
   gradient norm :     0.0317435 Eh/α   predicted    -0.1547904E-01 (   6.92%)
   displ. norm   :     0.9100443 α      lambda       -0.1544269E-01
   maximum displ.:     0.5794798 α      in ANC's #13, #20, #18, ...

........................................................................
.............................. CYCLE   20 ..............................
........................................................................
   1   -276.0883339 -0.276088E+03  0.145E-01    1.16       0.0  T
   2   -276.0883437 -0.984237E-05  0.923E-02    1.16       1.0  T
   3   -276.0874228  0.920959E-03  0.564E-02    1.16       1.0  T
   4   -276.0882943 -0.871466E-03  0.221E-02    1.16       1.0  T
   5   -276.0883990 -0.104700E-03  0.121E-02    1.16       1.0  T
   6   -276.0884021 -0.310691E-05  0.817E-03    1.16       1.0  T
   7   -276.0884091 -0.702961E-05  0.307E-03    1.16       2.7  T
   8   -276.0884105 -0.137874E-05  0.169E-03    1.16       4.9  T
   9   -276.0884110 -0.546723E-06  0.795E-04    1.16      10.3  T
  10   -276.0884110 -0.190533E-07  0.547E-04    1.16      15.0  T
     SCC iter.                  ...        0 min,  0.517 sec
     gradient                   ...        0 min,  0.228 sec
 * total energy  :  -271.7303921 Eh     change       -0.1340444E-01 Eh
   gradient norm :     0.0273118 Eh/α   predicted    -0.1411602E-01 (   5.31%)
   displ. norm   :     0.9183210 α      lambda       -0.1457683E-01
   maximum displ.:     0.5764855 α      in ANC's #13, #20, #18, ...
 * RMSD in coord.:     1.1081627 α      energy gain  -0.1066114E+01 Eh

generating ANC from model Hessian ...
Using Lindh-Hessian (1995)
 Shifting diagonal of input Hessian by    1.0003334749772779E-002
 Lowest  eigenvalues of input Hessian
    0.010000    0.010002    0.000000    0.000000    0.000000    0.000000
    0.000000    0.000000    0.010003    0.010004    0.010007    0.010010
    0.010015    0.010022    0.010079    0.010255    0.010435    0.010505
 Highest eigenvalues
    2.115725    2.115742    2.117875    2.482756    2.490410    2.515134


........................................................................
.............................. CYCLE   21 ..............................
........................................................................
   1   -276.1080556 -0.276108E+03  0.153E-01    1.17       0.0  T
   2   -276.1080126  0.429993E-04  0.101E-01    1.17       1.0  T
   3   -276.1064397  0.157291E-02  0.880E-02    1.17       1.0  T
   4   -276.1080968 -0.165711E-02  0.205E-02    1.17       1.0  T
   5   -276.1081414 -0.446142E-04  0.141E-02    1.17       1.0  T
   6   -276.1081563 -0.148740E-04  0.881E-03    1.17       1.0  T
   7   -276.1081638 -0.754979E-05  0.373E-03    1.17       2.2  T
   8   -276.1081661 -0.223039E-05  0.180E-03    1.17       4.6  T
   9   -276.1081666 -0.535656E-06  0.873E-04    1.17       9.4  T
  10   -276.1081667 -0.422060E-07  0.595E-04    1.17      13.8  T
     SCC iter.                  ...        0 min,  0.514 sec
     gradient                   ...        0 min,  0.229 sec
 * total energy  :  -271.7422733 Eh     change       -0.1188128E-01 Eh
   gradient norm :     0.0351567 Eh/α   predicted     0.0000000E+00 (-100.00%)
   displ. norm   :     0.6287675 α      lambda       -0.9550858E-02
   maximum displ.:     0.3607938 α      in ANC's #15, #18, #21, ...

........................................................................
.............................. CYCLE   22 ..............................
........................................................................
   1   -276.1336363 -0.276134E+03  0.857E-02    1.16       0.0  T
   2   -276.1336316  0.469932E-05  0.544E-02    1.16       1.0  T
   3   -276.1332609  0.370684E-03  0.409E-02    1.16       1.0  T
   4   -276.1336464 -0.385539E-03  0.929E-03    1.16       1.0  T
   5   -276.1336564 -0.994037E-05  0.578E-03    1.16       1.4  T
   6   -276.1336563  0.999016E-07  0.383E-03    1.16       2.1  T
   7   -276.1336578 -0.149199E-05  0.138E-03    1.16       6.0  T
   8   -276.1336581 -0.279326E-06  0.689E-04    1.16      11.9  T
   9   -276.1336581 -0.404356E-07  0.420E-04    1.16      19.6  T
     SCC iter.                  ...        0 min,  0.464 sec
     gradient                   ...        0 min,  0.229 sec
 * total energy  :  -271.7512123 Eh     change       -0.8938966E-02 Eh
   gradient norm :     0.0199807 Eh/α   predicted    -0.6663689E-02 ( -25.45%)
   displ. norm   :     0.8891736 α      lambda       -0.1180298E-01
   maximum displ.:     0.4951090 α      in ANC's #15, #18, #21, ...

........................................................................
.............................. CYCLE   23 ..............................
........................................................................
   1   -276.1614366 -0.276161E+03  0.114E-01    1.15       0.0  T
   2   -276.1614303  0.628137E-05  0.721E-02    1.15       1.0  T
   3   -276.1608180  0.612272E-03  0.516E-02    1.15       1.0  T
   4   -276.1614537 -0.635649E-03  0.121E-02    1.15       1.0  T
   5   -276.1614698 -0.161256E-04  0.792E-03    1.15       1.0  T
   6   -276.1614708 -0.102410E-05  0.495E-03    1.15       1.7  T
   7   -276.1614732 -0.244448E-05  0.176E-03    1.15       4.7  T
   8   -276.1614736 -0.399834E-06  0.931E-04    1.15       8.8  T
   9   -276.1614737 -0.859042E-07  0.532E-04    1.15      15.5  T
     SCC iter.                  ...        0 min,  0.464 sec
     gradient                   ...        0 min,  0.229 sec
 * total energy  :  -271.7622450 Eh     change       -0.1103268E-01 Eh
   gradient norm :     0.0148611 Eh/α   predicted    -0.1056739E-01 (  -4.22%)
   displ. norm   :     0.9200168 α      lambda       -0.1084952E-01
   maximum displ.:     0.5176924 α      in ANC's #15, #18, #21, ...

........................................................................
.............................. CYCLE   24 ..............................
........................................................................
   1   -276.1838992 -0.276184E+03  0.113E-01    1.14       0.0  T
   2   -276.1839007 -0.152186E-05  0.708E-02    1.14       1.0  T
   3   -276.1835222  0.378525E-03  0.383E-02    1.15       1.0  T
   4   -276.1839084 -0.386214E-03  0.116E-02    1.14       1.0  T
   5   -276.1839183 -0.985753E-05  0.841E-03    1.14       1.0  T
   6   -276.1839201 -0.187589E-05  0.523E-03    1.14       1.6  T
   7   -276.1839250 -0.488403E-05  0.154E-03    1.14       5.3  T
   8   -276.1839253 -0.299797E-06  0.963E-04    1.14       8.5  T
   9   -276.1839255 -0.186327E-06  0.458E-04    1.14      17.9  T
     SCC iter.                  ...        0 min,  0.464 sec
     gradient                   ...        0 min,  0.229 sec
 * total energy  :  -271.7725973 Eh     change       -0.1035225E-01 Eh
   gradient norm :     0.0197892 Eh/α   predicted    -0.1001667E-01 (  -3.24%)
   displ. norm   :     0.9285727 α      lambda       -0.1026783E-01
   maximum displ.:     0.5275366 α      in ANC's #15, #18, #21, ...

........................................................................
.............................. CYCLE   25 ..............................
........................................................................
   1   -276.2048301 -0.276205E+03  0.112E-01    1.14       0.0  T
   2   -276.2048338 -0.373932E-05  0.707E-02    1.14       1.0  T
   3   -276.2045357  0.298183E-03  0.348E-02    1.14       1.0  T
   4   -276.2048392 -0.303500E-03  0.122E-02    1.14       1.0  T
   5   -276.2048446 -0.540060E-05  0.897E-03    1.14       1.0  T
   6   -276.2048456 -0.103788E-05  0.581E-03    1.14       1.4  T
   7   -276.2048538 -0.822913E-05  0.140E-03    1.14       5.9  T
   8   -276.2048541 -0.265092E-06  0.836E-04    1.14       9.8  T
   9   -276.2048542 -0.127550E-06  0.406E-04    1.14      20.2  T
     SCC iter.                  ...        0 min,  0.463 sec
     gradient                   ...        0 min,  0.230 sec
 * total energy  :  -271.7824347 Eh     change       -0.9837414E-02 Eh
   gradient norm :     0.0177094 Eh/α   predicted    -0.9560811E-02 (  -2.81%)
   displ. norm   :     0.9387955 α      lambda       -0.9705711E-02
   maximum displ.:     0.5395738 α      in ANC's #15, #18, #21, ...

........................................................................
.............................. CYCLE   26 ..............................
........................................................................
   1   -276.2253290 -0.276225E+03  0.112E-01    1.13       0.0  T
   2   -276.2253339 -0.482022E-05  0.712E-02    1.13       1.0  T
   3   -276.2250510  0.282875E-03  0.357E-02    1.13       1.0  T
   4   -276.2253414 -0.290407E-03  0.130E-02    1.13       1.0  T
   5   -276.2253461 -0.467672E-05  0.934E-03    1.13       1.0  T
   6   -276.2253458  0.301253E-06  0.600E-03    1.13       1.4  T
   7   -276.2253539 -0.813249E-05  0.148E-03    1.13       5.6  T
   8   -276.2253543 -0.370463E-06  0.788E-04    1.13      10.4  T
   9   -276.2253544 -0.107309E-06  0.384E-04    1.13      21.4  T
     SCC iter.                  ...        0 min,  0.463 sec
     gradient                   ...        0 min,  0.231 sec
 * total energy  :  -271.7916807 Eh     change       -0.9246023E-02 Eh
   gradient norm :     0.0120525 Eh/α   predicted    -0.9129886E-02 (  -1.26%)
   displ. norm   :     0.9445725 α      lambda       -0.8945475E-02
   maximum displ.:     0.5496529 α      in ANC's #15, #18, #21, ...

........................................................................
.............................. CYCLE   27 ..............................
........................................................................
   1   -276.2454152 -0.276245E+03  0.112E-01    1.12       0.0  T
   2   -276.2454206 -0.538480E-05  0.714E-02    1.12       1.0  T
   3   -276.2451867  0.233808E-03  0.331E-02    1.13       1.0  T
   4   -276.2454291 -0.242388E-03  0.128E-02    1.12       1.0  T
   5   -276.2454324 -0.328762E-05  0.888E-03    1.12       1.0  T
   6   -276.2454318  0.666948E-06  0.531E-03    1.12       1.5  T
   7   -276.2454379 -0.613705E-05  0.141E-03    1.12       5.8  T
   8   -276.2454382 -0.325187E-06  0.673E-04    1.12      12.2  T
   9   -276.2454383 -0.564534E-07  0.320E-04    1.12      25.7  T
     SCC iter.                  ...        0 min,  0.464 sec
     gradient                   ...        0 min,  0.231 sec
 * total energy  :  -271.8001796 Eh     change       -0.8498864E-02 Eh
   gradient norm :     0.0097824 Eh/α   predicted    -0.8463400E-02 (  -0.42%)
   displ. norm   :     0.9441918 α      lambda       -0.8169502E-02
   maximum displ.:     0.5549406 α      in ANC's #15, #18, #21, ...

........................................................................
.............................. CYCLE   28 ..............................
........................................................................
   1   -276.2648378 -0.276265E+03  0.111E-01    1.12       0.0  T
   2   -276.2648427 -0.488497E-05  0.705E-02    1.12       1.0  T
   3   -276.2646270  0.215668E-03  0.318E-02    1.12       1.0  T
   4   -276.2648508 -0.223802E-03  0.125E-02    1.12       1.0  T
   5   -276.2648516 -0.773532E-06  0.869E-03    1.12       1.0  T
   6   -276.2648503  0.129192E-05  0.522E-03    1.12       1.6  T
   7   -276.2648584 -0.811232E-05  0.136E-03    1.12       6.0  T
   8   -276.2648588 -0.355200E-06  0.652E-04    1.12      12.6  T
   9   -276.2648588 -0.601138E-07  0.308E-04    1.12      26.7  T
     SCC iter.                  ...        0 min,  0.464 sec
     gradient                   ...        0 min,  0.231 sec
 * total energy  :  -271.8079365 Eh     change       -0.7756916E-02 Eh
   gradient norm :     0.0098785 Eh/α   predicted    -0.7726314E-02 (  -0.39%)
   displ. norm   :     0.9414008 α      lambda       -0.7443668E-02
   maximum displ.:     0.5589593 α      in ANC's #15, #18, #21, ...

........................................................................
.............................. CYCLE   29 ..............................
........................................................................
   1   -276.2843848 -0.276284E+03  0.109E-01    1.11       0.0  T
   2   -276.2843890 -0.416362E-05  0.697E-02    1.11       1.0  T
   3   -276.2841782  0.210790E-03  0.315E-02    1.11       1.0  T
   4   -276.2843971 -0.218963E-03  0.123E-02    1.11       1.0  T
   5   -276.2843953  0.183958E-05  0.872E-03    1.11       1.0  T
   6   -276.2843954 -0.108331E-06  0.520E-03    1.11       1.6  T
   7   -276.2844040 -0.863228E-05  0.119E-03    1.11       6.9  T
   8   -276.2844043 -0.233648E-06  0.603E-04    1.11      13.6  T
   9   -276.2844043 -0.506624E-07  0.283E-04    1.11      29.0  T
     SCC iter.                  ...        0 min,  0.464 sec
     gradient                   ...        0 min,  0.232 sec
 * total energy  :  -271.8149939 Eh     change       -0.7057384E-02 Eh
   gradient norm :     0.0091274 Eh/α   predicted    -0.7020259E-02 (  -0.53%)
   displ. norm   :     0.9387877 α      lambda       -0.6736912E-02
   maximum displ.:     0.5624290 α      in ANC's #15, #18, #21, ...

........................................................................
.............................. CYCLE   30 ..............................
........................................................................
   1   -276.3036923 -0.276304E+03  0.107E-01    1.10       0.0  T
   2   -276.3036962 -0.386323E-05  0.689E-02    1.10       1.0  T
   3   -276.3034906  0.205540E-03  0.311E-02    1.10       1.0  T
   4   -276.3037047 -0.214078E-03  0.122E-02    1.10       1.0  T
   5   -276.3037025  0.217074E-05  0.854E-03    1.10       1.0  T
   6   -276.3037034 -0.837865E-06  0.483E-03    1.10       1.7  T
   7   -276.3037107 -0.732581E-05  0.112E-03    1.10       7.3  T
   8   -276.3037109 -0.191965E-06  0.581E-04    1.10      14.1  T
   9   -276.3037109 -0.499780E-07  0.283E-04    1.10      29.0  T
     SCC iter.                  ...        0 min,  0.463 sec
     gradient                   ...        0 min,  0.233 sec
 * total energy  :  -271.8213587 Eh     change       -0.6364815E-02 Eh
   gradient norm :     0.0076507 Eh/α   predicted    -0.6337159E-02 (  -0.43%)
   displ. norm   :     0.9358052 α      lambda       -0.6026375E-02
   maximum displ.:     0.5645512 α      in ANC's #15, #21, #18, ...

........................................................................
.............................. CYCLE   31 ..............................
........................................................................
   1   -276.3218254 -0.276322E+03  0.107E-01    1.09       0.0  T
   2   -276.3218293 -0.386074E-05  0.688E-02    1.09       1.0  T
   3   -276.3216287  0.200547E-03  0.310E-02    1.09       1.0  T
   4   -276.3218386 -0.209895E-03  0.122E-02    1.09       1.0  T
   5   -276.3218383  0.353147E-06  0.809E-03    1.09       1.0  T
   6   -276.3218397 -0.139545E-05  0.365E-03    1.09       2.2  T
   7   -276.3218434 -0.377864E-05  0.115E-03    1.09       7.2  T
   8   -276.3218437 -0.234318E-06  0.578E-04    1.09      14.2  T
   9   -276.3218437 -0.487760E-07  0.278E-04    1.09      29.6  T
     SCC iter.                  ...        0 min,  0.463 sec
     gradient                   ...        0 min,  0.233 sec
 * total energy  :  -271.8270238 Eh     change       -0.5665092E-02 Eh
   gradient norm :     0.0063764 Eh/α   predicted    -0.5651944E-02 (  -0.23%)
   displ. norm   :     0.9311463 α      lambda       -0.5315644E-02
   maximum displ.:     0.5646849 α      in ANC's #15, #21, #18, ...

........................................................................
.............................. CYCLE   32 ..............................
........................................................................
   1   -276.3388725 -0.276339E+03  0.106E-01    1.08       0.0  T
   2   -276.3388764 -0.393704E-05  0.687E-02    1.08       1.0  T
   3   -276.3386807  0.195745E-03  0.308E-02    1.08       1.0  T
   4   -276.3388855 -0.204814E-03  0.123E-02    1.08       1.0  T
   5   -276.3388859 -0.369072E-06  0.799E-03    1.08       1.0  T
   6   -276.3388881 -0.226341E-05  0.301E-03    1.08       2.7  T
   7   -276.3388903 -0.220888E-05  0.104E-03    1.08       7.9  T
   8   -276.3388905 -0.165456E-06  0.522E-04    1.08      15.7  T
   9   -276.3388905 -0.255550E-07  0.256E-04    1.08      32.2  T
     SCC iter.                  ...        0 min,  0.463 sec
     gradient                   ...        0 min,  0.233 sec
 * total energy  :  -271.8319879 Eh     change       -0.4964110E-02 Eh
   gradient norm :     0.0054758 Eh/α   predicted    -0.4962259E-02 (  -0.04%)
   displ. norm   :     0.9233927 α      lambda       -0.4607277E-02
   maximum displ.:     0.5617762 α      in ANC's #15, #21, #18, ...

........................................................................
.............................. CYCLE   33 ..............................
........................................................................
   1   -276.3546818 -0.276355E+03  0.105E-01    1.07       0.0  T
   2   -276.3546857 -0.389343E-05  0.684E-02    1.07       1.0  T
   3   -276.3544925  0.193206E-03  0.307E-02    1.08       1.0  T
   4   -276.3546946 -0.202128E-03  0.123E-02    1.07       1.0  T
   5   -276.3546951 -0.497713E-06  0.796E-03    1.07       1.0  T
   6   -276.3546974 -0.229640E-05  0.280E-03    1.07       2.9  T
   7   -276.3546993 -0.191015E-05  0.101E-03    1.07       8.2  T
   8   -276.3546995 -0.181125E-06  0.530E-04    1.07      15.5  T
   9   -276.3546995 -0.410994E-07  0.264E-04    1.07      31.1  T
     SCC iter.                  ...        0 min,  0.464 sec
     gradient                   ...        0 min,  0.234 sec
 * total energy  :  -271.8362536 Eh     change       -0.4265774E-02 Eh
   gradient norm :     0.0047338 Eh/α   predicted    -0.4267859E-02 (   0.05%)
   displ. norm   :     0.9123265 α      lambda       -0.3908299E-02
   maximum displ.:     0.5553238 α      in ANC's #15, #21, #18, ...

........................................................................
.............................. CYCLE   34 ..............................
........................................................................
   1   -276.3695513 -0.276370E+03  0.104E-01    1.07       0.0  T
   2   -276.3695551 -0.387013E-05  0.678E-02    1.07       1.0  T
   3   -276.3693700  0.185173E-03  0.302E-02    1.07       1.0  T
   4   -276.3695634 -0.193464E-03  0.123E-02    1.07       1.0  T
   5   -276.3695637 -0.293241E-06  0.793E-03    1.07       1.0  T
   6   -276.3695662 -0.243129E-05  0.286E-03    1.07       2.9  T
   7   -276.3695682 -0.207012E-05  0.952E-04    1.07       8.6  T
   8   -276.3695684 -0.144669E-06  0.505E-04    1.07      16.3  T
   9   -276.3695684 -0.322541E-07  0.252E-04    1.07      32.6  T
     SCC iter.                  ...        0 min,  0.465 sec
     gradient                   ...        0 min,  0.234 sec
 * total energy  :  -271.8398316 Eh     change       -0.3577987E-02 Eh
   gradient norm :     0.0041982 Eh/α   predicted    -0.3580678E-02 (   0.08%)
   displ. norm   :     0.8972071 α      lambda       -0.3228809E-02
   maximum displ.:     0.5448616 α      in ANC's #15, #21, #18, ...

........................................................................
.............................. CYCLE   35 ..............................
........................................................................
   1   -276.3834094 -0.276383E+03  0.102E-01    1.06       0.0  T
   2   -276.3834131 -0.371856E-05  0.667E-02    1.06       1.0  T
   3   -276.3832374  0.175649E-03  0.295E-02    1.06       1.0  T
   4   -276.3834210 -0.183534E-03  0.121E-02    1.06       1.0  T
   5   -276.3834212 -0.197550E-06  0.777E-03    1.06       1.1  T
   6   -276.3834237 -0.256634E-05  0.267E-03    1.06       3.1  T
   7   -276.3834255 -0.176070E-05  0.902E-04    1.06       9.1  T
   8   -276.3834256 -0.126987E-06  0.488E-04    1.06      16.9  T
   9   -276.3834257 -0.299902E-07  0.242E-04    1.06      34.0  T
     SCC iter.                  ...        0 min,  0.464 sec
     gradient                   ...        0 min,  0.235 sec
 * total energy  :  -271.8427415 Eh     change       -0.2909874E-02 Eh
   gradient norm :     0.0039148 Eh/α   predicted    -0.2913979E-02 (   0.14%)
   displ. norm   :     0.8765291 α      lambda       -0.2577681E-02
   maximum displ.:     0.5289060 α      in ANC's #15, #21, #18, ...

........................................................................
.............................. CYCLE   36 ..............................
........................................................................
   1   -276.3963218 -0.276396E+03  0.100E-01    1.05       0.0  T
   2   -276.3963255 -0.366143E-05  0.654E-02    1.05       1.0  T
   3   -276.3961644  0.161089E-03  0.285E-02    1.05       1.0  T
   4   -276.3963327 -0.168352E-03  0.118E-02    1.05       1.0  T
   5   -276.3963330 -0.230095E-06  0.753E-03    1.05       1.1  T
   6   -276.3963356 -0.262431E-05  0.242E-03    1.05       3.4  T
   7   -276.3963370 -0.139097E-05  0.851E-04    1.05       9.7  T
   8   -276.3963371 -0.106630E-06  0.462E-04    1.05      17.8  T
   9   -276.3963371 -0.221041E-07  0.223E-04    1.05      36.9  T
     SCC iter.                  ...        0 min,  0.463 sec
     gradient                   ...        0 min,  0.235 sec
 * total energy  :  -271.8450115 Eh     change       -0.2269967E-02 Eh
   gradient norm :     0.0039771 Eh/α   predicted    -0.2279070E-02 (   0.40%)
   displ. norm   :     0.8467768 α      lambda       -0.1965359E-02
   maximum displ.:     0.5051278 α      in ANC's #15, #21, #18, ...

........................................................................
.............................. CYCLE   37 ..............................
........................................................................
   1   -276.4080704 -0.276408E+03  0.972E-02    1.05       0.0  T
   2   -276.4080738 -0.346041E-05  0.632E-02    1.05       1.0  T
   3   -276.4079288  0.144966E-03  0.272E-02    1.05       1.0  T
   4   -276.4080803 -0.151413E-03  0.114E-02    1.05       1.0  T
   5   -276.4080804 -0.188329E-06  0.727E-03    1.05       1.1  T
   6   -276.4080830 -0.257217E-05  0.231E-03    1.05       3.6  T
   7   -276.4080843 -0.124747E-05  0.803E-04    1.05      10.2  T
   8   -276.4080844 -0.862474E-07  0.447E-04    1.05      18.4  T
   9   -276.4080844 -0.191847E-07  0.212E-04    1.05      38.7  T
     SCC iter.                  ...        0 min,  0.465 sec
     gradient                   ...        0 min,  0.235 sec
 * total energy  :  -271.8466761 Eh     change       -0.1664642E-02 Eh
   gradient norm :     0.0044707 Eh/α   predicted    -0.1687301E-02 (   1.36%)
   displ. norm   :     0.8004593 α      lambda       -0.1400593E-02
   maximum displ.:     0.4690872 α      in ANC's #15, #21, #18, ...

........................................................................
.............................. CYCLE   38 ..............................
........................................................................
   1   -276.4188550 -0.276419E+03  0.925E-02    1.04       0.0  T
   2   -276.4188581 -0.318203E-05  0.600E-02    1.04       1.0  T
   3   -276.4187334  0.124752E-03  0.253E-02    1.04       1.0  T
   4   -276.4188637 -0.130302E-03  0.108E-02    1.04       1.0  T
   5   -276.4188639 -0.205494E-06  0.684E-03    1.04       1.2  T
   6   -276.4188663 -0.236957E-05  0.209E-03    1.04       3.9  T
   7   -276.4188672 -0.983298E-06  0.748E-04    1.04      11.0  T
   8   -276.4188673 -0.726191E-07  0.437E-04    1.04      18.8  T
     SCC iter.                  ...        0 min,  0.413 sec
     gradient                   ...        0 min,  0.235 sec
 * total energy  :  -271.8477887 Eh     change       -0.1112582E-02 Eh
   gradient norm :     0.0047400 Eh/α   predicted    -0.1149017E-02 (   3.27%)
   displ. norm   :     0.7152083 α      lambda       -0.8712747E-03
   maximum displ.:     0.4195498 α      in ANC's #21, #15, #18, ...

........................................................................
.............................. CYCLE   39 ..............................
........................................................................
   1   -276.4278282 -0.276428E+03  0.831E-02    1.04       0.0  T
   2   -276.4278307 -0.251410E-05  0.537E-02    1.03       1.0  T
   3   -276.4277350  0.957153E-04  0.221E-02    1.04       1.0  T
   4   -276.4278347 -0.996899E-04  0.954E-03    1.03       1.0  T
   5   -276.4278342  0.547747E-06  0.620E-03    1.04       1.3  T
   6   -276.4278361 -0.197301E-05  0.242E-03    1.03       3.4  T
   7   -276.4278378 -0.163333E-05  0.673E-04    1.03      12.2  T
   8   -276.4278378 -0.508874E-07  0.406E-04    1.03      20.3  T
   9   -276.4278378 -0.220966E-07  0.190E-04    1.03      43.2  T
     SCC iter.                  ...        0 min,  0.463 sec
     gradient                   ...        0 min,  0.236 sec
 * total energy  :  -271.8484250 Eh     change       -0.6362896E-03 Eh
   gradient norm :     0.0039579 Eh/α   predicted    -0.6584767E-03 (   3.49%)
   displ. norm   :     0.5578482 α      lambda       -0.4206461E-03
   maximum displ.:     0.3435912 α      in ANC's #21, #15, #18, ...

........................................................................
.............................. CYCLE   40 ..............................
........................................................................
   1   -276.4354277 -0.276435E+03  0.651E-02    1.03       0.0  T
   2   -276.4354293 -0.160123E-05  0.417E-02    1.03       1.0  T
   3   -276.4353777  0.515847E-04  0.163E-02    1.03       1.0  T
   4   -276.4354311 -0.534444E-04  0.734E-03    1.03       1.1  T
   5   -276.4354311  0.398924E-07  0.473E-03    1.03       1.7  T
   6   -276.4354321 -0.102554E-05  0.195E-03    1.03       4.2  T
   7   -276.4354332 -0.103669E-05  0.540E-04    1.03      15.2  T
   8   -276.4354332 -0.370838E-07  0.301E-04    1.03      27.3  T
   9   -276.4354332 -0.832955E-08  0.172E-04    1.03      47.8  T
     SCC iter.                  ...        0 min,  0.463 sec
     gradient                   ...        0 min,  0.236 sec
 * total energy  :  -271.8487031 Eh     change       -0.2780844E-03 Eh
   gradient norm :     0.0032435 Eh/α   predicted    -0.2757762E-03 (  -0.83%)
   displ. norm   :     0.3406056 α      lambda       -0.1640873E-03
   maximum displ.:     0.2217314 α      in ANC's #21, #15, #19, ...

........................................................................
.............................. CYCLE   41 ..............................
........................................................................
   1   -276.4400401 -0.276440E+03  0.406E-02    1.03       0.0  T
   2   -276.4400409 -0.762322E-06  0.256E-02    1.03       1.0  T
   3   -276.4400266  0.142935E-04  0.896E-03    1.03       1.0  T
   4   -276.4400413 -0.147290E-04  0.424E-03    1.03       1.9  T
   5   -276.4400416 -0.226424E-06  0.270E-03    1.03       3.0  T
   6   -276.4400417 -0.996984E-07  0.123E-03    1.03       6.7  T
   7   -276.4400421 -0.431779E-06  0.404E-04    1.03      20.4  T
   8   -276.4400421 -0.340128E-07  0.181E-04    1.03      45.3  T
     SCC iter.                  ...        0 min,  0.413 sec
     gradient                   ...        0 min,  0.236 sec
 * total energy  :  -271.8488078 Eh     change       -0.1047019E-03 Eh
   gradient norm :     0.0026477 Eh/α   predicted    -0.9156848E-04 ( -12.54%)
   displ. norm   :     0.1996579 α      lambda       -0.9382427E-04
   maximum displ.:     0.1467550 α      in ANC's #21, #19, #15, ...

........................................................................
.............................. CYCLE   42 ..............................
........................................................................
   1   -276.4426023 -0.276443E+03  0.241E-02    1.03       0.0  T
   2   -276.4426025 -0.218055E-06  0.147E-02    1.03       1.0  T
   3   -276.4425993  0.316701E-05  0.385E-03    1.03       2.1  T
   4   -276.4426024 -0.310105E-05  0.192E-03    1.03       4.3  T
   5   -276.4426025 -0.111951E-06  0.136E-03    1.03       6.1  T
   6   -276.4426026 -0.101281E-06  0.721E-04    1.03      11.4  T
   7   -276.4426027 -0.124140E-06  0.183E-04    1.03      44.9  T
     SCC iter.                  ...        0 min,  0.362 sec
     gradient                   ...        0 min,  0.236 sec
 * total energy  :  -271.8488863 Eh     change       -0.7856293E-04 Eh
   gradient norm :     0.0019167 Eh/α   predicted    -0.4878276E-04 ( -37.91%)
   displ. norm   :     0.4277860 α      lambda       -0.1837271E-03
   maximum displ.:     0.3019159 α      in ANC's #21, #5, #19, ...
 * RMSD in coord.:     1.3972278 α      energy gain  -0.1184943E+00 Eh

generating ANC from model Hessian ...
Using Lindh-Hessian (1995)
 Shifting diagonal of input Hessian by    1.0056937842597669E-002
 Lowest  eigenvalues of input Hessian
    0.010000    0.010017    0.010035    0.010036    0.010048    0.010051
    0.000000    0.000000    0.000000    0.000000    0.000000    0.000000
    0.010058    0.010065    0.010116    0.010317    0.010517    0.010847
 Highest eigenvalues
    2.154098    2.157493    2.158944    2.680049    2.685171    2.688053


........................................................................
.............................. CYCLE   43 ..............................
........................................................................
   1   -276.4455951 -0.276446E+03  0.517E-02    1.03       0.0  T
   2   -276.4455960 -0.945160E-06  0.307E-02    1.03       1.0  T
   3   -276.4455908  0.521949E-05  0.472E-03    1.03       1.7  T
   4   -276.4455957 -0.485293E-05  0.227E-03    1.03       3.6  T
   5   -276.4455965 -0.842556E-06  0.132E-03    1.03       6.2  T
   6   -276.4455966 -0.123976E-06  0.579E-04    1.03      14.2  T
   7   -276.4455967 -0.458259E-07  0.222E-04    1.03      37.1  T
     SCC iter.                  ...        0 min,  0.362 sec
     gradient                   ...        0 min,  0.236 sec
 * total energy  :  -271.8491172 Eh     change       -0.2308698E-03 Eh
   gradient norm :     0.0027008 Eh/α   predicted     0.0000000E+00 (-100.00%)
   displ. norm   :     0.0660323 α      lambda       -0.7413090E-05
   maximum displ.:     0.0349993 α      in ANC's #13, #16, #17, ...

........................................................................
.............................. CYCLE   44 ..............................
........................................................................
   1   -276.4436503 -0.276444E+03  0.906E-03    1.03       0.0  T
   2   -276.4436504 -0.744720E-07  0.574E-03    1.03       1.4  T
   3   -276.4436495  0.906940E-06  0.227E-03    1.03       3.6  T
   4   -276.4436504 -0.915029E-06  0.930E-04    1.03       8.8  T
   5   -276.4436505 -0.418478E-07  0.644E-04    1.03      12.8  T
     SCC iter.                  ...        0 min,  0.260 sec
     gradient                   ...        0 min,  0.236 sec
 * total energy  :  -271.8491730 Eh     change       -0.5578268E-04 Eh
   gradient norm :     0.0012197 Eh/α   predicted    -0.3156532E-04 ( -43.41%)
   displ. norm   :     0.4083979 α      lambda       -0.1993038E-03
   maximum displ.:     0.2112173 α      in ANC's #16, #13, #17, ...

........................................................................
.............................. CYCLE   45 ..............................
........................................................................
   1   -276.4350922 -0.276435E+03  0.487E-02    1.03       0.0  T
   2   -276.4350936 -0.142693E-05  0.309E-02    1.03       1.0  T
   3   -276.4350716  0.220051E-04  0.117E-02    1.03       1.0  T
[...]
  41:  9.73  42:  0.06  43:  1.82  44: 54.60  45:  0.33  46:  2.31  47:  0.28  48:  0.33
  49:  0.42  50:  1.14  51:  0.23  52: 52.79  53:  0.33  54:  0.28  55:  5.14  56:  6.95
  57:  3.84  58: 10.27  59:  0.82  60:  0.18  61:  0.10  62:  7.34  63:  0.34  64:  8.66
  65:  0.23  66:  3.07  67: 11.68  68:  0.07  69: 18.65  70:  0.10  71:  0.01  72:  0.38
  73:  0.89  74:  1.61  75:  0.98  76:  1.79  77:  1.06  78:  0.43  79:  0.20  80: 57.53
  81: 41.49  82: 32.58  83:  7.92  84: 17.46  85:  1.72  86:  0.14  87:  0.23  88: 36.50
  89: 25.73  90: 30.04  91:  0.23  92:  0.98  93: 63.54  94:  0.41  95:  1.97  96: 29.38
  97:  4.22  98:  4.74  99:  2.90 100:  0.00 101: 15.38 102:  0.84 103:  2.15 104:  0.81
 105:  2.19 106:  0.18 107:  4.21 108:  4.30 109: 17.36 110: 47.07 111:  1.48 112: 10.04
 113:  6.43 114:  1.00 115:  0.02 116:  1.22 117: 17.75 118:  5.28 119: 10.93 120:  1.28
 121:  0.97 122:  4.22 123:  0.77 124:  0.43 125:  0.01 126:  0.85 127:  0.19 128:  0.92
 129:  1.87 130:  1.16 131:  0.01 132:  6.10 133: 72.43 134: 47.69 135: 73.77 136:  5.55
 137:  0.74 138:  0.09 139:  1.32 140: 29.71 141:  1.94 142:  9.88 143:  0.41 144:  0.07
 145:  0.67 146:  0.79 147: 41.87 148: 26.73 149:  9.33 150:  2.47 151:  1.30 152:  0.18
 153:  0.00 154:  4.43 155:  0.21 156:143.73 157: 57.14 158: 10.09 159:  7.90 160: 26.81
 161:  1.34 162: 60.58 163:  0.09 164:  3.59 165: 45.00 166: 56.24 167: 14.93 168:  3.68
 169: 52.25 170: 31.49 171:  4.53 172:  9.46 173:  3.71 174: 13.05 175:  9.70 176:  2.79
 177:  5.12 178:  3.90 179: 19.93 180:  0.61 181: 11.42 182:  0.16 183:  5.00 184:  0.02
 185:  1.04 186:  0.03 187:  2.17 188:  8.80 189: 11.46 190:  1.57 191:  0.36 192:  0.04
 193:  6.71 194:  0.26 195: 15.76 196: 31.48 197:  0.21 198:  7.68 199:133.05 200: 50.29
 201: 59.55 202:  2.24 203:  6.29 204:  8.83 205:  1.59 206:  1.78 207: 20.33 208:  0.12
 209: 13.50 210:  1.76 211: 30.68 212:117.32 213:  0.10 214:130.54 215:496.40 216:  6.48
 217:145.24 218:  1.05 219: 16.71 220:135.30 221:  0.59 222:413.60 223:433.76 224: 52.39
 225: 16.17 226:223.07 227: 76.76 228: 12.51 229: 11.51 230:139.04 231: 18.30 232:  1.03
 233:  4.18 234:  8.76 235:  0.70 236:  1.46 237:  4.71 238:  3.75 239:  8.76 240:  0.01
 241:  6.25 242:  0.01 243: 10.18 244:  0.08 245:  0.06 246: 45.45 247: 23.09 248:  0.00
 249: 61.92 250: 58.21 251:  0.30 252:  0.08 253:  0.06 254:  0.83 255:  5.25 256:  0.53
 257:  9.99 258:  2.13 259:  3.11 260:  0.13 261: 16.65 262:  3.31 263:  1.79 264:  4.11
 265: 31.16 266:  2.66 267:  0.50 268:  7.65 269: 42.97 270:  1.29 271: 40.92 272:  0.13
 273:  0.39 274: 15.49 275:  0.74 276: 15.73 277:  1.64 278: 29.61 279:  4.85 280: 61.39
 281:119.48 282: 36.29 283:  2.80 284:  2.06 285:  0.33 286:  9.66 287:  1.19 288:  0.02
 289:  5.79 290:  0.04 291: 31.81 292:  0.68 293:  6.61 294: 17.37 295:  0.10 296:  0.01
 297:  3.28 298:  0.01 299:  1.28 300:  0.86 301:  0.31 302:  2.47 303:  1.81 304:  0.66
 305:  0.05 306:  4.99 307: 11.90 308:  1.65 309: 18.44 310: 16.15 311:131.71 312:  0.05
 313:  0.07 314:  0.24 315:  7.90 316:  1.10 317:491.74 318:  1.14 319:  0.22 320:  2.20
 321: 10.70 322:  4.30 323:  4.95 324:  0.76 325:  0.18 326:  1.58 327:  1.01 328:  2.52
 329:  0.39 330: 50.04 331:  3.03 332:  0.22 333: 17.87 334: 11.05 335:  3.23 336:  2.00
 337: 24.60 338:  1.19 339:  0.16 340:  1.86 341: 44.14 342:  0.64 343: 53.08 344:  0.16
 345:  0.76 346:  0.18 347:  0.94 348:  0.36 349:  3.96 350:  0.02 351: 61.93 352:  0.47
 353: 54.18 354:  0.21 355:  6.78 356:  0.17 357: 41.86 358: 35.35 359:161.85 360:  0.22
 361: 94.33 362:  0.26 363:  1.21 364:  2.06 365:  0.39 366:  0.21 367: 67.26 368:  0.37
 369:  0.35 370:  0.93 371:  1.09 372:  0.97 373:  0.13 374:  0.18 375:  0.78 376:  6.34
 377:  7.48 378: 47.52 379: 30.51 380:  0.39 381:177.30 382: 58.05 383: 55.51 384:  5.92
 385: 94.48 386:  0.10 387:  4.36 388:  5.46 389: 14.14 390:  2.88 391:  3.94 392:725.30
 393:  9.34 394: 20.00 395: 10.61 396:  1.21 397:  0.19 398:  0.72 399:  0.25 400:  0.00
 401:  8.47 402:  1.31 403:  3.05 404:  3.04 405:  2.17 406:  0.63 407:  0.90 408:  0.13
 409:  6.52 410:247.45 411: 18.56 412: 21.87 413:  0.76 414:  3.46 415: 27.11 416: 31.62
 417: 21.97 418: 24.39 419: 16.03 420:  3.68 421:  6.42 422:  2.22 423:  0.53 424: 16.50
 425:250.45 426:  9.80 427: 42.98 428:  1.89 429: 84.93 430:152.15 431:250.57 432:233.46
 433: 74.09 434: 59.38 435: 31.93 436: 15.66 437: 95.40 438:100.93 439:  2.71 440: 20.58
 441: 80.39 442:  5.02 443: 30.04 444: 78.61
 Raman intensities (amu)
   1:  0.00   2:  0.00   3:  0.00   4:  0.00   5:  0.00   6:  0.00   7:  0.00   8:  0.00
   9:  0.00  10:  0.00  11:  0.00  12:  0.00  13:  0.00  14:  0.00  15:  0.00  16:  0.00
  17:  0.00  18:  0.00  19:  0.00  20:  0.00  21:  0.00  22:  0.00  23:  0.00  24:  0.00
  25:  0.00  26:  0.00  27:  0.00  28:  0.00  29:  0.00  30:  0.00  31:  0.00  32:  0.00
  33:  0.00  34:  0.00  35:  0.00  36:  0.00  37:  0.00  38:  0.00  39:  0.00  40:  0.00
  41:  0.00  42:  0.00  43:  0.00  44:  0.00  45:  0.00  46:  0.00  47:  0.00  48:  0.00
  49:  0.00  50:  0.00  51:  0.00  52:  0.00  53:  0.00  54:  0.00  55:  0.00  56:  0.00
  57:  0.00  58:  0.00  59:  0.00  60:  0.00  61:  0.00  62:  0.00  63:  0.00  64:  0.00
  65:  0.00  66:  0.00  67:  0.00  68:  0.00  69:  0.00  70:  0.00  71:  0.00  72:  0.00
  73:  0.00  74:  0.00  75:  0.00  76:  0.00  77:  0.00  78:  0.00  79:  0.00  80:  0.00
  81:  0.00  82:  0.00  83:  0.00  84:  0.00  85:  0.00  86:  0.00  87:  0.00  88:  0.00
  89:  0.00  90:  0.00  91:  0.00  92:  0.00  93:  0.00  94:  0.00  95:  0.00  96:  0.00
  97:  0.00  98:  0.00  99:  0.00 100:  0.00 101:  0.00 102:  0.00 103:  0.00 104:  0.00
 105:  0.00 106:  0.00 107:  0.00 108:  0.00 109:  0.00 110:  0.00 111:  0.00 112:  0.00
 113:  0.00 114:  0.00 115:  0.00 116:  0.00 117:  0.00 118:  0.00 119:  0.00 120:  0.00
 121:  0.00 122:  0.00 123:  0.00 124:  0.00 125:  0.00 126:  0.00 127:  0.00 128:  0.00
 129:  0.00 130:  0.00 131:  0.00 132:  0.00 133:  0.00 134:  0.00 135:  0.00 136:  0.00
 137:  0.00 138:  0.00 139:  0.00 140:  0.00 141:  0.00 142:  0.00 143:  0.00 144:  0.00
 145:  0.00 146:  0.00 147:  0.00 148:  0.00 149:  0.00 150:  0.00 151:  0.00 152:  0.00
 153:  0.00 154:  0.00 155:  0.00 156:  0.00 157:  0.00 158:  0.00 159:  0.00 160:  0.00
 161:  0.00 162:  0.00 163:  0.00 164:  0.00 165:  0.00 166:  0.00 167:  0.00 168:  0.00
 169:  0.00 170:  0.00 171:  0.00 172:  0.00 173:  0.00 174:  0.00 175:  0.00 176:  0.00
 177:  0.00 178:  0.00 179:  0.00 180:  0.00 181:  0.00 182:  0.00 183:  0.00 184:  0.00
 185:  0.00 186:  0.00 187:  0.00 188:  0.00 189:  0.00 190:  0.00 191:  0.00 192:  0.00
 193:  0.00 194:  0.00 195:  0.00 196:  0.00 197:  0.00 198:  0.00 199:  0.00 200:  0.00
 201:  0.00 202:  0.00 203:  0.00 204:  0.00 205:  0.00 206:  0.00 207:  0.00 208:  0.00
 209:  0.00 210:  0.00 211:  0.00 212:  0.00 213:  0.00 214:  0.00 215:  0.00 216:  0.00
 217:  0.00 218:  0.00 219:  0.00 220:  0.00 221:  0.00 222:  0.00 223:  0.00 224:  0.00
 225:  0.00 226:  0.00 227:  0.00 228:  0.00 229:  0.00 230:  0.00 231:  0.00 232:  0.00
 233:  0.00 234:  0.00 235:  0.00 236:  0.00 237:  0.00 238:  0.00 239:  0.00 240:  0.00
 241:  0.00 242:  0.00 243:  0.00 244:  0.00 245:  0.00 246:  0.00 247:  0.00 248:  0.00
 249:  0.00 250:  0.00 251:  0.00 252:  0.00 253:  0.00 254:  0.00 255:  0.00 256:  0.00
 257:  0.00 258:  0.00 259:  0.00 260:  0.00 261:  0.00 262:  0.00 263:  0.00 264:  0.00
 265:  0.00 266:  0.00 267:  0.00 268:  0.00 269:  0.00 270:  0.00 271:  0.00 272:  0.00
 273:  0.00 274:  0.00 275:  0.00 276:  0.00 277:  0.00 278:  0.00 279:  0.00 280:  0.00
 281:  0.00 282:  0.00 283:  0.00 284:  0.00 285:  0.00 286:  0.00 287:  0.00 288:  0.00
 289:  0.00 290:  0.00 291:  0.00 292:  0.00 293:  0.00 294:  0.00 295:  0.00 296:  0.00
 297:  0.00 298:  0.00 299:  0.00 300:  0.00 301:  0.00 302:  0.00 303:  0.00 304:  0.00
 305:  0.00 306:  0.00 307:  0.00 308:  0.00 309:  0.00 310:  0.00 311:  0.00 312:  0.00
 313:  0.00 314:  0.00 315:  0.00 316:  0.00 317:  0.00 318:  0.00 319:  0.00 320:  0.00
 321:  0.00 322:  0.00 323:  0.00 324:  0.00 325:  0.00 326:  0.00 327:  0.00 328:  0.00
 329:  0.00 330:  0.00 331:  0.00 332:  0.00 333:  0.00 334:  0.00 335:  0.00 336:  0.00
 337:  0.00 338:  0.00 339:  0.00 340:  0.00 341:  0.00 342:  0.00 343:  0.00 344:  0.00
 345:  0.00 346:  0.00 347:  0.00 348:  0.00 349:  0.00 350:  0.00 351:  0.00 352:  0.00
 353:  0.00 354:  0.00 355:  0.00 356:  0.00 357:  0.00 358:  0.00 359:  0.00 360:  0.00
 361:  0.00 362:  0.00 363:  0.00 364:  0.00 365:  0.00 366:  0.00 367:  0.00 368:  0.00
Refinement of some symmetry elements was terminated before convergence was reached.
Some symmetry elements may remain unidentified.
Molecule has no symmetry elements
It seems to be the C1 point group
 369:  0.00 370:  0.00 371:  0.00 372:  0.00 373:  0.00 374:  0.00 375:  0.00 376:  0.00
 377:  0.00 378:  0.00 379:  0.00 380:  0.00 381:  0.00 382:  0.00 383:  0.00 384:  0.00
 385:  0.00 386:  0.00 387:  0.00 388:  0.00 389:  0.00 390:  0.00 391:  0.00 392:  0.00
 393:  0.00 394:  0.00 395:  0.00 396:  0.00 397:  0.00 398:  0.00 399:  0.00 400:  0.00
 401:  0.00 402:  0.00 403:  0.00 404:  0.00 405:  0.00 406:  0.00 407:  0.00 408:  0.00
 409:  0.00 410:  0.00 411:  0.00 412:  0.00 413:  0.00 414:  0.00 415:  0.00 416:  0.00
 417:  0.00 418:  0.00 419:  0.00 420:  0.00 421:  0.00 422:  0.00 423:  0.00 424:  0.00
 425:  0.00 426:  0.00 427:  0.00 428:  0.00 429:  0.00 430:  0.00 431:  0.00 432:  0.00
 433:  0.00 434:  0.00 435:  0.00 436:  0.00 437:  0.00 438:  0.00 439:  0.00 440:  0.00
 441:  0.00 442:  0.00 443:  0.00 444:  0.00
 output can be read by thermo (or use thermo option).
 writing <g98.out> molden fake output.
 recommended (thermochemical) frequency scaling factor: 1.0
           -------------------------------------------------
          |             Thermodynamic Functions             |
           -------------------------------------------------

c1  symmetry found (for desy threshold:  0.10E+00) used in thermo
 inverting freq            1   5.7635961252697285     
 inverting freq            2   4.7526051910303204     
 inverting freq            3   2.2600768759607930     
 inverting freq            4   1.8636623490159274     

          ...................................................
          :                      SETUP                      :
          :.................................................:
          :  # frequencies                         438      :
          :  # imaginary freq.                       0      :
          :  linear?                             false      :
          :  only rotor calc.                    false      :
          :  symmetry                               c1      :
          :  rotational number                       1      :
          :  scaling factor                  1.0000000      :
          :  rotor cutoff                   50.0000000 cm⁻¹ :
          :  imag. cutoff                  -20.0000000 cm⁻¹ :
          :.................................................:

    mode    ω/cm⁻¹     T·S(HO)/kcal·mol⁻¹    T·S(FR)/kcal·mol⁻¹   T·S(vib)
   ------------------------------------------------------------------------
       1      5.76    -2.71493 (  0.02%)    -1.69656 ( 99.98%)    -1.69674
       2      4.75    -2.82919 (  0.01%)    -1.75370 ( 99.99%)    -1.75379
       3      2.26    -3.26957 (  0.00%)    -1.97389 (100.00%)    -1.97389
       4      1.86    -3.38383 (  0.00%)    -2.03102 (100.00%)    -2.03102
       5      4.63    -2.84488 (  0.01%)    -1.76155 ( 99.99%)    -1.76163
       6      6.12    -2.67904 (  0.02%)    -1.67862 ( 99.98%)    -1.67884
       7      9.91    -2.39386 (  0.15%)    -1.53601 ( 99.85%)    -1.53734
       8     11.73    -2.29379 (  0.30%)    -1.48597 ( 99.70%)    -1.48841
       9     14.50    -2.16833 (  0.70%)    -1.42322 ( 99.30%)    -1.42845
      10     19.27    -1.99998 (  2.16%)    -1.33900 ( 97.84%)    -1.35327
      11     21.52    -1.93458 (  3.32%)    -1.30627 ( 96.68%)    -1.32712
      12     23.34    -1.88669 (  4.53%)    -1.28230 ( 95.47%)    -1.30968
      13     26.54    -1.81058 (  7.35%)    -1.24421 ( 92.65%)    -1.28585
      14     28.27    -1.77308 (  9.28%)    -1.22543 ( 90.72%)    -1.27623
      15     29.83    -1.74149 ( 11.24%)    -1.20960 ( 88.76%)    -1.26938
      16     36.47    -1.62258 ( 22.06%)    -1.15003 ( 77.94%)    -1.25427
      17     37.21    -1.61066 ( 23.48%)    -1.14405 ( 76.52%)    -1.25361
      18     47.31    -1.46888 ( 44.50%)    -1.07291 ( 55.50%)    -1.24911
      19     50.00    -1.43628 ( 50.00%)    -1.05654 ( 50.00%)    -1.24642
      20     57.61    -1.35287 ( 63.79%)    -1.01460 ( 36.21%)    -1.23039
      21     61.23    -1.31700 ( 69.22%)    -0.99654 ( 30.78%)    -1.21835
      22     66.97    -1.26426 ( 76.30%)    -0.96996 ( 23.70%)    -1.19451
      23     70.13    -1.23726 ( 79.46%)    -0.95634 ( 20.54%)    -1.17957
      24     77.29    -1.18025 ( 85.09%)    -0.92753 ( 14.91%)    -1.14259
      25     83.30    -1.13642 ( 88.51%)    -0.90534 ( 11.49%)    -1.10987
      26     99.59    -1.03231 ( 94.03%)    -0.85244 (  5.97%)    -1.02156
      27    100.89    -1.02476 ( 94.31%)    -0.84859 (  5.69%)    -1.01473
      28    104.06    -1.00680 ( 94.94%)    -0.83942 (  5.06%)    -0.99833
      29    109.04    -0.97967 ( 95.77%)    -0.82556 (  4.23%)    -0.97315
      30    111.55    -0.96654 ( 96.12%)    -0.81884 (  3.88%)    -0.96081
      31    119.15    -0.92849 ( 96.99%)    -0.79931 (  3.01%)    -0.92460
      32    119.97    -0.92451 ( 97.07%)    -0.79727 (  2.93%)    -0.92078
      33    121.98    -0.91496 ( 97.25%)    -0.79236 (  2.75%)    -0.91160
      34    125.72    -0.89759 ( 97.56%)    -0.78341 (  2.44%)    -0.89480
      35    126.21    -0.89534 ( 97.60%)    -0.78225 (  2.40%)    -0.89262
      36    132.07    -0.86929 ( 97.99%)    -0.76880 (  2.01%)    -0.86727
      37    137.19    -0.84756 ( 98.27%)    -0.75755 (  1.73%)    -0.84600
      38    146.00    -0.81208 ( 98.64%)    -0.73910 (  1.36%)    -0.81109
      39    176.91    -0.70385 ( 99.37%)    -0.68221 (  0.63%)    -0.70371
      40    177.02    -0.70351 ( 99.37%)    -0.68203 (  0.63%)    -0.70338
      41    177.88    -0.70081 ( 99.38%)    -0.68059 (  0.62%)    -0.70069
      42    178.68    -0.69831 ( 99.39%)    -0.67926 (  0.61%)    -0.69819
      43    185.43    -0.67770 ( 99.47%)    -0.66828 (  0.53%)    -0.67765
      44    207.77    -0.61514 ( 99.67%)    -0.63458 (  0.33%)    -0.61521
      45    210.93    -0.60693 ( 99.69%)    -0.63012 (  0.31%)    -0.60700
      46    214.89    -0.59681 ( 99.71%)    -0.62460 (  0.29%)    -0.59689
      47    217.65    -0.58990 ( 99.72%)    -0.62082 (  0.28%)    -0.58999
      48    223.95    -0.57452 ( 99.75%)    -0.61237 (  0.25%)    -0.57461
      49    226.12    -0.56933 ( 99.76%)    -0.60951 (  0.24%)    -0.56943
      50    226.87    -0.56755 ( 99.76%)    -0.60853 (  0.24%)    -0.56764
      51    227.42    -0.56625 ( 99.77%)    -0.60781 (  0.23%)    -0.56635
      52    231.98    -0.55561 ( 99.78%)    -0.60192 (  0.22%)    -0.55571
      53    232.22    -0.55507 ( 99.79%)    -0.60162 (  0.21%)    -0.55517
      54    235.41    -0.54779 ( 99.80%)    -0.59758 (  0.20%)    -0.54789
      55    237.07    -0.54405 ( 99.80%)    -0.59550 (  0.20%)    -0.54415
      56    238.41    -0.54106 ( 99.81%)    -0.59383 (  0.19%)    -0.54116
      57    238.77    -0.54026 ( 99.81%)    -0.59339 (  0.19%)    -0.54036
      58    239.01    -0.53973 ( 99.81%)    -0.59309 (  0.19%)    -0.53983
      59    242.43    -0.53219 ( 99.82%)    -0.58887 (  0.18%)    -0.53229
      60    246.10    -0.52426 ( 99.83%)    -0.58443 (  0.17%)    -0.52436
      61    246.37    -0.52367 ( 99.83%)    -0.58410 (  0.17%)    -0.52377
      62    246.69    -0.52299 ( 99.83%)    -0.58372 (  0.17%)    -0.52310
      63    248.00    -0.52019 ( 99.84%)    -0.58214 (  0.16%)    -0.52029
      64    248.48    -0.51919 ( 99.84%)    -0.58158 (  0.16%)    -0.51929
      65    249.38    -0.51727 ( 99.84%)    -0.58050 (  0.16%)    -0.51738
      66    272.00    -0.47210 ( 99.89%)    -0.55478 (  0.11%)    -0.47220
      67    272.24    -0.47166 ( 99.89%)    -0.55452 (  0.11%)    -0.47176
      68    272.65    -0.47088 ( 99.89%)    -0.55407 (  0.11%)    -0.47097
      69    272.91    -0.47039 ( 99.89%)    -0.55379 (  0.11%)    -0.47048
      70    273.30    -0.46966 ( 99.89%)    -0.55337 (  0.11%)    -0.46975
      71    273.69    -0.46894 ( 99.89%)    -0.55295 (  0.11%)    -0.46903
      72    273.91    -0.46851 ( 99.89%)    -0.55271 (  0.11%)    -0.46861
      73    275.34    -0.46584 ( 99.89%)    -0.55117 (  0.11%)    -0.46594
      74    277.97    -0.46098 ( 99.90%)    -0.54835 (  0.10%)    -0.46107
      75    281.50    -0.45455 ( 99.90%)    -0.54462 (  0.10%)    -0.45464
      76    281.52    -0.45451 ( 99.90%)    -0.54459 (  0.10%)    -0.45460
      77    284.47    -0.44920 ( 99.90%)    -0.54150 (  0.10%)    -0.44929
   ------------------------------------------------------------------------

   temp. (K)  partition function   enthalpy   heat capacity  entropy
                                   cal/mol     cal/K/mol   cal/K/mol   J/K/mol
 298.15  VIB  0.445E+43            50114.821    329.358    315.751
         ROT  0.152E+10              888.752      2.981     45.002
         INT  0.678E+52            51003.574    332.339    360.753
         TR   0.581E+29             1481.254      4.968     47.835
         TOT                       52484.8278   337.3075   408.5885  1709.5343

       T/K    H(0)-H(T)+PV         H(T)/Eh          T*S/Eh         G(T)/Eh
   ------------------------------------------------------------------------
    298.15    0.836399E-01    0.111577E+01    0.194134E+00    0.921635E+00
   ------------------------------------------------------------------------

         :::::::::::::::::::::::::::::::::::::::::::::::::::::
         ::                  THERMODYNAMIC                  ::
         :::::::::::::::::::::::::::::::::::::::::::::::::::::
         :: total free energy        -270.930207898430 Eh   ::
         ::.................................................::
         :: total energy             -271.851842469831 Eh   ::
         :: zero point energy           1.032128254220 Eh   ::
         :: G(RRHO) w/o ZPVE           -0.110493682818 Eh   ::
         :: G(RRHO) contrib.            0.921634571401 Eh   ::
         :::::::::::::::::::::::::::::::::::::::::::::::::::::
imag cut-off (cm-1) :    5.00
 found            1  significant imaginary frequency
 writing imag mode distorted coords to xtbhess.xyz
 for further optimization.

optimized geometry written to: xtbopt.xyz


           -------------------------------------------------
          | TOTAL ENERGY             -271.851842469831 Eh   |
          | TOTAL ENTHALPY           -270.736074318643 Eh   |
          | TOTAL FREE ENERGY        -270.930207898430 Eh   |
          | GRADIENT NORM               0.000410031353 Eh/α |
          | HOMO-LUMO GAP               1.049772986803 eV   |
           -------------------------------------------------

------------------------------------------------------------------------
 * finished run on 2021/11/19 at 12:28:12.237     
------------------------------------------------------------------------
 total:
 * wall-time:     0 d,  0 h, 11 min, 59.736 sec
 *  cpu-time:     0 d,  0 h, 11 min, 59.736 sec
 * ratio c/w:     1.000 speedup
 SCF:
 * wall-time:     0 d,  0 h,  0 min,  6.925 sec
 *  cpu-time:     0 d,  0 h,  0 min,  6.925 sec
 * ratio c/w:     1.000 speedup
 ANC optimizer:
 * wall-time:     0 d,  0 h,  1 min, 23.052 sec
 *  cpu-time:     0 d,  0 h,  1 min, 23.044 sec
 * ratio c/w:     1.000 speedup
 analytical hessian:
 * wall-time:     0 d,  0 h,  8 min, 18.293 sec
 *  cpu-time:     0 d,  0 h,  8 min, 18.298 sec
 * ratio c/w:     1.000 speedup

