148
 energy: -270.664277957689 gnorm: 0.716632682305 xtb: 6.4.1 (bd6e46d)
Ni       24.39195800000000    0.04122900000000   -0.01254500000000
C        26.72094900000000   -3.10556400000000    1.31014400000000
C        27.63705700000000   -2.16135600000000    1.25986200000000
C        27.22587700000000   -1.10745200000000    0.33857000000000
C        27.84474800000000    0.01689400000000   -0.00784000000000
C        27.14070500000000    1.23684200000000   -0.37194500000000
C        27.46881600000000    2.19689700000000   -1.21941900000000
C        26.43403600000000    3.21318200000000   -1.23631600000000
C        25.49776800000000    2.83672000000000   -0.38942500000000
N        25.89975800000000    1.60370900000000    0.17439200000000
C        24.23669400000000    3.48172000000000   -0.01027300000000
C        23.14147700000000    2.84693700000000    0.34048700000000
C        22.06785100000000    3.16489300000000    1.30951500000000
C        21.23028800000000    2.16813900000000    1.23234900000000
C        21.66858600000000    1.16445600000000    0.25189700000000
N        22.77352400000000    1.60330900000000   -0.23239500000000
C        21.05775100000000   -0.08881500000000   -0.16165100000000
C        21.72191100000000   -1.19332100000000   -0.41607600000000
C        21.34806300000000   -2.25626300000000   -1.37360300000000
C        22.29681000000000   -3.15001900000000   -1.28458400000000
C        23.28253400000000   -2.71256900000000   -0.30170600000000
N        22.92948800000000   -1.56676400000000    0.19509100000000
C        24.51342200000000   -3.36863900000000    0.14401500000000
C        25.63646300000000   -2.72277800000000    0.41113600000000
N        25.96506300000000   -1.47533700000000   -0.18726700000000
H        26.78121100000000   -4.01534400000000    1.92769100000000
H        28.55338400000000   -2.20130600000000    1.83791000000000
H        28.39618100000000    2.21369300000000   -1.82056200000000
H        26.45093500000000    4.11787100000000   -1.84893800000000
H        24.18897100000000    4.57652200000000   -0.01405000000000
H        22.01503000000000    4.04361800000000    1.93450800000000
H        20.31865800000000    2.13246900000000    1.84967300000000
H        19.95950000000000   -0.08590400000000   -0.26092200000000
H        20.47920700000000   -2.30872800000000   -2.02255300000000
H        22.29396400000000   -4.06632700000000   -1.88334300000000
H        24.47794000000000   -4.46444100000000    0.25594000000000
Ni       59.36988200000000   -0.00614700000000   -0.01697800000000
C        57.04089100000000    2.84064500000000    1.86652700000000
C        56.12478400000000    1.92215600000000    1.64195300000000
C        56.53596400000000    1.05745900000000    0.54113900000000
C        55.91709300000000    0.01689400000000   -0.00784000000000
C        56.62113500000000   -1.11433100000000   -0.59194300000000
C        56.29302500000000   -1.90050300000000   -1.60280900000000
C        57.32780400000000   -2.89601200000000   -1.80795000000000
C        58.26407300000000   -2.68319600000000   -0.90592000000000
N        57.86208200000000   -1.57618400000000   -0.12314800000000
C        59.52514700000000   -3.38733700000000   -0.65300600000000
C        60.62036400000000   -2.82864400000000   -0.19057300000000
C        61.69399000000000   -3.32084900000000    0.70264900000000
C        62.53155300000001   -2.32708200000000    0.81173400000000
C        62.09325500000000   -1.15893400000000    0.03449900000000
N        60.98831700000000   -1.50032600000000   -0.52280000000000
C        62.70409000000001    0.14930200000000   -0.13937100000000
C        62.03992900000000    1.28183500000000   -0.18447700000000
C        62.41377800000000    2.50396100000000   -0.92819200000000
C        61.46503100000001    3.36568800000000   -0.67491300000000
C        60.47930700000000    2.75349300000000    0.20975000000000
N        60.83235300000000    1.53541500000000    0.48536000000000
C        59.24841900000000    3.31548800000000    0.76944500000000
C        58.12537800000000    2.63128300000000    0.91211200000000
N        57.79677700000001    1.51650800000000    0.09267800000000
H        56.98062900000001    3.62007000000000    2.64213100000000
H        55.20845700000000    1.85417500000000    2.21737900000000
H        55.36566000000001   -1.80548600000000   -2.19663400000000
H        57.31090500000000   -3.67134700000000   -2.57777000000000
H        59.57287000000001   -4.46243500000000   -0.85982000000000
H        61.74681100000000   -4.30026600000000    1.15377600000000
H        63.44318300000000   -2.40655400000000    1.42496000000000
H        63.80234000000001    0.16485700000000   -0.23745800000000
H        63.28263400000001    2.67590500000000   -1.55614400000000
H        61.46787700000000    4.37716900000000   -1.09329100000000
H        59.28390100000000    4.37150400000000    1.08271400000000
C        30.45919600000000    0.01689400000000   -0.00784000000000
C        31.67540100000000    0.01689400000000   -0.00784000000000
C        41.27281800000001    0.01689400000000   -0.00784000000000
C        42.48902300000001    0.01689400000000   -0.00784000000000
C        52.08644000000000    0.01689400000000   -0.00784000000000
C        53.30264500000000    0.01689400000000   -0.00784000000000
Ni       36.50560500000000    0.02969500000000    0.00564600000000
C        34.22579500000001   -3.23175200000000   -0.90402000000000
C        33.26958500000000   -2.33240200000000   -1.00604600000000
C        33.66195900000000   -1.17009700000000   -0.20353000000000
C        33.02684300000000   -0.01882400000000    0.00873600000000
C        33.71230000000000    1.25577500000000    0.23496500000000
C        33.37701000000000    2.33437500000000    0.93920500000000
C        34.40155100000000    3.35369200000000    0.84862400000000
C        35.35214800000000    2.85676700000000    0.07525900000000
N        34.97515400000000    1.54016200000000   -0.34088400000000
C        36.59928800000000    3.46846900000000   -0.34160600000000
C        37.70084000000000    2.80121200000000   -0.67337800000000
C        38.69438600000001    3.05319600000000   -1.70754800000000
C        39.58826900000000    2.09233700000000   -1.60606400000000
C        39.20857100000001    1.18045300000000   -0.50208700000000
N        38.11365600000000    1.62977200000000    0.00528000000000
C        39.86577800000000   -0.01882400000000    0.00873600000000
C        39.24236700000001   -1.08800600000000    0.47025200000000
C        39.62107900000001   -2.02012200000000    1.54572800000000
C        38.68041100000001   -2.93426800000000    1.63159400000000
C        37.67210900000000   -2.63848900000000    0.63416700000000
N        38.00988400000000   -1.58511100000000   -0.01512800000000
C        36.41971600000001   -3.34549600000000    0.30297400000000
C        35.30583900000000   -2.74880000000000   -0.04436800000000
N        34.92372700000001   -1.46604200000000    0.37331500000000
H        34.22613900000000   -4.22282600000000   -1.39525400000000
H        32.36105100000000   -2.45409600000000   -1.58719400000000
H        32.45215800000000    2.45272700000000    1.51613100000000
H        34.42884600000000    4.34285600000000    1.30527400000000
H        36.68522800000001    4.56584700000000   -0.40362900000000
H        38.72705800000000    3.85941200000000   -2.43437200000000
H        40.48133100000000    1.97936900000000   -2.23983800000000
H        40.53583000000000   -1.94571500000000    2.15589800000000
H        38.69945700000000   -3.74787600000000    2.33986100000000
H        36.45820100000000   -4.44545500000000    0.36201000000000
Ni       47.31922700000000    0.02969500000000    0.00564600000000
C        45.03941700000000   -3.23175200000000   -0.90402000000000
C        44.08320700000000   -2.33240200000000   -1.00604600000000
C        44.47558100000000   -1.17009700000000   -0.20353000000000
C        43.84046500000000   -0.01882400000000    0.00873600000000
C        44.52592200000000    1.25577500000000    0.23496500000000
C        44.19063200000000    2.33437500000000    0.93920500000000
C        45.21517300000000    3.35369200000000    0.84862400000000
C        46.16577000000001    2.85676700000000    0.07525900000000
N        45.78877600000001    1.54016200000000   -0.34088400000000
C        47.41291000000000    3.46846900000000   -0.34160600000000
C        48.51446200000000    2.80121200000000   -0.67337800000000
C        49.50800800000000    3.05319600000000   -1.70754800000000
C        50.40189100000000    2.09233700000000   -1.60606400000000
C        50.02219300000000    1.18045300000000   -0.50208700000000
N        48.92727800000001    1.62977200000000    0.00528000000000
C        50.67940000000000   -0.01882400000000    0.00873600000000
C        50.05598900000000   -1.08800600000000    0.47025200000000
C        50.43470100000000   -2.02012200000000    1.54572800000000
C        49.49403300000000   -2.93426800000000    1.63159400000000
C        48.48573100000000   -2.63848900000000    0.63416700000000
N        48.82350600000000   -1.58511100000000   -0.01512800000000
C        47.23333800000000   -3.34549600000000    0.30297400000000
C        46.11946100000000   -2.74880000000000   -0.04436800000000
N        45.73734900000000   -1.46604200000000    0.37331500000000
H        45.03976100000000   -4.22282600000000   -1.39525400000000
H        43.17467300000000   -2.45409600000000   -1.58719400000000
H        43.26578000000000    2.45272700000000    1.51613100000000
H        45.24246800000000    4.34285600000000    1.30527400000000
H        47.49885000000000    4.56584700000000   -0.40362900000000
H        49.54068000000000    3.85941200000000   -2.43437200000000
H        51.29495300000001    1.97936900000000   -2.23983800000000
H        51.34945100000001   -1.94571500000000    2.15589800000000
H        49.51307900000000   -3.74787600000000    2.33986100000000
H        47.27182200000001   -4.44545500000000    0.36201000000000
148
 energy: -270.919331439425 gnorm: 0.397722487981 xtb: 6.4.1 (bd6e46d)
Ni       24.40237554150022    0.03885097822743   -0.01104245273769
C        26.72262572808202   -3.11529752755689    1.29980375004777
C        27.65398324731697   -2.16161804330883    1.25526570136362
C        27.22523485203149   -1.10963760003438    0.34423966207542
C        27.83787723567428    0.04104341780243   -0.00635661733206
C        27.12951448033730    1.23141976844339   -0.36486062976226
C        27.48312936730902    2.22739370595940   -1.23716087614164
C        26.46676152365898    3.21505476924053   -1.24998019280328
C        25.49068134565783    2.80864756799408   -0.38356864264678
N        25.86840203552025    1.57273254685726    0.16974168856553
C        24.25778880428413    3.47941627605321   -0.00981502758376
C        23.13232219874367    2.82920330189117    0.34138241374201
C        22.06713642773184    3.17358830572394    1.28976975312476
C        21.20221713026878    2.16109155695411    1.23490899527110
C        21.66502111915112    1.16351084841294    0.27056494773973
N        22.81777570203970    1.57230512472682   -0.20508863128807
C        21.04429405827431   -0.06592400633032   -0.15461912398875
C        21.72603513472873   -1.19555565950283   -0.42154220457020
C        21.33841978596259   -2.25772675559375   -1.35740440431263
C        22.30379562496405   -3.17321141171950   -1.28104556455671
C        23.29383221044338   -2.72011890840637   -0.31143034909299
N        22.95003122140502   -1.53482457079763    0.16122522501227
C        24.49527020051662   -3.37553715148055    0.13602796432970
C        25.64164458104217   -2.70491595491060    0.41524309442500
N        25.95297548620821   -1.45889447956592   -0.14999550233861
H        26.77136145716074   -4.00953681429446    1.91830652651285
H        28.55944979482070   -2.19071441385444    1.83501909231471
H        28.39444840775052    2.22453697359748   -1.82321305764994
H        26.45957702532534    4.11411739804409   -1.85021404719558
H        24.20822582596510    4.57126059980008   -0.00595974455123
H        22.02316610859498    4.04189185820375    1.92668621800998
H        20.31260815909370    2.12185444617509    1.84869859800187
H        19.96007066739529   -0.07566960984573   -0.26780942958805
H        20.48112039121377   -2.29814642459023   -2.01356742194563
H        22.30661477666546   -4.07169664074841   -1.87948533222737
H        24.47241518441365   -4.46027690367301    0.25625719856650
Ni       59.35950781454414   -0.00409915611028   -0.01509972811877
C        57.03924919088664    2.85215598599256    1.85817077907039
C        56.10793963039785    1.92326121105057    1.63748668368473
C        56.53682436947027    1.05852814817120    0.54725739113825
C        55.92436708778252   -0.00740901696200   -0.01022989042037
C        56.63256351182805   -1.11030722193871   -0.58392301029302
C        56.27878374556018   -1.92716987389695   -1.62582193845016
C        57.29507863502869   -2.89531017919352   -1.82172391418261
C        58.27118873160045   -2.65672114037557   -0.89496488520878
N        57.89349970460096   -1.54502825939802   -0.12192608008792
C        59.50406500796899   -3.38518750866735   -0.65213831373624
C        60.62951495450847   -2.81137933963855   -0.18640040611301
C        61.69470544888955   -3.32573097355634    0.68161814915417
C        62.55961233898054   -2.32062070309018    0.81555634457166
C        62.09682900619779   -1.16146857906362    0.05298942405867
N        60.94409167701463   -1.47494166160995   -0.49027902662193
C        62.71754257559741    0.12549817389602   -0.13671670109611
C        62.03579998922770    1.28504763173914   -0.18945091444844
C        62.42342350971074    2.50238671444661   -0.91200669446778
C        61.45802900049795    3.38781260988965   -0.66715972322753
C        60.46800770195683    2.76271502836455    0.20157622478475
N        60.81181893295695    1.51033835392567    0.44617638494689
C        59.26655565538071    3.32378983164285    0.76287123964319
C        58.12017592444967    2.61305943507862    0.91279704586608
N        57.80895650670574    1.49340327129268    0.12633684528435
H        56.99047388252099    3.61611680203734    2.63183167239231
H        55.20242836668223    1.84434449655567    2.21254859041675
H        55.36744628646225   -1.81561933977844   -2.20129361489308
H        57.30226702824049   -3.66741847866984   -2.57836854031781
H        59.55363467832921   -4.45878976332853   -0.85092575117687
H        61.73867964185335   -4.29712527668457    1.14640126454719
H        63.44923492609667   -2.39594403016845    1.42596227882689
H        63.80176862818535    0.15607820517849   -0.24613011526767
H        63.28072226716439    2.66383766086507   -1.54928532767473
H        61.45522164870715    4.38173064532654   -1.08851230068406
H        59.28943138774792    4.36737219817886    1.08227744743143
C        30.42107973426952    0.01586559662498   -0.00794718711920
C        31.64241160796213    0.02679039315585   -0.01082079364318
C        41.27020244182760    0.02543819692884   -0.00505579851806
C        42.48243266922589    0.02665698566586   -0.00917650090092
C        52.11491077015739    0.02504338820539   -0.00288100851392
C        53.33389372270494    0.01667414384435   -0.00836994022757
Ni       36.49689896279367    0.03119362738744    0.00442681888900
C        34.22554643898929   -3.25125620568881   -0.89490692846765
C        33.26261350369759   -2.33239951693167   -0.99577760777213
C        33.68549773804842   -1.18103134053147   -0.20762325845726
C        33.03273780156776    0.00338524312952    0.00628129021948
C        33.74086678876751    1.25737661212922    0.23265948010134
C        33.36614003010633    2.36341698261131    0.95030119309427
C        34.37419001444109    3.35457546053271    0.85600659607968
C        35.36431303414209    2.83183579987766    0.07217267399477
N        35.00827367896397    1.51785947481527   -0.32149206659281
C        36.58320964772232    3.46694852290483   -0.34404225046233
C        37.70863361081027    2.78691528917682   -0.67426016605339
C        38.70358989158572    3.06167287222877   -1.69214923737654
C        39.61136909886427    2.08068188372209   -1.60387002477549
C        39.20865817039041    1.17782856157957   -0.51966288392594
N        38.06958944974361    1.59998478282011   -0.01999143082233
C        39.87537597459252   -0.00032044809184   -0.00046011850958
C        39.22779372031930   -1.09948508501174    0.47711922837758
C        39.63485654725404   -2.02112122435212    1.53342311725284
C        38.67735991314011   -2.95214964940945    1.62996776962532
C        37.65934616857049   -2.64293463945331    0.64401227601343
N        37.98563002132051   -1.54038555109011    0.00310812928094
C        36.44090412094096   -3.35290384827894    0.31319874666831
C        35.29484804368506   -2.73362931804115   -0.05304468924872
N        34.94458693046933   -1.44344756571879    0.33232587991960
H        34.23209168755923   -4.21951410752961   -1.39084253836886
H        32.36178332536397   -2.44243969367693   -1.58163798139457
H        32.45083733297304    2.45844496141195    1.51778326925958
H        34.41549967869785    4.33608878843639    1.30788291516993
H        36.66444474376181    4.55867344320062   -0.41078051935510
H        38.71900237849252    3.85757296094203   -2.42452836308159
H        40.48311313185775    1.97135704036722   -2.23630597570347
H        40.53011608166993   -1.93976594649214    2.14625561208278
H        38.69083177857112   -3.75519009175088    2.34059462038039
H        36.46536742656073   -4.44289897050025    0.35946903202778
Ni       47.31029694793546    0.03126975686728    0.00424654326355
C        45.03890445680041   -3.25183220856851   -0.89498160527334
C        44.07655813961024   -2.33311256848181   -0.99509695061726
C        44.50317375187767   -1.18299843315768   -0.20587408413142
C        43.85480846102666    0.00283720916618    0.00666589491088
C        44.55780221162452    1.25924229032824    0.23223215497757
C        44.18037169802068    2.36340787247830    0.94990350354858
C        45.18811521485937    3.35506494927574    0.85588779409888
C        46.17862021937141    2.83264345813922    0.07203489016018
N        45.82375297102485    1.51844112768791   -0.32095593971421
C        47.39693048789647    3.46671967514713   -0.34371814727653
C        48.52295133305837    2.78593006859164   -0.67400205079729
C        49.51726526358053    3.06119250157338   -1.69217420155758
C        50.42544823532663    2.08044562232664   -1.60437284916523
C        50.02520050789472    1.17559846735570   -0.52095771560349
N        48.88551228872127    1.59930316766719   -0.01955494970898
C        50.69704812111154   -0.00072628014288   -0.00041073431347
C        50.04584602865573   -1.09685661734999    0.47724357304383
C        50.44903418189443   -2.02077677996873    1.53383000390652
C        49.49128164601150   -2.95137340234640    1.62993921150445
C        48.47410668099551   -2.64124138597759    0.64413609352670
N        48.80081451665044   -1.53977704270771    0.00312219218574
C        47.25418157645942   -3.35290459178124    0.31257436023445
C        46.10946717124828   -2.73450346108732   -0.05271380027313
N        45.76033753589519   -1.44383841146544    0.33214568857131
H        45.04548562776685   -4.21977986495141   -1.39093359712728
H        43.17567210960550   -2.44234515883554   -1.58155762946510
H        43.26477705021303    2.45815133551702    1.51769954106147
H        45.22900727666572    4.33640058443663    1.30777878980535
H        47.47837099604948    4.55854447141884   -0.41049251018155
H        49.53251696008719    3.85745170154126   -2.42442060283877
H        51.29700726015778    1.97147631336715   -2.23651734983369
H        51.34406639223277   -1.94003096455369    2.14637299887867
H        49.50432556926874   -3.75484325082971    2.34044828700647
H        47.27934606283454   -4.44286942922426    0.35854335192682
148
 energy: -271.080903052006 gnorm: 0.173544763970 xtb: 6.4.1 (bd6e46d)
Ni       24.41138093107384    0.03856713068679   -0.00766782604179
C        26.72141384804642   -3.11968893562334    1.28687768208963
C        27.66897804405524   -2.16091011645686    1.24751906716417
C        27.22129224865241   -1.10894402324686    0.35535132539713
C        27.83049000183337    0.06395388081169   -0.01145704857263
C        27.12002618348859    1.22091028536168   -0.36173376644713
C        27.49242527375308    2.25830634593837   -1.24567237517685
C        26.50118024637476    3.21213022931039   -1.25105973967303
C        25.48311986643765    2.77626329084195   -0.37602638755644
N        25.83758901927521    1.53738252559588    0.14502056300257
C        24.28273978264581    3.46847939295357   -0.00996877537910
C        23.13417531006130    2.80018230181114    0.35094047674252
C        22.07292210340336    3.17425701790129    1.26397893531010
C        21.17845441420687    2.15761812314070    1.22673954156551
C        21.66234914927435    1.15981498952541    0.29173096153102
N        22.86958085649481    1.53486564802384   -0.16348291165322
C        21.03742813481047   -0.04354673313912   -0.14561707379673
C        21.73821896966750   -1.19014669490738   -0.43662953644066
C        21.33592609112083   -2.25566935093261   -1.33761420964034
C        22.30714443409648   -3.19244419765846   -1.26852014495798
C        23.30731926969719   -2.72370720147341   -0.32310646927746
N        22.97558734507683   -1.49028111309659    0.11361023535712
C        24.47855625870358   -3.37448618479103    0.12653247041575
C        25.64178746938207   -2.67861181900672    0.42439632183557
N        25.93852651682732   -1.43981140138262   -0.10541082097484
H        26.75995526443196   -4.00338331747640    1.90392574985832
H        28.56840398462545   -2.17917282516237    1.82745138776834
H        28.39305577702288    2.23386936275473   -1.82241124792418
H        26.46402222142002    4.10803471457232   -1.84504550431649
H        24.22835385962089    4.55761571107593   -0.00498296424017
H        22.03175989392084    4.03640390052961    1.91111608662748
H        20.30599630381002    2.11086655354210    1.84196511940774
H        19.96298814756216   -0.06891597361232   -0.26711408975603
H        20.48518351477902   -2.28720627882263   -1.99876900111173
H        22.31962516120742   -4.07793498672205   -1.87000997728433
H        24.47222423401418   -4.45193808585555    0.25059270864631
Ni       59.35053039205066   -0.00444132277485   -0.01173200938238
C        57.04049348262210    2.85885641045173    1.84628139888771
C        56.09309767645377    1.92385963388617    1.62967751988209
C        56.54124591883625    1.05592208646446    0.55770371414536
C        55.93272982406824   -0.02816596048168   -0.02127269945913
C        56.64242765350996   -1.10044530896486   -0.57918239706525
C        56.26963018084739   -1.95598631934455   -1.63998413131395
C        57.26071069952255   -2.89231444354310   -1.82222943731394
C        58.27880726745167   -2.62643809356003   -0.88149775915220
N        57.92444647823098   -1.50581182793923   -0.13965172059625
C        59.47913816301997   -3.37449091815144   -0.65025262146518
C        60.62767654083644   -2.78465402830603   -0.17160621615047
C        61.68890523825844   -3.32158406914091    0.65617658702695
C        62.58338452651997   -2.31567128447826    0.80816854477050
C        62.09951563892876   -1.16176108790178    0.07448008636015
N        60.89226179784999   -1.44588507258523   -0.44242606221281
C        62.72441539951954    0.10183219148790   -0.13202277911615
C        62.02362314509648    1.28253594222366   -0.20529742266050
C        62.42590906625456    2.49667328522984   -0.89297031230971
C        61.45467727338109    3.40438660777602   -0.65130941556080
C        60.45453527228810    2.76843655726827    0.19075332171003
N        60.78626091837978    1.47540808500918    0.39110789318553
C        59.28333662259740    3.32460654965971    0.75336859299916
C        58.12013317461938    2.58562815681523    0.91695327911683
N        57.82376711010764    1.46660952091623    0.16657052683669
H        57.00184074319837    3.61276238316543    2.61652262058696
H        55.19353742530316    1.83440714389197    2.20283502111590
H        55.36896282775282   -1.82494855653932   -2.20222565234692
H        57.29784256978652   -3.66244690983662   -2.57215265593766
H        59.53354412826378   -4.44561497987537   -0.84745503166449
H        61.73008297771222   -4.28882890797250    1.13214620242226
H        63.45585144168187   -2.38388043086004    1.42138980867574
H        63.79885839180541    0.14931347987576   -0.24669580005052
H        63.27665576974756    2.65032631403708   -1.53679977995159
H        61.44220838293228    4.38609729064322   -1.07807894997106
H        59.28965230585461    4.36030258180849    1.07515004239079
C        30.38493546682110    0.02145398485412   -0.00646715977592
C        31.60768588533442    0.03716198273812   -0.00912390493082
C        41.26828379119627    0.02894616520358   -0.00150128882950
C        42.48434221071528    0.03413285788018   -0.01086790998439
C        52.14926551010181    0.02469593471327   -0.00104163250586
C        53.37096079901776    0.00925005846158   -0.00347709562044
Ni       36.49069322182796    0.03360185749924    0.00156256362672
C        34.22952182119357   -3.26469978934367   -0.88316481952896
C        33.25891164802472   -2.32774333737152   -0.98123392260900
C        33.70854699984382   -1.18248417288569   -0.21690332625339
C        33.03414793634564    0.02812288560867    0.00596239130934
C        33.77044637309119    1.25223579669483    0.23056697335119
C        33.35870317407549    2.39208356273281    0.95275070617308
C        34.34512594047944    3.34947297123739    0.85435135652150
C        35.37791718823313    2.80225190885206    0.06960867035730
N        35.04138855562635    1.49174024095264   -0.28197240538676
C        36.56316724305451    3.45884302222937   -0.34571388252522
C        37.70739918673973    2.76109219532507   -0.68237934508351
C        38.70890579587737    3.06360909701802   -1.67243503547789
C        39.63155117266509    2.07040965116567   -1.59072677396938
C        39.20724951834504    1.17018063916878   -0.53880369252024
N        38.01737754614854    1.56304276686308   -0.05689799257649
C        39.88077807481462    0.01668494554944   -0.01116974580206
C        39.20525598541731   -1.10180161130650    0.48977669060521
C        39.64081186429323   -2.01781087408518    1.51619202555427
C        38.67556206703332   -2.96757676217189    1.61748100729713
C        37.64365212417739   -2.64392782689103    0.65508403062520
N        37.95770093796119   -1.48288787971676    0.03561628224930
C        36.46097265439334   -3.35072496448707    0.32365830306657
C        35.29228317690561   -2.71341515389331   -0.06933197135183
N        34.96635699406691   -1.41970181543571    0.28108281428292
H        34.23854526992054   -4.21658499128508   -1.38097300818521
H        32.36264486372845   -2.42845398931443   -1.56965880202378
H        32.44930441146199    2.46139513157916    1.51507847400020
H        34.40343938318654    4.32587451295932    1.30562244015330
H        36.64129586688652    4.54518321927013   -0.41174532662365
H        38.71044763671601    3.85464511011162   -2.40714019930171
H        40.48603327481783    1.96319823548832   -2.22728130945803
H        40.52276178786839   -1.93465532175258    2.13076385794836
H        38.68104699265442   -3.76270749061665    2.33466573441575
H        36.46719917807511   -4.43449494504226    0.36260306377482
Ni       47.30602627796299    0.03379845010087    0.00141595379363
C        45.04328953168314   -3.26678722717218   -0.88299360873464
C        44.07477431987563   -2.32877552778021   -0.97995560086437
C        44.53577938702412   -1.18731283575744   -0.21408892183725
C        43.87358729004757    0.02829225429631    0.00502909096582
C        44.59562073549944    1.25734321116012    0.22884980831916
C        44.17466324475976    2.39258598035904    0.95161329474339
C        45.15974057725497    3.35129971145861    0.85399992575075
C        46.19423322252459    2.80545103923321    0.06939607467526
N        45.86125452728403    1.49450375107561   -0.28118790956997
C        47.37819961495975    3.45815953313184   -0.34468719692460
C        48.52368797564416    2.75765121363383   -0.68162374337522
C        49.52291182835968    3.06195871908945   -1.67244618636357
C        50.44698466883355    2.06956325859597   -1.59216646044117
C        50.03155143525584    1.16521972241367   -0.54064393845888
N        48.83859222373885    1.56046793830767   -0.05562796686689
C        50.71762975829068    0.01640292482384   -0.01052911956682
C        50.03209102993301   -1.09548945288431    0.49019805354174
C        50.45694644857491   -2.01724590372298    1.51716000018867
C        49.49009944428204   -2.96514297048131    1.61769780534450
C        48.46085626687758   -2.63911768039653    0.65484627070161
N        48.77701523448994   -1.48062969230639    0.03455241624489
C        47.27539245394554   -3.35119603013579    0.32212593429721
C        46.10890825196086   -2.71698762855405   -0.06850396189019
N        45.78647220404695   -1.42204034297948    0.28093418172629
H        45.05180751090553   -4.21775231043650   -1.38122387423095
H        43.17760526153685   -2.42751666223829   -1.56871837683825
H        43.26433984673127    2.46030589687568    1.51421392499471
H        45.21680083967760    4.32700270320373    1.30563266861482
H        47.45664850149927    4.54468852645556   -0.41084619301854
H        49.52372948108436    3.85400410318306   -2.40670772793269
H        51.30089064238035    1.96370547013869   -2.22847081494971
H        51.33794190359033   -1.93555970463640    2.13176135007132
H        49.49432732629753   -3.76151514710110    2.33424512346462
H        47.28299964788710   -4.43474896287632    0.36035582050688
148