      -----------------------------------------------------------      
     |                   =====================                   |     
     |                           x T B                           |     
     |                   =====================                   |     
     |                         S. Grimme                         |     
     |          Mulliken Center for Theoretical Chemistry        |     
     |                    University of Bonn                     |     
      -----------------------------------------------------------      

   * xtb version 6.4.1 (bd6e46d) compiled by 'conda@4901f00b25ba' on 2021-06-10

   xtb is free software: you can redistribute it and/or modify it under
   the terms of the GNU Lesser General Public License as published by
   the Free Software Foundation, either version 3 of the License, or
   (at your option) any later version.
   
   xtb is distributed in the hope that it will be useful,
   but WITHOUT ANY WARRANTY; without even the implied warranty of
   MERCHANTABILITY or FITNESS FOR A PARTICULAR PURPOSE.  See the
   GNU Lesser General Public License for more details.
   
   Cite this work as:
   * C. Bannwarth, E. Caldeweyher, S. Ehlert, A. Hansen, P. Pracht,
     J. Seibert, S. Spicher, S. Grimme, WIREs Comput. Mol. Sci., 2020, 11,
     e01493. DOI: 10.1002/wcms.1493
   
   for GFN2-xTB:
   * C. Bannwarth, S. Ehlert and S. Grimme., J. Chem. Theory Comput., 2019,
     15, 1652-1671. DOI: 10.1021/acs.jctc.8b01176
   for GFN1-xTB:
   * S. Grimme, C. Bannwarth, P. Shushkov, J. Chem. Theory Comput., 2017,
     13, 1989-2009. DOI: 10.1021/acs.jctc.7b00118
   for GFN0-xTB:
   * P. Pracht, E. Caldeweyher, S. Ehlert, S. Grimme, ChemRxiv, 2019, preprint.
     DOI: 10.26434/chemrxiv.8326202.v1
   for GFN-FF:
   * S. Spicher and S. Grimme, Angew. Chem. Int. Ed., 2020, 59, 15665-15673.
     DOI: 10.1002/anie.202004239
   
   for DFT-D4:
   * E. Caldeweyher, C. Bannwarth and S. Grimme, J. Chem. Phys., 2017,
     147, 034112. DOI: 10.1063/1.4993215
   * E. Caldeweyher, S. Ehlert, A. Hansen, H. Neugebauer, S. Spicher,
     C. Bannwarth and S. Grimme, J. Chem. Phys., 2019, 150, 154122.
     DOI: 10.1063/1.5090222
   * E. Caldeweyher, J.-M. Mewes, S. Ehlert and S. Grimme, Phys. Chem. Chem. Phys.
     2020, 22, 8499-8512. DOI: 10.1039/D0CP00502A
   
   for sTDA-xTB:
   * S. Grimme and C. Bannwarth, J. Chem. Phys., 2016, 145, 054103.
     DOI: 10.1063/1.4959605
   
   in the mass-spec context:
   * V. Asgeirsson, C. Bauer and S. Grimme, Chem. Sci., 2017, 8, 4879.
     DOI: 10.1039/c7sc00601b
   * J. Koopman and S. Grimme, ACS Omega 2019, 4, 12, 15120-15133.
     DOI: 10.1021/acsomega.9b02011
   
   for metadynamics refer to:
   * S. Grimme, J. Chem. Theory Comput., 2019, 155, 2847-2862
     DOI: 10.1021/acs.jctc.9b00143
   
   for SPH calculations refer to:
   * S. Spicher and S. Grimme, J. Chem. Theory Comput., 2021, 17, 1701-1714
     DOI: 10.1021/acs.jctc.0c01306
   
   with help from (in alphabetical order)
   P. Atkinson, C. Bannwarth, F. Bohle, G. Brandenburg, E. Caldeweyher
   M. Checinski, S. Dohm, S. Ehlert, S. Ehrlich, I. Gerasimov, J. Koopman
   C. Lavigne, S. Lehtola, F. März, M. Müller, F. Musil, H. Neugebauer
   J. Pisarek, C. Plett, P. Pracht, J. Seibert, P. Shushkov, S. Spicher
   M. Stahn, M. Steiner, T. Strunk, J. Stückrath, T. Rose, and J. Unsleber
   
 * started run on 2021/11/21 at 21:18:19.293     

           -------------------------------------------------
          |                Calculation Setup                |
           -------------------------------------------------

          program call               : /home/jeff/miniconda3/bin/xtb /home/jeff/chem/final-year-proejct/free_base/_2_7_outenergy/input_structure.xyz --gfn 2 --parallel 1 --etemp 300 --chrg 0 --uhf 0 -I det_control.in
          coordinate file            : /home/jeff/chem/final-year-proejct/free_base/_2_7_outenergy/input_structure.xyz
          omp threads                :                     1
          number of atoms            :                   266
          number of electrons        :                   834
          charge                     :                     0
          spin                       :                   0.0
          first test random number   :      0.31226915949394

   ID    Z sym.   atoms
    1    6 C      1-8, 10-14, 16-20, 22, 23, 38-45, 47-51, 53-57, 59, 60,
                  75-94, 96-100, 102-106, 108, 109, 123-130, 132-136,
                  138-142, 144, 145, 159-166, 168-172, 174-178, 180, 181,
                  195-202, 204-208, 210-214, 216, 217, 231-238, 240-244,
                  246-250, 252, 253
    2    7 N      9, 15, 21, 24, 46, 52, 58, 61, 95, 101, 107, 110, 131, 137,
                  143, 146, 167, 173, 179, 182, 203, 209, 215, 218, 239, 245,
                  251, 254
    3    1 H      25-37, 62-74, 111-122, 147-158, 183-194, 219-230, 255-266

           -------------------------------------------------
          |                 G F N 2 - x T B                 |
           -------------------------------------------------

        Reference                      10.1021/acs.jctc.8b01176
      * Hamiltonian:
        H0-scaling (s, p, d)           1.850000    2.230000    2.230000
        zeta-weighting                 0.500000
      * Dispersion:
        s8                             2.700000
        a1                             0.520000
        a2                             5.000000
        s9                             5.000000
      * Repulsion:
        kExp                           1.500000    1.000000
        rExp                           1.000000
      * Coulomb:
        alpha                          2.000000
        third order                    shell-resolved
        anisotropic                    true
        a3                             3.000000
        a5                             4.000000
        cn-shift                       1.200000
        cn-exp                         4.000000
        max-rad                        5.000000


          ...................................................
          :                      SETUP                      :
          :.................................................:
          :  # basis functions                 806          :
          :  # atomic orbitals                 806          :
          :  # shells                          446          :
          :  # electrons                       834          :
          :  max. iterations                   250          :
          :  Hamiltonian                  GFN2-xTB          :
          :  restarted?                      false          :
          :  GBSA solvation                  false          :
          :  PC potential                    false          :
          :  electronic temp.          300.0000000     K    :
          :  accuracy                    1.0000000          :
          :  -> integral cutoff          0.2500000E+02      :
          :  -> integral neglect         0.1000000E-07      :
          :  -> SCF convergence          0.1000000E-05 Eh   :
          :  -> wf. convergence          0.1000000E-03 e    :
          :  Broyden damping             0.4000000          :
          ...................................................

 iter      E             dE          RMSdq      gap      omega  full diag
   1   -458.2920706 -0.458292E+03  0.492E+00    0.46       0.0  T
   2   -458.9919850 -0.699914E+00  0.323E+00    0.75       1.0  T
   3   -458.9048736  0.871113E-01  0.149E+00    0.57       1.0  T
   4   -458.9785703 -0.736966E-01  0.649E-01    0.74       1.0  T
   5   -459.1252265 -0.146656E+00  0.211E-01    0.71       1.0  T
   6   -459.1411216 -0.158951E-01  0.792E-02    0.71       1.0  T
   7   -459.1418056 -0.684054E-03  0.530E-02    0.71       1.0  T
   8   -459.1428522 -0.104654E-02  0.210E-02    0.71       1.0  T
   9   -459.1429611 -0.108927E-03  0.110E-02    0.71       1.0  T
  10   -459.1429704 -0.925473E-05  0.721E-03    0.71       1.0  T
  11   -459.1429955 -0.250974E-04  0.149E-03    0.71       4.1  T
  12   -459.1429961 -0.665962E-06  0.610E-04    0.71      10.0  T
  13   -459.1429962 -0.675410E-07  0.350E-04    0.71      17.5  T

   *** convergence criteria satisfied after 13 iterations ***

         #    Occupation            Energy/Eh            Energy/eV
      -------------------------------------------------------------
         1        2.0000           -0.6846032             -18.6290
       ...           ...                  ...                  ...
       411        2.0000           -0.3683157             -10.0224
       412        2.0000           -0.3657858              -9.9535
       413        2.0000           -0.3619609              -9.8495
       414        2.0000           -0.3570602              -9.7161
       415        2.0000           -0.3518489              -9.5743
       416        2.0000           -0.3471711              -9.4470
       417        2.0000           -0.3433142              -9.3421 (HOMO)
       418        0.0000           -0.3171796              -8.6309 (LUMO)
       419                         -0.3126110              -8.5066
       420                         -0.3075313              -8.3684
       421                         -0.3019732              -8.2171
       422                         -0.2986748              -8.1274
       ...                                ...                  ...
       806                          1.4102266              38.3742
      -------------------------------------------------------------
                  HL-Gap            0.0261346 Eh            0.7112 eV
             Fermi-level           -0.3302426 Eh           -8.9864 eV

 SCC (total)                   0 d,  0 h,  0 min,  3.325 sec
 SCC setup                      ...        0 min,  0.012 sec (  0.356%)
 Dispersion                     ...        0 min,  0.028 sec (  0.854%)
 classical contributions        ...        0 min,  0.003 sec (  0.079%)
 integral evaluation            ...        0 min,  0.182 sec (  5.465%)
 iterations                     ...        0 min,  2.541 sec ( 76.422%)
 molecular gradient             ...        0 min,  0.534 sec ( 16.066%)
 printout                       ...        0 min,  0.025 sec (  0.758%)

         :::::::::::::::::::::::::::::::::::::::::::::::::::::
         ::                     SUMMARY                     ::
         :::::::::::::::::::::::::::::::::::::::::::::::::::::
         :: total energy            -450.864145703457 Eh    ::
         :: gradient norm              0.000523504301 Eh/a0 ::
         :: HOMO-LUMO gap              0.711158760993 eV    ::
         ::.................................................::
         :: SCC energy              -459.142996200881 Eh    ::
         :: -> isotropic ES            0.237754035809 Eh    ::
         :: -> anisotropic ES         -0.020747281092 Eh    ::
         :: -> anisotropic XC          0.291135227858 Eh    ::
         :: -> dispersion             -0.397401202140 Eh    ::
         :: repulsion energy           8.286221522873 Eh    ::
         :: add. restraining           0.000000000000 Eh    ::
         :: total charge               0.000000000000 e     ::
         :::::::::::::::::::::::::::::::::::::::::::::::::::::

           -------------------------------------------------
          |                Property Printout                |
           -------------------------------------------------

    * Orbital Energies and Occupations

         #    Occupation            Energy/Eh            Energy/eV
      -------------------------------------------------------------
         1        2.0000           -0.6846032             -18.6290
       ...           ...                  ...                  ...
       405        2.0000           -0.3697608             -10.0617
       406        2.0000           -0.3697426             -10.0612
       407        2.0000           -0.3695995             -10.0573
       408        2.0000           -0.3695768             -10.0567
       409        2.0000           -0.3689374             -10.0393
       410        2.0000           -0.3685564             -10.0289
       411        2.0000           -0.3683157             -10.0224
       412        2.0000           -0.3657858              -9.9535
       413        2.0000           -0.3619609              -9.8495
       414        2.0000           -0.3570602              -9.7161
       415        2.0000           -0.3518489              -9.5743
       416        2.0000           -0.3471711              -9.4470
       417        2.0000           -0.3433142              -9.3421 (HOMO)
       418        0.0000           -0.3171796              -8.6309 (LUMO)
       419                         -0.3126110              -8.5066
       420                         -0.3075313              -8.3684
       421                         -0.3019732              -8.2171
       422                         -0.2986748              -8.1274
       423                         -0.2983382              -8.1182
       424                         -0.2983256              -8.1179
       425                         -0.2982785              -8.1166
       426                         -0.2981559              -8.1132
       427                         -0.2976070              -8.0983
       428                         -0.2973174              -8.0904
       ...                                ...                  ...
       806                          1.4102266              38.3742
      -------------------------------------------------------------
                  HL-Gap            0.0261346 Eh            0.7112 eV
             Fermi-level           -0.3302426 Eh           -8.9864 eV

     #   Z          covCN         q      C6AA      α(0)
     1   6 C        3.016    -0.055    29.343     8.886
     2   6 C        3.010    -0.053    29.307     8.880
     3   6 C        3.193     0.086    25.603     8.251
     4   6 C        2.952     0.013    27.726     8.636
     5   6 C        3.095     0.064    26.462     8.431
     6   6 C        3.027    -0.050    29.201     8.864
     7   6 C        3.034    -0.052    29.253     8.871
     8   6 C        3.072     0.064    26.484     8.438
     9   7 N        2.786    -0.081    22.815     7.094
    10   6 C        2.899    -0.055    29.369     8.886
    11   6 C        3.170     0.087    25.718     8.285
    12   6 C        3.012    -0.054    29.316     8.882
    13   6 C        3.009    -0.054    29.319     8.882
    14   6 C        3.174     0.086    25.707     8.281
    15   7 N        1.870    -0.321    29.172     8.006
    16   6 C        2.899    -0.057    29.412     8.892
    17   6 C        3.074     0.065    26.470     8.435
    18   6 C        3.025    -0.051    29.241     8.870
    19   6 C        3.031    -0.051    29.232     8.868
    20   6 C        3.068     0.066    26.465     8.435
    21   7 N        2.787    -0.081    22.817     7.094
    22   6 C        2.899    -0.055    29.370     8.886
    23   6 C        3.174     0.085    25.733     8.285
    24   7 N        1.870    -0.324    29.259     8.018
    25   1 H        0.926     0.018     2.756     2.596
    26   1 H        0.926     0.019     2.745     2.591
    27   1 H        0.926     0.043     2.407     2.426
    28   1 H        0.926     0.042     2.428     2.437
    29   1 H        0.860     0.214     1.036     1.595
    30   1 H        0.925     0.047     2.358     2.401
    31   1 H        0.926     0.019     2.742     2.590
    32   1 H        0.926     0.019     2.742     2.589
    33   1 H        0.926     0.046     2.370     2.408
    34   1 H        0.926     0.042     2.425     2.435
    35   1 H        0.926     0.042     2.426     2.436
    36   1 H        0.860     0.214     1.035     1.594
    37   1 H        0.925     0.047     2.359     2.402
    38   6 C        3.016    -0.055    29.342     8.886
    39   6 C        3.010    -0.053    29.308     8.880
    40   6 C        3.194     0.086    25.598     8.250
    41   6 C        2.952     0.013    27.726     8.636
    42   6 C        3.095     0.064    26.460     8.431
    43   6 C        3.027    -0.050    29.200     8.864
    44   6 C        3.033    -0.052    29.252     8.871
    45   6 C        3.073     0.064    26.484     8.438
    46   7 N        2.786    -0.081    22.813     7.094
    47   6 C        2.899    -0.055    29.371     8.886
    48   6 C        3.171     0.087    25.717     8.285
    49   6 C        3.012    -0.054    29.316     8.882
    50   6 C        3.010    -0.054    29.319     8.882
    51   6 C        3.174     0.086    25.707     8.281
    52   7 N        1.870    -0.321    29.176     8.007
    53   6 C        2.899    -0.057    29.413     8.892
    54   6 C        3.074     0.065    26.470     8.436
    55   6 C        3.026    -0.051    29.241     8.870
    56   6 C        3.031    -0.051    29.232     8.868
    57   6 C        3.068     0.066    26.464     8.435
    58   7 N        2.787    -0.081    22.815     7.094
    59   6 C        2.899    -0.055    29.370     8.886
    60   6 C        3.174     0.085    25.730     8.284
    61   7 N        1.870    -0.324    29.260     8.018
    62   1 H        0.926     0.019     2.755     2.596
    63   1 H        0.926     0.019     2.742     2.590
    64   1 H        0.926     0.043     2.406     2.426
    65   1 H        0.926     0.042     2.428     2.437
    66   1 H        0.860     0.214     1.037     1.595
    67   1 H        0.925     0.047     2.358     2.402
    68   1 H        0.926     0.019     2.742     2.590
    69   1 H        0.926     0.019     2.742     2.589
    70   1 H        0.926     0.046     2.370     2.407
    71   1 H        0.926     0.042     2.424     2.435
    72   1 H        0.926     0.042     2.425     2.435
    73   1 H        0.860     0.214     1.036     1.594
    74   1 H        0.925     0.047     2.359     2.402
    75   6 C        1.993    -0.030    31.837     9.112
    76   6 C        1.992    -0.031    31.864     9.116
    77   6 C        1.992    -0.030    31.837     9.112
    78   6 C        1.992    -0.030    31.847     9.114
    79   6 C        1.991    -0.030    31.841     9.113
    80   6 C        1.991    -0.030    31.845     9.113
    81   6 C        1.991    -0.030    31.843     9.113
    82   6 C        1.991    -0.030    31.841     9.113
    83   6 C        1.991    -0.030    31.849     9.114
    84   6 C        1.991    -0.030    31.839     9.112
    85   6 C        1.992    -0.031    31.864     9.116
    86   6 C        1.993    -0.030    31.833     9.112
    87   6 C        3.017    -0.055    29.338     8.885
    88   6 C        3.009    -0.053    29.307     8.880
    89   6 C        3.194     0.086    25.602     8.250
    90   6 C        2.952     0.013    27.717     8.635
    91   6 C        3.097     0.063    26.467     8.431
    92   6 C        3.025    -0.050    29.205     8.864
    93   6 C        3.036    -0.052    29.252     8.871
    94   6 C        3.072     0.064    26.491     8.439
    95   7 N        2.786    -0.081    22.819     7.095
    96   6 C        2.899    -0.053    29.320     8.878
    97   6 C        3.173     0.085    25.743     8.287
    98   6 C        3.017    -0.055    29.335     8.884
    99   6 C        3.009    -0.053    29.307     8.880
   100   6 C        3.194     0.086    25.596     8.249
   101   7 N        1.870    -0.323    29.239     8.015
   102   6 C        2.952     0.013    27.727     8.637
   103   6 C        3.098     0.063    26.463     8.430
   104   6 C        3.025    -0.050    29.207     8.865
   105   6 C        3.036    -0.052    29.251     8.871
   106   6 C        3.072     0.064    26.493     8.439
   107   7 N        2.786    -0.081    22.820     7.095
   108   6 C        2.899    -0.053    29.319     8.878
   109   6 C        3.173     0.085    25.743     8.287
   110   7 N        1.870    -0.323    29.239     8.015
   111   1 H        0.926     0.019     2.753     2.594
   112   1 H        0.926     0.019     2.742     2.589
   113   1 H        0.926     0.043     2.410     2.428
   114   1 H        0.926     0.041     2.431     2.438
   115   1 H        0.860     0.214     1.035     1.594
   116   1 H        0.925     0.048     2.349     2.397
   117   1 H        0.926     0.019     2.752     2.594
   118   1 H        0.926     0.019     2.741     2.589
   119   1 H        0.926     0.043     2.413     2.429
   120   1 H        0.926     0.041     2.430     2.438
   121   1 H        0.860     0.215     1.035     1.594
   122   1 H        0.925     0.048     2.349     2.397
   123   6 C        3.017    -0.055    29.335     8.884
   124   6 C        3.009    -0.053    29.305     8.880
   125   6 C        3.195     0.086    25.597     8.249
   126   6 C        2.952     0.013    27.719     8.635
   127   6 C        3.099     0.063    26.465     8.431
   128   6 C        3.025    -0.050    29.208     8.865
   129   6 C        3.037    -0.052    29.251     8.871
   130   6 C        3.072     0.064    26.491     8.439
   131   7 N        2.786    -0.081    22.823     7.095
   132   6 C        2.899    -0.053    29.314     8.877
   133   6 C        3.172     0.085    25.749     8.289
   134   6 C        3.017    -0.055    29.339     8.885
   135   6 C        3.010    -0.053    29.304     8.880
   136   6 C        3.193     0.086    25.609     8.252
   137   7 N        1.871    -0.323    29.232     8.014
   138   6 C        2.952     0.013    27.723     8.636
   139   6 C        3.097     0.063    26.467     8.431
   140   6 C        3.026    -0.050    29.206     8.865
   141   6 C        3.036    -0.052    29.253     8.871
   142   6 C        3.072     0.064    26.493     8.439
   143   7 N        2.786    -0.081    22.823     7.095
   144   6 C        2.899    -0.053    29.311     8.877
   145   6 C        3.173     0.085    25.744     8.288
   146   7 N        1.871    -0.323    29.227     8.014
   147   1 H        0.926     0.019     2.751     2.594
   148   1 H        0.926     0.019     2.741     2.589
   149   1 H        0.926     0.043     2.411     2.428
   150   1 H        0.926     0.041     2.430     2.438
   151   1 H        0.860     0.215     1.033     1.592
   152   1 H        0.925     0.048     2.347     2.396
   153   1 H        0.926     0.019     2.752     2.594
   154   1 H        0.926     0.019     2.750     2.593
   155   1 H        0.926     0.042     2.417     2.431
   156   1 H        0.926     0.041     2.431     2.438
   157   1 H        0.860     0.215     1.034     1.593
   158   1 H        0.925     0.048     2.346     2.395
   159   6 C        3.017    -0.055    29.338     8.885
   160   6 C        3.010    -0.053    29.304     8.880
   161   6 C        3.193     0.086    25.609     8.252
   162   6 C        2.952     0.013    27.720     8.635
   163   6 C        3.097     0.063    26.467     8.431
   164   6 C        3.026    -0.050    29.206     8.865
   165   6 C        3.036    -0.052    29.254     8.871
   166   6 C        3.072     0.064    26.494     8.440
   167   7 N        2.787    -0.082    22.824     7.096
   168   6 C        2.899    -0.053    29.308     8.876
   169   6 C        3.172     0.085    25.749     8.289
   170   6 C        3.017    -0.055    29.338     8.885
   171   6 C        3.010    -0.053    29.304     8.880
   172   6 C        3.193     0.086    25.606     8.251
   173   7 N        1.871    -0.323    29.224     8.013
   174   6 C        2.952     0.013    27.720     8.636
   175   6 C        3.097     0.063    26.466     8.431
   176   6 C        3.026    -0.050    29.206     8.865
   177   6 C        3.037    -0.052    29.253     8.871
   178   6 C        3.072     0.064    26.493     8.439
   179   7 N        2.786    -0.082    22.824     7.096
   180   6 C        2.899    -0.053    29.308     8.876
   181   6 C        3.172     0.085    25.750     8.289
   182   7 N        1.871    -0.323    29.224     8.013
   183   1 H        0.926     0.019     2.752     2.594
   184   1 H        0.926     0.019     2.750     2.593
   185   1 H        0.926     0.042     2.417     2.431
   186   1 H        0.926     0.041     2.431     2.438
   187   1 H        0.860     0.215     1.033     1.592
   188   1 H        0.925     0.048     2.345     2.395
   189   1 H        0.926     0.019     2.752     2.594
   190   1 H        0.926     0.019     2.749     2.593
   191   1 H        0.926     0.042     2.416     2.431
   192   1 H        0.926     0.041     2.431     2.438
   193   1 H        0.860     0.215     1.033     1.592
   194   1 H        0.925     0.048     2.345     2.395
   195   6 C        3.017    -0.055    29.338     8.885
   196   6 C        3.010    -0.053    29.304     8.880
   197   6 C        3.193     0.086    25.607     8.252
   198   6 C        2.952     0.013    27.723     8.636
   199   6 C        3.098     0.063    26.467     8.431
   200   6 C        3.026    -0.050    29.207     8.865
   201   6 C        3.037    -0.052    29.253     8.871
   202   6 C        3.072     0.064    26.492     8.439
   203   7 N        2.786    -0.082    22.826     7.096
   204   6 C        2.899    -0.053    29.308     8.876
   205   6 C        3.172     0.085    25.750     8.289
   206   6 C        3.017    -0.055    29.338     8.885
   207   6 C        3.010    -0.053    29.306     8.880
   208   6 C        3.193     0.086    25.607     8.252
   209   7 N        1.871    -0.323    29.223     8.013
   210   6 C        2.952     0.013    27.719     8.635
   211   6 C        3.098     0.063    26.468     8.431
   212   6 C        3.026    -0.050    29.206     8.865
   213   6 C        3.037    -0.052    29.254     8.871
   214   6 C        3.072     0.064    26.491     8.439
   215   7 N        2.786    -0.082    22.826     7.096
   216   6 C        2.899    -0.053    29.309     8.877
   217   6 C        3.172     0.085    25.750     8.289
   218   7 N        1.871    -0.323    29.224     8.013
   219   1 H        0.926     0.019     2.752     2.594
   220   1 H        0.926     0.019     2.749     2.593
   221   1 H        0.926     0.042     2.416     2.431
   222   1 H        0.926     0.041     2.431     2.438
   223   1 H        0.860     0.215     1.033     1.592
   224   1 H        0.925     0.048     2.346     2.395
   225   1 H        0.926     0.019     2.752     2.594
   226   1 H        0.926     0.019     2.748     2.592
   227   1 H        0.926     0.042     2.416     2.431
   228   1 H        0.926     0.041     2.431     2.438
   229   1 H        0.860     0.215     1.033     1.592
   230   1 H        0.925     0.048     2.346     2.395
   231   6 C        3.017    -0.055    29.338     8.885
   232   6 C        3.010    -0.053    29.304     8.880
   233   6 C        3.193     0.086    25.604     8.251
   234   6 C        2.952     0.013    27.726     8.636
   235   6 C        3.097     0.063    26.464     8.431
   236   6 C        3.026    -0.050    29.208     8.865
   237   6 C        3.036    -0.052    29.252     8.871
   238   6 C        3.072     0.064    26.494     8.440
   239   7 N        2.786    -0.081    22.820     7.095
   240   6 C        2.899    -0.053    29.315     8.877
   241   6 C        3.173     0.085    25.742     8.287
   242   6 C        3.017    -0.055    29.336     8.885
   243   6 C        3.009    -0.053    29.307     8.880
   244   6 C        3.194     0.086    25.599     8.250
   245   7 N        1.870    -0.323    29.233     8.014
   246   6 C        2.952     0.013    27.716     8.635
   247   6 C        3.098     0.063    26.466     8.431
   248   6 C        3.025    -0.050    29.206     8.865
   249   6 C        3.036    -0.052    29.252     8.871
   250   6 C        3.072     0.064    26.490     8.439
   251   7 N        2.786    -0.081    22.821     7.095
   252   6 C        2.899    -0.053    29.318     8.878
   253   6 C        3.173     0.085    25.746     8.288
   254   7 N        1.871    -0.323    29.238     8.015
   255   1 H        0.926     0.019     2.753     2.595
   256   1 H        0.926     0.019     2.751     2.594
   257   1 H        0.926     0.043     2.413     2.429
   258   1 H        0.926     0.041     2.431     2.438
   259   1 H        0.860     0.215     1.035     1.594
   260   1 H        0.925     0.048     2.348     2.396
   261   1 H        0.926     0.019     2.752     2.594
   262   1 H        0.926     0.020     2.740     2.588
   263   1 H        0.926     0.043     2.409     2.427
   264   1 H        0.926     0.041     2.430     2.438
   265   1 H        0.860     0.215     1.034     1.593
   266   1 H        0.925     0.048     2.348     2.396

 Mol. C6AA /au·bohr⁶  :    1160326.709126
 Mol. C8AA /au·bohr⁸  :   29721034.588758
 Mol. α(0) /au        :       1732.805674


Wiberg/Mayer (AO) data.
largest (>0.10) Wiberg bond orders for each atom

 ---------------------------------------------------------------------------
     #   Z sym  total        # sym  WBO       # sym  WBO       # sym  WBO
 ---------------------------------------------------------------------------
     1   6 C    3.960 --     2 C    1.716    23 C    1.115    25 H    0.973
     2   6 C    3.961 --     1 C    1.716     3 C    1.122    26 H    0.970
     3   6 C    3.922 --    24 N    1.360     4 C    1.249     2 C    1.122
     4   6 C    3.940 --     5 C    1.253     3 C    1.249    75 C    1.178
     5   6 C    3.907 --     4 C    1.253     6 C    1.236     9 N    1.225
     6   6 C    3.956 --     7 C    1.593     5 C    1.236    27 H    0.969
     7   6 C    3.948 --     6 C    1.593     8 C    1.223    28 H    0.973
     8   6 C    3.918 --    10 C    1.344     7 C    1.223     9 N    1.203
     9   7 N    3.590 --     5 C    1.225     8 C    1.203    29 H    0.900
    10   6 C    3.921 --    11 C    1.357     8 C    1.344    30 H    0.964
    11   6 C    3.939 --    10 C    1.357    15 N    1.324    12 C    1.107
    12   6 C    3.963 --    13 C    1.731    11 C    1.107    31 H    0.973
    13   6 C    3.962 --    12 C    1.731    14 C    1.109    32 H    0.973
    14   6 C    3.938 --    16 C    1.354    15 N    1.325    13 C    1.109
    15   7 N    3.002 --    14 C    1.325    11 C    1.324
    16   6 C    3.923 --    14 C    1.354    17 C    1.347    33 H    0.965
    17   6 C    3.921 --    16 C    1.347    18 C    1.216    21 N    1.210
    18   6 C    3.949 --    19 C    1.608    17 C    1.216    34 H    0.973
    19   6 C    3.953 --    18 C    1.608    20 C    1.215    35 H    0.973
    20   6 C    3.916 --    22 C    1.343    19 C    1.215    21 N    1.211
    21   7 N    3.586 --    20 C    1.211    17 C    1.210    36 H    0.900
    22   6 C    3.937 --    23 C    1.365    20 C    1.343    37 H    0.964
    23   6 C    3.925 --    22 C    1.365    24 N    1.301     1 C    1.115
    24   7 N    3.010 --     3 C    1.360    23 C    1.301
    25   1 H    0.999 --     1 C    0.973
    26   1 H    0.999 --     2 C    0.970
    27   1 H    0.998 --     6 C    0.969
    28   1 H    0.998 --     7 C    0.973
    29   1 H    0.954 --     9 N    0.900
    30   1 H    0.997 --    10 C    0.964
    31   1 H    0.999 --    12 C    0.973
    32   1 H    0.999 --    13 C    0.973
    33   1 H    0.997 --    16 C    0.965
    34   1 H    0.998 --    18 C    0.973
    35   1 H    0.998 --    19 C    0.973
    36   1 H    0.954 --    21 N    0.900
    37   1 H    0.997 --    22 C    0.964
    38   6 C    3.960 --    39 C    1.717    60 C    1.115    62 H    0.973
    39   6 C    3.961 --    38 C    1.717    40 C    1.121    63 H    0.970
    40   6 C    3.922 --    61 N    1.359    41 C    1.250    39 C    1.121
    41   6 C    3.940 --    42 C    1.254    40 C    1.250    86 C    1.175
    42   6 C    3.908 --    41 C    1.254    43 C    1.236    46 N    1.225
    43   6 C    3.956 --    44 C    1.594    42 C    1.236    64 H    0.970
    44   6 C    3.949 --    43 C    1.594    45 C    1.223    65 H    0.973
    45   6 C    3.918 --    47 C    1.344    44 C    1.223    46 N    1.203
    46   7 N    3.590 --    42 C    1.225    45 C    1.203    66 H    0.900
    47   6 C    3.922 --    48 C    1.357    45 C    1.344    67 H    0.964
    48   6 C    3.939 --    47 C    1.357    52 N    1.324    49 C    1.107
    49   6 C    3.963 --    50 C    1.731    48 C    1.107    68 H    0.973
    50   6 C    3.962 --    49 C    1.731    51 C    1.109    69 H    0.973
    51   6 C    3.938 --    53 C    1.354    52 N    1.325    50 C    1.109
    52   7 N    3.002 --    51 C    1.325    48 C    1.324
    53   6 C    3.923 --    51 C    1.354    54 C    1.347    70 H    0.965
    54   6 C    3.921 --    53 C    1.347    55 C    1.216    58 N    1.210
    55   6 C    3.949 --    56 C    1.608    54 C    1.216    71 H    0.973
    56   6 C    3.953 --    55 C    1.608    57 C    1.215    72 H    0.973
    57   6 C    3.916 --    59 C    1.343    56 C    1.215    58 N    1.211
    58   7 N    3.586 --    57 C    1.211    54 C    1.210    73 H    0.900
    59   6 C    3.937 --    60 C    1.365    57 C    1.343    74 H    0.964
    60   6 C    3.925 --    59 C    1.365    61 N    1.301    38 C    1.115
    61   7 N    3.010 --    40 C    1.359    60 C    1.301
    62   1 H    0.999 --    38 C    0.973
    63   1 H    0.999 --    39 C    0.970
    64   1 H    0.998 --    43 C    0.970
    65   1 H    0.998 --    44 C    0.973
    66   1 H    0.954 --    46 N    0.900
    67   1 H    0.997 --    47 C    0.964
    68   1 H    0.999 --    49 C    0.973
    69   1 H    0.999 --    50 C    0.973
    70   1 H    0.997 --    53 C    0.965
    71   1 H    0.998 --    55 C    0.973
    72   1 H    0.998 --    56 C    0.973
    73   1 H    0.954 --    58 N    0.900
    74   1 H    0.997 --    59 C    0.964
    75   6 C    3.920 --    76 C    2.566     4 C    1.178
    76   6 C    3.924 --    75 C    2.566    90 C    1.180
    77   6 C    3.919 --    78 C    2.561   102 C    1.181
    78   6 C    3.920 --    77 C    2.561   126 C    1.181
    79   6 C    3.921 --    80 C    2.555   138 C    1.189
    80   6 C    3.921 --    79 C    2.555   162 C    1.189
    81   6 C    3.920 --    82 C    2.555   174 C    1.189
    82   6 C    3.920 --    81 C    2.555   198 C    1.189
    83   6 C    3.921 --    84 C    2.557   210 C    1.188
    84   6 C    3.920 --    83 C    2.557   234 C    1.187
    85   6 C    3.923 --    86 C    2.567   246 C    1.178
    86   6 C    3.919 --    85 C    2.567    41 C    1.175
    87   6 C    3.961 --    88 C    1.716   109 C    1.115   111 H    0.973
    88   6 C    3.961 --    87 C    1.716    89 C    1.123   112 H    0.969
    89   6 C    3.922 --   110 N    1.360    90 C    1.247    88 C    1.123
    90   6 C    3.927 --    91 C    1.250    89 C    1.247    76 C    1.180
    91   6 C    3.908 --    90 C    1.250    92 C    1.240    95 N    1.225
    92   6 C    3.953 --    93 C    1.589    91 C    1.240   113 H    0.970
    93   6 C    3.949 --    92 C    1.589    94 C    1.227   114 H    0.973
    94   6 C    3.914 --    96 C    1.336    93 C    1.227    95 N    1.204
    95   7 N    3.586 --    91 C    1.225    94 C    1.204   115 H    0.898
    96   6 C    3.923 --    97 C    1.371    94 C    1.336   116 H    0.963
    97   6 C    3.927 --    96 C    1.371   101 N    1.296    98 C    1.115
    98   6 C    3.961 --    99 C    1.716    97 C    1.115   117 H    0.973
    99   6 C    3.961 --    98 C    1.716   100 C    1.123   118 H    0.970
   100   6 C    3.922 --   101 N    1.361   102 C    1.247    99 C    1.123
   101   7 N    3.001 --   100 C    1.361    97 C    1.296
   102   6 C    3.927 --   103 C    1.250   100 C    1.247    77 C    1.181
   103   6 C    3.908 --   102 C    1.250   104 C    1.239   107 N    1.226
   104   6 C    3.953 --   105 C    1.589   103 C    1.239   119 H    0.970
   105   6 C    3.949 --   104 C    1.589   106 C    1.227   120 H    0.973
   106   6 C    3.915 --   108 C    1.337   105 C    1.227   107 N    1.204
   107   7 N    3.586 --   103 C    1.226   106 C    1.204   121 H    0.898
   108   6 C    3.923 --   109 C    1.370   106 C    1.337   122 H    0.963
   109   6 C    3.927 --   108 C    1.370   110 N    1.297    87 C    1.115
   110   7 N    3.001 --    89 C    1.360   109 C    1.297
   111   1 H    0.999 --    87 C    0.973
   112   1 H    0.999 --    88 C    0.969
   113   1 H    0.998 --    92 C    0.970
   114   1 H    0.998 --    93 C    0.973
   115   1 H    0.954 --    95 N    0.898
   116   1 H    0.997 --    96 C    0.963
   117   1 H    0.999 --    98 C    0.973
   118   1 H    0.999 --    99 C    0.970
   119   1 H    0.998 --   104 C    0.970
   120   1 H    0.998 --   105 C    0.973
   121   1 H    0.954 --   107 N    0.898
   122   1 H    0.997 --   108 C    0.963
   123   6 C    3.961 --   124 C    1.716   145 C    1.115   147 H    0.973
   124   6 C    3.961 --   123 C    1.716   125 C    1.123   148 H    0.970
   125   6 C    3.922 --   146 N    1.361   126 C    1.247   124 C    1.123
   126   6 C    3.925 --   127 C    1.249   125 C    1.247    78 C    1.181
   127   6 C    3.908 --   126 C    1.249   128 C    1.240   131 N    1.226
   128   6 C    3.952 --   129 C    1.588   127 C    1.240   149 H    0.971
   129   6 C    3.949 --   128 C    1.588   130 C    1.227   150 H    0.973
   130   6 C    3.914 --   132 C    1.335   129 C    1.227   131 N    1.204
   131   7 N    3.585 --   127 C    1.226   130 C    1.204   151 H    0.897
   132   6 C    3.923 --   133 C    1.372   130 C    1.335   152 H    0.963
   133   6 C    3.927 --   132 C    1.372   137 N    1.295   134 C    1.115
   134   6 C    3.960 --   135 C    1.715   133 C    1.115   153 H    0.973
   135   6 C    3.960 --   134 C    1.715   136 C    1.124   154 H    0.968
   136   6 C    3.921 --   137 N    1.363   138 C    1.243   135 C    1.124
   137   7 N    3.001 --   136 C    1.363   133 C    1.295
   138   6 C    3.926 --   139 C    1.246   136 C    1.243    79 C    1.189
   139   6 C    3.907 --   138 C    1.246   140 C    1.241   143 N    1.227
   140   6 C    3.953 --   141 C    1.587   139 C    1.241   155 H    0.968
   141   6 C    3.948 --   140 C    1.587   142 C    1.227   156 H    0.973
   142   6 C    3.915 --   144 C    1.336   141 C    1.227   143 N    1.204
   143   7 N    3.585 --   139 C    1.227   142 C    1.204   157 H    0.896
   144   6 C    3.921 --   145 C    1.371   142 C    1.336   158 H    0.963
   145   6 C    3.927 --   144 C    1.371   146 N    1.297   123 C    1.115
   146   7 N    3.000 --   125 C    1.361   145 C    1.297
   147   1 H    0.999 --   123 C    0.973
   148   1 H    0.999 --   124 C    0.970
   149   1 H    0.998 --   128 C    0.971
   150   1 H    0.998 --   129 C    0.973
   151   1 H    0.954 --   131 N    0.897
   152   1 H    0.997 --   132 C    0.963
   153   1 H    0.999 --   134 C    0.973
   154   1 H    0.999 --   135 C    0.968
   155   1 H    0.998 --   140 C    0.968
   156   1 H    0.998 --   141 C    0.973
   157   1 H    0.954 --   143 N    0.896
   158   1 H    0.997 --   144 C    0.963
   159   6 C    3.960 --   160 C    1.715   181 C    1.115   183 H    0.973
   160   6 C    3.960 --   159 C    1.715   161 C    1.124   184 H    0.968
   161   6 C    3.921 --   182 N    1.363   162 C    1.243   160 C    1.124
   162   6 C    3.925 --   163 C    1.245   161 C    1.243    80 C    1.189
   163   6 C    3.907 --   162 C    1.245   164 C    1.242   167 N    1.227
   164   6 C    3.952 --   165 C    1.587   163 C    1.242   185 H    0.968
   165   6 C    3.948 --   164 C    1.587   166 C    1.228   186 H    0.973
   166   6 C    3.914 --   168 C    1.335   165 C    1.228   167 N    1.204
   167   7 N    3.585 --   163 C    1.227   166 C    1.204   187 H    0.896
   168   6 C    3.921 --   169 C    1.372   166 C    1.335   188 H    0.963
   169   6 C    3.927 --   168 C    1.372   173 N    1.295   170 C    1.115
   170   6 C    3.960 --   171 C    1.715   169 C    1.115   189 H    0.973
   171   6 C    3.961 --   170 C    1.715   172 C    1.124   190 H    0.968
   172   6 C    3.921 --   173 N    1.363   174 C    1.243   171 C    1.124
   173   7 N    3.001 --   172 C    1.363   169 C    1.295
   174   6 C    3.925 --   175 C    1.246   172 C    1.243    81 C    1.189
   175   6 C    3.907 --   174 C    1.246   176 C    1.242   179 N    1.227
   176   6 C    3.952 --   177 C    1.587   175 C    1.242   191 H    0.969
   177   6 C    3.948 --   176 C    1.587   178 C    1.228   192 H    0.973
   178   6 C    3.914 --   180 C    1.335   177 C    1.228   179 N    1.204
   179   7 N    3.585 --   175 C    1.227   178 C    1.204   193 H    0.896
   180   6 C    3.921 --   181 C    1.372   178 C    1.335   194 H    0.963
   181   6 C    3.927 --   180 C    1.372   182 N    1.295   159 C    1.115
   182   7 N    3.001 --   161 C    1.363   181 C    1.295
   183   1 H    0.999 --   159 C    0.973
   184   1 H    0.999 --   160 C    0.968
   185   1 H    0.998 --   164 C    0.968
   186   1 H    0.998 --   165 C    0.973
   187   1 H    0.954 --   167 N    0.896
   188   1 H    0.997 --   168 C    0.963
   189   1 H    0.999 --   170 C    0.973
   190   1 H    0.999 --   171 C    0.968
   191   1 H    0.998 --   176 C    0.969
   192   1 H    0.998 --   177 C    0.973
   193   1 H    0.954 --   179 N    0.896
   194   1 H    0.997 --   180 C    0.963
   195   6 C    3.960 --   196 C    1.715   217 C    1.115   219 H    0.973
   196   6 C    3.961 --   195 C    1.715   197 C    1.124   220 H    0.968
   197   6 C    3.921 --   218 N    1.363   198 C    1.243   196 C    1.124
   198   6 C    3.925 --   199 C    1.246   197 C    1.243    82 C    1.189
   199   6 C    3.907 --   198 C    1.246   200 C    1.241   203 N    1.227
   200   6 C    3.952 --   201 C    1.587   199 C    1.241   221 H    0.969
   201   6 C    3.948 --   200 C    1.587   202 C    1.227   222 H    0.973
   202   6 C    3.914 --   204 C    1.335   201 C    1.227   203 N    1.204
   203   7 N    3.585 --   199 C    1.227   202 C    1.204   223 H    0.896
   204   6 C    3.921 --   205 C    1.371   202 C    1.335   224 H    0.963
   205   6 C    3.927 --   204 C    1.371   209 N    1.295   206 C    1.115
   206   6 C    3.960 --   207 C    1.714   205 C    1.115   225 H    0.973
   207   6 C    3.961 --   206 C    1.714   208 C    1.124   226 H    0.968
   208   6 C    3.921 --   209 N    1.363   210 C    1.243   207 C    1.124
   209   7 N    3.001 --   208 C    1.363   205 C    1.295
   210   6 C    3.925 --   211 C    1.246   208 C    1.243    83 C    1.188
   211   6 C    3.907 --   210 C    1.246   212 C    1.241   215 N    1.226
   212   6 C    3.952 --   213 C    1.587   211 C    1.241   227 H    0.969
   213   6 C    3.948 --   212 C    1.587   214 C    1.228   228 H    0.973
   214   6 C    3.914 --   216 C    1.335   213 C    1.228   215 N    1.204
   215   7 N    3.585 --   211 C    1.226   214 C    1.204   229 H    0.896
   216   6 C    3.922 --   217 C    1.372   214 C    1.335   230 H    0.963
   217   6 C    3.927 --   216 C    1.372   218 N    1.295   195 C    1.115
   218   7 N    3.001 --   197 C    1.363   217 C    1.295
   219   1 H    0.999 --   195 C    0.973
   220   1 H    0.999 --   196 C    0.968
   221   1 H    0.998 --   200 C    0.969
   222   1 H    0.998 --   201 C    0.973
   223   1 H    0.954 --   203 N    0.896
   224   1 H    0.997 --   204 C    0.963
   225   1 H    0.999 --   206 C    0.973
   226   1 H    0.999 --   207 C    0.968
   227   1 H    0.998 --   212 C    0.969
   228   1 H    0.998 --   213 C    0.973
   229   1 H    0.954 --   215 N    0.896
   230   1 H    0.997 --   216 C    0.963
   231   6 C    3.960 --   232 C    1.715   253 C    1.115   255 H    0.973
   232   6 C    3.961 --   231 C    1.715   233 C    1.124   256 H    0.968
   233   6 C    3.921 --   254 N    1.363   234 C    1.244   232 C    1.124
   234   6 C    3.927 --   235 C    1.247   233 C    1.244    84 C    1.187
   235   6 C    3.907 --   234 C    1.247   236 C    1.241   239 N    1.227
   236   6 C    3.953 --   237 C    1.588   235 C    1.241   257 H    0.969
   237   6 C    3.948 --   236 C    1.588   238 C    1.227   258 H    0.973
   238   6 C    3.915 --   240 C    1.337   237 C    1.227   239 N    1.203
   239   7 N    3.586 --   235 C    1.227   238 C    1.203   259 H    0.897
   240   6 C    3.921 --   241 C    1.370   238 C    1.337   260 H    0.963
   241   6 C    3.928 --   240 C    1.370   245 N    1.298   242 C    1.115
   242   6 C    3.961 --   243 C    1.716   241 C    1.115   261 H    0.973
   243   6 C    3.961 --   242 C    1.716   244 C    1.123   262 H    0.970
   244   6 C    3.923 --   245 N    1.360   246 C    1.248   243 C    1.123
   245   7 N    3.000 --   244 C    1.360   241 C    1.298
   246   6 C    3.925 --   247 C    1.250   244 C    1.248    85 C    1.178
   247   6 C    3.909 --   246 C    1.250   248 C    1.240   251 N    1.225
   248   6 C    3.952 --   249 C    1.589   247 C    1.240   263 H    0.970
   249   6 C    3.950 --   248 C    1.589   250 C    1.227   264 H    0.973
   250   6 C    3.914 --   252 C    1.335   249 C    1.227   251 N    1.204
   251   7 N    3.586 --   247 C    1.225   250 C    1.204   265 H    0.897
   252   6 C    3.923 --   253 C    1.371   250 C    1.335   266 H    0.963
   253   6 C    3.927 --   252 C    1.371   254 N    1.295   231 C    1.115
   254   7 N    3.001 --   233 C    1.363   253 C    1.295
   255   1 H    0.999 --   231 C    0.973
   256   1 H    0.999 --   232 C    0.968
   257   1 H    0.998 --   236 C    0.969
   258   1 H    0.998 --   237 C    0.973
   259   1 H    0.954 --   239 N    0.897
   260   1 H    0.997 --   240 C    0.963
   261   1 H    0.999 --   242 C    0.973
   262   1 H    0.999 --   243 C    0.970
   263   1 H    0.998 --   248 C    0.970
   264   1 H    0.998 --   249 C    0.973
   265   1 H    0.954 --   251 N    0.897
   266   1 H    0.997 --   252 C    0.963
 ---------------------------------------------------------------------------

Topologies differ in total number of bonds
Writing topology from bond orders to xtbtopo.mol

molecular dipole:
                 x           y           z       tot (Debye)
 q only:        0.004      -0.006      -0.069
   full:        0.003       0.005       0.045       0.115
molecular quadrupole (traceless):
                xx          xy          yy          xz          yz          zz
 q only:       76.723     -73.144     -14.478     -10.634      -4.138     -62.245
  q+dip:      145.862     -34.347      11.680      14.058     -14.020    -157.542
   full:      105.351     -32.718      -4.094      13.800      -8.083    -101.257


           -------------------------------------------------
          | TOTAL ENERGY             -450.864145703457 Eh   |
          | GRADIENT NORM               0.000523504301 Eh/α |
          | HOMO-LUMO GAP               0.711158760993 eV   |
           -------------------------------------------------

------------------------------------------------------------------------
 * finished run on 2021/11/21 at 21:18:22.778     
------------------------------------------------------------------------
 total:
 * wall-time:     0 d,  0 h,  0 min,  3.485 sec
 *  cpu-time:     0 d,  0 h,  0 min,  3.485 sec
 * ratio c/w:     1.000 speedup
 SCF:
 * wall-time:     0 d,  0 h,  0 min,  3.329 sec
 *  cpu-time:     0 d,  0 h,  0 min,  3.329 sec
 * ratio c/w:     1.000 speedup

