      -----------------------------------------------------------      
     |                   =====================                   |     
     |                           x T B                           |     
     |                   =====================                   |     
     |                         S. Grimme                         |     
     |          Mulliken Center for Theoretical Chemistry        |     
     |                    University of Bonn                     |     
      -----------------------------------------------------------      

   * xtb version 6.4.1 (bd6e46d) compiled by 'conda@4901f00b25ba' on 2021-06-10

   xtb is free software: you can redistribute it and/or modify it under
   the terms of the GNU Lesser General Public License as published by
   the Free Software Foundation, either version 3 of the License, or
   (at your option) any later version.
   
   xtb is distributed in the hope that it will be useful,
   but WITHOUT ANY WARRANTY; without even the implied warranty of
   MERCHANTABILITY or FITNESS FOR A PARTICULAR PURPOSE.  See the
   GNU Lesser General Public License for more details.
   
   Cite this work as:
   * C. Bannwarth, E. Caldeweyher, S. Ehlert, A. Hansen, P. Pracht,
     J. Seibert, S. Spicher, S. Grimme, WIREs Comput. Mol. Sci., 2020, 11,
     e01493. DOI: 10.1002/wcms.1493
   
   for GFN2-xTB:
   * C. Bannwarth, S. Ehlert and S. Grimme., J. Chem. Theory Comput., 2019,
     15, 1652-1671. DOI: 10.1021/acs.jctc.8b01176
   for GFN1-xTB:
   * S. Grimme, C. Bannwarth, P. Shushkov, J. Chem. Theory Comput., 2017,
     13, 1989-2009. DOI: 10.1021/acs.jctc.7b00118
   for GFN0-xTB:
   * P. Pracht, E. Caldeweyher, S. Ehlert, S. Grimme, ChemRxiv, 2019, preprint.
     DOI: 10.26434/chemrxiv.8326202.v1
   for GFN-FF:
   * S. Spicher and S. Grimme, Angew. Chem. Int. Ed., 2020, 59, 15665-15673.
     DOI: 10.1002/anie.202004239
   
   for DFT-D4:
   * E. Caldeweyher, C. Bannwarth and S. Grimme, J. Chem. Phys., 2017,
     147, 034112. DOI: 10.1063/1.4993215
   * E. Caldeweyher, S. Ehlert, A. Hansen, H. Neugebauer, S. Spicher,
     C. Bannwarth and S. Grimme, J. Chem. Phys., 2019, 150, 154122.
     DOI: 10.1063/1.5090222
   * E. Caldeweyher, J.-M. Mewes, S. Ehlert and S. Grimme, Phys. Chem. Chem. Phys.
     2020, 22, 8499-8512. DOI: 10.1039/D0CP00502A
   
   for sTDA-xTB:
   * S. Grimme and C. Bannwarth, J. Chem. Phys., 2016, 145, 054103.
     DOI: 10.1063/1.4959605
   
   in the mass-spec context:
   * V. Asgeirsson, C. Bauer and S. Grimme, Chem. Sci., 2017, 8, 4879.
     DOI: 10.1039/c7sc00601b
   * J. Koopman and S. Grimme, ACS Omega 2019, 4, 12, 15120-15133.
     DOI: 10.1021/acsomega.9b02011
   
   for metadynamics refer to:
   * S. Grimme, J. Chem. Theory Comput., 2019, 155, 2847-2862
     DOI: 10.1021/acs.jctc.9b00143
   
   for SPH calculations refer to:
   * S. Spicher and S. Grimme, J. Chem. Theory Comput., 2021, 17, 1701-1714
     DOI: 10.1021/acs.jctc.0c01306
   
   with help from (in alphabetical order)
   P. Atkinson, C. Bannwarth, F. Bohle, G. Brandenburg, E. Caldeweyher
   M. Checinski, S. Dohm, S. Ehlert, S. Ehrlich, I. Gerasimov, J. Koopman
   C. Lavigne, S. Lehtola, F. März, M. Müller, F. Musil, H. Neugebauer
   J. Pisarek, C. Plett, P. Pracht, J. Seibert, P. Shushkov, S. Spicher
   M. Stahn, M. Steiner, T. Strunk, J. Stückrath, T. Rose, and J. Unsleber
   
 * started run on 2021/11/21 at 01:43:51.427     

           -------------------------------------------------
          |                Calculation Setup                |
           -------------------------------------------------

          program call               : /home/jeff/miniconda3/bin/xtb /home/jeff/chem/final-year-proejct/Fe+2_2_6_outenergy/input_structure.xyz --gfn 2 --parallel 1 --etemp 300 --chrg 0 --uhf 0 -I det_control.in
          coordinate file            : /home/jeff/chem/final-year-proejct/Fe+2_2_6_outenergy/input_structure.xyz
          omp threads                :                     1
          number of atoms            :                   222
          number of electrons        :                   750
          charge                     :                     0
          spin                       :                   0.0
          first test random number   :      0.27957145398167

   ID    Z sym.   atoms
    1   26 Fe     1, 37, 83, 118, 153, 188
    2    6 C      2-9, 11-15, 17-21, 23, 24, 38-45, 47-51, 53-57, 59, 60,
                  73-82, 84-91, 93-97, 99-103, 105, 106, 119-126, 128-132,
                  134-138, 140, 141, 154-161, 163-167, 169-173, 175, 176,
                  189-196, 198-202, 204-208, 210, 211
    3    7 N      10, 16, 22, 25, 46, 52, 58, 61, 92, 98, 104, 107, 127, 133,
                  139, 142, 162, 168, 174, 177, 197, 203, 209, 212
    4    1 H      26-36, 62-72, 108-117, 143-152, 178-187, 213-222

           -------------------------------------------------
          |                 G F N 2 - x T B                 |
           -------------------------------------------------

        Reference                      10.1021/acs.jctc.8b01176
      * Hamiltonian:
        H0-scaling (s, p, d)           1.850000    2.230000    2.230000
        zeta-weighting                 0.500000
      * Dispersion:
        s8                             2.700000
        a1                             0.520000
        a2                             5.000000
        s9                             5.000000
      * Repulsion:
        kExp                           1.500000    1.000000
        rExp                           1.000000
      * Coulomb:
        alpha                          2.000000
        third order                    shell-resolved
        anisotropic                    true
        a3                             3.000000
        a5                             4.000000
        cn-shift                       1.200000
        cn-exp                         4.000000
        max-rad                        5.000000


          ...................................................
          :                      SETUP                      :
          :.................................................:
          :  # basis functions                 738          :
          :  # atomic orbitals                 732          :
          :  # shells                          388          :
          :  # electrons                       750          :
          :  max. iterations                   250          :
          :  Hamiltonian                  GFN2-xTB          :
          :  restarted?                      false          :
          :  GBSA solvation                  false          :
          :  PC potential                    false          :
          :  electronic temp.          300.0000000     K    :
          :  accuracy                    1.0000000          :
          :  -> integral cutoff          0.2500000E+02      :
          :  -> integral neglect         0.1000000E-07      :
          :  -> SCF convergence          0.1000000E-05 Eh   :
          :  -> wf. convergence          0.1000000E-03 e    :
          :  Broyden damping             0.4000000          :
          ...................................................

 iter      E             dE          RMSdq      gap      omega  full diag
   1   -404.6468287 -0.404647E+03  0.776E+00    0.00       0.0  T
   2   -390.5993673  0.140475E+02  0.908E+00    0.03       1.0  T
   3   -333.3713913  0.572280E+02  0.100E+01    0.02       1.0  T
   4   -341.4771577 -0.810577E+01  0.847E+00    0.01       1.0  T
   5   -374.9030980 -0.334259E+02  0.708E+00    0.01       1.0  T
   6   -389.6233972 -0.147203E+02  0.632E+00    0.10       1.0  T
   7   -399.6748367 -0.100514E+02  0.542E+00    0.03       1.0  T
   8   -386.1024854  0.135724E+02  0.546E+00    0.03       1.0  T
   9   -388.1903740 -0.208789E+01  0.633E+00    0.06       1.0  T
  10   -382.3787642  0.581161E+01  0.618E+00    0.03       1.0  T
  11   -374.8208831  0.755788E+01  0.604E+00    0.09       1.0  T
  12   -394.6677402 -0.198469E+02  0.568E+00    0.01       1.0  T
  13   -396.8301505 -0.216241E+01  0.502E+00    0.03       1.0  T
  14   -396.3297375  0.500413E+00  0.510E+00    0.04       1.0  T
  15   -395.4917479  0.837990E+00  0.514E+00    0.02       1.0  T
  16   -388.4197375  0.707201E+01  0.620E+00    0.02       1.0  T
  17   -387.8889593  0.530778E+00  0.659E+00    0.04       1.0  T
  18   -388.8628883 -0.973929E+00  0.643E+00    0.04       1.0  T
  19   -390.1978127 -0.133492E+01  0.557E+00    0.03       1.0  T
  20   -390.0787025  0.119110E+00  0.534E+00    0.08       1.0  T
  21   -396.1936380 -0.611494E+01  0.478E+00    0.03       1.0  T
  22   -396.1999793 -0.634128E-02  0.479E+00    0.03       1.0  T
  23   -398.2301674 -0.203019E+01  0.453E+00    0.05       1.0  T
  24   -398.0232310  0.206936E+00  0.490E+00    0.10       1.0  T
  25   -398.1590666 -0.135836E+00  0.490E+00    0.10       1.0  T
  26   -398.8956489 -0.736582E+00  0.510E+00    0.01       1.0  T
  27   -399.8679338 -0.972285E+00  0.523E+00    0.02       1.0  T
  28   -402.8789977 -0.301106E+01  0.391E+00    0.01       1.0  T
  29   -402.5743679  0.304630E+00  0.401E+00    0.03       1.0  T
  30   -402.9749761 -0.400608E+00  0.380E+00    0.01       1.0  T
  31   -405.6434946 -0.266852E+01  0.256E+00    0.02       1.0  T
  32   -405.9503497 -0.306855E+00  0.251E+00    0.09       1.0  T
  33   -406.0356346 -0.852849E-01  0.255E+00    0.19       1.0  T
  34   -403.9505582  0.208508E+01  0.306E+00    0.05       1.0  T
  35   -404.9993762 -0.104882E+01  0.288E+00    0.03       1.0  T
  36   -405.5654486 -0.566072E+00  0.251E+00    0.01       1.0  T
  37   -405.9233022 -0.357854E+00  0.230E+00    0.07       1.0  T
  38   -404.0007343  0.192257E+01  0.341E+00    0.03       1.0  T
  39   -404.2158815 -0.215147E+00  0.323E+00    0.00       1.0  T
  40   -402.9375545  0.127833E+01  0.373E+00    0.04       1.0  T
  41   -403.1145223 -0.176968E+00  0.354E+00    0.01       1.0  T
  42   -404.4186483 -0.130413E+01  0.329E+00    0.02       1.0  T
  43   -404.4125421  0.610625E-02  0.315E+00    0.02       1.0  T
  44   -404.5060131 -0.934710E-01  0.314E+00    0.03       1.0  T
  45   -404.4372172  0.687958E-01  0.327E+00    0.02       1.0  T
  46   -404.5662193 -0.129002E+00  0.329E+00    0.04       1.0  T
  47   -404.3813132  0.184906E+00  0.325E+00    0.04       1.0  T
  48   -404.5488801 -0.167567E+00  0.339E+00    0.06       1.0  T
  49   -404.5434546  0.542550E-02  0.328E+00    0.02       1.0  T
  50   -404.5394002  0.405438E-02  0.322E+00    0.04       1.0  T
  51   -403.7623184  0.777082E+00  0.349E+00    0.04       1.0  T
  52   -402.3031104  0.145921E+01  0.391E+00    0.01       1.0  T
  53   -404.6962419 -0.239313E+01  0.344E+00    0.02       1.0  T
  54   -404.1346693  0.561573E+00  0.342E+00    0.01       1.0  T
  55   -404.3550965 -0.220427E+00  0.345E+00    0.01       1.0  T
  56   -404.3326243  0.224722E-01  0.346E+00    0.01       1.0  T
  57   -403.4539791  0.878645E+00  0.348E+00    0.01       1.0  T
  58   -404.3130085 -0.859029E+00  0.334E+00    0.05       1.0  T
  59   -404.8931569 -0.580148E+00  0.305E+00    0.01       1.0  T
  60   -404.0662378  0.826919E+00  0.304E+00    0.03       1.0  T
  61   -406.1021752 -0.203594E+01  0.220E+00    0.10       1.0  T
  62   -406.1137912 -0.116160E-01  0.204E+00    0.13       1.0  T
  63   -406.1370862 -0.232949E-01  0.187E+00    0.25       1.0  T
  64   -406.1465066 -0.942043E-02  0.157E+00    0.22       1.0  T
  65   -406.1466311 -0.124483E-03  0.156E+00    0.21       1.0  T
  66   -406.1461311  0.500014E-03  0.160E+00    0.25       1.0  T
  67   -406.1448564  0.127466E-02  0.148E+00    0.17       1.0  T
  68   -403.3443770  0.280048E+01  0.356E+00    0.11       1.0  T
  69   -404.4447046 -0.110033E+01  0.265E+00    0.01       1.0  T
  70   -405.7516668 -0.130696E+01  0.133E+00    0.01       1.0  T
  71   -405.4079276  0.343739E+00  0.194E+00    0.04       1.0  T
  72   -405.3318977  0.760299E-01  0.203E+00    0.04       1.0  T
  73   -405.5497358 -0.217838E+00  0.175E+00    0.03       1.0  T
  74   -405.7914689 -0.241733E+00  0.131E+00    0.01       1.0  T
  75   -405.5846409  0.206828E+00  0.155E+00    0.02       1.0  T
  76   -406.1204301 -0.535789E+00  0.664E-01    0.10       1.0  T
  77   -405.9677353  0.152695E+00  0.982E-01    0.04       1.0  T
  78   -406.0632073 -0.954720E-01  0.692E-01    0.07       1.0  T
  79   -406.0643208 -0.111348E-02  0.751E-01    0.06       1.0  T
  80   -406.0678168 -0.349603E-02  0.730E-01    0.07       1.0  T
  81   -405.8908269  0.176990E+00  0.111E+00    0.02       1.0  T
  82   -405.9901306 -0.993037E-01  0.891E-01    0.04       1.0  T
  83   -405.8872282  0.102902E+00  0.113E+00    0.02       1.0  T
  84   -405.8558132  0.314150E-01  0.120E+00    0.01       1.0  T
  85   -405.9086009 -0.527877E-01  0.110E+00    0.02       1.0  T
  86   -405.9941212 -0.855204E-01  0.925E-01    0.04       1.0  T
  87   -405.9972481 -0.312691E-02  0.917E-01    0.04       1.0  T
  88   -406.0652622 -0.680141E-01  0.732E-01    0.06       1.0  T
  89   -406.1015034 -0.362412E-01  0.600E-01    0.08       1.0  T
  90   -406.1130271 -0.115237E-01  0.551E-01    0.08       1.0  T
  91   -406.1302420 -0.172150E-01  0.478E-01    0.10       1.0  T
  92   -406.1412906 -0.110485E-01  0.433E-01    0.11       1.0  T
  93   -406.1529785 -0.116880E-01  0.327E-01    0.12       1.0  T
  94   -406.1605426 -0.756410E-02  0.270E-01    0.14       1.0  T
  95   -406.1638667 -0.332407E-02  0.239E-01    0.16       1.0  T
  96   -406.1644982 -0.631545E-03  0.213E-01    0.17       1.0  T
  97   -406.1650636 -0.565380E-03  0.192E-01    0.17       1.0  T
  98   -406.1655242 -0.460553E-03  0.168E-01    0.17       1.0  T
  99   -406.1655607 -0.365749E-04  0.147E-01    0.18       1.0  T
 100   -406.1650342  0.526590E-03  0.141E-01    0.18       1.0  T
 101   -406.1647318  0.302371E-03  0.138E-01    0.17       1.0  T
 102   -406.1645783  0.153504E-03  0.135E-01    0.17       1.0  T
 103   -406.1648772 -0.298944E-03  0.130E-01    0.17       1.0  T
 104   -406.1655634 -0.686192E-03  0.117E-01    0.18       1.0  T
 105   -406.1662233 -0.659899E-03  0.991E-02    0.19       1.0  T
 106   -406.1665457 -0.322373E-03  0.861E-02    0.19       1.0  T
 107   -406.1668071 -0.261406E-03  0.771E-02    0.19       1.0  T
 108   -406.1671198 -0.312656E-03  0.657E-02    0.20       1.0  T
 109   -406.1673810 -0.261229E-03  0.559E-02    0.20       1.0  T
 110   -406.1675927 -0.211674E-03  0.483E-02    0.21       1.0  T
 111   -406.1677439 -0.151278E-03  0.416E-02    0.21       1.0  T
 112   -406.1678452 -0.101306E-03  0.359E-02    0.22       1.0  T
 113   -406.1679294 -0.841467E-04  0.308E-02    0.22       1.0  T
 114   -406.1680050 -0.756232E-04  0.246E-02    0.22       1.0  T
 115   -406.1680554 -0.503396E-04  0.194E-02    0.23       1.0  T
 116   -406.1680801 -0.247326E-04  0.162E-02    0.23       1.0  T
 117   -406.1680965 -0.163666E-04  0.134E-02    0.23       1.0  T
 118   -406.1681077 -0.112497E-04  0.114E-02    0.23       1.0  T
 119   -406.1681140 -0.629677E-05  0.980E-03    0.24       1.0  T
 120   -406.1681206 -0.664011E-05  0.832E-03    0.24       1.0  T
 121   -406.1681258 -0.515793E-05  0.695E-03    0.24       1.0  T
 122   -406.1681293 -0.354993E-05  0.573E-03    0.24       1.2  T
 123   -406.1681313 -0.199683E-05  0.505E-03    0.24       1.3  T
 124   -406.1681327 -0.137887E-05  0.449E-03    0.24       1.5  T
 125   -406.1681339 -0.118581E-05  0.385E-03    0.24       1.7  T
 126   -406.1681348 -0.942273E-06  0.342E-03    0.24       2.0  T
 127   -406.1681358 -0.929294E-06  0.297E-03    0.24       2.3  T
 128   -406.1681367 -0.911691E-06  0.251E-03    0.24       2.7  T
 129   -406.1681373 -0.631287E-06  0.219E-03    0.24       3.1  T
 130   -406.1681377 -0.410202E-06  0.185E-03    0.24       3.6  T
 131   -406.1681381 -0.350384E-06  0.145E-03    0.24       4.6  T
 132   -406.1681383 -0.204070E-06  0.106E-03    0.24       6.4  T
 133   -406.1681384 -0.987504E-07  0.677E-04    0.24       9.9  T
 134   -406.1681384 -0.320348E-07  0.449E-04    0.24      14.9  T

   *** convergence criteria satisfied after 134 iterations ***

         #    Occupation            Energy/Eh            Energy/eV
      -------------------------------------------------------------
         1        2.0000           -0.6668343             -18.1455
       ...           ...                  ...                  ...
       369        2.0000           -0.3368341              -9.1657
       370        1.9885           -0.3295327              -8.9670
       371        1.9880           -0.3294922              -8.9659
       372        1.9876           -0.3294561              -8.9650
       373        1.9874           -0.3294385              -8.9645
       374        1.9788           -0.3289456              -8.9511
       375        1.9787           -0.3289400              -8.9509 (HOMO)
       376        0.0164           -0.3200763              -8.7097 (LUMO)
       377        0.0161           -0.3200619              -8.7093
       378        0.0150           -0.3199918              -8.7074
       379        0.0149           -0.3199842              -8.7072
       380        0.0145           -0.3199597              -8.7065
       ...           ...                  ...                  ...
       732                          1.4203716              38.6503
      -------------------------------------------------------------
                  HL-Gap            0.0088638 Eh            0.2412 eV
             Fermi-level           -0.3246339 Eh           -8.8337 eV

 SCC (total)                   0 d,  0 h,  0 min, 19.884 sec
 SCC setup                      ...        0 min,  0.009 sec (  0.045%)
 Dispersion                     ...        0 min,  0.020 sec (  0.100%)
 classical contributions        ...        0 min,  0.002 sec (  0.010%)
 integral evaluation            ...        0 min,  0.155 sec (  0.781%)
 iterations                     ...        0 min, 19.260 sec ( 96.860%)
 molecular gradient             ...        0 min,  0.420 sec (  2.114%)
 printout                       ...        0 min,  0.018 sec (  0.090%)

         :::::::::::::::::::::::::::::::::::::::::::::::::::::
         ::                     SUMMARY                     ::
         :::::::::::::::::::::::::::::::::::::::::::::::::::::
         :: total energy            -399.239898839147 Eh    ::
         :: gradient norm              0.000548984029 Eh/a0 ::
         :: HOMO-LUMO gap              0.241195287373 eV    ::
         ::.................................................::
         :: SCC energy              -406.168138416015 Eh    ::
         :: -> isotropic ES           -0.045605114452 Eh    ::
         :: -> anisotropic ES          0.065235136813 Eh    ::
         :: -> anisotropic XC          0.218912598291 Eh    ::
         :: -> dispersion             -0.334603371928 Eh    ::
         :: repulsion energy           6.934074444520 Eh    ::
         :: add. restraining           0.000000000000 Eh    ::
         :: total charge              -0.000000000067 e     ::
         :::::::::::::::::::::::::::::::::::::::::::::::::::::

           -------------------------------------------------
          |                Property Printout                |
           -------------------------------------------------

    * Orbital Energies and Occupations

         #    Occupation            Energy/Eh            Energy/eV
      -------------------------------------------------------------
         1        2.0000           -0.6668343             -18.1455
       ...           ...                  ...                  ...
       363        2.0000           -0.3381821              -9.2024
       364        2.0000           -0.3370806              -9.1724
       365        2.0000           -0.3370733              -9.1722
       366        2.0000           -0.3370695              -9.1721
       367        2.0000           -0.3370635              -9.1720
       368        2.0000           -0.3368344              -9.1657
       369        2.0000           -0.3368341              -9.1657
       370        1.9885           -0.3295327              -8.9670
       371        1.9880           -0.3294922              -8.9659
       372        1.9876           -0.3294561              -8.9650
       373        1.9874           -0.3294385              -8.9645
       374        1.9788           -0.3289456              -8.9511
       375        1.9787           -0.3289400              -8.9509 (HOMO)
       376        0.0164           -0.3200763              -8.7097 (LUMO)
       377        0.0161           -0.3200619              -8.7093
       378        0.0150           -0.3199918              -8.7074
       379        0.0149           -0.3199842              -8.7072
       380        0.0145           -0.3199597              -8.7065
       381        0.0141           -0.3199334              -8.7058
       382                         -0.3084785              -8.3941
       383                         -0.3038490              -8.2682
       384                         -0.2976020              -8.0982
       385                         -0.2910491              -7.9198
       386                         -0.2899772              -7.8907
       ...                                ...                  ...
       732                          1.4203716              38.6503
      -------------------------------------------------------------
                  HL-Gap            0.0088638 Eh            0.2412 eV
             Fermi-level           -0.3246339 Eh           -8.8337 eV

     #   Z          covCN         q      C6AA      α(0)
     1  26 Fe       3.083     0.562     5.146     7.318
     2   6 C        3.027    -0.055    29.325     8.883
     3   6 C        3.014    -0.054    29.326     8.883
     4   6 C        3.182     0.070    26.027     8.327
     5   6 C        2.955     0.012    27.756     8.641
     6   6 C        3.183     0.070    26.024     8.326
     7   6 C        3.014    -0.054    29.332     8.884
     8   6 C        3.027    -0.055    29.326     8.883
     9   6 C        3.159     0.064    26.260     8.378
    10   7 N        2.637    -0.214    25.668     7.524
    11   6 C        2.903    -0.061    29.508     8.907
    12   6 C        3.155     0.065    26.252     8.378
    13   6 C        3.023    -0.054    29.303     8.879
    14   6 C        3.013    -0.055    29.353     8.887
    15   6 C        3.166     0.070    26.096     8.348
    16   7 N        2.638    -0.213    25.645     7.521
    17   6 C        2.903    -0.059    29.475     8.902
    18   6 C        3.166     0.070    26.097     8.348
    19   6 C        3.013    -0.055    29.352     8.887
    20   6 C        3.023    -0.054    29.303     8.879
    21   6 C        3.155     0.065    26.252     8.378
    22   7 N        2.638    -0.213    25.644     7.521
    23   6 C        2.903    -0.061    29.509     8.907
    24   6 C        3.159     0.064    26.261     8.378
    25   7 N        2.637    -0.214    25.672     7.525
    26   1 H        0.926     0.030     2.581     2.512
    27   1 H        0.926     0.032     2.558     2.501
    28   1 H        0.926     0.032     2.554     2.499
    29   1 H        0.926     0.030     2.580     2.512
    30   1 H        0.926     0.049     2.329     2.387
    31   1 H        0.926     0.031     2.578     2.511
    32   1 H        0.926     0.031     2.574     2.509
    33   1 H        0.926     0.047     2.355     2.400
    34   1 H        0.926     0.031     2.574     2.509
    35   1 H        0.926     0.031     2.578     2.511
    36   1 H        0.926     0.049     2.329     2.387
    37  26 Fe       3.083     0.562     5.146     7.318
    38   6 C        3.027    -0.055    29.325     8.883
    39   6 C        3.014    -0.054    29.329     8.884
    40   6 C        3.182     0.070    26.026     8.327
    41   6 C        2.955     0.012    27.756     8.641
    42   6 C        3.182     0.070    26.026     8.327
    43   6 C        3.014    -0.054    29.328     8.883
    44   6 C        3.027    -0.055    29.325     8.883
    45   6 C        3.159     0.064    26.261     8.378
    46   7 N        2.637    -0.214    25.670     7.525
    47   6 C        2.903    -0.061    29.509     8.907
    48   6 C        3.155     0.065    26.251     8.378
    49   6 C        3.023    -0.054    29.303     8.879
    50   6 C        3.013    -0.055    29.352     8.887
    51   6 C        3.166     0.070    26.096     8.348
    52   7 N        2.638    -0.213    25.645     7.521
    53   6 C        2.903    -0.059    29.475     8.902
    54   6 C        3.166     0.070    26.096     8.348
    55   6 C        3.013    -0.055    29.353     8.887
    56   6 C        3.023    -0.054    29.303     8.879
    57   6 C        3.155     0.065    26.252     8.378
    58   7 N        2.638    -0.213    25.643     7.521
    59   6 C        2.903    -0.061    29.509     8.907
    60   6 C        3.159     0.064    26.261     8.378
    61   7 N        2.637    -0.214    25.670     7.525
    62   1 H        0.926     0.030     2.580     2.512
    63   1 H        0.926     0.032     2.556     2.500
    64   1 H        0.926     0.032     2.557     2.501
    65   1 H        0.926     0.030     2.580     2.512
    66   1 H        0.926     0.049     2.329     2.387
    67   1 H        0.926     0.031     2.578     2.511
    68   1 H        0.926     0.031     2.574     2.509
    69   1 H        0.926     0.047     2.355     2.400
    70   1 H        0.926     0.031     2.574     2.509
    71   1 H        0.926     0.031     2.578     2.511
    72   1 H        0.926     0.049     2.329     2.387
    73   6 C        1.988    -0.031    31.866     9.116
    74   6 C        1.988    -0.031    31.870     9.117
    75   6 C        1.987    -0.031    31.868     9.117
    76   6 C        1.987    -0.031    31.869     9.117
    77   6 C        1.988    -0.031    31.868     9.117
    78   6 C        1.988    -0.031    31.868     9.117
    79   6 C        1.987    -0.031    31.869     9.117
    80   6 C        1.987    -0.031    31.868     9.117
    81   6 C        1.988    -0.031    31.870     9.117
    82   6 C        1.988    -0.031    31.866     9.116
    83  26 Fe       3.080     0.568     5.143     7.316
    84   6 C        3.027    -0.054    29.324     8.882
    85   6 C        3.014    -0.054    29.328     8.883
    86   6 C        3.183     0.070    26.015     8.325
    87   6 C        2.955     0.011    27.759     8.642
    88   6 C        3.183     0.070    26.016     8.325
    89   6 C        3.014    -0.054    29.332     8.884
    90   6 C        3.027    -0.054    29.324     8.883
    91   6 C        3.160     0.064    26.264     8.378
    92   7 N        2.637    -0.215    25.700     7.529
    93   6 C        2.903    -0.059    29.472     8.902
    94   6 C        3.160     0.064    26.266     8.378
    95   6 C        3.026    -0.055    29.326     8.883
    96   6 C        3.015    -0.054    29.329     8.884
    97   6 C        3.182     0.070    26.020     8.326
    98   7 N        2.637    -0.215    25.698     7.529
    99   6 C        2.955     0.011    27.760     8.642
   100   6 C        3.182     0.070    26.020     8.326
   101   6 C        3.015    -0.054    29.330     8.884
   102   6 C        3.026    -0.055    29.325     8.883
   103   6 C        3.160     0.064    26.267     8.378
   104   7 N        2.637    -0.215    25.697     7.529
   105   6 C        2.903    -0.059    29.473     8.902
   106   6 C        3.160     0.064    26.264     8.378
   107   7 N        2.636    -0.215    25.701     7.529
   108   1 H        0.926     0.030     2.580     2.512
   109   1 H        0.926     0.032     2.560     2.502
   110   1 H        0.926     0.032     2.558     2.501
   111   1 H        0.926     0.030     2.580     2.512
   112   1 H        0.926     0.050     2.321     2.382
   113   1 H        0.926     0.030     2.580     2.512
   114   1 H        0.926     0.032     2.562     2.503
   115   1 H        0.926     0.032     2.560     2.502
   116   1 H        0.926     0.030     2.580     2.512
   117   1 H        0.926     0.050     2.321     2.382
   118  26 Fe       3.081     0.568     5.143     7.315
   119   6 C        3.026    -0.055    29.326     8.883
   120   6 C        3.015    -0.054    29.330     8.884
   121   6 C        3.182     0.070    26.020     8.326
   122   6 C        2.955     0.011    27.759     8.642
   123   6 C        3.182     0.070    26.021     8.326
   124   6 C        3.015    -0.054    29.330     8.884
   125   6 C        3.026    -0.055    29.326     8.883
   126   6 C        3.160     0.064    26.268     8.379
   127   7 N        2.637    -0.215    25.699     7.529
   128   6 C        2.903    -0.059    29.471     8.901
   129   6 C        3.160     0.064    26.267     8.378
   130   6 C        3.026    -0.055    29.325     8.883
   131   6 C        3.014    -0.054    29.331     8.884
   132   6 C        3.182     0.070    26.017     8.325
   133   7 N        2.637    -0.215    25.700     7.529
   134   6 C        2.955     0.011    27.760     8.642
   135   6 C        3.182     0.070    26.019     8.326
   136   6 C        3.014    -0.054    29.332     8.884
   137   6 C        3.026    -0.055    29.325     8.883
   138   6 C        3.160     0.064    26.268     8.379
   139   7 N        2.637    -0.215    25.700     7.529
   140   6 C        2.903    -0.059    29.471     8.901
   141   6 C        3.160     0.064    26.268     8.379
   142   7 N        2.637    -0.215    25.700     7.529
   143   1 H        0.926     0.030     2.580     2.512
   144   1 H        0.926     0.032     2.562     2.503
   145   1 H        0.926     0.032     2.561     2.503
   146   1 H        0.926     0.030     2.580     2.512
   147   1 H        0.926     0.050     2.320     2.382
   148   1 H        0.926     0.030     2.580     2.512
   149   1 H        0.926     0.032     2.560     2.502
   150   1 H        0.926     0.032     2.559     2.502
   151   1 H        0.926     0.030     2.580     2.512
   152   1 H        0.926     0.050     2.320     2.382
   153  26 Fe       3.080     0.568     5.143     7.315
   154   6 C        3.026    -0.055    29.325     8.883
   155   6 C        3.015    -0.055    29.333     8.884
   156   6 C        3.183     0.070    26.017     8.325
   157   6 C        2.955     0.011    27.760     8.642
   158   6 C        3.182     0.070    26.018     8.326
   159   6 C        3.014    -0.054    29.330     8.884
   160   6 C        3.026    -0.055    29.325     8.883
   161   6 C        3.160     0.064    26.267     8.378
   162   7 N        2.637    -0.215    25.702     7.529
   163   6 C        2.903    -0.059    29.471     8.901
   164   6 C        3.160     0.064    26.269     8.379
   165   6 C        3.026    -0.055    29.325     8.883
   166   6 C        3.015    -0.054    29.330     8.884
   167   6 C        3.182     0.070    26.021     8.326
   168   7 N        2.637    -0.215    25.698     7.529
   169   6 C        2.955     0.011    27.760     8.642
   170   6 C        3.182     0.070    26.019     8.326
   171   6 C        3.015    -0.054    29.330     8.884
   172   6 C        3.026    -0.055    29.326     8.883
   173   6 C        3.160     0.064    26.266     8.378
   174   7 N        2.637    -0.215    25.701     7.529
   175   6 C        2.903    -0.059    29.471     8.901
   176   6 C        3.160     0.064    26.267     8.378
   177   7 N        2.637    -0.215    25.699     7.529
   178   1 H        0.926     0.030     2.580     2.512
   179   1 H        0.926     0.032     2.558     2.501
   180   1 H        0.926     0.032     2.561     2.503
   181   1 H        0.926     0.030     2.580     2.512
   182   1 H        0.926     0.050     2.320     2.382
   183   1 H        0.926     0.030     2.580     2.512
   184   1 H        0.926     0.032     2.561     2.503
   185   1 H        0.926     0.032     2.561     2.503
   186   1 H        0.926     0.030     2.580     2.512
   187   1 H        0.926     0.050     2.320     2.382
   188  26 Fe       3.080     0.568     5.143     7.316
   189   6 C        3.026    -0.055    29.325     8.883
   190   6 C        3.015    -0.054    29.329     8.884
   191   6 C        3.182     0.070    26.021     8.326
   192   6 C        2.955     0.011    27.760     8.642
   193   6 C        3.182     0.070    26.019     8.326
   194   6 C        3.015    -0.054    29.330     8.884
   195   6 C        3.026    -0.055    29.325     8.883
   196   6 C        3.160     0.064    26.267     8.378
   197   7 N        2.637    -0.215    25.697     7.529
   198   6 C        2.903    -0.059    29.472     8.902
   199   6 C        3.160     0.064    26.264     8.378
   200   6 C        3.027    -0.055    29.325     8.883
   201   6 C        3.014    -0.054    29.332     8.884
   202   6 C        3.183     0.070    26.016     8.325
   203   7 N        2.636    -0.215    25.701     7.529
   204   6 C        2.955     0.011    27.759     8.642
   205   6 C        3.182     0.070    26.017     8.325
   206   6 C        3.014    -0.054    29.328     8.883
   207   6 C        3.026    -0.054    29.324     8.883
   208   6 C        3.160     0.064    26.265     8.378
   209   7 N        2.637    -0.215    25.700     7.529
   210   6 C        2.903    -0.059    29.473     8.902
   211   6 C        3.160     0.064    26.267     8.379
   212   7 N        2.637    -0.215    25.697     7.529
   213   1 H        0.926     0.030     2.580     2.512
   214   1 H        0.926     0.032     2.561     2.503
   215   1 H        0.926     0.032     2.560     2.502
   216   1 H        0.926     0.030     2.580     2.512
   217   1 H        0.926     0.050     2.321     2.382
   218   1 H        0.926     0.030     2.580     2.512
   219   1 H        0.926     0.032     2.558     2.501
   220   1 H        0.926     0.032     2.561     2.502
   221   1 H        0.926     0.030     2.580     2.512
   222   1 H        0.926     0.050     2.321     2.382

 Mol. C6AA /au·bohr⁶  :     843794.636281
 Mol. C8AA /au·bohr⁸  :   22172364.874787
 Mol. α(0) /au        :       1507.906672


Wiberg/Mayer (AO) data.
largest (>0.10) Wiberg bond orders for each atom

 ---------------------------------------------------------------------------
     #   Z sym  total        # sym  WBO       # sym  WBO       # sym  WBO
 ---------------------------------------------------------------------------
     1  26 Fe   3.277 --    22 N    0.660    16 N    0.660    10 N    0.657
                            25 N    0.656
     2   6 C    3.957 --     3 C    1.645    24 C    1.171    26 H    0.972
     3   6 C    3.963 --     2 C    1.645     4 C    1.181    27 H    0.969
     4   6 C    3.928 --     5 C    1.263    25 N    1.256     3 C    1.181
     5   6 C    3.951 --     4 C    1.263     6 C    1.263    73 C    1.167
     6   6 C    3.928 --     5 C    1.263    10 N    1.256     7 C    1.181
     7   6 C    3.963 --     8 C    1.645     6 C    1.181    28 H    0.969
     8   6 C    3.957 --     7 C    1.645     9 C    1.171    29 H    0.972
     9   6 C    3.938 --    11 C    1.361    10 N    1.218     8 C    1.171
    10   7 N    3.416 --     6 C    1.256     9 C    1.218     1 Fe   0.657
    11   6 C    3.943 --    12 C    1.361     9 C    1.361    30 H    0.963
    12   6 C    3.942 --    11 C    1.361    16 N    1.227    13 C    1.163
    13   6 C    3.962 --    14 C    1.660    12 C    1.163    31 H    0.972
    14   6 C    3.960 --    13 C    1.660    15 C    1.164    32 H    0.972
    15   6 C    3.944 --    17 C    1.358    16 N    1.239    14 C    1.164
    16   7 N    3.412 --    15 C    1.239    12 C    1.227     1 Fe   0.660
    17   6 C    3.940 --    18 C    1.358    15 C    1.358    33 H    0.965
    18   6 C    3.944 --    17 C    1.358    22 N    1.239    19 C    1.164
    19   6 C    3.960 --    20 C    1.660    18 C    1.164    34 H    0.972
    20   6 C    3.962 --    19 C    1.660    21 C    1.163    35 H    0.972
    21   6 C    3.942 --    23 C    1.361    22 N    1.227    20 C    1.163
    22   7 N    3.412 --    18 C    1.239    21 C    1.227     1 Fe   0.660
    23   6 C    3.943 --    21 C    1.361    24 C    1.361    36 H    0.963
    24   6 C    3.938 --    23 C    1.361    25 N    1.218     2 C    1.171
    25   7 N    3.416 --     4 C    1.256    24 C    1.218     1 Fe   0.656
    26   1 H    0.998 --     2 C    0.972
    27   1 H    0.998 --     3 C    0.969
    28   1 H    0.998 --     7 C    0.969
    29   1 H    0.998 --     8 C    0.972
    30   1 H    0.996 --    11 C    0.963
    31   1 H    0.998 --    13 C    0.972
    32   1 H    0.998 --    14 C    0.972
    33   1 H    0.997 --    17 C    0.965
    34   1 H    0.998 --    19 C    0.972
    35   1 H    0.998 --    20 C    0.972
    36   1 H    0.996 --    23 C    0.963
    37  26 Fe   3.278 --    58 N    0.660    52 N    0.659    61 N    0.657
                            46 N    0.656
    38   6 C    3.957 --    39 C    1.645    60 C    1.171    62 H    0.972
    39   6 C    3.963 --    38 C    1.645    40 C    1.181    63 H    0.969
    40   6 C    3.928 --    41 C    1.263    61 N    1.256    39 C    1.181
    41   6 C    3.951 --    42 C    1.263    40 C    1.263    82 C    1.168
    42   6 C    3.928 --    41 C    1.263    46 N    1.256    43 C    1.181
    43   6 C    3.963 --    44 C    1.645    42 C    1.181    64 H    0.969
    44   6 C    3.957 --    43 C    1.645    45 C    1.171    65 H    0.972
    45   6 C    3.938 --    47 C    1.361    46 N    1.218    44 C    1.171
    46   7 N    3.416 --    42 C    1.256    45 C    1.218    37 Fe   0.656
    47   6 C    3.943 --    48 C    1.361    45 C    1.361    66 H    0.963
    48   6 C    3.942 --    47 C    1.361    52 N    1.227    49 C    1.163
    49   6 C    3.962 --    50 C    1.660    48 C    1.163    67 H    0.972
    50   6 C    3.960 --    49 C    1.660    51 C    1.164    68 H    0.972
    51   6 C    3.944 --    53 C    1.358    52 N    1.239    50 C    1.164
    52   7 N    3.412 --    51 C    1.239    48 C    1.227    37 Fe   0.659
    53   6 C    3.940 --    54 C    1.358    51 C    1.358    69 H    0.965
    54   6 C    3.944 --    53 C    1.358    58 N    1.239    55 C    1.164
    55   6 C    3.960 --    56 C    1.660    54 C    1.164    70 H    0.972
    56   6 C    3.962 --    55 C    1.660    57 C    1.163    71 H    0.972
    57   6 C    3.942 --    59 C    1.361    58 N    1.226    56 C    1.163
    58   7 N    3.412 --    54 C    1.239    57 C    1.226    37 Fe   0.660
    59   6 C    3.943 --    57 C    1.361    60 C    1.361    72 H    0.963
    60   6 C    3.938 --    59 C    1.361    61 N    1.218    38 C    1.171
    61   7 N    3.416 --    40 C    1.256    60 C    1.218    37 Fe   0.657
    62   1 H    0.998 --    38 C    0.972
    63   1 H    0.998 --    39 C    0.969
    64   1 H    0.998 --    43 C    0.969
    65   1 H    0.998 --    44 C    0.972
    66   1 H    0.996 --    47 C    0.963
    67   1 H    0.998 --    49 C    0.972
    68   1 H    0.998 --    50 C    0.972
    69   1 H    0.997 --    53 C    0.965
    70   1 H    0.998 --    55 C    0.972
    71   1 H    0.998 --    56 C    0.972
    72   1 H    0.996 --    59 C    0.963
    73   6 C    3.927 --    74 C    2.583     5 C    1.167
    74   6 C    3.929 --    73 C    2.583    87 C    1.169
    75   6 C    3.927 --    76 C    2.578    99 C    1.173
    76   6 C    3.927 --    75 C    2.578   122 C    1.173
    77   6 C    3.927 --    78 C    2.578   134 C    1.172
    78   6 C    3.927 --    77 C    2.578   157 C    1.172
    79   6 C    3.927 --    80 C    2.578   169 C    1.173
    80   6 C    3.927 --    79 C    2.578   192 C    1.172
    81   6 C    3.929 --    82 C    2.583   204 C    1.169
    82   6 C    3.927 --    81 C    2.583    41 C    1.168
    83  26 Fe   3.246 --   104 N    0.653    98 N    0.652    92 N    0.652
                           107 N    0.652
    84   6 C    3.958 --    85 C    1.644   106 C    1.171   108 H    0.972
    85   6 C    3.961 --    84 C    1.644    86 C    1.181   109 H    0.970
    86   6 C    3.929 --    87 C    1.261   107 N    1.259    85 C    1.181
    87   6 C    3.942 --    86 C    1.261    88 C    1.261    74 C    1.169
    88   6 C    3.929 --    87 C    1.261    92 N    1.259    89 C    1.181
    89   6 C    3.961 --    90 C    1.644    88 C    1.181   110 H    0.969
    90   6 C    3.958 --    89 C    1.644    91 C    1.171   111 H    0.972
    91   6 C    3.937 --    93 C    1.361    92 N    1.216    90 C    1.171
    92   7 N    3.408 --    88 C    1.259    91 C    1.216    83 Fe   0.652
    93   6 C    3.937 --    91 C    1.361    94 C    1.361   112 H    0.963
    94   6 C    3.937 --    93 C    1.361    98 N    1.216    95 C    1.172
    95   6 C    3.958 --    96 C    1.644    94 C    1.172   113 H    0.972
    96   6 C    3.961 --    95 C    1.644    97 C    1.182   114 H    0.968
    97   6 C    3.928 --    98 N    1.259    99 C    1.259    96 C    1.182
    98   7 N    3.408 --    97 C    1.259    94 C    1.216    83 Fe   0.652
    99   6 C    3.943 --   100 C    1.259    97 C    1.259    75 C    1.173
   100   6 C    3.928 --   104 N    1.259    99 C    1.259   101 C    1.182
   101   6 C    3.961 --   102 C    1.644   100 C    1.182   115 H    0.968
   102   6 C    3.958 --   101 C    1.644   103 C    1.172   116 H    0.972
   103   6 C    3.937 --   105 C    1.361   104 N    1.216   102 C    1.172
   104   7 N    3.408 --   100 C    1.259   103 C    1.216    83 Fe   0.653
   105   6 C    3.937 --   103 C    1.361   106 C    1.361   117 H    0.963
   106   6 C    3.937 --   105 C    1.361   107 N    1.216    84 C    1.171
   107   7 N    3.408 --    86 C    1.259   106 C    1.216    83 Fe   0.652
   108   1 H    0.998 --    84 C    0.972
   109   1 H    0.998 --    85 C    0.970
   110   1 H    0.998 --    89 C    0.969
   111   1 H    0.998 --    90 C    0.972
   112   1 H    0.996 --    93 C    0.963
   113   1 H    0.998 --    95 C    0.972
   114   1 H    0.998 --    96 C    0.968
   115   1 H    0.998 --   101 C    0.968
   116   1 H    0.998 --   102 C    0.972
   117   1 H    0.996 --   105 C    0.963
   118  26 Fe   3.246 --   127 N    0.652   139 N    0.652   133 N    0.652
                           142 N    0.652
   119   6 C    3.958 --   120 C    1.644   141 C    1.172   143 H    0.972
   120   6 C    3.961 --   119 C    1.644   121 C    1.182   144 H    0.968
   121   6 C    3.928 --   142 N    1.259   122 C    1.259   120 C    1.182
   122   6 C    3.942 --   123 C    1.259   121 C    1.259    76 C    1.173
   123   6 C    3.928 --   127 N    1.259   122 C    1.259   124 C    1.182
   124   6 C    3.961 --   125 C    1.644   123 C    1.182   145 H    0.968
   125   6 C    3.958 --   124 C    1.644   126 C    1.172   146 H    0.972
   126   6 C    3.937 --   128 C    1.361   127 N    1.216   125 C    1.172
   127   7 N    3.408 --   123 C    1.259   126 C    1.216   118 Fe   0.652
   128   6 C    3.937 --   126 C    1.361   129 C    1.361   147 H    0.963
   129   6 C    3.937 --   128 C    1.361   133 N    1.216   130 C    1.172
   130   6 C    3.958 --   131 C    1.644   129 C    1.172   148 H    0.972
   131   6 C    3.961 --   130 C    1.644   132 C    1.182   149 H    0.969
   132   6 C    3.928 --   133 N    1.259   134 C    1.259   131 C    1.182
   133   7 N    3.407 --   132 C    1.259   129 C    1.216   118 Fe   0.652
   134   6 C    3.942 --   132 C    1.259   135 C    1.259    77 C    1.172
   135   6 C    3.928 --   134 C    1.259   139 N    1.259   136 C    1.182
   136   6 C    3.961 --   137 C    1.644   135 C    1.182   150 H    0.969
   137   6 C    3.958 --   136 C    1.644   138 C    1.172   151 H    0.972
   138   6 C    3.937 --   140 C    1.361   139 N    1.216   137 C    1.172
   139   7 N    3.407 --   135 C    1.259   138 C    1.216   118 Fe   0.652
   140   6 C    3.937 --   138 C    1.361   141 C    1.361   152 H    0.963
   141   6 C    3.937 --   140 C    1.361   142 N    1.216   119 C    1.172
   142   7 N    3.408 --   121 C    1.259   141 C    1.216   118 Fe   0.652
   143   1 H    0.998 --   119 C    0.972
   144   1 H    0.998 --   120 C    0.968
   145   1 H    0.998 --   124 C    0.968
   146   1 H    0.998 --   125 C    0.972
   147   1 H    0.996 --   128 C    0.963
   148   1 H    0.998 --   130 C    0.972
   149   1 H    0.998 --   131 C    0.969
   150   1 H    0.998 --   136 C    0.969
   151   1 H    0.998 --   137 C    0.972
   152   1 H    0.996 --   140 C    0.963
   153  26 Fe   3.245 --   168 N    0.652   177 N    0.652   174 N    0.652
                           162 N    0.652
   154   6 C    3.958 --   155 C    1.644   176 C    1.172   178 H    0.972
   155   6 C    3.961 --   154 C    1.644   156 C    1.182   179 H    0.969
   156   6 C    3.928 --   177 N    1.259   157 C    1.259   155 C    1.182
   157   6 C    3.942 --   158 C    1.259   156 C    1.259    78 C    1.172
   158   6 C    3.928 --   157 C    1.259   162 N    1.259   159 C    1.182
   159   6 C    3.961 --   160 C    1.644   158 C    1.182   180 H    0.969
   160   6 C    3.958 --   159 C    1.644   161 C    1.172   181 H    0.972
   161   6 C    3.937 --   163 C    1.360   162 N    1.216   160 C    1.172
   162   7 N    3.407 --   158 C    1.259   161 C    1.216   153 Fe   0.652
   163   6 C    3.937 --   164 C    1.361   161 C    1.360   182 H    0.963
   164   6 C    3.937 --   163 C    1.361   168 N    1.216   165 C    1.172
   165   6 C    3.958 --   166 C    1.644   164 C    1.172   183 H    0.972
   166   6 C    3.961 --   165 C    1.644   167 C    1.182   184 H    0.968
   167   6 C    3.928 --   168 N    1.259   169 C    1.259   166 C    1.182
   168   7 N    3.408 --   167 C    1.259   164 C    1.216   153 Fe   0.652
   169   6 C    3.942 --   167 C    1.259   170 C    1.259    79 C    1.173
   170   6 C    3.928 --   174 N    1.259   169 C    1.259   171 C    1.182
   171   6 C    3.961 --   172 C    1.644   170 C    1.182   185 H    0.968
   172   6 C    3.958 --   171 C    1.644   173 C    1.172   186 H    0.972
   173   6 C    3.937 --   175 C    1.360   174 N    1.216   172 C    1.172
   174   7 N    3.407 --   170 C    1.259   173 C    1.216   153 Fe   0.652
   175   6 C    3.937 --   176 C    1.361   173 C    1.360   187 H    0.963
   176   6 C    3.937 --   175 C    1.361   177 N    1.216   154 C    1.172
   177   7 N    3.408 --   156 C    1.259   176 C    1.216   153 Fe   0.652
   178   1 H    0.998 --   154 C    0.972
   179   1 H    0.998 --   155 C    0.969
   180   1 H    0.998 --   159 C    0.969
   181   1 H    0.998 --   160 C    0.972
   182   1 H    0.996 --   163 C    0.963
   183   1 H    0.998 --   165 C    0.972
   184   1 H    0.998 --   166 C    0.968
   185   1 H    0.998 --   171 C    0.968
   186   1 H    0.998 --   172 C    0.972
   187   1 H    0.996 --   175 C    0.963
   188  26 Fe   3.247 --   212 N    0.653   209 N    0.652   197 N    0.652
                           203 N    0.652
   189   6 C    3.958 --   190 C    1.644   211 C    1.172   213 H    0.972
   190   6 C    3.961 --   189 C    1.644   191 C    1.182   214 H    0.968
   191   6 C    3.928 --   192 C    1.259   212 N    1.259   190 C    1.182
   192   6 C    3.943 --   191 C    1.259   193 C    1.259    80 C    1.172
   193   6 C    3.928 --   197 N    1.259   192 C    1.259   194 C    1.182
   194   6 C    3.961 --   195 C    1.644   193 C    1.182   215 H    0.968
   195   6 C    3.958 --   194 C    1.644   196 C    1.172   216 H    0.972
   196   6 C    3.937 --   198 C    1.361   197 N    1.216   195 C    1.172
   197   7 N    3.408 --   193 C    1.259   196 C    1.216   188 Fe   0.652
   198   6 C    3.937 --   196 C    1.361   199 C    1.361   217 H    0.963
   199   6 C    3.937 --   198 C    1.361   203 N    1.216   200 C    1.171
   200   6 C    3.958 --   201 C    1.644   199 C    1.171   218 H    0.972
   201   6 C    3.961 --   200 C    1.644   202 C    1.181   219 H    0.969
   202   6 C    3.929 --   204 C    1.260   203 N    1.259   201 C    1.181
   203   7 N    3.407 --   202 C    1.259   199 C    1.216   188 Fe   0.652
   204   6 C    3.942 --   205 C    1.261   202 C    1.260    81 C    1.169
   205   6 C    3.929 --   204 C    1.261   209 N    1.259   206 C    1.181
   206   6 C    3.961 --   207 C    1.644   205 C    1.181   220 H    0.969
   207   6 C    3.958 --   206 C    1.644   208 C    1.171   221 H    0.972
   208   6 C    3.937 --   210 C    1.361   209 N    1.216   207 C    1.171
   209   7 N    3.408 --   205 C    1.259   208 C    1.216   188 Fe   0.652
   210   6 C    3.937 --   211 C    1.361   208 C    1.361   222 H    0.963
   211   6 C    3.937 --   210 C    1.361   212 N    1.216   189 C    1.172
   212   7 N    3.408 --   191 C    1.259   211 C    1.216   188 Fe   0.653
   213   1 H    0.998 --   189 C    0.972
   214   1 H    0.998 --   190 C    0.968
   215   1 H    0.998 --   194 C    0.968
   216   1 H    0.998 --   195 C    0.972
   217   1 H    0.996 --   198 C    0.963
   218   1 H    0.998 --   200 C    0.972
   219   1 H    0.998 --   201 C    0.969
   220   1 H    0.998 --   206 C    0.969
   221   1 H    0.998 --   207 C    0.972
   222   1 H    0.996 --   210 C    0.963
 ---------------------------------------------------------------------------

Topologies differ in total number of bonds
Writing topology from bond orders to xtbtopo.mol

molecular dipole:
                 x           y           z       tot (Debye)
 q only:       -0.000       0.003      -0.004
   full:       -0.000       0.004      -0.008       0.022
molecular quadrupole (traceless):
                xx          xy          yy          xz          yz          zz
 q only:       47.158       0.738     -17.140      -0.655      -0.565     -30.018
  q+dip:      103.251       1.238     -15.557      -1.670      -3.175     -87.693
   full:       69.636       1.137     -17.880      -1.596      -1.490     -51.756


           -------------------------------------------------
          | TOTAL ENERGY             -399.239898839147 Eh   |
          | GRADIENT NORM               0.000548984029 Eh/α |
          | HOMO-LUMO GAP               0.241195287373 eV   |
           -------------------------------------------------

------------------------------------------------------------------------
 * finished run on 2021/11/21 at 01:44:11.436     
------------------------------------------------------------------------
 total:
 * wall-time:     0 d,  0 h,  0 min, 20.009 sec
 *  cpu-time:     0 d,  0 h,  0 min, 20.010 sec
 * ratio c/w:     1.000 speedup
 SCF:
 * wall-time:     0 d,  0 h,  0 min, 19.887 sec
 *  cpu-time:     0 d,  0 h,  0 min, 19.887 sec
 * ratio c/w:     1.000 speedup

