      -----------------------------------------------------------      
     |                   =====================                   |     
     |                           x T B                           |     
     |                   =====================                   |     
     |                         S. Grimme                         |     
     |          Mulliken Center for Theoretical Chemistry        |     
     |                    University of Bonn                     |     
      -----------------------------------------------------------      

   * xtb version 6.4.1 (bd6e46d) compiled by 'conda@4901f00b25ba' on 2021-06-10

   xtb is free software: you can redistribute it and/or modify it under
   the terms of the GNU Lesser General Public License as published by
   the Free Software Foundation, either version 3 of the License, or
   (at your option) any later version.
   
   xtb is distributed in the hope that it will be useful,
   but WITHOUT ANY WARRANTY; without even the implied warranty of
   MERCHANTABILITY or FITNESS FOR A PARTICULAR PURPOSE.  See the
   GNU Lesser General Public License for more details.
   
   Cite this work as:
   * C. Bannwarth, E. Caldeweyher, S. Ehlert, A. Hansen, P. Pracht,
     J. Seibert, S. Spicher, S. Grimme, WIREs Comput. Mol. Sci., 2020, 11,
     e01493. DOI: 10.1002/wcms.1493
   
   for GFN2-xTB:
   * C. Bannwarth, S. Ehlert and S. Grimme., J. Chem. Theory Comput., 2019,
     15, 1652-1671. DOI: 10.1021/acs.jctc.8b01176
   for GFN1-xTB:
   * S. Grimme, C. Bannwarth, P. Shushkov, J. Chem. Theory Comput., 2017,
     13, 1989-2009. DOI: 10.1021/acs.jctc.7b00118
   for GFN0-xTB:
   * P. Pracht, E. Caldeweyher, S. Ehlert, S. Grimme, ChemRxiv, 2019, preprint.
     DOI: 10.26434/chemrxiv.8326202.v1
   for GFN-FF:
   * S. Spicher and S. Grimme, Angew. Chem. Int. Ed., 2020, 59, 15665-15673.
     DOI: 10.1002/anie.202004239
   
   for DFT-D4:
   * E. Caldeweyher, C. Bannwarth and S. Grimme, J. Chem. Phys., 2017,
     147, 034112. DOI: 10.1063/1.4993215
   * E. Caldeweyher, S. Ehlert, A. Hansen, H. Neugebauer, S. Spicher,
     C. Bannwarth and S. Grimme, J. Chem. Phys., 2019, 150, 154122.
     DOI: 10.1063/1.5090222
   * E. Caldeweyher, J.-M. Mewes, S. Ehlert and S. Grimme, Phys. Chem. Chem. Phys.
     2020, 22, 8499-8512. DOI: 10.1039/D0CP00502A
   
   for sTDA-xTB:
   * S. Grimme and C. Bannwarth, J. Chem. Phys., 2016, 145, 054103.
     DOI: 10.1063/1.4959605
   
   in the mass-spec context:
   * V. Asgeirsson, C. Bauer and S. Grimme, Chem. Sci., 2017, 8, 4879.
     DOI: 10.1039/c7sc00601b
   * J. Koopman and S. Grimme, ACS Omega 2019, 4, 12, 15120-15133.
     DOI: 10.1021/acsomega.9b02011
   
   for metadynamics refer to:
   * S. Grimme, J. Chem. Theory Comput., 2019, 155, 2847-2862
     DOI: 10.1021/acs.jctc.9b00143
   
   for SPH calculations refer to:
   * S. Spicher and S. Grimme, J. Chem. Theory Comput., 2021, 17, 1701-1714
     DOI: 10.1021/acs.jctc.0c01306
   
   with help from (in alphabetical order)
   P. Atkinson, C. Bannwarth, F. Bohle, G. Brandenburg, E. Caldeweyher
   M. Checinski, S. Dohm, S. Ehlert, S. Ehrlich, I. Gerasimov, J. Koopman
   C. Lavigne, S. Lehtola, F. März, M. Müller, F. Musil, H. Neugebauer
   J. Pisarek, C. Plett, P. Pracht, J. Seibert, P. Shushkov, S. Spicher
   M. Stahn, M. Steiner, T. Strunk, J. Stückrath, T. Rose, and J. Unsleber
   
 * started run on 2021/11/20 at 15:57:28.995     

           -------------------------------------------------
          |                Calculation Setup                |
           -------------------------------------------------

          program call               : /home/jeff/miniconda3/bin/xtb /home/jeff/chem/final-year-proejct/Zn+2_6_5_outenergy/input_structure.xyz --gfn 2 --parallel 1 --etemp 300 --chrg 0 --uhf 0 -I det_control.in
          coordinate file            : /home/jeff/chem/final-year-proejct/Zn+2_6_5_outenergy/input_structure.xyz
          omp threads                :                     1
          number of atoms            :                   201
          number of electrons        :                   658
          charge                     :                     0
          spin                       :                   0.0
          first test random number   :      0.94398212650176

   ID    Z sym.   atoms
    1   30 Zn     1, 37, 97, 132, 167
    2    6 C      2-9, 11-15, 17-21, 23, 24, 38-45, 47-51, 53-57, 59, 60,
                  73-96, 98-105, 107-111, 113-117, 119, 120, 133-140,
                  142-146, 148-152, 154, 155, 168-175, 177-181, 183-187, 189,
                  190
    3    7 N      10, 16, 22, 25, 46, 52, 58, 61, 106, 112, 118, 121, 141,
                  147, 153, 156, 176, 182, 188, 191
    4    1 H      26-36, 62-72, 122-131, 157-166, 192-201

           -------------------------------------------------
          |                 G F N 2 - x T B                 |
           -------------------------------------------------

        Reference                      10.1021/acs.jctc.8b01176
      * Hamiltonian:
        H0-scaling (s, p, d)           1.850000    2.230000    2.230000
        zeta-weighting                 0.500000
      * Dispersion:
        s8                             2.700000
        a1                             0.520000
        a2                             5.000000
        s9                             5.000000
      * Repulsion:
        kExp                           1.500000    1.000000
        rExp                           1.000000
      * Coulomb:
        alpha                          2.000000
        third order                    shell-resolved
        anisotropic                    true
        a3                             3.000000
        a5                             4.000000
        cn-shift                       1.200000
        cn-exp                         4.000000
        max-rad                        5.000000


          ...................................................
          :                      SETUP                      :
          :.................................................:
          :  # basis functions                 648          :
          :  # atomic orbitals                 648          :
          :  # shells                          350          :
          :  # electrons                       658          :
          :  max. iterations                   250          :
          :  Hamiltonian                  GFN2-xTB          :
          :  restarted?                      false          :
          :  GBSA solvation                  false          :
          :  PC potential                    false          :
          :  electronic temp.          300.0000000     K    :
          :  accuracy                    1.0000000          :
          :  -> integral cutoff          0.2500000E+02      :
          :  -> integral neglect         0.1000000E-07      :
          :  -> SCF convergence          0.1000000E-05 Eh   :
          :  -> wf. convergence          0.1000000E-03 e    :
          :  Broyden damping             0.4000000          :
          ...................................................

 iter      E             dE          RMSdq      gap      omega  full diag
   1   -358.7401488 -0.358740E+03  0.735E+00    0.89       0.0  T
   2   -359.4223990 -0.682250E+00  0.392E+00    0.86       1.0  T
   3   -359.1395323  0.282867E+00  0.250E+00    0.97       1.0  T
   4   -359.9713406 -0.831808E+00  0.406E-01    0.89       1.0  T
   5   -359.9764347 -0.509412E-02  0.279E-01    0.92       1.0  T
   6   -359.9776762 -0.124145E-02  0.176E-01    0.91       1.0  T
   7   -359.9782106 -0.534418E-03  0.114E-01    0.91       1.0  T
   8   -359.9813661 -0.315554E-02  0.380E-02    0.90       1.0  T
   9   -359.9816520 -0.285883E-03  0.147E-02    0.91       1.0  T
  10   -359.9816741 -0.221362E-04  0.744E-03    0.91       1.0  T
  11   -359.9816806 -0.645268E-05  0.291E-03    0.91       2.4  T
  12   -359.9816815 -0.903967E-06  0.120E-03    0.91       5.9  T
  13   -359.9816815 -0.514408E-07  0.762E-04    0.91       9.3  T
  14   -359.9816816 -0.686088E-07  0.345E-04    0.91      20.5  T

   *** convergence criteria satisfied after 14 iterations ***

         #    Occupation            Energy/Eh            Energy/eV
      -------------------------------------------------------------
         1        2.0000           -0.6690699             -18.2063
       ...           ...                  ...                  ...
       323        2.0000           -0.3697038             -10.0602
       324        2.0000           -0.3696893             -10.0598
       325        2.0000           -0.3687661             -10.0346
       326        2.0000           -0.3646044              -9.9214
       327        2.0000           -0.3591240              -9.7723
       328        2.0000           -0.3536946              -9.6245
       329        2.0000           -0.3497681              -9.5177 (HOMO)
       330                         -0.3164540              -8.6112 (LUMO)
       331                         -0.3116980              -8.4817
       332                         -0.3058917              -8.3237
       333                         -0.3006141              -8.1801
       334                         -0.3004086              -8.1745
       ...                                ...                  ...
       648                          1.7153271              46.6764
      -------------------------------------------------------------
                  HL-Gap            0.0333141 Eh            0.9065 eV
             Fermi-level           -0.3331066 Eh           -9.0643 eV

 SCC (total)                   0 d,  0 h,  0 min,  2.035 sec
 SCC setup                      ...        0 min,  0.007 sec (  0.364%)
 Dispersion                     ...        0 min,  0.015 sec (  0.742%)
 classical contributions        ...        0 min,  0.001 sec (  0.070%)
 integral evaluation            ...        0 min,  0.114 sec (  5.617%)
 iterations                     ...        0 min,  1.573 sec ( 77.319%)
 molecular gradient             ...        0 min,  0.310 sec ( 15.227%)
 printout                       ...        0 min,  0.013 sec (  0.658%)

         :::::::::::::::::::::::::::::::::::::::::::::::::::::
         ::                     SUMMARY                     ::
         :::::::::::::::::::::::::::::::::::::::::::::::::::::
         :: total energy            -353.117606050091 Eh    ::
         :: gradient norm              0.000926756461 Eh/a0 ::
         :: HOMO-LUMO gap              0.906522230527 eV    ::
         ::.................................................::
         :: SCC energy              -359.981681618288 Eh    ::
         :: -> isotropic ES            0.325217582162 Eh    ::
         :: -> anisotropic ES          0.043891300192 Eh    ::
         :: -> anisotropic XC          0.220217015926 Eh    ::
         :: -> dispersion             -0.317542574834 Eh    ::
         :: repulsion energy           6.869198730744 Eh    ::
         :: add. restraining           0.000000000000 Eh    ::
         :: total charge               0.000000000454 e     ::
         :::::::::::::::::::::::::::::::::::::::::::::::::::::

           -------------------------------------------------
          |                Property Printout                |
           -------------------------------------------------

    * Orbital Energies and Occupations

         #    Occupation            Energy/Eh            Energy/eV
      -------------------------------------------------------------
         1        2.0000           -0.6690699             -18.2063
       ...           ...                  ...                  ...
       317        2.0000           -0.3807434             -10.3606
       318        2.0000           -0.3805620             -10.3556
       319        2.0000           -0.3802396             -10.3468
       320        2.0000           -0.3714231             -10.1069
       321        2.0000           -0.3712156             -10.1013
       322        2.0000           -0.3712116             -10.1012
       323        2.0000           -0.3697038             -10.0602
       324        2.0000           -0.3696893             -10.0598
       325        2.0000           -0.3687661             -10.0346
       326        2.0000           -0.3646044              -9.9214
       327        2.0000           -0.3591240              -9.7723
       328        2.0000           -0.3536946              -9.6245
       329        2.0000           -0.3497681              -9.5177 (HOMO)
       330                         -0.3164540              -8.6112 (LUMO)
       331                         -0.3116980              -8.4817
       332                         -0.3058917              -8.3237
       333                         -0.3006141              -8.1801
       334                         -0.3004086              -8.1745
       335                         -0.3004041              -8.1744
       336                         -0.3002356              -8.1698
       337                         -0.2990032              -8.1363
       338                         -0.2989886              -8.1359
       339                         -0.2972351              -8.0882
       340                         -0.2772502              -7.5444
       ...                                ...                  ...
       648                          1.7153271              46.6764
      -------------------------------------------------------------
                  HL-Gap            0.0333141 Eh            0.9065 eV
             Fermi-level           -0.3331066 Eh           -9.0643 eV

     #   Z          covCN         q      C6AA      α(0)
     1  30 Zn       3.042     0.245   122.297    21.603
     2   6 C        3.020    -0.052    29.264     8.874
     3   6 C        3.018    -0.051    29.231     8.869
     4   6 C        3.166     0.077    25.939     8.322
     5   6 C        2.953     0.016    27.642     8.623
     6   6 C        3.166     0.077    25.937     8.322
     7   6 C        3.018    -0.050    29.229     8.868
     8   6 C        3.020    -0.052    29.265     8.874
     9   6 C        3.149     0.076    26.049     8.349
    10   7 N        2.632    -0.177    24.839     7.402
    11   6 C        2.901    -0.050    29.233     8.865
    12   6 C        3.145     0.077    26.036     8.348
    13   6 C        3.017    -0.051    29.243     8.870
    14   6 C        3.018    -0.051    29.246     8.871
    15   6 C        3.145     0.077    26.027     8.347
    16   7 N        2.635    -0.175    24.790     7.395
    17   6 C        2.901    -0.051    29.276     8.872
    18   6 C        3.145     0.077    26.027     8.347
    19   6 C        3.018    -0.051    29.246     8.871
    20   6 C        3.017    -0.051    29.243     8.870
    21   6 C        3.145     0.077    26.036     8.348
    22   7 N        2.635    -0.175    24.791     7.395
    23   6 C        2.901    -0.050    29.232     8.865
    24   6 C        3.149     0.076    26.050     8.349
    25   7 N        2.632    -0.177    24.839     7.402
    26   1 H        0.926     0.034     2.533     2.489
    27   1 H        0.926     0.036     2.505     2.475
    28   1 H        0.926     0.036     2.505     2.475
    29   1 H        0.926     0.034     2.533     2.489
    30   1 H        0.926     0.049     2.328     2.386
    31   1 H        0.926     0.034     2.525     2.485
    32   1 H        0.926     0.034     2.526     2.485
    33   1 H        0.926     0.049     2.336     2.390
    34   1 H        0.926     0.034     2.526     2.485
    35   1 H        0.926     0.034     2.525     2.485
    36   1 H        0.926     0.049     2.328     2.386
    37  30 Zn       3.042     0.245   122.297    21.603
    38   6 C        3.020    -0.052    29.264     8.874
    39   6 C        3.018    -0.050    29.231     8.869
    40   6 C        3.166     0.077    25.938     8.322
    41   6 C        2.953     0.016    27.642     8.623
    42   6 C        3.166     0.077    25.938     8.322
    43   6 C        3.018    -0.050    29.229     8.868
    44   6 C        3.020    -0.052    29.264     8.874
    45   6 C        3.149     0.076    26.049     8.349
    46   7 N        2.631    -0.177    24.841     7.402
    47   6 C        2.901    -0.050    29.233     8.865
    48   6 C        3.145     0.077    26.036     8.348
    49   6 C        3.017    -0.051    29.243     8.870
    50   6 C        3.018    -0.051    29.246     8.871
    51   6 C        3.145     0.077    26.027     8.347
    52   7 N        2.635    -0.175    24.790     7.395
    53   6 C        2.901    -0.051    29.277     8.872
    54   6 C        3.145     0.077    26.027     8.347
    55   6 C        3.018    -0.051    29.246     8.871
    56   6 C        3.017    -0.051    29.243     8.870
    57   6 C        3.145     0.077    26.036     8.348
    58   7 N        2.635    -0.175    24.791     7.395
    59   6 C        2.901    -0.050    29.233     8.865
    60   6 C        3.149     0.076    26.049     8.349
    61   7 N        2.632    -0.177    24.838     7.402
    62   1 H        0.926     0.034     2.533     2.489
    63   1 H        0.926     0.036     2.506     2.475
    64   1 H        0.926     0.036     2.506     2.475
    65   1 H        0.926     0.034     2.533     2.489
    66   1 H        0.926     0.049     2.328     2.386
    67   1 H        0.926     0.034     2.525     2.485
    68   1 H        0.926     0.034     2.526     2.485
    69   1 H        0.926     0.049     2.336     2.390
    70   1 H        0.926     0.034     2.526     2.485
    71   1 H        0.926     0.034     2.525     2.485
    72   1 H        0.926     0.049     2.328     2.386
    73   6 C        1.997    -0.019    31.545     9.070
    74   6 C        1.963    -0.011    31.355     9.043
    75   6 C        1.964    -0.002    31.121     9.009
    76   6 C        1.964    -0.003    31.141     9.012
    77   6 C        1.963    -0.010    31.336     9.040
    78   6 C        1.997    -0.020    31.566     9.073
    79   6 C        1.997    -0.019    31.550     9.071
    80   6 C        1.963    -0.010    31.343     9.041
    81   6 C        1.965    -0.002    31.124     9.009
    82   6 C        1.965    -0.002    31.128     9.010
    83   6 C        1.963    -0.010    31.339     9.040
    84   6 C        1.997    -0.019    31.554     9.072
    85   6 C        1.997    -0.019    31.555     9.072
    86   6 C        1.963    -0.010    31.339     9.040
    87   6 C        1.965    -0.002    31.128     9.010
    88   6 C        1.965    -0.002    31.124     9.009
    89   6 C        1.963    -0.010    31.343     9.041
    90   6 C        1.997    -0.019    31.551     9.071
    91   6 C        1.997    -0.020    31.565     9.073
    92   6 C        1.963    -0.010    31.336     9.040
    93   6 C        1.964    -0.003    31.140     9.012
    94   6 C        1.965    -0.002    31.119     9.009
    95   6 C        1.963    -0.011    31.355     9.043
    96   6 C        1.997    -0.019    31.543     9.070
    97  30 Zn       3.038     0.247   122.272    21.600
    98   6 C        3.021    -0.052    29.259     8.873
    99   6 C        3.019    -0.050    29.229     8.868
   100   6 C        3.168     0.078    25.928     8.320
   101   6 C        2.953     0.017    27.632     8.622
   102   6 C        3.168     0.078    25.927     8.320
   103   6 C        3.019    -0.050    29.229     8.868
   104   6 C        3.021    -0.052    29.259     8.873
   105   6 C        3.151     0.075    26.052     8.348
   106   7 N        2.632    -0.177    24.841     7.402
   107   6 C        2.901    -0.047    29.178     8.857
   108   6 C        3.151     0.075    26.052     8.348
   109   6 C        3.021    -0.052    29.258     8.873
   110   6 C        3.019    -0.051    29.231     8.869
   111   6 C        3.168     0.078    25.924     8.319
   112   7 N        2.632    -0.177    24.843     7.402
   113   6 C        2.953     0.017    27.639     8.623
   114   6 C        3.168     0.078    25.924     8.319
   115   6 C        3.018    -0.051    29.231     8.869
   116   6 C        3.021    -0.052    29.258     8.873
   117   6 C        3.151     0.075    26.052     8.348
   118   7 N        2.632    -0.177    24.843     7.402
   119   6 C        2.901    -0.047    29.178     8.857
   120   6 C        3.151     0.075    26.052     8.348
   121   7 N        2.632    -0.177    24.840     7.402
   122   1 H        0.926     0.034     2.530     2.487
   123   1 H        0.926     0.036     2.503     2.474
   124   1 H        0.926     0.036     2.503     2.474
   125   1 H        0.926     0.034     2.530     2.487
   126   1 H        0.925     0.050     2.319     2.381
   127   1 H        0.926     0.034     2.530     2.487
   128   1 H        0.926     0.036     2.505     2.475
   129   1 H        0.926     0.036     2.505     2.475
   130   1 H        0.926     0.034     2.530     2.487
   131   1 H        0.925     0.050     2.319     2.381
   132  30 Zn       3.038     0.247   122.272    21.600
   133   6 C        3.021    -0.052    29.258     8.873
   134   6 C        3.019    -0.050    29.230     8.868
   135   6 C        3.168     0.078    25.925     8.319
   136   6 C        2.953     0.017    27.636     8.622
   137   6 C        3.168     0.078    25.924     8.319
   138   6 C        3.019    -0.050    29.230     8.868
   139   6 C        3.021    -0.052    29.258     8.873
   140   6 C        3.151     0.075    26.052     8.348
   141   7 N        2.632    -0.177    24.840     7.402
   142   6 C        2.901    -0.047    29.176     8.857
   143   6 C        3.151     0.075    26.051     8.348
   144   6 C        3.021    -0.052    29.258     8.873
   145   6 C        3.019    -0.050    29.230     8.868
   146   6 C        3.168     0.078    25.924     8.319
   147   7 N        2.632    -0.177    24.841     7.402
   148   6 C        2.953     0.017    27.636     8.622
   149   6 C        3.168     0.078    25.925     8.319
   150   6 C        3.019    -0.050    29.230     8.868
   151   6 C        3.021    -0.052    29.258     8.873
   152   6 C        3.151     0.075    26.052     8.348
   153   7 N        2.632    -0.177    24.841     7.402
   154   6 C        2.901    -0.047    29.176     8.857
   155   6 C        3.151     0.075    26.052     8.348
   156   7 N        2.632    -0.177    24.840     7.402
   157   1 H        0.926     0.034     2.529     2.487
   158   1 H        0.926     0.036     2.504     2.474
   159   1 H        0.926     0.036     2.504     2.474
   160   1 H        0.926     0.034     2.529     2.487
   161   1 H        0.925     0.050     2.318     2.381
   162   1 H        0.926     0.034     2.529     2.487
   163   1 H        0.926     0.036     2.504     2.474
   164   1 H        0.926     0.036     2.504     2.474
   165   1 H        0.926     0.034     2.529     2.487
   166   1 H        0.925     0.050     2.318     2.381
   167  30 Zn       3.038     0.247   122.272    21.600
   168   6 C        3.021    -0.052    29.258     8.873
   169   6 C        3.019    -0.051    29.231     8.869
   170   6 C        3.168     0.078    25.924     8.319
   171   6 C        2.953     0.017    27.639     8.623
   172   6 C        3.168     0.078    25.924     8.319
   173   6 C        3.018    -0.051    29.230     8.869
   174   6 C        3.021    -0.052    29.258     8.873
   175   6 C        3.151     0.075    26.052     8.348
   176   7 N        2.632    -0.177    24.843     7.402
   177   6 C        2.901    -0.048    29.179     8.857
   178   6 C        3.151     0.075    26.052     8.348
   179   6 C        3.021    -0.052    29.259     8.873
   180   6 C        3.019    -0.050    29.229     8.868
   181   6 C        3.168     0.078    25.928     8.320
   182   7 N        2.632    -0.177    24.841     7.402
   183   6 C        2.953     0.017    27.631     8.622
   184   6 C        3.168     0.078    25.927     8.320
   185   6 C        3.019    -0.050    29.229     8.868
   186   6 C        3.021    -0.052    29.259     8.873
   187   6 C        3.151     0.075    26.051     8.348
   188   7 N        2.632    -0.177    24.841     7.402
   189   6 C        2.901    -0.048    29.179     8.857
   190   6 C        3.151     0.075    26.052     8.348
   191   7 N        2.632    -0.177    24.842     7.402
   192   1 H        0.926     0.034     2.530     2.487
   193   1 H        0.926     0.036     2.505     2.475
   194   1 H        0.926     0.036     2.505     2.475
   195   1 H        0.926     0.034     2.530     2.487
   196   1 H        0.925     0.050     2.319     2.381
   197   1 H        0.926     0.034     2.530     2.487
   198   1 H        0.926     0.036     2.503     2.474
   199   1 H        0.926     0.036     2.503     2.474
   200   1 H        0.926     0.034     2.530     2.487
   201   1 H        0.925     0.050     2.319     2.381

 Mol. C6AA /au·bohr⁶  :     804215.899039
 Mol. C8AA /au·bohr⁸  :   22923452.971462
 Mol. α(0) /au        :       1464.519328


Wiberg/Mayer (AO) data.
largest (>0.10) Wiberg bond orders for each atom

 ---------------------------------------------------------------------------
     #   Z sym  total        # sym  WBO       # sym  WBO       # sym  WBO
 ---------------------------------------------------------------------------
     1  30 Zn   2.081 --    16 N    0.491    22 N    0.491    25 N    0.489
                            10 N    0.489
     2   6 C    3.953 --     3 C    1.650    24 C    1.171    26 H    0.972
     3   6 C    3.957 --     2 C    1.650     4 C    1.179    27 H    0.971
     4   6 C    3.910 --    25 N    1.286     5 C    1.250     3 C    1.179
     5   6 C    3.942 --     6 C    1.251     4 C    1.250    73 C    1.187
     6   6 C    3.910 --    10 N    1.286     5 C    1.251     7 C    1.179
     7   6 C    3.957 --     8 C    1.650     6 C    1.179    28 H    0.971
     8   6 C    3.953 --     7 C    1.650     9 C    1.171    29 H    0.972
     9   6 C    3.924 --    11 C    1.358    10 N    1.247     8 C    1.171
    10   7 N    3.467 --     6 C    1.286     9 C    1.247     1 Zn   0.489
    11   6 C    3.931 --     9 C    1.358    12 C    1.354    30 H    0.964
    12   6 C    3.929 --    11 C    1.354    16 N    1.261    13 C    1.163
    13   6 C    3.957 --    14 C    1.666    12 C    1.163    31 H    0.972
    14   6 C    3.955 --    13 C    1.666    15 C    1.162    32 H    0.972
    15   6 C    3.932 --    17 C    1.354    16 N    1.263    14 C    1.162
    16   7 N    3.464 --    15 C    1.263    12 C    1.261     1 Zn   0.491
    17   6 C    3.926 --    15 C    1.354    18 C    1.354    33 H    0.964
    18   6 C    3.932 --    17 C    1.354    22 N    1.263    19 C    1.162
    19   6 C    3.955 --    20 C    1.666    18 C    1.162    34 H    0.972
    20   6 C    3.957 --    19 C    1.666    21 C    1.163    35 H    0.972
    21   6 C    3.929 --    23 C    1.354    22 N    1.261    20 C    1.163
    22   7 N    3.464 --    18 C    1.263    21 C    1.261     1 Zn   0.491
    23   6 C    3.931 --    24 C    1.358    21 C    1.354    36 H    0.964
    24   6 C    3.924 --    23 C    1.358    25 N    1.246     2 C    1.171
    25   7 N    3.467 --     4 C    1.286    24 C    1.246     1 Zn   0.489
    26   1 H    0.998 --     2 C    0.972
    27   1 H    0.998 --     3 C    0.971
    28   1 H    0.998 --     7 C    0.971
    29   1 H    0.998 --     8 C    0.972
    30   1 H    0.996 --    11 C    0.964
    31   1 H    0.998 --    13 C    0.972
    32   1 H    0.998 --    14 C    0.972
    33   1 H    0.996 --    17 C    0.964
    34   1 H    0.998 --    19 C    0.972
    35   1 H    0.998 --    20 C    0.972
    36   1 H    0.996 --    23 C    0.964
    37  30 Zn   2.081 --    52 N    0.491    58 N    0.491    61 N    0.489
                            46 N    0.489
    38   6 C    3.953 --    39 C    1.650    60 C    1.171    62 H    0.972
    39   6 C    3.957 --    38 C    1.650    40 C    1.179    63 H    0.971
    40   6 C    3.910 --    61 N    1.286    41 C    1.251    39 C    1.179
    41   6 C    3.942 --    42 C    1.251    40 C    1.251    96 C    1.187
    42   6 C    3.911 --    46 N    1.286    41 C    1.251    43 C    1.179
    43   6 C    3.957 --    44 C    1.650    42 C    1.179    64 H    0.971
    44   6 C    3.953 --    43 C    1.650    45 C    1.171    65 H    0.972
    45   6 C    3.924 --    47 C    1.358    46 N    1.247    44 C    1.171
    46   7 N    3.467 --    42 C    1.286    45 C    1.247    37 Zn   0.489
    47   6 C    3.931 --    45 C    1.358    48 C    1.354    66 H    0.964
    48   6 C    3.929 --    47 C    1.354    52 N    1.261    49 C    1.163
    49   6 C    3.957 --    50 C    1.666    48 C    1.163    67 H    0.972
    50   6 C    3.955 --    49 C    1.666    51 C    1.162    68 H    0.972
    51   6 C    3.932 --    53 C    1.354    52 N    1.263    50 C    1.162
    52   7 N    3.464 --    51 C    1.263    48 C    1.261    37 Zn   0.491
    53   6 C    3.926 --    54 C    1.354    51 C    1.354    69 H    0.964
    54   6 C    3.932 --    53 C    1.354    58 N    1.263    55 C    1.162
    55   6 C    3.955 --    56 C    1.666    54 C    1.162    70 H    0.972
    56   6 C    3.957 --    55 C    1.666    57 C    1.163    71 H    0.972
    57   6 C    3.929 --    59 C    1.354    58 N    1.261    56 C    1.163
    58   7 N    3.464 --    54 C    1.263    57 C    1.261    37 Zn   0.491
    59   6 C    3.931 --    60 C    1.358    57 C    1.354    72 H    0.964
    60   6 C    3.924 --    59 C    1.358    61 N    1.247    38 C    1.171
    61   7 N    3.467 --    40 C    1.286    60 C    1.247    37 Zn   0.489
    62   1 H    0.998 --    38 C    0.972
    63   1 H    0.998 --    39 C    0.971
    64   1 H    0.998 --    43 C    0.971
    65   1 H    0.998 --    44 C    0.972
    66   1 H    0.996 --    47 C    0.964
    67   1 H    0.998 --    49 C    0.972
    68   1 H    0.998 --    50 C    0.972
    69   1 H    0.996 --    53 C    0.964
    70   1 H    0.998 --    55 C    0.972
    71   1 H    0.998 --    56 C    0.972
    72   1 H    0.996 --    59 C    0.964
    73   6 C    3.883 --    74 C    2.442     5 C    1.187    76 C    0.193
    74   6 C    3.927 --    73 C    2.442    75 C    1.333
    75   6 C    3.918 --    76 C    2.356    74 C    1.333    78 C    0.193
    76   6 C    3.920 --    75 C    2.356    77 C    1.333    73 C    0.193
    77   6 C    3.924 --    78 C    2.440    76 C    1.333
    78   6 C    3.884 --    77 C    2.440   101 C    1.190    75 C    0.193
    79   6 C    3.882 --    80 C    2.438   113 C    1.191    82 C    0.192
    80   6 C    3.924 --    79 C    2.438    81 C    1.335
    81   6 C    3.918 --    82 C    2.353    80 C    1.335    84 C    0.192
    82   6 C    3.918 --    81 C    2.353    83 C    1.335    79 C    0.192
    83   6 C    3.924 --    84 C    2.438    82 C    1.335
    84   6 C    3.882 --    83 C    2.438   136 C    1.191    81 C    0.192
    85   6 C    3.882 --    86 C    2.438   148 C    1.191    88 C    0.192
    86   6 C    3.924 --    85 C    2.438    87 C    1.335
    87   6 C    3.918 --    88 C    2.353    86 C    1.335    90 C    0.192
    88   6 C    3.918 --    87 C    2.353    89 C    1.335    85 C    0.192
    89   6 C    3.924 --    90 C    2.438    88 C    1.335
    90   6 C    3.882 --    89 C    2.438   171 C    1.191    87 C    0.192
    91   6 C    3.883 --    92 C    2.440   183 C    1.190    94 C    0.192
    92   6 C    3.924 --    91 C    2.440    93 C    1.333
    93   6 C    3.919 --    94 C    2.357    92 C    1.333    96 C    0.193
    94   6 C    3.918 --    93 C    2.357    95 C    1.332    91 C    0.192
    95   6 C    3.927 --    96 C    2.443    94 C    1.332
    96   6 C    3.883 --    95 C    2.443    41 C    1.187    93 C    0.193
    97  30 Zn   2.076 --   121 N    0.489   106 N    0.489   112 N    0.489
                           118 N    0.489
    98   6 C    3.954 --    99 C    1.648   120 C    1.173   122 H    0.972
    99   6 C    3.955 --    98 C    1.648   100 C    1.181   123 H    0.971
   100   6 C    3.911 --   121 N    1.287   101 C    1.248    99 C    1.181
   101   6 C    3.930 --   102 C    1.248   100 C    1.248    78 C    1.190
   102   6 C    3.911 --   106 N    1.287   101 C    1.248   103 C    1.181
   103   6 C    3.955 --   104 C    1.648   102 C    1.181   124 H    0.971
   104   6 C    3.954 --   103 C    1.648   105 C    1.173   125 H    0.972
   105   6 C    3.923 --   107 C    1.356   106 N    1.245   104 C    1.173
   106   7 N    3.460 --   102 C    1.287   105 C    1.245    97 Zn   0.489
   107   6 C    3.926 --   108 C    1.357   105 C    1.356   126 H    0.964
   108   6 C    3.923 --   107 C    1.357   112 N    1.244   109 C    1.173
   109   6 C    3.954 --   110 C    1.648   108 C    1.173   127 H    0.972
   110   6 C    3.955 --   109 C    1.648   111 C    1.181   128 H    0.971
   111   6 C    3.911 --   112 N    1.288   113 C    1.247   110 C    1.181
   112   7 N    3.460 --   111 C    1.288   108 C    1.244    97 Zn   0.489
   113   6 C    3.930 --   114 C    1.248   111 C    1.247    79 C    1.191
   114   6 C    3.911 --   118 N    1.288   113 C    1.248   115 C    1.181
   115   6 C    3.955 --   116 C    1.648   114 C    1.181   129 H    0.971
   116   6 C    3.954 --   115 C    1.648   117 C    1.173   130 H    0.972
   117   6 C    3.923 --   119 C    1.357   118 N    1.244   116 C    1.173
   118   7 N    3.460 --   114 C    1.288   117 C    1.244    97 Zn   0.489
   119   6 C    3.926 --   117 C    1.357   120 C    1.356   131 H    0.964
   120   6 C    3.923 --   119 C    1.356   121 N    1.245    98 C    1.173
   121   7 N    3.460 --   100 C    1.287   120 C    1.245    97 Zn   0.489
   122   1 H    0.998 --    98 C    0.972
   123   1 H    0.998 --    99 C    0.971
   124   1 H    0.998 --   103 C    0.971
   125   1 H    0.998 --   104 C    0.972
   126   1 H    0.996 --   107 C    0.964
   127   1 H    0.998 --   109 C    0.972
   128   1 H    0.998 --   110 C    0.971
   129   1 H    0.998 --   115 C    0.971
   130   1 H    0.998 --   116 C    0.972
   131   1 H    0.996 --   119 C    0.964
   132  30 Zn   2.076 --   156 N    0.489   141 N    0.489   153 N    0.489
                           147 N    0.489
   133   6 C    3.953 --   134 C    1.648   155 C    1.173   157 H    0.972
   134   6 C    3.955 --   133 C    1.648   135 C    1.181   158 H    0.971
   135   6 C    3.911 --   156 N    1.288   136 C    1.247   134 C    1.181
   136   6 C    3.930 --   137 C    1.247   135 C    1.247    84 C    1.191
   137   6 C    3.911 --   141 N    1.288   136 C    1.247   138 C    1.181
   138   6 C    3.955 --   139 C    1.648   137 C    1.181   159 H    0.971
   139   6 C    3.953 --   138 C    1.648   140 C    1.173   160 H    0.972
   140   6 C    3.923 --   142 C    1.356   141 N    1.244   139 C    1.173
   141   7 N    3.460 --   137 C    1.288   140 C    1.244   132 Zn   0.489
   142   6 C    3.925 --   140 C    1.356   143 C    1.356   161 H    0.964
   143   6 C    3.923 --   142 C    1.356   147 N    1.244   144 C    1.173
   144   6 C    3.953 --   145 C    1.648   143 C    1.173   162 H    0.972
   145   6 C    3.955 --   144 C    1.648   146 C    1.181   163 H    0.971
   146   6 C    3.911 --   147 N    1.288   148 C    1.247   145 C    1.181
   147   7 N    3.460 --   146 C    1.288   143 C    1.244   132 Zn   0.489
   148   6 C    3.930 --   149 C    1.247   146 C    1.247    85 C    1.191
   149   6 C    3.911 --   153 N    1.288   148 C    1.247   150 C    1.181
   150   6 C    3.955 --   151 C    1.648   149 C    1.181   164 H    0.971
   151   6 C    3.953 --   150 C    1.648   152 C    1.173   165 H    0.972
   152   6 C    3.923 --   154 C    1.356   153 N    1.244   151 C    1.173
   153   7 N    3.460 --   149 C    1.288   152 C    1.244   132 Zn   0.489
   154   6 C    3.925 --   155 C    1.356   152 C    1.356   166 H    0.964
   155   6 C    3.923 --   154 C    1.356   156 N    1.244   133 C    1.173
   156   7 N    3.460 --   135 C    1.288   155 C    1.244   132 Zn   0.489
   157   1 H    0.998 --   133 C    0.972
   158   1 H    0.998 --   134 C    0.971
   159   1 H    0.998 --   138 C    0.971
   160   1 H    0.998 --   139 C    0.972
   161   1 H    0.996 --   142 C    0.964
   162   1 H    0.998 --   144 C    0.972
   163   1 H    0.998 --   145 C    0.971
   164   1 H    0.998 --   150 C    0.971
   165   1 H    0.998 --   151 C    0.972
   166   1 H    0.996 --   154 C    0.964
   167  30 Zn   2.076 --   182 N    0.489   188 N    0.489   191 N    0.489
                           176 N    0.489
   168   6 C    3.953 --   169 C    1.648   190 C    1.173   192 H    0.972
   169   6 C    3.955 --   168 C    1.648   170 C    1.181   193 H    0.971
   170   6 C    3.911 --   191 N    1.288   171 C    1.247   169 C    1.181
   171   6 C    3.930 --   172 C    1.248   170 C    1.247    90 C    1.191
   172   6 C    3.911 --   176 N    1.288   171 C    1.248   173 C    1.181
   173   6 C    3.955 --   174 C    1.648   172 C    1.181   194 H    0.971
   174   6 C    3.954 --   173 C    1.648   175 C    1.173   195 H    0.972
   175   6 C    3.923 --   177 C    1.357   176 N    1.244   174 C    1.173
   176   7 N    3.460 --   172 C    1.288   175 C    1.244   167 Zn   0.489
   177   6 C    3.926 --   175 C    1.357   178 C    1.356   196 H    0.964
   178   6 C    3.923 --   177 C    1.356   182 N    1.245   179 C    1.173
   179   6 C    3.954 --   180 C    1.648   178 C    1.173   197 H    0.972
   180   6 C    3.955 --   179 C    1.648   181 C    1.181   198 H    0.971
   181   6 C    3.911 --   182 N    1.287   183 C    1.248   180 C    1.181
   182   7 N    3.460 --   181 C    1.287   178 C    1.245   167 Zn   0.489
   183   6 C    3.930 --   181 C    1.248   184 C    1.248    91 C    1.190
   184   6 C    3.911 --   188 N    1.287   183 C    1.248   185 C    1.181
   185   6 C    3.955 --   186 C    1.648   184 C    1.181   199 H    0.971
   186   6 C    3.954 --   185 C    1.648   187 C    1.173   200 H    0.972
   187   6 C    3.923 --   189 C    1.356   188 N    1.245   186 C    1.173
   188   7 N    3.460 --   184 C    1.287   187 C    1.245   167 Zn   0.489
   189   6 C    3.926 --   190 C    1.357   187 C    1.356   201 H    0.964
   190   6 C    3.923 --   189 C    1.357   191 N    1.244   168 C    1.173
   191   7 N    3.460 --   170 C    1.288   190 C    1.244   167 Zn   0.489
   192   1 H    0.998 --   168 C    0.972
   193   1 H    0.998 --   169 C    0.971
   194   1 H    0.998 --   173 C    0.971
   195   1 H    0.998 --   174 C    0.972
   196   1 H    0.996 --   177 C    0.964
   197   1 H    0.998 --   179 C    0.972
   198   1 H    0.998 --   180 C    0.971
   199   1 H    0.998 --   185 C    0.971
   200   1 H    0.998 --   186 C    0.972
   201   1 H    0.996 --   189 C    0.964
 ---------------------------------------------------------------------------

Topologies differ in total number of bonds
Writing topology from bond orders to xtbtopo.mol

molecular dipole:
                 x           y           z       tot (Debye)
 q only:       -0.002      -0.001      -0.002
   full:       -0.002      -0.001      -0.003       0.010
molecular quadrupole (traceless):
                xx          xy          yy          xz          yz          zz
 q only:       92.795       0.537     -16.735      -0.258      -2.120     -76.060
  q+dip:      172.172       0.774     -10.361      -0.518      -5.283    -161.811
   full:      122.926       0.766     -20.327      -0.499      -2.929    -102.598


           -------------------------------------------------
          | TOTAL ENERGY             -353.117606050091 Eh   |
          | GRADIENT NORM               0.000926756461 Eh/α |
          | HOMO-LUMO GAP               0.906522230527 eV   |
           -------------------------------------------------

------------------------------------------------------------------------
 * finished run on 2021/11/20 at 15:57:31.134     
------------------------------------------------------------------------
 total:
 * wall-time:     0 d,  0 h,  0 min,  2.139 sec
 *  cpu-time:     0 d,  0 h,  0 min,  2.139 sec
 * ratio c/w:     1.000 speedup
 SCF:
 * wall-time:     0 d,  0 h,  0 min,  2.037 sec
 *  cpu-time:     0 d,  0 h,  0 min,  2.037 sec
 * ratio c/w:     1.000 speedup

