      -----------------------------------------------------------      
     |                   =====================                   |     
     |                           x T B                           |     
     |                   =====================                   |     
     |                         S. Grimme                         |     
     |          Mulliken Center for Theoretical Chemistry        |     
     |                    University of Bonn                     |     
      -----------------------------------------------------------      

   * xtb version 6.4.1 (bd6e46d) compiled by 'conda@4901f00b25ba' on 2021-06-10

   xtb is free software: you can redistribute it and/or modify it under
   the terms of the GNU Lesser General Public License as published by
   the Free Software Foundation, either version 3 of the License, or
   (at your option) any later version.
   
   xtb is distributed in the hope that it will be useful,
   but WITHOUT ANY WARRANTY; without even the implied warranty of
   MERCHANTABILITY or FITNESS FOR A PARTICULAR PURPOSE.  See the
   GNU Lesser General Public License for more details.
   
   Cite this work as:
   * C. Bannwarth, E. Caldeweyher, S. Ehlert, A. Hansen, P. Pracht,
     J. Seibert, S. Spicher, S. Grimme, WIREs Comput. Mol. Sci., 2020, 11,
     e01493. DOI: 10.1002/wcms.1493
   
   for GFN2-xTB:
   * C. Bannwarth, S. Ehlert and S. Grimme., J. Chem. Theory Comput., 2019,
     15, 1652-1671. DOI: 10.1021/acs.jctc.8b01176
   for GFN1-xTB:
   * S. Grimme, C. Bannwarth, P. Shushkov, J. Chem. Theory Comput., 2017,
     13, 1989-2009. DOI: 10.1021/acs.jctc.7b00118
   for GFN0-xTB:
   * P. Pracht, E. Caldeweyher, S. Ehlert, S. Grimme, ChemRxiv, 2019, preprint.
     DOI: 10.26434/chemrxiv.8326202.v1
   for GFN-FF:
   * S. Spicher and S. Grimme, Angew. Chem. Int. Ed., 2020, 59, 15665-15673.
     DOI: 10.1002/anie.202004239
   
   for DFT-D4:
   * E. Caldeweyher, C. Bannwarth and S. Grimme, J. Chem. Phys., 2017,
     147, 034112. DOI: 10.1063/1.4993215
   * E. Caldeweyher, S. Ehlert, A. Hansen, H. Neugebauer, S. Spicher,
     C. Bannwarth and S. Grimme, J. Chem. Phys., 2019, 150, 154122.
     DOI: 10.1063/1.5090222
   * E. Caldeweyher, J.-M. Mewes, S. Ehlert and S. Grimme, Phys. Chem. Chem. Phys.
     2020, 22, 8499-8512. DOI: 10.1039/D0CP00502A
   
   for sTDA-xTB:
   * S. Grimme and C. Bannwarth, J. Chem. Phys., 2016, 145, 054103.
     DOI: 10.1063/1.4959605
   
   in the mass-spec context:
   * V. Asgeirsson, C. Bauer and S. Grimme, Chem. Sci., 2017, 8, 4879.
     DOI: 10.1039/c7sc00601b
   * J. Koopman and S. Grimme, ACS Omega 2019, 4, 12, 15120-15133.
     DOI: 10.1021/acsomega.9b02011
   
   for metadynamics refer to:
   * S. Grimme, J. Chem. Theory Comput., 2019, 155, 2847-2862
     DOI: 10.1021/acs.jctc.9b00143
   
   for SPH calculations refer to:
   * S. Spicher and S. Grimme, J. Chem. Theory Comput., 2021, 17, 1701-1714
     DOI: 10.1021/acs.jctc.0c01306
   
   with help from (in alphabetical order)
   P. Atkinson, C. Bannwarth, F. Bohle, G. Brandenburg, E. Caldeweyher
   M. Checinski, S. Dohm, S. Ehlert, S. Ehrlich, I. Gerasimov, J. Koopman
   C. Lavigne, S. Lehtola, F. März, M. Müller, F. Musil, H. Neugebauer
   J. Pisarek, C. Plett, P. Pracht, J. Seibert, P. Shushkov, S. Spicher
   M. Stahn, M. Steiner, T. Strunk, J. Stückrath, T. Rose, and J. Unsleber
   
 * started run on 2021/11/19 at 23:32:33.444     

           -------------------------------------------------
          |                Calculation Setup                |
           -------------------------------------------------

          program call               : /home/jeff/miniconda3/bin/xtb input_structure_1.xyz --gfn 2 --ohess normal --parallel 1 --etemp 300 --chrg 0 --uhf 0 -I det_control.in
          hostname                   : jelfscompute1
          coordinate file            : input_structure_1.xyz
          omp threads                :                     1
          number of atoms            :                   222
          number of electrons        :                   768
          charge                     :                     0
          spin                       :                   0.0
          first test random number   :      0.15497463288986

   ID    Z sym.   atoms
    1   29 Cu     1, 37, 83, 118, 153, 188
    2    6 C      2-9, 11-15, 17-21, 23, 24, 38-45, 47-51, 53-57, 59, 60,
                  73-82, 84-91, 93-97, 99-103, 105, 106, 119-126, 128-132,
                  134-138, 140, 141, 154-161, 163-167, 169-173, 175, 176,
                  189-196, 198-202, 204-208, 210, 211
    3    7 N      10, 16, 22, 25, 46, 52, 58, 61, 92, 98, 104, 107, 127, 133,
                  139, 142, 162, 168, 174, 177, 197, 203, 209, 212
    4    1 H      26-36, 62-72, 108-117, 143-152, 178-187, 213-222

molecular fragmentation (1/2 indicates fragments):
111111111111111111111111111111111111222222222222222222222222222222222222
222222222222222222222222222222222222222222222222222222222222222222222222
222222222222222222222222222222222222222222222222222222222222222222222222
222222
# atoms in fragment 1/2:    36   186
 fragment masses (1/2) :      370.87     1970.45
CMA distance (Bohr)    :  63.576
constraining FC (au)   :  0.0500

           -------------------------------------------------
          |                 G F N 2 - x T B                 |
           -------------------------------------------------

        Reference                      10.1021/acs.jctc.8b01176
      * Hamiltonian:
        H0-scaling (s, p, d)           1.850000    2.230000    2.230000
        zeta-weighting                 0.500000
      * Dispersion:
        s8                             2.700000
        a1                             0.520000
        a2                             5.000000
        s9                             5.000000
      * Repulsion:
        kExp                           1.500000    1.000000
        rExp                           1.000000
      * Coulomb:
        alpha                          2.000000
        third order                    shell-resolved
        anisotropic                    true
        a3                             3.000000
        a5                             4.000000
        cn-shift                       1.200000
        cn-exp                         4.000000
        max-rad                        5.000000


          ...................................................
          :                      SETUP                      :
          :.................................................:
          :  # basis functions                 738          :
          :  # atomic orbitals                 732          :
          :  # shells                          388          :
          :  # electrons                       768          :
          :  max. iterations                   250          :
          :  Hamiltonian                  GFN2-xTB          :
          :  restarted?                      false          :
          :  GBSA solvation                  false          :
          :  PC potential                    false          :
          :  electronic temp.          300.0000000     K    :
          :  accuracy                    1.0000000          :
          :  -> integral cutoff          0.2500000E+02      :
          :  -> integral neglect         0.1000000E-07      :
          :  -> SCF convergence          0.1000000E-05 Eh   :
          :  -> wf. convergence          0.1000000E-03 e    :
          :  Broyden damping             0.4000000          :
          ...................................................

 iter      E             dE          RMSdq      gap      omega  full diag
   1   -408.9819372 -0.408982E+03  0.539E+00    0.00       0.0  T
   2   -404.4137302  0.456821E+01  0.364E+00    0.02       1.0  T
   3    -24.8525265  0.379561E+03  0.143E+01    0.03       1.0  T
   4   -393.0377848 -0.368185E+03  0.438E+00    0.10       1.0  T
   5   -356.0941366  0.369436E+02  0.672E+00    0.12       1.0  T
   6   -403.7223021 -0.476282E+02  0.315E+00    0.11       1.0  T
   7   -381.8417347  0.218806E+02  0.391E+00    0.06       1.0  T
   8   -406.1037300 -0.242620E+02  0.213E+00    0.09       1.0  T
   9   -408.2513249 -0.214759E+01  0.179E+00    0.18       1.0  T
  10   -408.7914358 -0.540111E+00  0.123E+00    0.02       1.0  T
  11   -408.4217445  0.369691E+00  0.126E+00    0.08       1.0  T
  12   -408.8899240 -0.468179E+00  0.970E-01    0.09       1.0  T
  13   -408.2926323  0.597292E+00  0.105E+00    0.13       1.0  T
  14   -408.8304534 -0.537821E+00  0.846E-01    0.04       1.0  T
  15   -408.9287326 -0.982792E-01  0.730E-01    0.03       1.0  T
  16   -408.9905850 -0.618524E-01  0.704E-01    0.08       1.0  T
  17   -409.1232667 -0.132682E+00  0.528E-01    0.05       1.0  T
  18   -409.0865045  0.367621E-01  0.507E-01    0.02       1.0  T
  19   -409.0185058  0.679987E-01  0.587E-01    0.10       1.0  T
  20   -409.1199246 -0.101419E+00  0.482E-01    0.05       1.0  T
  21   -409.1044382  0.154863E-01  0.499E-01    0.07       1.0  T
  22   -409.2397586 -0.135320E+00  0.354E-01    0.02       1.0  T
  23   -409.1424235  0.973350E-01  0.424E-01    0.06       1.0  T
  24   -409.2294699 -0.870463E-01  0.320E-01    0.02       1.0  T
  25   -409.2221048  0.736505E-02  0.305E-01    0.03       1.0  T
  26   -409.2575305 -0.354257E-01  0.236E-01    0.02       1.0  T
  27   -409.2587380 -0.120748E-02  0.232E-01    0.03       1.0  T
  28   -409.2024242  0.563138E-01  0.326E-01    0.05       1.0  T
  29   -409.2706006 -0.681765E-01  0.214E-01    0.03       1.0  T
  30   -409.2760998 -0.549911E-02  0.194E-01    0.03       1.0  T
  31   -409.2789549 -0.285515E-02  0.177E-01    0.02       1.0  T
  32   -409.2578523  0.211026E-01  0.211E-01    0.03       1.0  T
  33   -409.2859566 -0.281042E-01  0.133E-01    0.01       1.0  T
  34   -409.2849441  0.101243E-02  0.121E-01    0.02       1.0  T
  35   -409.2933161 -0.837196E-02  0.826E-02    0.01       1.0  T
  36   -409.2960597 -0.274360E-02  0.548E-02    0.00       1.0  T
  37   -409.2965429 -0.483211E-03  0.453E-02    0.01       1.0  T
  38   -409.2971565 -0.613572E-03  0.302E-02    0.00       1.0  T
  39   -409.2973921 -0.235679E-03  0.224E-02    0.01       1.0  T
  40   -409.2977900 -0.397846E-03  0.142E-02    0.00       1.0  T
  41   -409.2977833  0.672878E-05  0.135E-02    0.00       1.0  T
  42   -409.2978001 -0.167858E-04  0.116E-02    0.00       1.0  T
  43   -409.2978390 -0.389054E-04  0.832E-03    0.00       1.0  T
  44   -409.2978749 -0.359718E-04  0.442E-03    0.00       1.5  T
  45   -409.2978566  0.182805E-04  0.554E-03    0.00       1.2  T
  46   -409.2978667 -0.100971E-04  0.430E-03    0.00       1.6  T
  47   -409.2978770 -0.102932E-04  0.260E-03    0.00       2.6  T
  48   -409.2978801 -0.302585E-05  0.187E-03    0.00       3.6  T
  49   -409.2978807 -0.621624E-06  0.163E-03    0.00       4.1  T
  50   -409.2978819 -0.125301E-05  0.847E-04    0.00       7.9  T
  51   -409.2978820 -0.921998E-07  0.669E-04    0.00      10.0  T
  52   -409.2978823 -0.257437E-06  0.437E-04    0.00      15.4  T

   *** convergence criteria satisfied after 52 iterations ***

         #    Occupation            Energy/Eh            Energy/eV
      -------------------------------------------------------------
         1        2.0000           -0.6835709             -18.6009
       ...           ...                  ...                  ...
       378        2.0000           -0.3566882              -9.7060
       379        2.0000           -0.3555609              -9.6753
       380        2.0000           -0.3530173              -9.6061
       381        2.0000           -0.3527723              -9.5994
       382        1.6970           -0.3357738              -9.1369
       383        1.4577           -0.3350763              -9.1179
       384        1.2401           -0.3346023              -9.1050 (HOMO)
       385        1.1916           -0.3345056              -9.1024 (LUMO)
       386        0.4066           -0.3328393              -9.0570
       387        0.0051           -0.3284664              -8.9380
       388        0.0010           -0.3269256              -8.8961
       389        0.0008           -0.3266865              -8.8896
       ...           ...                  ...                  ...
       732                          1.4306902              38.9311
      -------------------------------------------------------------
                  HL-Gap            0.0000967 Eh            0.0026 eV
             Fermi-level           -0.3341369 Eh           -9.0923 eV

 SCC (total)                   0 d,  0 h,  0 min,  8.053 sec
 SCC setup                      ...        0 min,  0.009 sec (  0.111%)
 Dispersion                     ...        0 min,  0.020 sec (  0.244%)
 classical contributions        ...        0 min,  0.002 sec (  0.025%)
 integral evaluation            ...        0 min,  0.150 sec (  1.862%)
 iterations                     ...        0 min,  7.445 sec ( 92.448%)
 molecular gradient             ...        0 min,  0.410 sec (  5.087%)
 printout                       ...        0 min,  0.018 sec (  0.223%)

         :::::::::::::::::::::::::::::::::::::::::::::::::::::
         ::                     SUMMARY                     ::
         :::::::::::::::::::::::::::::::::::::::::::::::::::::
         :: total energy            -402.277593590350 Eh    ::
         :: gradient norm              0.877400689998 Eh/a0 ::
         :: HOMO-LUMO gap              0.002631154431 eV    ::
         ::.................................................::
         :: SCC energy              -409.297882287461 Eh    ::
         :: -> isotropic ES            0.228660362526 Eh    ::
         :: -> anisotropic ES          0.054960520259 Eh    ::
         :: -> anisotropic XC          0.191558940287 Eh    ::
         :: -> dispersion             -0.360575612856 Eh    ::
         :: repulsion energy           7.019653557964 Eh    ::
         :: add. restraining           0.000000000000 Eh    ::
         :: total charge               0.000000000019 e     ::
         :::::::::::::::::::::::::::::::::::::::::::::::::::::

      ----------------------------------------------------------- 
     |                   =====================                   |
     |                        A N C O P T                        |
     |                   =====================                   |
     |               Approximate Normal Coordinate               |
     |                Rational Function Optimizer                |
      ----------------------------------------------------------- 

          ...................................................
          :                      SETUP                      :
          :.................................................:
          :   optimization level            normal          :
          :   max. optcycles                   666          :
          :   ANC micro-cycles                  20          :
          :   degrees of freedom               660          :
          :.................................................:
          :   RF solver                   davidson          :
          :   write xtbopt.log                true          :
          :   linear?                        false          :
          :   energy convergence         0.5000000E-05 Eh   :
          :   grad. convergence          0.1000000E-02 Eh/α :
          :   maximium RF displ.         1.0000000          :
          :   Hlow (freq-cutoff)         0.1000000E-01      :
          :   Hmax (freq-cutoff)         5.0000000          :
          :   S6 in model hess.         20.0000000          :
          ...................................................

generating ANC from model Hessian ...
Using Lindh-Hessian (1995)
 Shifting diagonal of input Hessian by    1.0026297866943489E-002
 Lowest  eigenvalues of input Hessian
    0.010000    0.010001    0.010001    0.010004    0.010005    0.010011
    0.010011    0.010016    0.010017    0.010019    0.010022    0.010023
    0.010025    0.000000    0.000000    0.000000    0.000000    0.000000
 Highest eigenvalues
    2.211718    2.393222    2.512585    2.732929    2.732932    2.732932


........................................................................
.............................. CYCLE    1 ..............................
........................................................................
   1   -409.2978824 -0.409298E+03  0.245E-04    0.00       0.0  T
   2   -409.2978702  0.122201E-04  0.343E-03    0.00       2.0  T
   3   -409.2978796 -0.946293E-05  0.152E-03    0.00       4.4  T
   4   -409.2978819 -0.221995E-05  0.706E-04    0.00       9.5  T
   5   -409.2978810  0.877731E-06  0.114E-03    0.00       5.9  T
   6   -409.2978819 -0.890902E-06  0.717E-04    0.00       9.4  T
   7   -409.2978814  0.477500E-06  0.937E-04    0.00       7.2  T
     SCC iter.                  ...        0 min,  0.997 sec
     gradient                   ...        0 min,  0.409 sec
 * total energy  :  -402.2775927 Eh     change        0.8947695E-06 Eh
   gradient norm :     0.8773947 Eh/α   predicted     0.0000000E+00 (-100.00%)
   displ. norm   :     0.5804797 α      lambda       -0.4157175E+00
   maximum displ.:     0.1742616 α      in ANC's #645, #224, #226, ...

........................................................................
.............................. CYCLE    2 ..............................
........................................................................
   1   -409.2640550 -0.409264E+03  0.365E-01    0.00       0.0  T
   2   -409.1389011  0.125154E+00  0.476E-01    0.02       1.0  T
   3   -408.6196588  0.519242E+00  0.846E-01    0.15       1.0  T
   4   -408.9547698 -0.335111E+00  0.606E-01    0.05       1.0  T
   5   -408.5079651  0.446805E+00  0.698E-01    0.03       1.0  T
   6   -409.0374088 -0.529444E+00  0.481E-01    0.03       1.0  T
   7   -409.1388420 -0.101433E+00  0.387E-01    0.01       1.0  T
   8   -409.0323174  0.106525E+00  0.477E-01    0.03       1.0  T
   9   -409.0827156 -0.503983E-01  0.393E-01    0.01       1.0  T
  10   -409.1836768 -0.100961E+00  0.328E-01    0.02       1.0  T
  11   -409.2726217 -0.889449E-01  0.143E-01    0.01       1.0  T
  12   -409.2770542 -0.443254E-02  0.103E-01    0.02       1.0  T
  13   -409.2710939  0.596032E-02  0.121E-01    0.01       1.0  T
  14   -409.2844004 -0.133066E-01  0.716E-02    0.00       1.0  T
  15   -409.2838818  0.518607E-03  0.751E-02    0.00       1.0  T
  16   -409.2810252  0.285658E-02  0.831E-02    0.01       1.0  T
  17   -409.2820982 -0.107292E-02  0.794E-02    0.01       1.0  T
  18   -409.2843444 -0.224621E-02  0.578E-02    0.01       1.0  T
  19   -409.2783858  0.595854E-02  0.882E-02    0.01       1.0  T
  20   -409.2822565 -0.387066E-02  0.671E-02    0.01       1.0  T
  21   -409.2873043 -0.504779E-02  0.230E-02    0.00       1.0  T
  22   -409.2859044  0.139992E-02  0.420E-02    0.01       1.0  T
  23   -409.2871293 -0.122491E-02  0.243E-02    0.01       1.0  T
  24   -409.2874849 -0.355661E-03  0.179E-02    0.01       1.0  T
  25   -409.2875995 -0.114618E-03  0.135E-02    0.00       1.0  T
  26   -409.2870846  0.514909E-03  0.236E-02    0.01       1.0  T
  27   -409.2877048 -0.620206E-03  0.718E-03    0.00       1.0  T
  28   -409.2877339 -0.290630E-04  0.507E-03    0.00       1.3  T
  29   -409.2877375 -0.361638E-05  0.457E-03    0.00       1.5  T
  30   -409.2877476 -0.100418E-04  0.350E-03    0.00       1.9  T
  31   -409.2877518 -0.419715E-05  0.269E-03    0.00       2.5  T
  32   -409.2877605 -0.873671E-05  0.448E-04    0.00      15.0  T
  33   -409.2877602  0.279734E-06  0.657E-04    0.00      10.2  T
  34   -409.2877606 -0.427760E-06  0.187E-04    0.00      35.9  T
     SCC iter.                  ...        0 min,  4.806 sec
     gradient                   ...        0 min,  0.409 sec
 * total energy  :  -402.6095278 Eh     change       -0.3319351E+00 Eh
   gradient norm :     0.5010476 Eh/α   predicted    -0.2779409E+00 ( -16.27%)
   displ. norm   :     0.6624718 α      lambda       -0.2726584E+00
   maximum displ.:     0.1836345 α      in ANC's #224, #645, #226, ...

........................................................................
.............................. CYCLE    3 ..............................
........................................................................
   1   -409.2992517 -0.409299E+03  0.429E-01    0.00       0.0  T
   2   -409.0269484  0.272303E+00  0.662E-01    0.00       1.0  T
   3   -408.4610404  0.565908E+00  0.857E-01    0.03       1.0  T
   4   -408.8576761 -0.396636E+00  0.716E-01    0.12       1.0  T
   5   -408.9204702 -0.627941E-01  0.548E-01    0.03       1.0  T
   6   -409.0052890 -0.848188E-01  0.538E-01    0.08       1.0  T
   7   -409.2102173 -0.204928E+00  0.356E-01    0.00       1.0  T
   8   -408.9781680  0.232049E+00  0.477E-01    0.09       1.0  T
   9   -409.2247107 -0.246543E+00  0.347E-01    0.00       1.0  T
  10   -409.3297420 -0.105031E+00  0.129E-01    0.00       1.0  T
  11   -409.3259297  0.381226E-02  0.114E-01    0.01       1.0  T
  12   -409.3149255  0.110042E-01  0.169E-01    0.02       1.0  T
  13   -409.3143467  0.578782E-03  0.148E-01    0.02       1.0  T
  14   -409.3233574 -0.901070E-02  0.140E-01    0.00       1.0  T
  15   -409.3306959 -0.733844E-02  0.933E-02    0.01       1.0  T
  16   -409.3205454  0.101505E-01  0.128E-01    0.00       1.0  T
  17   -409.3264803 -0.593497E-02  0.998E-02    0.02       1.0  T
  18   -409.3283959 -0.191556E-02  0.913E-02    0.02       1.0  T
  19   -409.3346673 -0.627144E-02  0.588E-02    0.01       1.0  T
  20   -409.3385598 -0.389250E-02  0.236E-02    0.00       1.0  T
  21   -409.3374819  0.107792E-02  0.369E-02    0.00       1.0  T
  22   -409.3385622 -0.108029E-02  0.228E-02    0.00       1.0  T
  23   -409.3386322 -0.700012E-04  0.202E-02    0.00       1.0  T
  24   -409.3384827  0.149529E-03  0.221E-02    0.01       1.0  T
  25   -409.3388710 -0.388350E-03  0.123E-02    0.00       1.0  T
  26   -409.3389754 -0.104379E-03  0.785E-03    0.00       1.0  T
  27   -409.3390117 -0.363069E-04  0.519E-03    0.00       1.3  T
  28   -409.3390057  0.604885E-05  0.514E-03    0.00       1.3  T
  29   -409.3390385 -0.328654E-04  0.218E-03    0.00       3.1  T
  30   -409.3390445 -0.599211E-05  0.621E-04    0.00      10.8  T
  31   -409.3390438  0.686608E-06  0.917E-04    0.00       7.3  T
  32   -409.3390448 -0.101349E-05  0.218E-04    0.00      30.8  T
  33   -409.3390447  0.116176E-06  0.360E-04    0.00      18.6  T
     SCC iter.                  ...        0 min,  4.676 sec
     gradient                   ...        0 min,  0.409 sec
 * total energy  :  -402.8130339 Eh     change       -0.2035060E+00 Eh
   gradient norm :     0.2155875 Eh/α   predicted    -0.1961598E+00 (  -3.61%)
   displ. norm   :     0.7401446 α      lambda       -0.1341628E+00
   maximum displ.:     0.2214979 α      in ANC's #224, #220, #226, ...

........................................................................
.............................. CYCLE    4 ..............................
........................................................................
   1   -409.2460762 -0.409246E+03  0.618E-01    0.00       0.0  T
   2   -399.7478472  0.949823E+01  0.286E+00    0.02       1.0  T
   3   -408.9731154 -0.922527E+01  0.842E-01    0.01       1.0  T
   4   -408.8178360  0.155279E+00  0.719E-01    0.01       1.0  T
   5   -409.1658255 -0.347989E+00  0.521E-01    0.02       1.0  T
   6   -408.6153425  0.550483E+00  0.710E-01    0.04       1.0  T
   7   -409.1119056 -0.496563E+00  0.534E-01    0.04       1.0  T
   8   -408.9812695  0.130636E+00  0.580E-01    0.01       1.0  T
   9   -409.2252996 -0.244030E+00  0.435E-01    0.06       1.0  T
  10   -409.1756731  0.496265E-01  0.501E-01    0.06       1.0  T
  11   -409.3533038 -0.177631E+00  0.296E-01    0.02       1.0  T
  12   -409.3770785 -0.237747E-01  0.250E-01    0.00       1.0  T
  13   -409.2606998  0.116379E+00  0.333E-01    0.06       1.0  T
  14   -409.3305338 -0.698339E-01  0.275E-01    0.03       1.0  T
  15   -409.3758515 -0.453178E-01  0.217E-01    0.04       1.0  T
  16   -409.4032358 -0.273843E-01  0.159E-01    0.04       1.0  T
  17   -409.4319457 -0.287099E-01  0.818E-02    0.01       1.0  T
  18   -409.4311324  0.813387E-03  0.766E-02    0.00       1.0  T
  19   -409.4295541  0.157822E-02  0.790E-02    0.01       1.0  T
  20   -409.4332783 -0.372416E-02  0.546E-02    0.01       1.0  T
  21   -409.4359349 -0.265665E-02  0.385E-02    0.00       1.0  T
  22   -409.4362495 -0.314535E-03  0.318E-02    0.01       1.0  T
  23   -409.4364828 -0.233321E-03  0.299E-02    0.00       1.0  T
  24   -409.4370803 -0.597494E-03  0.195E-02    0.00       1.0  T
  25   -409.4373851 -0.304826E-03  0.113E-02    0.00       1.0  T
  26   -409.4373896 -0.451674E-05  0.102E-02    0.00       1.0  T
  27   -409.4374767 -0.870213E-04  0.667E-03    0.00       1.0  T
  28   -409.4374085  0.681766E-04  0.987E-03    0.00       1.0  T
  29   -409.4374141 -0.560091E-05  0.942E-03    0.00       1.0  T
  30   -409.4374890 -0.749351E-04  0.558E-03    0.00       1.2  T
  31   -409.4375052 -0.161914E-04  0.399E-03    0.00       1.7  T
  32   -409.4375063 -0.112729E-05  0.365E-03    0.00       1.8  T
  33   -409.4375204 -0.140699E-04  0.138E-03    0.00       4.9  T
  34   -409.4375198  0.569362E-06  0.138E-03    0.00       4.9  T
  35   -409.4375208 -0.911101E-06  0.102E-03    0.00       6.6  T
  36   -409.4375218 -0.103302E-05  0.531E-04    0.00      12.7  T
  37   -409.4375219 -0.125545E-06  0.404E-04    0.00      16.6  T
  38   -409.4375221 -0.149775E-06  0.217E-04    0.00      31.0  T
     SCC iter.                  ...        0 min,  5.425 sec
     gradient                   ...        0 min,  0.410 sec
 * total energy  :  -402.9216795 Eh     change       -0.1086456E+00 Eh
   gradient norm :     0.1207718 Eh/α   predicted    -0.1038296E+00 (  -4.43%)
   displ. norm   :     0.8032398 α      lambda       -0.9059835E-01
   maximum displ.:     0.2206871 α      in ANC's #224, #220, #226, ...

........................................................................
.............................. CYCLE    5 ..............................
........................................................................
   1   -409.2400775 -0.409240E+03  0.722E-01    0.01       0.0  T
   2   -395.2219386  0.140181E+02  0.344E+00    0.04       1.0  T
   3   -408.9961235 -0.137742E+02  0.100E+00    0.06       1.0  T
   4   -408.8679709  0.128153E+00  0.856E-01    0.21       1.0  T
   5   -409.2471887 -0.379218E+00  0.497E-01    0.01       1.0  T
   6   -408.3905295  0.856659E+00  0.807E-01    0.15       1.0  T
   7   -408.4628758 -0.723463E-01  0.856E-01    0.13       1.0  T
   8   -409.1739957 -0.711120E+00  0.521E-01    0.05       1.0  T
   9   -408.8215200  0.352476E+00  0.705E-01    0.03       1.0  T
  10   -409.3470927 -0.525573E+00  0.422E-01    0.04       1.0  T
  11   -409.1949876  0.152105E+00  0.475E-01    0.03       1.0  T
  12   -409.2543498 -0.593621E-01  0.468E-01    0.01       1.0  T
  13   -409.3655469 -0.111197E+00  0.352E-01    0.03       1.0  T
  14   -409.4918998 -0.126353E+00  0.187E-01    0.02       1.0  T
  15   -409.5201912 -0.282914E-01  0.134E-01    0.01       1.0  T
  16   -409.4989596  0.212316E-01  0.160E-01    0.02       1.0  T
  17   -409.4950534  0.390621E-02  0.155E-01    0.03       1.0  T
  18   -409.5246850 -0.296316E-01  0.915E-02    0.00       1.0  T
  19   -409.5306073 -0.592229E-02  0.532E-02    0.00       1.0  T
  20   -409.5309647 -0.357378E-03  0.433E-02    0.00       1.0  T
  21   -409.5306007  0.363945E-03  0.453E-02    0.00       1.0  T
  22   -409.5304444  0.156271E-03  0.446E-02    0.00       1.0  T
  23   -409.5304632 -0.187790E-04  0.424E-02    0.01       1.0  T
  24   -409.5321251 -0.166187E-02  0.183E-02    0.00       1.0  T
  25   -409.5324730 -0.347948E-03  0.129E-02    0.00       1.0  T
  26   -409.5323637  0.109349E-03  0.138E-02    0.00       1.0  T
  27   -409.5319847  0.378984E-03  0.208E-02    0.00       1.0  T
  28   -409.5324831 -0.498427E-03  0.960E-03    0.00       1.0  T
  29   -409.5325825 -0.993335E-04  0.423E-03    0.00       1.6  T
  30   -409.5325420  0.404941E-04  0.643E-03    0.00       1.0  T
  31   -409.5325498 -0.785766E-05  0.608E-03    0.00       1.1  T
  32   -409.5325749 -0.251048E-04  0.454E-03    0.00       1.5  T
  33   -409.5325914 -0.164327E-04  0.279E-03    0.00       2.4  T
  34   -409.5325951 -0.372949E-05  0.222E-03    0.00       3.0  T
  35   -409.5325997 -0.460373E-05  0.119E-03    0.00       5.6  T
  36   -409.5326012 -0.147516E-05  0.697E-04    0.00       9.6  T
  37   -409.5326016 -0.403399E-06  0.330E-04    0.00      20.3  T
  38   -409.5326016  0.990946E-08  0.284E-04    0.00      23.7  T
     SCC iter.                  ...        0 min,  5.371 sec
     gradient                   ...        0 min,  0.409 sec
 * total energy  :  -402.9993863 Eh     change       -0.7770681E-01 Eh
   gradient norm :     0.0950177 Eh/α   predicted    -0.7452702E-01 (  -4.09%)
   displ. norm   :     0.8384312 α      lambda       -0.6963894E-01
   maximum displ.:     0.2410452 α      in ANC's #112, #115, #224, ...

........................................................................
.............................. CYCLE    6 ..............................
........................................................................
   1   -409.4403433 -0.409440E+03  0.609E-01    0.01       0.0  T
   2   -401.3970914  0.804325E+01  0.265E+00    0.19       1.0  T
   3   -408.8465693 -0.744948E+01  0.926E-01    0.11       1.0  T
   4   -408.7359338  0.110636E+00  0.804E-01    0.04       1.0  T
   5   -409.1570542 -0.421120E+00  0.595E-01    0.03       1.0  T
   6   -408.8333616  0.323693E+00  0.764E-01    0.04       1.0  T
   7   -409.2473422 -0.413981E+00  0.611E-01    0.02       1.0  T
   8   -409.3126350 -0.652927E-01  0.500E-01    0.07       1.0  T
   9   -408.9953687  0.317266E+00  0.676E-01    0.05       1.0  T
  10   -409.3206162 -0.325247E+00  0.560E-01    0.01       1.0  T
  11   -409.0375592  0.283057E+00  0.569E-01    0.03       1.0  T
  12   -409.3961860 -0.358627E+00  0.403E-01    0.01       1.0  T
  13   -409.4554889 -0.593029E-01  0.338E-01    0.00       1.0  T
  14   -409.5914061 -0.135917E+00  0.169E-01    0.02       1.0  T
  15   -409.6105453 -0.191392E-01  0.100E-01    0.00       1.0  T
  16   -409.6012661  0.927913E-02  0.119E-01    0.02       1.0  T
  17   -409.5803229  0.209433E-01  0.164E-01    0.01       1.0  T
  18   -409.6080923 -0.277694E-01  0.103E-01    0.00       1.0  T
  19   -409.5955560  0.125363E-01  0.125E-01    0.01       1.0  T
  20   -409.6169972 -0.214412E-01  0.597E-02    0.00       1.0  T
  21   -409.6188396 -0.184248E-02  0.472E-02    0.00       1.0  T
  22   -409.6152593  0.358031E-02  0.638E-02    0.00       1.0  T
  23   -409.6162570 -0.997668E-03  0.556E-02    0.00       1.0  T
  24   -409.6201274 -0.387042E-02  0.301E-02    0.00       1.0  T
  25   -409.6206867 -0.559249E-03  0.202E-02    0.00       1.0  T
  26   -409.6205830  0.103649E-03  0.213E-02    0.00       1.0  T
  27   -409.6211211 -0.538061E-03  0.111E-02    0.00       1.0  T
  28   -409.6212612 -0.140150E-03  0.452E-03    0.00       1.5  T
  29   -409.6211823  0.789409E-04  0.794E-03    0.00       1.0  T
  30   -409.6212846 -0.102313E-03  0.118E-03    0.00       5.7  T
  31   -409.6212722  0.123537E-04  0.286E-03    0.00       2.3  T
  32   -409.6212815 -0.922929E-05  0.168E-03    0.00       4.0  T
  33   -409.6212851 -0.359776E-05  0.940E-04    0.00       7.1  T
  34   -409.6212836  0.150891E-05  0.123E-03    0.00       5.5  T
  35   -409.6212835  0.474218E-07  0.120E-03    0.00       5.6  T
  36   -409.6212854 -0.191329E-05  0.513E-04    0.00      13.1  T
  37   -409.6212856 -0.172434E-06  0.356E-04    0.00      18.8  T
  38   -409.6212857 -0.605766E-07  0.237E-04    0.00      28.3  T
     SCC iter.                  ...        0 min,  5.375 sec
     gradient                   ...        0 min,  0.443 sec
 * total energy  :  -403.0604892 Eh     change       -0.6110291E-01 Eh
   gradient norm :     0.0766508 Eh/α   predicted    -0.5929641E-01 (  -2.96%)
   displ. norm   :     0.8647752 α      lambda       -0.5554604E-01
   maximum displ.:     0.2595696 α      in ANC's #112, #115, #25, ...

........................................................................
.............................. CYCLE    7 ..............................
........................................................................
   1   -409.6611380 -0.409661E+03  0.390E-01    0.02       0.0  T
   2   -408.4862924  0.117485E+01  0.983E-01    0.08       1.0  T
   3   -409.0739283 -0.587636E+00  0.767E-01    0.05       1.0  T
   4   -408.8438637  0.230065E+00  0.763E-01    0.06       1.0  T
   5   -408.6655813  0.178282E+00  0.803E-01    0.03       1.0  T
   6   -409.1902249 -0.524644E+00  0.634E-01    0.03       1.0  T
   7   -409.5042619 -0.314037E+00  0.484E-01    0.02       1.0  T
   8   -409.4328840  0.713779E-01  0.459E-01    0.07       1.0  T
   9   -408.3732323  0.105965E+01  0.850E-01    0.17       1.0  T
  10   -409.5281037 -0.115487E+01  0.416E-01    0.01       1.0  T
  11   -409.5857619 -0.576582E-01  0.313E-01    0.04       1.0  T
  12   -409.6745526 -0.887907E-01  0.174E-01    0.01       1.0  T
  13   -409.5596716  0.114881E+00  0.340E-01    0.01       1.0  T
  14   -409.6807994 -0.121128E+00  0.141E-01    0.01       1.0  T
  15   -409.6254847  0.553147E-01  0.215E-01    0.01       1.0  T
  16   -409.6698971 -0.444124E-01  0.137E-01    0.01       1.0  T
  17   -409.6807169 -0.108198E-01  0.128E-01    0.00       1.0  T
  18   -409.6870759 -0.635899E-02  0.861E-02    0.00       1.0  T
  19   -409.6960174 -0.894143E-02  0.419E-02    0.00       1.0  T
  20   -409.6966011 -0.583711E-03  0.423E-02    0.00       1.0  T
  21   -409.6957462  0.854822E-03  0.441E-02    0.00       1.0  T
  22   -409.6978227 -0.207650E-02  0.223E-02    0.00       1.0  T
  23   -409.6983289 -0.506129E-03  0.133E-02    0.00       1.0  T
  24   -409.6984950 -0.166135E-03  0.595E-03    0.00       1.1  T
  25   -409.6980377  0.457266E-03  0.171E-02    0.00       1.0  T
  26   -409.6984309 -0.393180E-03  0.855E-03    0.00       1.0  T
  27   -409.6984932 -0.622662E-04  0.507E-03    0.00       1.3  T
  28   -409.6985005 -0.728768E-05  0.413E-03    0.00       1.6  T
  29   -409.6985222 -0.217575E-04  0.210E-03    0.00       3.2  T
  30   -409.6985269 -0.461548E-05  0.121E-03    0.00       5.5  T
  31   -409.6985287 -0.180413E-05  0.586E-04    0.00      11.4  T
  32   -409.6985288 -0.143961E-06  0.478E-04    0.00      14.0  T
  33   -409.6985288 -0.634907E-08  0.501E-04    0.00      13.4  T
     SCC iter.                  ...        0 min,  4.710 sec
     gradient                   ...        0 min,  0.410 sec
 * total energy  :  -403.1105117 Eh     change       -0.5002252E-01 Eh
   gradient norm :     0.0620538 Eh/α   predicted    -0.4854273E-01 (  -2.96%)
   displ. norm   :     0.9106342 α      lambda       -0.4816649E-01
   maximum displ.:     0.2921610 α      in ANC's #25, #112, #70, ...

........................................................................
.............................. CYCLE    8 ..............................
........................................................................
   1   -409.7253991 -0.409725E+03  0.358E-01    0.01       0.0  T
   2   -408.3103131  0.141509E+01  0.112E+00    0.11       1.0  T
   3   -408.9054774 -0.595164E+00  0.779E-01    0.00       1.0  T
   4   -408.9488586 -0.433812E-01  0.774E-01    0.06       1.0  T
   5   -409.0731502 -0.124292E+00  0.717E-01    0.03       1.0  T
   6   -409.2629915 -0.189841E+00  0.662E-01    0.09       1.0  T
   7   -409.1452128  0.117779E+00  0.719E-01    0.14       1.0  T
   8   -409.2861176 -0.140905E+00  0.642E-01    0.10       1.0  T
   9   -409.2603539  0.257638E-01  0.571E-01    0.14       1.0  T
  10   -409.2788326 -0.184787E-01  0.661E-01    0.10       1.0  T
  11   -409.6278471 -0.349015E+00  0.364E-01    0.02       1.0  T
  12   -409.7326104 -0.104763E+00  0.179E-01    0.01       1.0  T
  13   -409.7206072  0.120032E-01  0.187E-01    0.03       1.0  T
  14   -409.7462500 -0.256428E-01  0.109E-01    0.00       1.0  T
  15   -409.6703908  0.758591E-01  0.249E-01    0.01       1.0  T
  16   -409.7382724 -0.678816E-01  0.121E-01    0.00       1.0  T
  17   -409.7502129 -0.119405E-01  0.736E-02    0.00       1.0  T
  18   -409.7364042  0.138087E-01  0.122E-01    0.01       1.0  T
  19   -409.7424023 -0.599807E-02  0.103E-01    0.01       1.0  T
  20   -409.7523420 -0.993976E-02  0.593E-02    0.00       1.0  T
  21   -409.7558393 -0.349724E-02  0.274E-02    0.00       1.0  T
  22   -409.7540905  0.174874E-02  0.425E-02    0.00       1.0  T
  23   -409.7562997 -0.220918E-02  0.164E-02    0.00       1.0  T
  24   -409.7564679 -0.168242E-03  0.870E-03    0.00       1.0  T
  25   -409.7563385  0.129407E-03  0.116E-02    0.00       1.0  T
  26   -409.7565190 -0.180512E-03  0.492E-03    0.00       1.4  T
  27   -409.7565044  0.146060E-04  0.603E-03    0.00       1.1  T
  28   -409.7565274 -0.229907E-04  0.428E-03    0.00       1.6  T
  29   -409.7565453 -0.178443E-04  0.212E-03    0.00       3.2  T
  30   -409.7565450  0.222256E-06  0.205E-03    0.00       3.3  T
  31   -409.7565437  0.131085E-05  0.202E-03    0.00       3.3  T
  32   -409.7565494 -0.562903E-05  0.838E-04    0.00       8.0  T
  33   -409.7565458  0.351907E-05  0.179E-03    0.00       3.7  T
  34   -409.7565495 -0.367196E-05  0.598E-04    0.00      11.2  T
  35   -409.7565499 -0.389136E-06  0.303E-04    0.00      22.2  T
  36   -409.7565499 -0.141260E-07  0.243E-04    0.00      27.7  T
     SCC iter.                  ...        0 min,  5.150 sec
     gradient                   ...        0 min,  0.426 sec
 * total energy  :  -403.1570973 Eh     change       -0.4658562E-01 Eh
   gradient norm :     0.0622000 Eh/α   predicted    -0.4405443E-01 (  -5.43%)
   displ. norm   :     0.9750574 α      lambda       -0.5138313E-01
   maximum displ.:     0.3409603 α      in ANC's #25, #70, #18, ...

........................................................................
.............................. CYCLE    9 ..............................
........................................................................
   1   -409.7453967 -0.409745E+03  0.392E-01    0.03       0.0  T
   2   -405.1728423  0.457255E+01  0.305E+00    0.04       1.0  T
   3   -409.1105063 -0.393766E+01  0.823E-01    0.03       1.0  T
   4   -408.5410156  0.569491E+00  0.921E-01    0.09       1.0  T
   5   -409.3587725 -0.817757E+00  0.632E-01    0.10       1.0  T
   6   -409.1449756  0.213797E+00  0.723E-01    0.05       1.0  T
   7   -409.1877815 -0.428059E-01  0.717E-01    0.08       1.0  T
   8   -409.1091926  0.785889E-01  0.695E-01    0.14       1.0  T
   9   -409.3319317 -0.222739E+00  0.605E-01    0.08       1.0  T
  10   -409.6051305 -0.273199E+00  0.454E-01    0.02       1.0  T
  11   -409.4572409  0.147890E+00  0.575E-01    0.01       1.0  T
  12   -409.6626957 -0.205455E+00  0.370E-01    0.02       1.0  T
  13   -409.7625628 -0.998671E-01  0.215E-01    0.01       1.0  T
  14   -409.7608824  0.168045E-02  0.179E-01    0.02       1.0  T
  15   -409.7341993  0.266831E-01  0.269E-01    0.00       1.0  T
  16   -409.7162613  0.179380E-01  0.291E-01    0.00       1.0  T
  17   -409.7235160 -0.725476E-02  0.274E-01    0.00       1.0  T
  18   -409.7775519 -0.540359E-01  0.158E-01    0.00       1.0  T
  19   -409.7822543 -0.470239E-02  0.131E-01    0.01       1.0  T
  20   -409.7990150 -0.167607E-01  0.701E-02    0.01       1.0  T
  21   -409.8001411 -0.112609E-02  0.638E-02    0.01       1.0  T
  22   -409.8022942 -0.215311E-02  0.436E-02    0.00       1.0  T
  23   -409.8031272 -0.832978E-03  0.344E-02    0.00       1.0  T
  24   -409.8044582 -0.133100E-02  0.110E-02    0.00       1.0  T
  25   -409.8041851  0.273034E-03  0.181E-02    0.00       1.0  T
  26   -409.8044315 -0.246401E-03  0.989E-03    0.00       1.0  T
  27   -409.8045246 -0.930940E-04  0.588E-03    0.00       1.1  T
  28   -409.8044886  0.360595E-04  0.778E-03    0.00       1.0  T
  29   -409.8045413 -0.527569E-04  0.407E-03    0.00       1.6  T
  30   -409.8045446 -0.323776E-05  0.393E-03    0.00       1.7  T
  31   -409.8045562 -0.116379E-04  0.237E-03    0.00       2.8  T
  32   -409.8045489  0.733213E-05  0.314E-03    0.00       2.1  T
  33   -409.8045568 -0.791282E-05  0.211E-03    0.00       3.2  T
  34   -409.8045584 -0.165068E-05  0.184E-03    0.00       3.7  T
  35   -409.8045590 -0.581440E-06  0.169E-03    0.00       4.0  T
  36   -409.8045591 -0.114493E-06  0.158E-03    0.00       4.3  T
  37   -409.8045588  0.278122E-06  0.157E-03    0.00       4.3  T
  38   -409.8045587  0.125068E-06  0.158E-03    0.00       4.3  T
  39   -409.8045594 -0.639677E-06  0.140E-03    0.00       4.8  T
  40   -409.8045600 -0.647712E-06  0.109E-03    0.00       6.2  T
  41   -409.8045599  0.828035E-07  0.101E-03    0.00       6.6  T
  42   -409.8045602 -0.251021E-06  0.809E-04    0.00       8.3  T
  43   -409.8045605 -0.318423E-06  0.372E-04    0.00      18.0  T
     SCC iter.                  ...        0 min,  6.143 sec
     gradient                   ...        0 min,  0.412 sec
 * total energy  :  -403.2091266 Eh     change       -0.5202927E-01 Eh
   gradient norm :     0.0729669 Eh/α   predicted    -0.5011756E-01 (  -3.67%)
   displ. norm   :     0.9575942 α      lambda       -0.5302944E-01
   maximum displ.:     0.3703689 α      in ANC's #25, #70, #18, ...

........................................................................
.............................. CYCLE   10 ..............................
........................................................................
   1   -409.7915064 -0.409792E+03  0.337E-01    0.00       0.0  T
   2   -408.5433408  0.124817E+01  0.105E+00    0.20       1.0  T
   3   -409.4426073 -0.899267E+00  0.573E-01    0.02       1.0  T
   4   -408.9966091  0.445998E+00  0.765E-01    0.04       1.0  T
   5   -409.1971738 -0.200565E+00  0.717E-01    0.05       1.0  T
   6   -409.1614812  0.356926E-01  0.732E-01    0.05       1.0  T
   7   -409.4640493 -0.302568E+00  0.602E-01    0.03       1.0  T
   8   -409.4706994 -0.665012E-02  0.588E-01    0.06       1.0  T
   9   -409.4152160  0.554834E-01  0.581E-01    0.06       1.0  T
  10   -409.6085297 -0.193314E+00  0.453E-01    0.01       1.0  T
  11   -409.6827440 -0.742143E-01  0.347E-01    0.01       1.0  T
  12   -409.8013446 -0.118601E+00  0.165E-01    0.01       1.0  T
  13   -409.7946838  0.666071E-02  0.170E-01    0.02       1.0  T
  14   -409.8223089 -0.276250E-01  0.908E-02    0.00       1.0  T
  15   -409.7669956  0.553132E-01  0.228E-01    0.02       1.0  T
  16   -409.7932818 -0.262862E-01  0.169E-01    0.01       1.0  T
  17   -409.8148763 -0.215946E-01  0.121E-01    0.02       1.0  T
  18   -409.8261608 -0.112845E-01  0.608E-02    0.00       1.0  T
  19   -409.8264714 -0.310583E-03  0.600E-02    0.01       1.0  T
  20   -409.8278078 -0.133636E-02  0.482E-02    0.00       1.0  T
  21   -409.8294190 -0.161123E-02  0.305E-02    0.00       1.0  T
  22   -409.8306114 -0.119244E-02  0.684E-03    0.00       1.0  T
  23   -409.8306161 -0.465162E-05  0.633E-03    0.00       1.1  T
  24   -409.8305961  0.200264E-04  0.731E-03    0.00       1.0  T
  25   -409.8306504 -0.543801E-04  0.366E-03    0.00       1.8  T
  26   -409.8306610 -0.105912E-04  0.223E-03    0.00       3.0  T
  27   -409.8306636 -0.260547E-05  0.168E-03    0.00       4.0  T
  28   -409.8306661 -0.250212E-05  0.922E-04    0.00       7.3  T
  29   -409.8306606  0.556386E-05  0.227E-03    0.00       3.0  T
  30   -409.8306647 -0.414213E-05  0.130E-03    0.00       5.1  T
  31   -409.8306664 -0.171201E-05  0.623E-04    0.00      10.8  T
  32   -409.8306667 -0.234908E-06  0.472E-04    0.00      14.2  T
  33   -409.8306669 -0.248991E-06  0.127E-04    0.00      52.7  T
     SCC iter.                  ...        0 min,  4.666 sec
     gradient                   ...        0 min,  0.469 sec
 * total energy  :  -403.2627898 Eh     change       -0.5366319E-01 Eh
   gradient norm :     0.0850330 Eh/α   predicted    -0.5082837E-01 (  -5.28%)
   displ. norm   :     0.9615592 α      lambda       -0.5924018E-01
   maximum displ.:     0.3373824 α      in ANC's #25, #70, #18, ...

........................................................................
.............................. CYCLE   11 ..............................
........................................................................
   1   -409.7285446 -0.409729E+03  0.392E-01    0.01       0.0  T
   2   -392.9389796  0.167896E+02  0.537E+00    0.19       1.0  T
   3   -408.5161310 -0.155772E+02  0.106E+00    0.24       1.0  T
   4   -409.3540657 -0.837935E+00  0.693E-01    0.08       1.0  T
   5   -409.1099878  0.244078E+00  0.788E-01    0.08       1.0  T
   6   -409.3382250 -0.228237E+00  0.686E-01    0.09       1.0  T
   7   -409.0712263  0.266999E+00  0.772E-01    0.10       1.0  T
   8   -409.1747854 -0.103559E+00  0.686E-01    0.05       1.0  T
   9   -409.3557900 -0.181005E+00  0.624E-01    0.03       1.0  T
  10   -409.5820451 -0.226255E+00  0.491E-01    0.04       1.0  T
  11   -409.6058934 -0.238483E-01  0.495E-01    0.05       1.0  T
  12   -409.5995249  0.636849E-02  0.417E-01    0.01       1.0  T
  13   -409.6921447 -0.926198E-01  0.357E-01    0.02       1.0  T
  14   -409.7329831 -0.408384E-01  0.275E-01    0.01       1.0  T
  15   -409.7639559 -0.309728E-01  0.237E-01    0.02       1.0  T
  16   -409.7525453  0.114106E-01  0.265E-01    0.01       1.0  T
  17   -409.7597563 -0.721102E-02  0.266E-01    0.02       1.0  T
  18   -409.7950075 -0.352512E-01  0.197E-01    0.02       1.0  T
  19   -409.7575802  0.374273E-01  0.254E-01    0.02       1.0  T
  20   -409.8240569 -0.664767E-01  0.122E-01    0.01       1.0  T
  21   -409.8297837 -0.572679E-02  0.975E-02    0.02       1.0  T
  22   -409.8380605 -0.827677E-02  0.563E-02    0.01       1.0  T
  23   -409.8382906 -0.230138E-03  0.542E-02    0.01       1.0  T
  24   -409.8412061 -0.291545E-02  0.248E-02    0.00       1.0  T
  25   -409.8410867  0.119331E-03  0.270E-02    0.00       1.0  T
  26   -409.8418147 -0.728010E-03  0.129E-02    0.00       1.0  T
  27   -409.8417321  0.826797E-04  0.136E-02    0.00       1.0  T
  28   -409.8419279 -0.195861E-03  0.858E-03    0.00       1.0  T
  29   -409.8419255  0.240423E-05  0.765E-03    0.00       1.0  T
  30   -409.8419217  0.384934E-05  0.756E-03    0.00       1.0  T
  31   -409.8419282 -0.649181E-05  0.779E-03    0.00       1.0  T
  32   -409.8419134  0.147397E-04  0.853E-03    0.00       1.0  T
  33   -409.8419329 -0.194825E-04  0.633E-03    0.00       1.1  T
  34   -409.8419343 -0.137377E-05  0.605E-03    0.00       1.1  T
  35   -409.8419356 -0.132102E-05  0.588E-03    0.00       1.1  T
  36   -409.8419364 -0.754097E-06  0.558E-03    0.00       1.2  T
  37   -409.8419366 -0.288169E-06  0.502E-03    0.00       1.3  T
  38   -409.8419373 -0.634962E-06  0.407E-03    0.00       1.6  T
  39   -409.8419387 -0.137253E-05  0.294E-03    0.00       2.3  T
  40   -409.8419377  0.941311E-06  0.186E-03    0.00       3.6  T
  41   -409.8419391 -0.138446E-05  0.102E-03    0.00       6.6  T
  42   -409.8419393 -0.232658E-06  0.618E-04    0.00      10.9  T
  43   -409.8419394 -0.482505E-07  0.367E-04    0.00      18.3  T
     SCC iter.                  ...        0 min,  6.083 sec
     gradient                   ...        0 min,  0.412 sec
 * total energy  :  -403.3133409 Eh     change       -0.5055107E-01 Eh
   gradient norm :     0.0804379 Eh/α   predicted    -0.5700672E-01 (  12.77%)
   displ. norm   :     0.9002672 α      lambda       -0.4275707E-01
   maximum displ.:     0.3773841 α      in ANC's #25, #70, #18, ...

........................................................................
.............................. CYCLE   12 ..............................
........................................................................
   1   -409.7870384 -0.409787E+03  0.316E-01    0.02       0.0  T
   2   -408.3648211  0.142222E+01  0.113E+00    0.19       1.0  T
   3   -409.3417218 -0.976901E+00  0.733E-01    0.05       1.0  T
   4   -409.1357120  0.206010E+00  0.797E-01    0.06       1.0  T
   5   -409.4069236 -0.271212E+00  0.642E-01    0.05       1.0  T
   6   -409.2767651  0.130159E+00  0.650E-01    0.01       1.0  T
   7   -409.4810145 -0.204249E+00  0.618E-01    0.03       1.0  T
   8   -409.1088481  0.372166E+00  0.724E-01    0.03       1.0  T
   9   -409.0467563  0.620919E-01  0.692E-01    0.05       1.0  T
  10   -409.4312906 -0.384534E+00  0.588E-01    0.06       1.0  T
  11   -409.6767195 -0.245429E+00  0.411E-01    0.04       1.0  T
  12   -409.5674450  0.109274E+00  0.491E-01    0.06       1.0  T
  13   -409.6947145 -0.127270E+00  0.340E-01    0.03       1.0  T
  14   -409.8152329 -0.120518E+00  0.178E-01    0.00       1.0  T
  15   -409.8222658 -0.703296E-02  0.158E-01    0.00       1.0  T
  16   -409.8371113 -0.148455E-01  0.105E-01    0.00       1.0  T
  17   -409.8444253 -0.731396E-02  0.712E-02    0.01       1.0  T
  18   -409.8426703  0.175496E-02  0.800E-02    0.01       1.0  T
  19   -409.8476117 -0.494134E-02  0.390E-02    0.01       1.0  T
  20   -409.8445601  0.305152E-02  0.670E-02    0.01       1.0  T
  21   -409.8470424 -0.248223E-02  0.435E-02    0.00       1.0  T
  22   -409.8461662  0.876202E-03  0.512E-02    0.01       1.0  T
  23   -409.8481361 -0.196996E-02  0.306E-02    0.00       1.0  T
  24   -409.8491318 -0.995671E-03  0.125E-02    0.00       1.0  T
  25   -409.8491854 -0.536028E-04  0.103E-02    0.00       1.0  T
  26   -409.8493039 -0.118545E-03  0.348E-03    0.00       1.9  T
  27   -409.8492648  0.391386E-04  0.673E-03    0.00       1.0  T
  28   -409.8493136 -0.488051E-04  0.217E-03    0.00       3.1  T
  29   -409.8493136 -0.357311E-07  0.216E-03    0.00       3.1  T
  30   -409.8493147 -0.111235E-05  0.186E-03    0.00       3.6  T
  31   -409.8493168 -0.202091E-05  0.138E-03    0.00       4.9  T
  32   -409.8493184 -0.167372E-05  0.543E-04    0.00      12.4  T
  33   -409.8493182  0.198085E-06  0.701E-04    0.00       9.6  T
  34   -409.8493186 -0.330206E-06  0.467E-04    0.00      14.4  T
     SCC iter.                  ...        0 min,  4.809 sec
     gradient                   ...        0 min,  0.411 sec
 * total energy  :  -403.3512818 Eh     change       -0.3794092E-01 Eh
   gradient norm :     0.0868326 Eh/α   predicted    -0.3870542E-01 (   2.01%)
   displ. norm   :     0.8472832 α      lambda       -0.5076606E-01
   maximum displ.:     0.3358127 α      in ANC's #25, #18, #70, ...

........................................................................
.............................. CYCLE   13 ..............................
........................................................................
   1   -409.7216356 -0.409722E+03  0.468E-01    0.00       0.0  T
   2   -381.3785955  0.283430E+02  0.632E+00    0.15       1.0  T
   3   -408.4084781 -0.270299E+02  0.115E+00    0.26       1.0  T
   4   -409.5205493 -0.111207E+01  0.590E-01    0.01       1.0  T
   5   -408.8873747  0.633175E+00  0.877E-01    0.17       1.0  T
   6   -409.3746951 -0.487320E+00  0.742E-01    0.04       1.0  T
   7   -409.4620715 -0.873764E-01  0.705E-01    0.03       1.0  T
   8   -409.6194015 -0.157330E+00  0.550E-01    0.05       1.0  T
   9   -409.3287841  0.290617E+00  0.684E-01    0.04       1.0  T
  10   -409.3713193 -0.425352E-01  0.730E-01    0.10       1.0  T
  11   -409.6590049 -0.287686E+00  0.486E-01    0.06       1.0  T
  12   -409.5827532  0.762517E-01  0.500E-01    0.04       1.0  T
  13   -409.8815312 -0.298778E+00  0.180E-01    0.02       1.0  T
  14   -409.8999897 -0.184585E-01  0.125E-01    0.01       1.0  T
  15   -409.8871556  0.128341E-01  0.160E-01    0.02       1.0  T
  16   -409.8439910  0.431647E-01  0.248E-01    0.01       1.0  T
  17   -409.9009013 -0.569103E-01  0.126E-01    0.01       1.0  T
  18   -409.9185983 -0.176970E-01  0.316E-02    0.01       1.0  T
  19   -409.9159893  0.260896E-02  0.529E-02    0.01       1.0  T
  20   -409.9185679 -0.257857E-02  0.281E-02    0.00       1.0  T
  21   -409.9190708 -0.502876E-03  0.210E-02    0.00       1.0  T
  22   -409.9193054 -0.234599E-03  0.133E-02    0.00       1.0  T
  23   -409.9192802  0.251839E-04  0.134E-02    0.00       1.0  T
  24   -409.9194610 -0.180805E-03  0.833E-03    0.00       1.0  T
  25   -409.9194503  0.106606E-04  0.873E-03    0.00       1.0  T
  26   -409.9195085 -0.581768E-04  0.501E-03    0.00       1.3  T
  27   -409.9195332 -0.246645E-04  0.204E-03    0.00       3.3  T
  28   -409.9195338 -0.693876E-06  0.189E-03    0.00       3.6  T
  29   -409.9195317  0.217331E-05  0.249E-03    0.00       2.7  T
  30   -409.9195363 -0.467182E-05  0.136E-03    0.00       4.9  T
  31   -409.9195349  0.141374E-05  0.181E-03    0.00       3.7  T
  32   -409.9195369 -0.195897E-05  0.110E-03    0.00       6.1  T
  33   -409.9195371 -0.229473E-06  0.975E-04    0.00       6.9  T
  34   -409.9195374 -0.295807E-06  0.837E-04    0.00       8.0  T
     SCC iter.                  ...        0 min,  4.811 sec
     gradient                   ...        0 min,  0.411 sec
 * total energy  :  -403.3723211 Eh     change       -0.2103927E-01 Eh
   gradient norm :     0.1429326 Eh/α   predicted    -0.4360524E-01 ( 107.26%)
   displ. norm   :     0.7037445 α      lambda       -0.5226156E-01
   maximum displ.:     0.2990943 α      in ANC's #25, #18, #30, ...

........................................................................
.............................. CYCLE   14 ..............................
........................................................................
   1   -409.9176524 -0.409918E+03  0.309E-01    0.01       0.0  T
   2   -407.3374470  0.258021E+01  0.130E+00    0.42       1.0  T
   3   -409.3605503 -0.202310E+01  0.807E-01    0.05       1.0  T
   4   -409.4623076 -0.101757E+00  0.731E-01    0.04       1.0  T
   5   -409.6354464 -0.173139E+00  0.605E-01    0.03       1.0  T
   6   -409.7502848 -0.114838E+00  0.421E-01    0.00       1.0  T
   7   -409.2612916  0.488993E+00  0.747E-01    0.13       1.0  T
   8   -409.6203899 -0.359098E+00  0.590E-01    0.03       1.0  T
   9   -409.4631257  0.157264E+00  0.662E-01    0.06       1.0  T
  10   -409.6052944 -0.142169E+00  0.536E-01    0.03       1.0  T
  11   -409.9180194 -0.312725E+00  0.242E-01    0.00       1.0  T
  12   -409.9291161 -0.110967E-01  0.217E-01    0.02       1.0  T
  13   -409.9755086 -0.463925E-01  0.708E-02    0.00       1.0  T
  14   -409.9609651  0.145435E-01  0.138E-01    0.01       1.0  T
  15   -409.9717981 -0.108330E-01  0.912E-02    0.00       1.0  T
  16   -409.9775633 -0.576523E-02  0.578E-02    0.01       1.0  T
  17   -409.9790940 -0.153063E-02  0.370E-02    0.00       1.0  T
  18   -409.9788231  0.270828E-03  0.426E-02    0.00       1.0  T
  19   -409.9785917  0.231406E-03  0.403E-02    0.00       1.0  T
  20   -409.9801312 -0.153945E-02  0.220E-02    0.00       1.0  T
  21   -409.9804638 -0.332578E-03  0.160E-02    0.00       1.0  T
  22   -409.9805282 -0.644718E-04  0.138E-02    0.00       1.0  T
  23   -409.9804631  0.650941E-04  0.152E-02    0.00       1.0  T
  24   -409.9805988 -0.135709E-03  0.959E-03    0.00       1.0  T
  25   -409.9806149 -0.160736E-04  0.864E-03    0.00       1.0  T
  26   -409.9806818 -0.668588E-04  0.381E-03    0.00       1.8  T
  27   -409.9806954 -0.136527E-04  0.172E-03    0.00       3.9  T
  28   -409.9806976 -0.212905E-05  0.824E-04    0.00       8.1  T
  29   -409.9806975  0.139533E-07  0.846E-04    0.00       7.9  T
  30   -409.9806967  0.814395E-06  0.124E-03    0.00       5.4  T
  31   -409.9806966  0.145638E-06  0.135E-03    0.00       5.0  T
  32   -409.9806962  0.336758E-06  0.143E-03    0.00       4.7  T
  33   -409.9806974 -0.120413E-05  0.945E-04    0.00       7.1  T
  34   -409.9806981 -0.638774E-06  0.552E-04    0.00      12.2  T
     SCC iter.                  ...        0 min,  4.808 sec
     gradient                   ...        0 min,  0.412 sec
 * total energy  :  -403.4037873 Eh     change       -0.3146620E-01 Eh
   gradient norm :     0.0962341 Eh/α   predicted    -0.3907225E-01 (  24.17%)
   displ. norm   :     0.7446217 α      lambda       -0.3188241E-01
   maximum displ.:     0.4016347 α      in ANC's #25, #18, #34, ...

........................................................................
.............................. CYCLE   15 ..............................
........................................................................
   1   -409.9807988 -0.409981E+03  0.217E-01    0.00       0.0  T
   2   -407.5484977  0.243230E+01  0.125E+00    0.19       1.0  T
   3   -409.2212381 -0.167274E+01  0.882E-01    0.13       1.0  T
   4   -409.6157103 -0.394472E+00  0.611E-01    0.03       1.0  T
   5   -409.4353412  0.180369E+00  0.676E-01    0.02       1.0  T
   6   -409.6912143 -0.255873E+00  0.544E-01    0.01       1.0  T
   7   -409.8298099 -0.138596E+00  0.384E-01    0.01       1.0  T
   8   -409.8140813  0.157285E-01  0.439E-01    0.03       1.0  T
   9   -409.8337877 -0.197064E-01  0.429E-01    0.03       1.0  T
  10   -409.8360070 -0.221931E-02  0.379E-01    0.00       1.0  T
  11   -409.9242818 -0.882748E-01  0.291E-01    0.01       1.0  T
  12   -409.9358098 -0.115280E-01  0.260E-01    0.02       1.0  T
  13   -409.9959310 -0.601212E-01  0.127E-01    0.01       1.0  T
  14   -410.0007868 -0.485585E-02  0.111E-01    0.00       1.0  T
  15   -410.0061399 -0.535311E-02  0.861E-02    0.00       1.0  T
  16   -410.0129228 -0.678290E-02  0.346E-02    0.00       1.0  T
  17   -410.0118152  0.110760E-02  0.451E-02    0.00       1.0  T
  18   -410.0138728 -0.205757E-02  0.149E-02    0.00       1.0  T
  19   -410.0140067 -0.133877E-03  0.110E-02    0.00       1.0  T
  20   -410.0139708  0.358691E-04  0.123E-02    0.00       1.0  T
  21   -410.0140069 -0.361388E-04  0.997E-03    0.00       1.0  T
  22   -410.0140806 -0.736356E-04  0.672E-03    0.00       1.0  T
  23   -410.0141073 -0.266892E-04  0.467E-03    0.00       1.4  T
  24   -410.0141053  0.195370E-05  0.475E-03    0.00       1.4  T
  25   -410.0141056 -0.265980E-06  0.457E-03    0.00       1.5  T
  26   -410.0141109 -0.535403E-05  0.388E-03    0.00       1.7  T
  27   -410.0141148 -0.385051E-05  0.319E-03    0.00       2.1  T
  28   -410.0141203 -0.553961E-05  0.195E-03    0.00       3.4  T
  29   -410.0141242 -0.385625E-05  0.495E-04    0.00      13.6  T
  30   -410.0141244 -0.235776E-06  0.294E-04    0.00      22.8  T
  31   -410.0141244 -0.341544E-07  0.207E-04    0.00      32.4  T
     SCC iter.                  ...        0 min,  4.428 sec
     gradient                   ...        0 min,  0.412 sec
 * total energy  :  -403.4306135 Eh     change       -0.2682624E-01 Eh
   gradient norm :     0.0597436 Eh/α   predicted    -0.2477999E-01 (  -7.63%)
   displ. norm   :     0.8626741 α      lambda       -0.3003431E-01
   maximum displ.:     0.4771304 α      in ANC's #25, #18, #34, ...

........................................................................
.............................. CYCLE   16 ..............................
........................................................................
   1   -410.0515074 -0.410052E+03  0.204E-01    0.00       0.0  T
   2   -409.4326456  0.618862E+00  0.816E-01    0.02       1.0  T
   3   -409.4306522  0.199345E-02  0.728E-01    0.08       1.0  T
   4   -409.8457012 -0.415049E+00  0.499E-01    0.01       1.0  T
   5   -409.7685569  0.771443E-01  0.553E-01    0.03       1.0  T
   6   -409.9227191 -0.154162E+00  0.400E-01    0.02       1.0  T
   7   -409.8673258  0.553933E-01  0.431E-01    0.05       1.0  T
   8   -409.2587373  0.608588E+00  0.794E-01    0.11       1.0  T
   9   -409.9736360 -0.714899E+00  0.297E-01    0.00       1.0  T
  10   -410.0086097 -0.349737E-01  0.257E-01    0.01       1.0  T
  11   -410.0213683 -0.127586E-01  0.236E-01    0.02       1.0  T
  12   -410.0504765 -0.291082E-01  0.144E-01    0.00       1.0  T
  13   -410.0657828 -0.153062E-01  0.949E-02    0.00       1.0  T
  14   -410.0673763 -0.159349E-02  0.858E-02    0.00       1.0  T
  15   -410.0665441  0.832208E-03  0.825E-02    0.01       1.0  T
  16   -410.0722643 -0.572026E-02  0.410E-02    0.00       1.0  T
  17   -410.0740153 -0.175095E-02  0.175E-02    0.00       1.0  T
  18   -410.0739335  0.817760E-04  0.197E-02    0.00       1.0  T
  19   -410.0740558 -0.122289E-03  0.163E-02    0.00       1.0  T
  20   -410.0742527 -0.196913E-03  0.964E-03    0.00       1.0  T
  21   -410.0743322 -0.795128E-04  0.421E-03    0.00       1.6  T
  22   -410.0743060  0.261745E-04  0.612E-03    0.00       1.1  T
  23   -410.0743305 -0.244302E-04  0.400E-03    0.00       1.7  T
  24   -410.0743476 -0.171144E-04  0.975E-04    0.00       6.9  T
  25   -410.0743462  0.137280E-05  0.141E-03    0.00       4.7  T
  26   -410.0743480 -0.180238E-05  0.628E-04    0.00      10.7  T
  27   -410.0743477  0.325434E-06  0.856E-04    0.00       7.8  T
  28   -410.0743480 -0.326412E-06  0.651E-04    0.00      10.3  T
     SCC iter.                  ...        0 min,  3.960 sec
     gradient                   ...        0 min,  0.412 sec
 * total energy  :  -403.4574120 Eh     change       -0.2679851E-01 Eh
   gradient norm :     0.0533334 Eh/α   predicted    -0.2619302E-01 (  -2.26%)
   displ. norm   :     0.9109913 α      lambda       -0.2971070E-01
   maximum displ.:     0.4679461 α      in ANC's #25, #18, #34, ...

........................................................................
.............................. CYCLE   17 ..............................
........................................................................
   1   -410.0784204 -0.410078E+03  0.278E-01    0.01       0.0  T
   2   -407.4815363  0.259688E+01  0.134E+00    0.20       1.0  T
   3   -409.7092364 -0.222770E+01  0.692E-01    0.02       1.0  T
   4   -409.5228755  0.186361E+00  0.751E-01    0.03       1.0  T
   5   -409.6757008 -0.152825E+00  0.667E-01    0.01       1.0  T
   6   -409.6755618  0.138972E-03  0.602E-01    0.02       1.0  T
   7   -409.6718052  0.375655E-02  0.618E-01    0.05       1.0  T
   8   -409.7818888 -0.110084E+00  0.530E-01    0.00       1.0  T
   9   -409.7634635  0.184252E-01  0.609E-01    0.03       1.0  T
  10   -409.8921732 -0.128710E+00  0.497E-01    0.04       1.0  T
  11   -410.0794777 -0.187304E+00  0.207E-01    0.01       1.0  T
  12   -410.0826880 -0.321026E-02  0.216E-01    0.01       1.0  T
  13   -410.1106458 -0.279579E-01  0.129E-01    0.01       1.0  T
  14   -410.1113635 -0.717633E-03  0.121E-01    0.00       1.0  T
  15   -410.1258753 -0.145118E-01  0.553E-02    0.00       1.0  T
  16   -410.1149067  0.109686E-01  0.117E-01    0.01       1.0  T
  17   -410.1244275 -0.952086E-02  0.677E-02    0.00       1.0  T
  18   -410.1273877 -0.296021E-02  0.358E-02    0.00       1.0  T
  19   -410.1283185 -0.930783E-03  0.262E-02    0.00       1.0  T
  20   -410.1287879 -0.469419E-03  0.149E-02    0.00       1.0  T
  21   -410.1287833  0.462261E-05  0.149E-02    0.00       1.0  T
  22   -410.1289628 -0.179485E-03  0.602E-03    0.00       1.1  T
  23   -410.1290048 -0.419469E-04  0.166E-03    0.00       4.1  T
  24   -410.1289705  0.342600E-04  0.581E-03    0.00       1.2  T
  25   -410.1289990 -0.284822E-04  0.291E-03    0.00       2.3  T
  26   -410.1290057 -0.670225E-05  0.134E-03    0.00       5.0  T
  27   -410.1290066 -0.891297E-06  0.760E-04    0.00       8.8  T
  28   -410.1290051  0.147303E-05  0.135E-03    0.00       5.0  T
  29   -410.1290068 -0.168209E-05  0.564E-04    0.00      11.9  T
  30   -410.1290070 -0.185346E-06  0.336E-04    0.00      20.0  T
     SCC iter.                  ...        0 min,  4.284 sec
     gradient                   ...        0 min,  0.444 sec
 * total energy  :  -403.4816146 Eh     change       -0.2420262E-01 Eh
   gradient norm :     0.0421022 Eh/α   predicted    -0.2718392E-01 (  12.32%)
   displ. norm   :     0.8942110 α      lambda       -0.2575196E-01
   maximum displ.:     0.4565560 α      in ANC's #25, #18, #34, ...

........................................................................
.............................. CYCLE   18 ..............................
........................................................................
   1   -410.1046495 -0.410105E+03  0.268E-01    0.02       0.0  T
   2   -407.5144110  0.259024E+01  0.132E+00    0.31       1.0  T
   3   -409.3535154 -0.183910E+01  0.893E-01    0.32       1.0  T
   4   -409.7269473 -0.373432E+00  0.678E-01    0.05       1.0  T
   5   -409.8109104 -0.839631E-01  0.566E-01    0.06       1.0  T
   6   -409.7975614  0.133490E-01  0.570E-01    0.07       1.0  T
   7   -409.6834185  0.114143E+00  0.695E-01    0.05       1.0  T
   8   -409.6771540  0.626442E-02  0.693E-01    0.05       1.0  T
   9   -409.8888260 -0.211672E+00  0.505E-01    0.05       1.0  T
  10   -409.9615816 -0.727557E-01  0.422E-01    0.02       1.0  T
  11   -410.0090792 -0.474976E-01  0.354E-01    0.02       1.0  T
  12   -410.1298142 -0.120735E+00  0.173E-01    0.01       1.0  T
  13   -410.1548434 -0.250292E-01  0.103E-01    0.01       1.0  T
  14   -410.1353955  0.194479E-01  0.171E-01    0.00       1.0  T
  15   -410.1492597 -0.138642E-01  0.124E-01    0.01       1.0  T
  16   -410.1555723 -0.631264E-02  0.913E-02    0.01       1.0  T
  17   -410.1649330 -0.936068E-02  0.251E-02    0.00       1.0  T
  18   -410.1648024  0.130613E-03  0.263E-02    0.00       1.0  T
  19   -410.1644618  0.340638E-03  0.298E-02    0.00       1.0  T
  20   -410.1651874 -0.725591E-03  0.168E-02    0.00       1.0  T
  21   -410.1652455 -0.581244E-04  0.149E-02    0.00       1.0  T
  22   -410.1654224 -0.176932E-03  0.764E-03    0.00       1.0  T
  23   -410.1654824 -0.599918E-04  0.199E-03    0.00       3.4  T
  24   -410.1654827 -0.241166E-06  0.188E-03    0.00       3.6  T
  25   -410.1654837 -0.103251E-05  0.172E-03    0.00       3.9  T
  26   -410.1654844 -0.699844E-06  0.144E-03    0.00       4.7  T
  27   -410.1654858 -0.140812E-05  0.831E-04    0.00       8.1  T
  28   -410.1654863 -0.546843E-06  0.428E-04    0.00      15.7  T
  29   -410.1654864 -0.318586E-07  0.388E-04    0.00      17.3  T
     SCC iter.                  ...        0 min,  4.099 sec
     gradient                   ...        0 min,  0.413 sec
 * total energy  :  -403.5036205 Eh     change       -0.2200591E-01 Eh
   gradient norm :     0.0358495 Eh/α   predicted    -0.2317181E-01 (   5.30%)
   displ. norm   :     0.9088650 α      lambda       -0.2192749E-01
   maximum displ.:     0.4613134 α      in ANC's #25, #18, #34, ...

........................................................................
.............................. CYCLE   19 ..............................
........................................................................
   1   -410.1512151 -0.410151E+03  0.211E-01    0.02       0.0  T
   2   -409.1075716  0.104364E+01  0.952E-01    0.06       1.0  T
   3   -409.4767002 -0.369129E+00  0.858E-01    0.20       1.0  T
   4   -409.7533147 -0.276614E+00  0.593E-01    0.01       1.0  T
   5   -409.9025506 -0.149236E+00  0.514E-01    0.04       1.0  T
   6   -409.8829820  0.195686E-01  0.560E-01    0.03       1.0  T
   7   -409.9809704 -0.979885E-01  0.403E-01    0.02       1.0  T
   8   -409.9310917  0.498787E-01  0.538E-01    0.01       1.0  T
   9   -409.9293681  0.172362E-02  0.522E-01    0.01       1.0  T
  10   -410.0573118 -0.127944E+00  0.341E-01    0.01       1.0  T
  11   -410.0838093 -0.264974E-01  0.293E-01    0.01       1.0  T
  12   -410.1273148 -0.435055E-01  0.224E-01    0.02       1.0  T
  13   -410.1749786 -0.476638E-01  0.111E-01    0.00       1.0  T
  14   -410.1662186  0.876000E-02  0.144E-01    0.01       1.0  T
  15   -410.1769264 -0.107078E-01  0.105E-01    0.00       1.0  T
  16   -410.1887176 -0.117912E-01  0.338E-02    0.00       1.0  T
  17   -410.1895039 -0.786300E-03  0.202E-02    0.00       1.0  T
  18   -410.1893999  0.104040E-03  0.235E-02    0.00       1.0  T
  19   -410.1894656 -0.657557E-04  0.200E-02    0.00       1.0  T
  20   -410.1898257 -0.360039E-03  0.116E-02    0.00       1.0  T
  21   -410.1899161 -0.904619E-04  0.741E-03    0.00       1.0  T
  22   -410.1899532 -0.371118E-04  0.447E-03    0.00       1.5  T
  23   -410.1899338  0.194367E-04  0.609E-03    0.00       1.1  T
  24   -410.1899570 -0.231799E-04  0.403E-03    0.00       1.7  T
  25   -410.1899713 -0.143479E-04  0.195E-03    0.00       3.4  T
  26   -410.1899749 -0.358527E-05  0.821E-04    0.00       8.2  T
  27   -410.1899754 -0.457791E-06  0.539E-04    0.00      12.4  T
  28   -410.1899753  0.671072E-07  0.605E-04    0.00      11.1  T
     SCC iter.                  ...        0 min,  3.999 sec
     gradient                   ...        0 min,  0.413 sec
 * total energy  :  -403.5233388 Eh     change       -0.1971831E-01 Eh
   gradient norm :     0.0362651 Eh/α   predicted    -0.2002020E-01 (   1.53%)
   displ. norm   :     0.9318718 α      lambda       -0.2109684E-01
   maximum displ.:     0.4730301 α      in ANC's #25, #18, #34, ...

........................................................................
.............................. CYCLE   20 ..............................
........................................................................
   1   -410.1529470 -0.410153E+03  0.264E-01    0.02       0.0  T
   2   -408.3597013  0.179325E+01  0.110E+00    0.05       1.0  T
   3   -408.9551407 -0.595439E+00  0.889E-01    0.13       1.0  T
   4   -409.6808767 -0.725736E+00  0.728E-01    0.05       1.0  T
   5   -409.7772057 -0.963290E-01  0.669E-01    0.01       1.0  T
   6   -410.0486971 -0.271491E+00  0.412E-01    0.02       1.0  T
   7   -409.9638609  0.848362E-01  0.498E-01    0.01       1.0  T
   8   -409.9092942  0.545667E-01  0.492E-01    0.03       1.0  T
   9   -409.9436481 -0.343539E-01  0.507E-01    0.03       1.0  T
  10   -410.1062070 -0.162559E+00  0.316E-01    0.00       1.0  T
  11   -410.1246580 -0.184510E-01  0.268E-01    0.02       1.0  T
  12   -410.1400338 -0.153758E-01  0.242E-01    0.01       1.0  T
  13   -410.1553107 -0.152768E-01  0.229E-01    0.01       1.0  T
  14   -410.2101165 -0.548059E-01  0.798E-02    0.00       1.0  T
  15   -410.2053253  0.479126E-02  0.107E-01    0.00       1.0  T
  16   -410.2040016  0.132365E-02  0.110E-01    0.00       1.0  T
  17   -410.2156364 -0.116347E-01  0.484E-02    0.00       1.0  T
  18   -410.2173357 -0.169933E-02  0.288E-02    0.00       1.0  T
  19   -410.2178421 -0.506405E-03  0.209E-02    0.00       1.0  T
  20   -410.2180483 -0.206197E-03  0.158E-02    0.00       1.0  T
  21   -410.2181456 -0.973335E-04  0.114E-02    0.00       1.0  T
  22   -410.2180601  0.855699E-04  0.138E-02    0.00       1.0  T
  23   -410.2182623 -0.202265E-03  0.366E-03    0.00       1.8  T
  24   -410.2182503  0.120281E-04  0.507E-03    0.00       1.3  T
  25   -410.2182681 -0.177859E-04  0.314E-03    0.00       2.1  T
  26   -410.2182742 -0.607692E-05  0.225E-03    0.00       3.0  T
  27   -410.2182790 -0.481413E-05  0.763E-04    0.00       8.8  T
  28   -410.2182794 -0.410041E-06  0.535E-04    0.00      12.5  T
  29   -410.2182794 -0.101405E-07  0.485E-04    0.00      13.8  T
     SCC iter.                  ...        0 min,  4.096 sec
     gradient                   ...        0 min,  0.413 sec
 * total energy  :  -403.5418566 Eh     change       -0.1851780E-01 Eh
   gradient norm :     0.0351345 Eh/α   predicted    -0.1970854E-01 (   6.43%)
   displ. norm   :     0.9232286 α      lambda       -0.1971652E-01
   maximum displ.:     0.4137379 α      in ANC's #25, #18, #34, ...
 * RMSD in coord.:     0.8613043 α      energy gain  -0.1264263E+01 Eh

generating ANC from model Hessian ...
Using Lindh-Hessian (1995)
 Shifting diagonal of input Hessian by    1.0020255831707871E-002
 Lowest  eigenvalues of input Hessian
    0.010000    0.010007    0.010010    0.010013    0.010016    0.010018
    0.010019    0.010019    0.000000    0.000000    0.000000    0.000000
    0.000000    0.000000    0.010023    0.010024    0.010026    0.010028
 Highest eigenvalues
    2.131555    2.503235    2.532153    2.611857    2.613184    2.662831


........................................................................
.............................. CYCLE   21 ..............................
........................................................................
   1   -410.1625466 -0.410163E+03  0.303E-01    0.03       0.0  T
   2   -404.2376015  0.592495E+01  0.349E+00    0.04       1.0  T
   3   -409.5459871 -0.530839E+01  0.827E-01    0.03       1.0  T
   4   -409.6234008 -0.774137E-01  0.778E-01    0.10       1.0  T
   5   -409.7484559 -0.125055E+00  0.688E-01    0.04       1.0  T
   6   -409.8642954 -0.115839E+00  0.598E-01    0.02       1.0  T
   7   -409.8344965  0.297989E-01  0.558E-01    0.02       1.0  T
   8   -409.8338682  0.628351E-03  0.567E-01    0.02       1.0  T
   9   -409.7833593  0.505089E-01  0.673E-01    0.05       1.0  T
  10   -410.1692632 -0.385904E+00  0.252E-01    0.01       1.0  T
  11   -410.2234987 -0.542355E-01  0.173E-01    0.01       1.0  T
  12   -410.1638452  0.596535E-01  0.262E-01    0.01       1.0  T
  13   -410.1667149 -0.286973E-02  0.262E-01    0.01       1.0  T
  14   -410.2355543 -0.688394E-01  0.126E-01    0.01       1.0  T
  15   -410.2288734  0.668089E-02  0.135E-01    0.01       1.0  T
  16   -410.2499552 -0.210817E-01  0.562E-02    0.00       1.0  T
  17   -410.2441484  0.580672E-02  0.896E-02    0.00       1.0  T
  18   -410.2498544 -0.570592E-02  0.539E-02    0.00       1.0  T
  19   -410.2520851 -0.223076E-02  0.342E-02    0.00       1.0  T
  20   -410.2528965 -0.811394E-03  0.189E-02    0.00       1.0  T
  21   -410.2527956  0.100891E-03  0.199E-02    0.01       1.0  T
  22   -410.2531444 -0.348748E-03  0.115E-02    0.00       1.0  T
  23   -410.2530858  0.585227E-04  0.138E-02    0.00       1.0  T
  24   -410.2531364 -0.505611E-04  0.116E-02    0.00       1.0  T
  25   -410.2530584  0.779799E-04  0.142E-02    0.00       1.0  T
  26   -410.2531189 -0.605020E-04  0.118E-02    0.00       1.0  T
  27   -410.2531294 -0.104453E-04  0.110E-02    0.00       1.0  T
  28   -410.2531140  0.153689E-04  0.112E-02    0.00       1.0  T
  29   -410.2531469 -0.328918E-04  0.890E-03    0.00       1.0  T
  30   -410.2531467  0.236236E-06  0.807E-03    0.00       1.0  T
  31   -410.2531492 -0.255811E-05  0.733E-03    0.00       1.0  T
  32   -410.2531529 -0.372443E-05  0.688E-03    0.00       1.0  T
  33   -410.2531518  0.116387E-05  0.640E-03    0.00       1.0  T
  34   -410.2531553 -0.349142E-05  0.505E-03    0.00       1.3  T
  35   -410.2531645 -0.921182E-05  0.254E-03    0.00       2.6  T
  36   -410.2531652 -0.746483E-06  0.144E-03    0.00       4.6  T
  37   -410.2531670 -0.177108E-05  0.264E-04    0.00      25.4  T
  38   -410.2531670  0.336242E-07  0.227E-04    0.00      29.6  T
  39   -410.2531670 -0.443404E-07  0.826E-05    0.00      81.2  T
     SCC iter.                  ...        0 min,  5.513 sec
     gradient                   ...        0 min,  0.414 sec
 * total energy  :  -403.5595618 Eh     change       -0.1770517E-01 Eh
   gradient norm :     0.0324144 Eh/α   predicted     0.0000000E+00 (-100.00%)
   displ. norm   :     0.7069312 α      lambda       -0.1392983E-01
   maximum displ.:     0.4342749 α      in ANC's #33, #42, #30, ...

........................................................................
.............................. CYCLE   22 ..............................
........................................................................
   1   -410.2722751 -0.410272E+03  0.120E-01    0.02       0.0  T
   2   -409.7066617  0.565613E+00  0.727E-01    0.05       1.0  T
   3   -409.9071282 -0.200466E+00  0.595E-01    0.02       1.0  T
   4   -410.0854432 -0.178315E+00  0.424E-01    0.03       1.0  T
   5   -410.1365813 -0.511381E-01  0.373E-01    0.01       1.0  T
   6   -409.9214958  0.215085E+00  0.569E-01    0.01       1.0  T
   7   -409.9353459 -0.138500E-01  0.554E-01    0.01       1.0  T
   8   -409.9021341  0.332118E-01  0.531E-01    0.00       1.0  T
   9   -410.0456725 -0.143538E+00  0.435E-01    0.03       1.0  T
  10   -410.2549095 -0.209237E+00  0.160E-01    0.01       1.0  T
  11   -410.2466047  0.830481E-02  0.168E-01    0.00       1.0  T
  12   -410.2781635 -0.315588E-01  0.434E-02    0.00       1.0  T
  13   -410.2772999  0.863643E-03  0.513E-02    0.00       1.0  T
  14   -410.2740542  0.324571E-02  0.678E-02    0.00       1.0  T
  15   -410.2787142 -0.466006E-02  0.398E-02    0.00       1.0  T
  16   -410.2762776  0.243658E-02  0.561E-02    0.00       1.0  T
  17   -410.2799923 -0.371466E-02  0.180E-02    0.01       1.0  T
  18   -410.2798962  0.960931E-04  0.198E-02    0.01       1.0  T
  19   -410.2802778 -0.381574E-03  0.840E-03    0.01       1.0  T
  20   -410.2803353 -0.575267E-04  0.438E-03    0.00       1.5  T
  21   -410.2803445 -0.916434E-05  0.334E-03    0.00       2.0  T
  22   -410.2803535 -0.904931E-05  0.180E-03    0.00       3.7  T
  23   -410.2803565 -0.294043E-05  0.924E-04    0.00       7.3  T
  24   -410.2803565  0.740334E-08  0.882E-04    0.00       7.6  T
  25   -410.2803569 -0.481226E-06  0.631E-04    0.00      10.6  T
     SCC iter.                  ...        0 min,  3.532 sec
     gradient                   ...        0 min,  0.413 sec
 * total energy  :  -403.5728815 Eh     change       -0.1331974E-01 Eh
   gradient norm :     0.0217836 Eh/α   predicted    -0.1044571E-01 ( -21.58%)
   displ. norm   :     0.9304773 α      lambda       -0.1681113E-01
   maximum displ.:     0.5562038 α      in ANC's #33, #42, #30, ...

........................................................................
.............................. CYCLE   23 ..............................
........................................................................
   1   -410.2805265 -0.410281E+03  0.191E-01    0.02       0.0  T
   2   -409.6026429  0.677884E+00  0.850E-01    0.03       1.0  T
   3   -409.7846532 -0.182010E+00  0.730E-01    0.02       1.0  T
   4   -409.9036127 -0.118959E+00  0.611E-01    0.02       1.0  T
   5   -409.8734122  0.302005E-01  0.617E-01    0.07       1.0  T
   6   -409.9663098 -0.928976E-01  0.528E-01    0.03       1.0  T
   7   -409.9269754  0.393344E-01  0.556E-01    0.00       1.0  T
   8   -409.9218745  0.510083E-02  0.611E-01    0.00       1.0  T
   9   -410.1621822 -0.240308E+00  0.386E-01    0.01       1.0  T
  10   -410.2401734 -0.779912E-01  0.265E-01    0.02       1.0  T
  11   -410.2334270  0.674647E-02  0.253E-01    0.00       1.0  T
  12   -410.2545876 -0.211606E-01  0.202E-01    0.01       1.0  T
  13   -410.3023333 -0.477458E-01  0.774E-02    0.01       1.0  T
  14   -410.2948416  0.749175E-02  0.116E-01    0.00       1.0  T
  15   -410.3063846 -0.115430E-01  0.422E-02    0.01       1.0  T
  16   -410.3016277  0.475684E-02  0.763E-02    0.00       1.0  T
  17   -410.3081587 -0.653098E-02  0.209E-02    0.01       1.0  T
  18   -410.3061611  0.199760E-02  0.448E-02    0.01       1.0  T
  19   -410.3082027 -0.204155E-02  0.183E-02    0.01       1.0  T
  20   -410.3084636 -0.260960E-03  0.104E-02    0.01       1.0  T
  21   -410.3085240 -0.603262E-04  0.657E-03    0.01       1.0  T
  22   -410.3085642 -0.402921E-04  0.310E-03    0.01       2.2  T
  23   -410.3085664 -0.219568E-05  0.278E-03    0.01       2.4  T
  24   -410.3085669 -0.460882E-06  0.269E-03    0.01       2.5  T
  25   -410.3085745 -0.758243E-05  0.105E-03    0.00       6.4  T
  26   -410.3085751 -0.639660E-06  0.653E-04    0.00      10.3  T
  27   -410.3085754 -0.274205E-06  0.513E-04    0.00      13.1  T
[...]
  65:  0.00  66:  0.00  67:  0.00  68:  0.00  69:  0.00  70:  0.00  71:  0.00  72:  0.00
  73:  0.00  74:  0.00  75:  0.00  76:  0.00  77:  0.00  78:  0.00  79:  0.00  80:  0.00
  81:  0.00  82:  0.00  83:  0.00  84:  0.00  85:  0.00  86:  0.00  87:  0.00  88:  0.00
  89:  0.00  90:  0.00  91:  0.00  92:  0.00  93:  0.00  94:  0.00  95:  0.00  96:  0.00
  97:  0.00  98:  0.00  99:  0.00 100:  0.00 101:  0.00 102:  0.00 103:  0.00 104:  0.00
 105:  0.00 106:  0.00 107:  0.00 108:  0.00 109:  0.00 110:  0.00 111:  0.00 112:  0.00
 113:  0.00 114:  0.00 115:  0.00 116:  0.00 117:  0.00 118:  0.00 119:  0.00 120:  0.00
 121:  0.00 122:  0.00 123:  0.00 124:  0.00 125:  0.00 126:  0.00 127:  0.00 128:  0.00
 129:  0.00 130:  0.00 131:  0.00 132:  0.00 133:  0.00 134:  0.00 135:  0.00 136:  0.00
 137:  0.00 138:  0.00 139:  0.00 140:  0.00 141:  0.00 142:  0.00 143:  0.00 144:  0.00
 145:  0.00 146:  0.00 147:  0.00 148:  0.00 149:  0.00 150:  0.00 151:  0.00 152:  0.00
 153:  0.00 154:  0.00 155:  0.00 156:  0.00 157:  0.00 158:  0.00 159:  0.00 160:  0.00
 161:  0.00 162:  0.00 163:  0.00 164:  0.00 165:  0.00 166:  0.00 167:  0.00 168:  0.00
 169:  0.00 170:  0.00 171:  0.00 172:  0.00 173:  0.00 174:  0.00 175:  0.00 176:  0.00
 177:  0.00 178:  0.00 179:  0.00 180:  0.00 181:  0.00 182:  0.00 183:  0.00 184:  0.00
 185:  0.00 186:  0.00 187:  0.00 188:  0.00 189:  0.00 190:  0.00 191:  0.00 192:  0.00
 193:  0.00 194:  0.00 195:  0.00 196:  0.00 197:  0.00 198:  0.00 199:  0.00 200:  0.00
 201:  0.00 202:  0.00 203:  0.00 204:  0.00 205:  0.00 206:  0.00 207:  0.00 208:  0.00
 209:  0.00 210:  0.00 211:  0.00 212:  0.00 213:  0.00 214:  0.00 215:  0.00 216:  0.00
 217:  0.00 218:  0.00 219:  0.00 220:  0.00 221:  0.00 222:  0.00 223:  0.00 224:  0.00
 225:  0.00 226:  0.00 227:  0.00 228:  0.00 229:  0.00 230:  0.00 231:  0.00 232:  0.00
 233:  0.00 234:  0.00 235:  0.00 236:  0.00 237:  0.00 238:  0.00 239:  0.00 240:  0.00
 241:  0.00 242:  0.00 243:  0.00 244:  0.00 245:  0.00 246:  0.00 247:  0.00 248:  0.00
 249:  0.00 250:  0.00 251:  0.00 252:  0.00 253:  0.00 254:  0.00 255:  0.00 256:  0.00
 257:  0.00 258:  0.00 259:  0.00 260:  0.00 261:  0.00 262:  0.00 263:  0.00 264:  0.00
 265:  0.00 266:  0.00 267:  0.00 268:  0.00 269:  0.00 270:  0.00 271:  0.00 272:  0.00
 273:  0.00 274:  0.00 275:  0.00 276:  0.00 277:  0.00 278:  0.00 279:  0.00 280:  0.00
 281:  0.00 282:  0.00 283:  0.00 284:  0.00 285:  0.00 286:  0.00 287:  0.00 288:  0.00
 289:  0.00 290:  0.00 291:  0.00 292:  0.00 293:  0.00 294:  0.00 295:  0.00 296:  0.00
 297:  0.00 298:  0.00 299:  0.00 300:  0.00 301:  0.00 302:  0.00 303:  0.00 304:  0.00
 305:  0.00 306:  0.00 307:  0.00 308:  0.00 309:  0.00 310:  0.00 311:  0.00 312:  0.00
 313:  0.00 314:  0.00 315:  0.00 316:  0.00 317:  0.00 318:  0.00 319:  0.00 320:  0.00
 321:  0.00 322:  0.00 323:  0.00 324:  0.00 325:  0.00 326:  0.00 327:  0.00 328:  0.00
 329:  0.00 330:  0.00 331:  0.00 332:  0.00 333:  0.00 334:  0.00 335:  0.00 336:  0.00
 337:  0.00 338:  0.00 339:  0.00 340:  0.00 341:  0.00 342:  0.00 343:  0.00 344:  0.00
 345:  0.00 346:  0.00 347:  0.00 348:  0.00 349:  0.00 350:  0.00 351:  0.00 352:  0.00
 353:  0.00 354:  0.00 355:  0.00 356:  0.00 357:  0.00 358:  0.00 359:  0.00 360:  0.00
 361:  0.00 362:  0.00 363:  0.00 364:  0.00 365:  0.00 366:  0.00 367:  0.00 368:  0.00
 369:  0.00 370:  0.00 371:  0.00 372:  0.00 373:  0.00 374:  0.00 375:  0.00 376:  0.00
 377:  0.00 378:  0.00 379:  0.00 380:  0.00 381:  0.00 382:  0.00 383:  0.00 384:  0.00
 385:  0.00 386:  0.00 387:  0.00 388:  0.00 389:  0.00 390:  0.00 391:  0.00 392:  0.00
 393:  0.00 394:  0.00 395:  0.00 396:  0.00 397:  0.00 398:  0.00 399:  0.00 400:  0.00
 401:  0.00 402:  0.00 403:  0.00 404:  0.00 405:  0.00 406:  0.00 407:  0.00 408:  0.00
 409:  0.00 410:  0.00 411:  0.00 412:  0.00 413:  0.00 414:  0.00 415:  0.00 416:  0.00
 417:  0.00 418:  0.00 419:  0.00 420:  0.00 421:  0.00 422:  0.00 423:  0.00 424:  0.00
 425:  0.00 426:  0.00 427:  0.00 428:  0.00 429:  0.00 430:  0.00 431:  0.00 432:  0.00
 433:  0.00 434:  0.00 435:  0.00 436:  0.00 437:  0.00 438:  0.00 439:  0.00 440:  0.00
 441:  0.00 442:  0.00 443:  0.00 444:  0.00 445:  0.00 446:  0.00 447:  0.00 448:  0.00
 449:  0.00 450:  0.00 451:  0.00 452:  0.00 453:  0.00 454:  0.00 455:  0.00 456:  0.00
 457:  0.00 458:  0.00 459:  0.00 460:  0.00 461:  0.00 462:  0.00 463:  0.00 464:  0.00
 465:  0.00 466:  0.00 467:  0.00 468:  0.00 469:  0.00 470:  0.00 471:  0.00 472:  0.00
 473:  0.00 474:  0.00 475:  0.00 476:  0.00 477:  0.00 478:  0.00 479:  0.00 480:  0.00
 481:  0.00 482:  0.00 483:  0.00 484:  0.00 485:  0.00 486:  0.00 487:  0.00 488:  0.00
 489:  0.00 490:  0.00 491:  0.00 492:  0.00 493:  0.00 494:  0.00 495:  0.00 496:  0.00
 497:  0.00 498:  0.00 499:  0.00 500:  0.00 501:  0.00 502:  0.00 503:  0.00 504:  0.00
 505:  0.00 506:  0.00 507:  0.00 508:  0.00 509:  0.00 510:  0.00 511:  0.00 512:  0.00
 513:  0.00 514:  0.00 515:  0.00 516:  0.00 517:  0.00 518:  0.00 519:  0.00 520:  0.00
 521:  0.00 522:  0.00 523:  0.00 524:  0.00 525:  0.00 526:  0.00 527:  0.00 528:  0.00
 529:  0.00 530:  0.00 531:  0.00 532:  0.00 533:  0.00 534:  0.00 535:  0.00 536:  0.00
 537:  0.00 538:  0.00 539:  0.00 540:  0.00 541:  0.00 542:  0.00 543:  0.00 544:  0.00
 545:  0.00 546:  0.00 547:  0.00 548:  0.00 549:  0.00 550:  0.00 551:  0.00 552:  0.00
 553:  0.00 554:  0.00 555:  0.00 556:  0.00 557:  0.00 558:  0.00 559:  0.00 560:  0.00
 561:  0.00 562:  0.00 563:  0.00 564:  0.00 565:  0.00 566:  0.00 567:  0.00 568:  0.00
 569:  0.00 570:  0.00 571:  0.00 572:  0.00 573:  0.00 574:  0.00 575:  0.00 576:  0.00
 577:  0.00 578:  0.00 579:  0.00 580:  0.00 581:  0.00 582:  0.00 583:  0.00 584:  0.00
 585:  0.00 586:  0.00 587:  0.00 588:  0.00 589:  0.00 590:  0.00 591:  0.00 592:  0.00
 593:  0.00 594:  0.00 595:  0.00 596:  0.00 597:  0.00 598:  0.00 599:  0.00 600:  0.00
 601:  0.00 602:  0.00 603:  0.00 604:  0.00 605:  0.00 606:  0.00 607:  0.00 608:  0.00
 609:  0.00 610:  0.00 611:  0.00 612:  0.00 613:  0.00 614:  0.00 615:  0.00 616:  0.00
 617:  0.00 618:  0.00 619:  0.00 620:  0.00 621:  0.00 622:  0.00 623:  0.00 624:  0.00
 625:  0.00 626:  0.00 627:  0.00 628:  0.00 629:  0.00 630:  0.00 631:  0.00 632:  0.00
 633:  0.00 634:  0.00 635:  0.00 636:  0.00 637:  0.00 638:  0.00 639:  0.00 640:  0.00
 641:  0.00 642:  0.00 643:  0.00 644:  0.00 645:  0.00 646:  0.00 647:  0.00 648:  0.00
 649:  0.00 650:  0.00 651:  0.00 652:  0.00 653:  0.00 654:  0.00 655:  0.00 656:  0.00
 657:  0.00 658:  0.00 659:  0.00 660:  0.00 661:  0.00 662:  0.00 663:  0.00 664:  0.00
 665:  0.00 666:  0.00
 output can be read by thermo (or use thermo option).
 writing <g98.out> molden fake output.
 recommended (thermochemical) frequency scaling factor: 1.0
           -------------------------------------------------
          |             Thermodynamic Functions             |
           -------------------------------------------------
 symmetry recognition skipped because # atoms >         200
 inverting freq            1   6.7394229495258990     
 inverting freq            2   3.8004463556450441     
 inverting freq            3   1.8640322700194698     

          ...................................................
          :                      SETUP                      :
          :.................................................:
          :  # frequencies                         659      :
          :  # imaginary freq.                       0      :
          :  linear?                             false      :
          :  only rotor calc.                    false      :
          :  symmetry                               C1      :
          :  rotational number                       1      :
          :  scaling factor                  1.0000000      :
          :  rotor cutoff                   50.0000000 cm⁻¹ :
          :  imag. cutoff                  -20.0000000 cm⁻¹ :
          :.................................................:

    mode    ω/cm⁻¹     T·S(HO)/kcal·mol⁻¹    T·S(FR)/kcal·mol⁻¹   T·S(vib)
   ------------------------------------------------------------------------
       1      6.74    -2.62226 (  0.03%)    -1.65023 ( 99.97%)    -1.65055
       2      3.80    -2.96165 (  0.00%)    -1.81994 (100.00%)    -1.81997
       3      1.86    -3.38372 (  0.00%)    -2.03097 (100.00%)    -2.03097
       4      2.09    -3.31709 (  0.00%)    -1.99766 (100.00%)    -1.99766
       5      3.89    -2.94840 (  0.00%)    -1.81331 (100.00%)    -1.81335
       6      4.06    -2.92182 (  0.00%)    -1.80002 (100.00%)    -1.80007
       7      5.54    -2.73789 (  0.02%)    -1.70805 ( 99.98%)    -1.70821
       8      8.64    -2.47515 (  0.09%)    -1.57667 ( 99.91%)    -1.57747
       9      9.47    -2.42097 (  0.13%)    -1.54957 ( 99.87%)    -1.55069
      10     10.09    -2.38292 (  0.17%)    -1.53055 ( 99.83%)    -1.53196
      11     12.37    -2.26249 (  0.37%)    -1.47032 ( 99.63%)    -1.47327
      12     13.45    -2.21286 (  0.52%)    -1.44549 ( 99.48%)    -1.44949
      13     14.31    -2.17604 (  0.67%)    -1.42708 ( 99.33%)    -1.43207
      14     17.00    -2.07408 (  1.32%)    -1.37607 ( 98.68%)    -1.38529
      15     22.65    -1.90431 (  4.04%)    -1.29112 ( 95.96%)    -1.31590
      16     23.32    -1.88710 (  4.52%)    -1.28251 ( 95.48%)    -1.30982
      17     24.82    -1.85015 (  5.73%)    -1.26402 ( 94.27%)    -1.29757
      18     26.73    -1.80624 (  7.55%)    -1.24203 ( 92.45%)    -1.28465
      19     31.26    -1.71362 ( 13.26%)    -1.19565 ( 86.74%)    -1.26433
      20     36.95    -1.61492 ( 22.97%)    -1.14618 ( 77.03%)    -1.25383
      21     37.15    -1.61171 ( 23.35%)    -1.14457 ( 76.65%)    -1.25366
      22     38.65    -1.58829 ( 26.31%)    -1.13283 ( 73.69%)    -1.25266
      23     40.97    -1.55388 ( 31.07%)    -1.11558 ( 68.93%)    -1.25174
      24     41.34    -1.54856 ( 31.84%)    -1.11291 ( 68.16%)    -1.25164
      25     44.20    -1.50898 ( 37.92%)    -1.09304 ( 62.08%)    -1.25078
      26     44.84    -1.50060 ( 39.27%)    -1.08884 ( 60.73%)    -1.25054
      27     44.91    -1.49958 ( 39.43%)    -1.08833 ( 60.57%)    -1.25050
      28     52.52    -1.40735 ( 54.90%)    -1.04200 ( 45.10%)    -1.24256
      29     52.57    -1.40672 ( 55.00%)    -1.04168 ( 45.00%)    -1.24246
      30     52.71    -1.40521 ( 55.25%)    -1.04093 ( 44.75%)    -1.24221
      31     57.80    -1.35085 ( 64.11%)    -1.01358 ( 35.89%)    -1.22981
      32     59.63    -1.33258 ( 66.91%)    -1.00439 ( 33.09%)    -1.22400
      33     65.99    -1.27295 ( 75.21%)    -0.97434 ( 24.79%)    -1.19893
      34     67.98    -1.25547 ( 77.37%)    -0.96553 ( 22.63%)    -1.18984
      35     71.07    -1.22942 ( 80.32%)    -0.95238 ( 19.68%)    -1.17490
      36     71.92    -1.22244 ( 81.06%)    -0.94885 ( 18.94%)    -1.17063
      37     72.63    -1.21670 ( 81.66%)    -0.94596 ( 18.34%)    -1.16704
      38     74.45    -1.20220 ( 83.09%)    -0.93863 ( 16.91%)    -1.15764
      39     76.72    -1.18459 ( 84.72%)    -0.92972 ( 15.28%)    -1.14563
      40     84.42    -1.12861 ( 89.04%)    -0.90138 ( 10.96%)    -1.10371
      41     85.17    -1.12343 ( 89.38%)    -0.89876 ( 10.62%)    -1.09958
      42     87.84    -1.10540 ( 90.50%)    -0.88961 (  9.50%)    -1.08490
      43     92.61    -1.07457 ( 92.17%)    -0.87395 (  7.83%)    -1.05886
      44     95.01    -1.05969 ( 92.88%)    -0.86638 (  7.12%)    -1.04592
      45     99.01    -1.03567 ( 93.89%)    -0.85415 (  6.11%)    -1.02458
      46    106.51    -0.99330 ( 95.37%)    -0.83253 (  4.63%)    -0.98585
      47    112.43    -0.96197 ( 96.24%)    -0.81649 (  3.76%)    -0.95649
      48    115.88    -0.94450 ( 96.65%)    -0.80754 (  3.35%)    -0.93992
      49    117.16    -0.93821 ( 96.79%)    -0.80431 (  3.21%)    -0.93391
      50    118.17    -0.93323 ( 96.89%)    -0.80175 (  3.11%)    -0.92915
      51    119.78    -0.92541 ( 97.05%)    -0.79773 (  2.95%)    -0.92165
      52    120.62    -0.92140 ( 97.13%)    -0.79567 (  2.87%)    -0.91779
      53    123.27    -0.90890 ( 97.36%)    -0.78924 (  2.64%)    -0.90574
      54    125.28    -0.89961 ( 97.53%)    -0.78445 (  2.47%)    -0.89676
      55    125.38    -0.89912 ( 97.53%)    -0.78420 (  2.47%)    -0.89629
      56    127.25    -0.89063 ( 97.67%)    -0.77982 (  2.33%)    -0.88805
      57    129.80    -0.87926 ( 97.85%)    -0.77395 (  2.15%)    -0.87699
      58    133.14    -0.86470 ( 98.05%)    -0.76643 (  1.95%)    -0.86279
      59    135.30    -0.85548 ( 98.17%)    -0.76165 (  1.83%)    -0.85377
      60    145.41    -0.81440 ( 98.62%)    -0.74031 (  1.38%)    -0.81337
      61    165.61    -0.74081 ( 99.18%)    -0.70176 (  0.82%)    -0.74049
      62    166.02    -0.73942 ( 99.18%)    -0.70103 (  0.82%)    -0.73910
      63    166.10    -0.73915 ( 99.19%)    -0.70089 (  0.81%)    -0.73884
      64    167.22    -0.73538 ( 99.21%)    -0.69890 (  0.79%)    -0.73509
      65    167.61    -0.73408 ( 99.21%)    -0.69821 (  0.79%)    -0.73380
      66    168.15    -0.73226 ( 99.22%)    -0.69725 (  0.78%)    -0.73199
      67    168.63    -0.73067 ( 99.23%)    -0.69641 (  0.77%)    -0.73040
      68    178.97    -0.69740 ( 99.39%)    -0.67878 (  0.61%)    -0.69729
      69    181.37    -0.69001 ( 99.43%)    -0.67484 (  0.57%)    -0.68992
      70    182.87    -0.68542 ( 99.44%)    -0.67240 (  0.56%)    -0.68535
      71    183.52    -0.68344 ( 99.45%)    -0.67134 (  0.55%)    -0.68337
      72    183.55    -0.68335 ( 99.45%)    -0.67129 (  0.55%)    -0.68328
      73    184.39    -0.68082 ( 99.46%)    -0.66994 (  0.54%)    -0.68076
      74    184.94    -0.67919 ( 99.47%)    -0.66907 (  0.53%)    -0.67913
      75    185.23    -0.67832 ( 99.47%)    -0.66861 (  0.53%)    -0.67827
      76    185.50    -0.67749 ( 99.47%)    -0.66816 (  0.53%)    -0.67744
      77    187.75    -0.67081 ( 99.50%)    -0.66459 (  0.50%)    -0.67078
      78    190.14    -0.66381 ( 99.52%)    -0.66084 (  0.48%)    -0.66379
      79    193.58    -0.65393 ( 99.56%)    -0.65554 (  0.44%)    -0.65394
      80    203.50    -0.62647 ( 99.64%)    -0.64073 (  0.36%)    -0.62653
      81    203.83    -0.62560 ( 99.64%)    -0.64026 (  0.36%)    -0.62565
      82    204.90    -0.62274 ( 99.65%)    -0.63871 (  0.35%)    -0.62279
      83    204.95    -0.62260 ( 99.65%)    -0.63863 (  0.35%)    -0.62266
      84    205.15    -0.62207 ( 99.65%)    -0.63834 (  0.35%)    -0.62213
      85    205.25    -0.62179 ( 99.65%)    -0.63819 (  0.35%)    -0.62185
      86    205.61    -0.62083 ( 99.65%)    -0.63767 (  0.35%)    -0.62089
      87    207.20    -0.61662 ( 99.66%)    -0.63539 (  0.34%)    -0.61668
      88    209.17    -0.61147 ( 99.67%)    -0.63259 (  0.33%)    -0.61154
      89    210.07    -0.60913 ( 99.68%)    -0.63131 (  0.32%)    -0.60920
      90    210.32    -0.60849 ( 99.68%)    -0.63097 (  0.32%)    -0.60856
      91    210.61    -0.60773 ( 99.68%)    -0.63055 (  0.32%)    -0.60781
      92    211.47    -0.60551 ( 99.69%)    -0.62935 (  0.31%)    -0.60559
      93    211.51    -0.60542 ( 99.69%)    -0.62929 (  0.31%)    -0.60549
      94    214.11    -0.59879 ( 99.70%)    -0.62568 (  0.30%)    -0.59887
      95    217.13    -0.59121 ( 99.72%)    -0.62153 (  0.28%)    -0.59129
      96    217.54    -0.59018 ( 99.72%)    -0.62097 (  0.28%)    -0.59026
      97    218.30    -0.58829 ( 99.73%)    -0.61993 (  0.27%)    -0.58838
      98    218.50    -0.58781 ( 99.73%)    -0.61967 (  0.27%)    -0.58789
      99    218.99    -0.58659 ( 99.73%)    -0.61900 (  0.27%)    -0.58668
     100    219.35    -0.58571 ( 99.73%)    -0.61852 (  0.27%)    -0.58580
     101    220.30    -0.58336 ( 99.74%)    -0.61723 (  0.26%)    -0.58345
     102    220.40    -0.58313 ( 99.74%)    -0.61710 (  0.26%)    -0.58322
     103    232.28    -0.55493 ( 99.79%)    -0.60154 (  0.21%)    -0.55503
     104    234.28    -0.55035 ( 99.79%)    -0.59900 (  0.21%)    -0.55045
     105    240.06    -0.53739 ( 99.81%)    -0.59178 (  0.19%)    -0.53749
     106    242.22    -0.53266 ( 99.82%)    -0.58914 (  0.18%)    -0.53276
     107    249.92    -0.51615 ( 99.84%)    -0.57987 (  0.16%)    -0.51625
     108    250.69    -0.51452 ( 99.84%)    -0.57895 (  0.16%)    -0.51462
     109    259.06    -0.49735 ( 99.86%)    -0.56923 (  0.14%)    -0.49745
     110    259.51    -0.49644 ( 99.86%)    -0.56871 (  0.14%)    -0.49654
     111    260.02    -0.49542 ( 99.86%)    -0.56813 (  0.14%)    -0.49552
     112    260.30    -0.49485 ( 99.86%)    -0.56780 (  0.14%)    -0.49495
     113    261.18    -0.49309 ( 99.87%)    -0.56680 (  0.13%)    -0.49319
     114    262.06    -0.49135 ( 99.87%)    -0.56581 (  0.13%)    -0.49145
     115    262.83    -0.48982 ( 99.87%)    -0.56494 (  0.13%)    -0.48992
     116    268.76    -0.47828 ( 99.88%)    -0.55833 (  0.12%)    -0.47838
     117    270.59    -0.47479 ( 99.88%)    -0.55633 (  0.12%)    -0.47489
     118    280.37    -0.45659 ( 99.90%)    -0.54580 (  0.10%)    -0.45668
   ------------------------------------------------------------------------

   temp. (K)  partition function   enthalpy   heat capacity  entropy
                                   cal/mol     cal/K/mol   cal/K/mol   J/K/mol
 298.15  VIB  0.130E+67            78354.491    503.772    498.135
         ROT  0.658E+10              888.752      2.981     47.908
         INT  0.857E+76            79243.244    506.753    546.043
         TR   0.110E+30             1481.254      4.968     49.095
         TOT                       80724.4978   511.7208   595.1385  2490.0595

       T/K    H(0)-H(T)+PV         H(T)/Eh          T*S/Eh         G(T)/Eh
   ------------------------------------------------------------------------
    298.15    0.128643E+00    0.166479E+01    0.282770E+00    0.138202E+01
   ------------------------------------------------------------------------

         :::::::::::::::::::::::::::::::::::::::::::::::::::::
         ::                  THERMODYNAMIC                  ::
         :::::::::::::::::::::::::::::::::::::::::::::::::::::
         :: total free energy        -402.365354451372 Eh   ::
         ::.................................................::
         :: total energy             -403.747379171913 Eh   ::
         :: zero point energy           1.536151552069 Eh   ::
         :: G(RRHO) w/o ZPVE           -0.154126831528 Eh   ::
         :: G(RRHO) contrib.            1.382024720541 Eh   ::
         :::::::::::::::::::::::::::::::::::::::::::::::::::::
imag cut-off (cm-1) :    5.00
 found            1  significant imaginary frequency
 writing imag mode distorted coords to xtbhess.xyz
 for further optimization.

optimized geometry written to: xtbopt.xyz


           -------------------------------------------------
          | TOTAL ENERGY             -403.747379171913 Eh   |
          | TOTAL ENTHALPY           -402.082584944181 Eh   |
          | TOTAL FREE ENERGY        -402.365354451372 Eh   |
          | GRADIENT NORM               0.000362451863 Eh/α |
          | HOMO-LUMO GAP               0.000960246048 eV   |
           -------------------------------------------------

------------------------------------------------------------------------
 * finished run on 2021/11/20 at 00:36:51.182     
------------------------------------------------------------------------
 total:
 * wall-time:     0 d,  1 h,  4 min, 17.738 sec
 *  cpu-time:     0 d,  1 h,  4 min, 17.745 sec
 * ratio c/w:     1.000 speedup
 SCF:
 * wall-time:     0 d,  0 h,  0 min,  8.057 sec
 *  cpu-time:     0 d,  0 h,  0 min,  8.057 sec
 * ratio c/w:     1.000 speedup
 ANC optimizer:
 * wall-time:     0 d,  0 h, 12 min, 15.784 sec
 *  cpu-time:     0 d,  0 h, 12 min, 15.752 sec
 * ratio c/w:     1.000 speedup
 analytical hessian:
 * wall-time:     0 d,  0 h, 51 min, 53.594 sec
 *  cpu-time:     0 d,  0 h, 51 min, 53.632 sec
 * ratio c/w:     1.000 speedup

