222
 energy: -403.747378821413 gnorm: 0.000367486371 xtb: 6.4.1 (bd6e46d)
Cu       42.54494206895086    0.03600760507490   -0.00786674811357
C        45.02957590166555   -1.71013730022411    2.97389375727143
C        45.99338213561347   -1.21448001861081    2.16220771746292
C        45.32098853343992   -0.59040400968957    1.05885949904817
C        45.98278795231632    0.03924768647822   -0.00407244297310
C        45.32240238274415    0.66831013803390   -1.06823409280666
C        45.99598897857233    1.29414225995812   -2.16988842509268
C        45.03294258821124    1.79053788737764   -2.98207788031697
C        43.77320088872001    1.46193834280938   -2.37826090617259
N        43.98249692919674    0.77822923291804   -1.22068532360150
C        42.54477327433901    1.80124119806587   -2.91659020937662
C        41.31680068514500    1.47836843422919   -2.36772575427773
C        40.05213817398284    1.83709639007153   -2.94980355896659
C        39.09356955461919    1.33771872221642   -2.13671394721026
C        39.77145277674271    0.67341498769515   -1.05664589315113
N        41.11400856056748    0.77756404309156   -1.22326662593970
C        39.12927826083477    0.02774663243931   -0.01465322587807
C        39.77027533337847   -0.61277262342018    1.03122219334006
C        39.09131875507546   -1.27578960520139    2.11141965668789
C        40.04903838778489   -1.76627442593540    2.93092047531857
C        41.31424268767557   -1.40467524986217    2.35181797999768
N        41.11265813887687   -0.70975637957151    1.20359909418418
C        42.54159317353687   -1.72224312796263    2.90514883774534
C        43.77049995584554   -1.38321926092592    2.36781294626678
N        43.98097416820336   -0.70130591440892    1.20937438845706
H        45.14164070535685   -2.24414527474577    3.89758694684658
H        47.05810913834188   -1.24502670024336    2.28739813822268
H        47.06089841191071    1.32543762402283   -2.29359586832589
H        45.14587254045947    2.32561497771020   -3.90506401388575
H        42.54581125271848    2.35864854666402   -3.84220389101597
H        39.93741942584645    2.39583128951967   -3.85864528418539
H        38.02725930133731    1.39999013167886   -2.23873476531652
H        38.04903751601267    0.02457904301240   -0.01722294635138
H        38.02492883839895   -1.34283367441460    2.20947449635671
H        39.93346945060705   -2.32072060974353    3.84229460957706
H        42.54172331911078   -2.27606585709640    3.83291371932634
Cu       97.07296376624615    0.03674840561682   -0.01165953706356
C        94.58625611062521    2.07762856880527    2.77453888489127
C        93.62287856564123    1.49903579979669    2.01912152290369
C        94.29571178006114    0.76832480607571    0.98361066017462
C        93.63461074929397    0.03809393068408   -0.01342244332848
C        94.29620889939606   -0.69004926682786   -1.01170508987123
C        93.62382395061653   -1.41521470727963   -2.05138554982631
C        94.58754670353852   -1.98710628203843   -2.81142562908746
C        95.84659222562350   -1.60627334864560   -2.23765305959450
N        95.63619945362935   -0.81631756168839   -1.15000444517627
C        97.07534374431599   -2.00017493338085   -2.73657593454784
C        98.30278770953106   -1.63521683724412   -2.21350694274224
C        99.56766404838861   -2.05889867070672   -2.74962795027936
C       100.52570832475303   -1.49287892779497   -1.98075978148985
C        99.84729917393584   -0.72105621468847   -0.97506507400381
N        98.50487008336154   -0.82961405840622   -1.14011875182552
C       100.48886297431339    0.02190669258024    0.00034645844399
C        99.84710807788331    0.77425930356788    0.96840837840584
C       100.52519126101744    1.54674831064224    1.97380642833632
C        99.56678140512032    2.12945836860795    2.72963357521797
C        98.30199922370018    1.71286018999926    2.18770645612298
N        98.50457528341404    0.89697336590405    1.12221943352056
C        97.07412343208301    2.08917345865139    2.70164994302322
C        95.84557596973349    1.69357977445356    2.20346309994385
N        95.63567924866663    0.89616134371948    1.12119008543031
H        94.47386743259197    2.70243351954291    3.63937582465410
H        92.55820761800268    1.53900534164522    2.14227051296508
H        92.55918865829395   -1.45580442068789   -2.17435351766788
H        94.47542052478842   -2.60606055475715   -3.68048702976894
H        97.07501267663781   -2.64191800832967   -3.60584793331814
H        99.68281747205698   -2.70287631379048   -3.60015173641934
H       101.59200113572267   -1.57431917803959   -2.06841255522762
H       101.56907927698762    0.01587299866009    0.00505236769598
H       101.59152074567970    1.61815356061240    2.06945579097053
H        99.68168759348950    2.77982315976942    3.57531112579058
H        97.07326796525079    2.73885964595716    3.56500064888139
C        47.38510299626373    0.04032293727466   -0.00222231166880
C        48.59796084539148    0.03934242277349   -0.00096976930594
C        58.29181333275664    0.02110311909011   -0.03775318680037
C        59.50532971303561    0.02307535509988   -0.03461832757173
C        69.20041336562100    0.04815646590262   -0.01545501253679
C        70.41394564257003    0.04555402530507   -0.01437129644285
C        80.11044701477685    0.03741631035297   -0.02653748293668
C        81.32399070121031    0.04141742792484   -0.02456240802031
C        91.01939490077446    0.03805299505252   -0.01909505252975
C        92.23228850438566    0.03814714355385   -0.01455260520085
Cu       53.44448250900741    0.02643655096045   -0.02370914961299
C        50.95885192114977   -2.95907015039867    1.71235897988238
C        49.99294824999699   -2.14895601038180    1.21767874943947
C        50.66257921230591   -1.03668360773761    0.60681716058620
C        49.99973483256445    0.03737774732919   -0.00335331030597
C        50.66267883039966    1.10855203467929   -0.61854233220465
C        49.99308483736695    2.22697698102134   -1.21809188919464
C        50.95814934421162    3.02984853397084   -1.72606894215106
C        52.21451410748791    2.40310388997242   -1.43006102496181
N        52.00192099349881    1.24435228170345   -0.74935810117001
C        53.44296693774369    2.91239521481021   -1.81007149831612
C        54.67191356240795    2.34612396599214   -1.52386382363802
C        55.92721747760982    2.89050501921265   -1.95538938735990
C        56.89310796626754    2.07829538329259   -1.46408020453276
C        56.22565645912592    1.04439873166522   -0.72681774433914
N        54.88632209624556    1.22097890873274   -0.78912215055073
C        56.89078633367168    0.01993712113610   -0.03727964400295
C        56.22715068957494   -1.00506231665694    0.65279905626314
C        56.89630671009110   -2.04564402704588    1.37897283093952
C        55.93124635961764   -2.85715644330934    1.87296512640564
C        54.67462913472284   -2.30450027537526    1.45601704948733
N        54.88759512345340   -1.17690858915232    0.72466689667540
C        53.44566433493430   -2.86328257212793    1.75655850558825
C        52.21573626857406   -2.34283174668786    1.39709583765829
N        52.00243396697861   -1.18233812118289    0.71966431581753
H        50.84930418374603   -3.88749198308877    2.23867559622327
H        48.92873458663620   -2.27980753514393    1.24233910370414
H        48.92969916249380    2.36660372888270   -1.22608900416900
H        50.84848826911456    3.96011443155448   -2.24909219840674
H        53.44257318240370    3.83106915973944   -2.37920054425220
H        56.03587634082294    3.77277527999784   -2.55601647595873
H        57.95581263072715    2.14697818206821   -1.58967805653615
H        57.95964758178271   -2.11945916656412    1.49545556886417
H        56.04121884140958   -3.74368124412408    2.46704846830462
H        53.44659244042379   -3.78400867325735    2.32236698763544
Cu       64.35291844053970    0.03735492447167   -0.02171677142306
C        61.87720675078251   -3.36988530878082    0.57095570956325
C        60.90965505605110   -2.44693189570864    0.35622686664110
C        61.57399296463426   -1.18829180782918    0.17688579655189
C        60.90626877073836    0.02758945603561   -0.03077849689150
C        61.56812897687882    1.24748643094776   -0.23365936394914
C        60.89778556588225    2.50262177910363   -0.41527339652534
C        61.86151240486786    3.43139713870020   -0.62210421287143
C        63.11839299431498    2.74272192822714   -0.55777107778604
N        62.90718190729947    1.42148744411395   -0.30953055227213
C        64.34568389111195    3.35130926266894   -0.74815989325148
C        65.57580261312876    2.72419923890610   -0.66811049964351
C        66.82972042498587    3.38177246791922   -0.89932542656004
C        67.79745052287241    2.45529335035990   -0.70093251112401
C        67.13246622665037    1.23652447221240   -0.34022586595918
N        65.79271783608179    1.42100344171375   -0.34182094806091
C        67.79954200367156    0.04613351448490   -0.01580169650880
C        67.13713940255928   -1.14706710560221    0.30820543757589
C        67.80712659371660   -2.36196956384848    0.67268211219099
C        66.84351907477335   -3.29293291566425    0.86988985164460
C        65.58706739545642   -2.64201961323843    0.63387883577806
N        65.79835286599435   -1.33821467414698    0.30624729101837
C        64.36014780785112   -3.27569523494689    0.71037148279369
C        63.13051264270984   -2.67425275681785    0.51289030713915
N        62.91344732477641   -1.35466680564891    0.26106755230762
H        61.77085932851195   -4.42256819658818    0.74844493170944
H        59.84775783296119   -2.58701883613887    0.30605118906205
H        59.83477203247121    2.63657733755917   -0.37185907579038
H        61.75032651964009    4.48379911162077   -0.79832320436888
H        64.34320953743236    4.40697745339415   -0.97936455154368
H        66.93635615804354    4.41194298880985   -1.17923647102471
H        68.85995406794314    2.56310579664053   -0.79763496635450
H        68.86978008601049   -2.46421623022078    0.77313069428196
H        66.95448462344228   -4.32214309619174    1.15160298843968
H        64.36254674078477   -4.33091409819649    0.94356163593011
Cu       75.26197625249857    0.04100051722013   -0.01747937917349
C        72.77404425049794   -3.36659194146438   -0.55639310618223
C        71.80921884886750   -2.42223999692661   -0.44952622645688
C        72.47825863524697   -1.17500906223368   -0.21595525167663
C        71.81482407875158    0.04431004206049   -0.01471942614971
C        72.48083033047189    1.26210759478787    0.18707579770407
C        71.81448582484019    2.50990742742228    0.42523602029193
C        72.78130887118384    3.45207484452379    0.53346875245365
C        74.03595804948095    2.77600822011192    0.36928257101291
N        73.82039780133246    1.44703056807392    0.17131267541761
C        75.26543769350090    3.40896426321477    0.39094397040071
C        76.49345416832091    2.78668780425402    0.25843080639553
C        77.74920768225823    3.48036142922231    0.25691367208215
C        78.71406302482809    2.53811037395195    0.13315567417039
C        78.04562516218684    1.27056483611140    0.06847739987955
N        76.70646585005397    1.44858324652295    0.13218079076788
C        78.70944009236669    0.03849909270763   -0.02560032272053
C        78.04340500905958   -1.19253841495460   -0.11699721379549
C        78.70972136356905   -2.46111047253786   -0.18353259636314
C        77.74295547263847   -3.40217384210322   -0.30120335988904
C        76.48819042200516   -2.70673389067093   -0.29714082637045
N        76.70371421417393   -1.36876193325632   -0.17383372957121
C        75.25858267899336   -3.32740112377894   -0.42207937582847
C        74.03026845482714   -2.69229841068760   -0.39713166893394
N        73.81752976136967   -1.36242962887503   -0.20212884717582
H        72.66403599281341   -4.41952956815519   -0.73010078601525
H        70.74621171498418   -2.53655438446251   -0.53167140018522
H        70.75178093200172    2.62579596546156    0.50938627422409
H        72.67362349866224    4.50463117548583    0.71092380574490
H        75.26671102559764    4.48171369353288    0.52173369507746
H        77.85888759484935    4.54461296053011    0.33625935532715
H        79.77665920695480    2.66928843423903    0.07462942341449
H        79.77242604838902   -2.59378327633329   -0.13057725624730
H        77.85075870364273   -4.46666795039064   -0.37990879653952
H        75.25746945347021   -4.40048596979831   -0.55008067440441
Cu       86.17206314926398    0.03945172924752   -0.02244778822915
C        83.68697646735671   -3.00198521651608   -1.65664494051870
C        82.72142105088261   -2.14760599529909   -1.24232424773729
C        83.38959551415417   -1.04526992866991   -0.61281948382788
C        82.72506245058253    0.04017809141603   -0.02320203980548
C        83.38970257773151    1.12456386501242    0.56818740573331
C        82.72164767396934    2.22552514004703    1.20024573346327
C        83.68736337641320    3.07870259008702    1.61672067659648
C        84.94323621873073    2.49245591532602    1.24600419573970
N        84.72925216489122    1.30335859533991    0.61992195023232
C        86.17240406080656    3.07887102401480    1.48720710820391
C        87.40167720001253    2.53173323455073    1.16727772898036
C        88.65829619033703    3.17844941416052    1.41542367869230
C        89.62394402399167    2.32903888956607    0.99118667597385
C        88.95445891751899    1.16295795315081    0.49047480976399
N        87.61480658750244    1.31456489022080    0.59780536824010
C        89.61761191740491    0.03884893136078   -0.02144155007956
C        88.95454433002563   -1.08419692407657   -0.53580959295819
C        89.62397071840758   -2.24884585100410   -1.03992926133342
C        88.65826591237158   -3.09759464472234   -1.46536977948846
C        87.40162766015482   -2.45215633324863   -1.21408729973547
N        87.61486897807430   -1.23589515356087   -0.64275960029904
C        86.17210021421290   -3.00038123013479   -1.53116975194195
C        84.94296877435499   -2.41473062096544   -1.28791886199730
N        84.72914056096252   -1.22443924147438   -0.66406643442029
H        83.57769217213634   -3.93928755712516   -2.16700888939180
H        81.65837369719206   -2.23061914964679   -1.35516569459468
H        81.65858855502449    2.30843496204055    1.31339152552812
H        83.57823158662484    4.01451324611151    2.12985560745510
H        86.17227802967659    4.04688096444727    1.96766988651561
H        88.76777517012694    4.15216411519700    1.85231093795964
H        90.68779543190107    2.46502199173393    0.99559191418833
H        90.68786000564626   -2.38438109638187   -1.04616661802978
H        88.76775494254581   -4.06992507028879   -1.90532904347436
H        86.17165247404195   -3.96862480015054   -2.01115713340370
