222
 energy: -402.277592695581 gnorm: 0.877394678616 xtb: 6.4.1 (bd6e46d)
Cu       41.49456700000001    0.04686100000000   -0.01515800000000
C        43.82355800000001   -3.09993300000000    1.30753100000000
C        44.73966600000000   -2.15572500000000    1.25724900000000
C        44.32848600000000   -1.10182100000000    0.33595700000000
C        44.94735700000000    0.02252500000000   -0.01045300000000
C        44.24331400000000    1.24247300000000   -0.37455800000000
C        44.57142500000000    2.20252800000000   -1.22203200000000
C        43.53664500000001    3.21881400000000   -1.23893000000000
C        42.60037700000000    2.84235100000000   -0.39203800000000
N        43.00236800000000    1.60934000000000    0.17177900000000
C        41.33930300000001    3.48735100000000   -0.01288600000000
C        40.24408600000000    2.85256800000000    0.33787400000000
C        39.17046000000000    3.17052400000000    1.30690200000000
C        38.33289700000000    2.17377000000000    1.22973600000000
C        38.77119500000000    1.17008700000000    0.24928400000000
N        39.87613300000000    1.60894000000000   -0.23500800000000
C        38.16036000000000   -0.08318400000000   -0.16426400000000
C        38.82452000000000   -1.18769000000000   -0.41868900000000
C        38.45067200000000   -2.25063200000000   -1.37621600000000
C        39.39941900000000   -3.14438800000000   -1.28719700000000
C        40.38514300000000   -2.70693800000000   -0.30431900000000
N        40.03209700000000   -1.56113300000000    0.19247800000000
C        41.61603100000000   -3.36300800000000    0.14140200000000
C        42.73907200000000   -2.71714700000000    0.40852300000000
N        43.06767200000000   -1.46970600000000   -0.18988100000000
H        43.88382000000000   -4.00971300000000    1.92507700000000
H        45.65599300000000   -2.19567400000000    1.83529700000000
H        45.49879000000000    2.21932400000000   -1.82317500000000
H        43.55354400000001    4.12350200000000   -1.85155100000000
H        41.29158000000000    4.58215400000000   -0.01666400000000
H        39.11763900000000    4.04924900000000    1.93189400000000
H        37.42126700000000    2.13810100000000    1.84706000000000
H        37.06210900000000   -0.08027300000000   -0.26353500000000
H        37.58181600000000   -2.30309700000000   -2.02516600000000
H        39.39657300000000   -4.06069600000000   -1.88595600000000
H        41.58054900000000   -4.45881000000000    0.25332700000000
Cu       98.09973500000000   -0.00051600000000   -0.01959100000000
C        95.77074399999999    2.84627600000000    1.86391400000000
C        94.85463700000000    1.92778700000000    1.63934000000000
C        95.26581600000002    1.06309000000000    0.53852600000000
C        94.64694600000000    0.02252500000000   -0.01045300000000
C        95.35098800000000   -1.10870000000000   -0.59455600000000
C        95.02287699999999   -1.89487100000000   -1.60542300000000
C        96.05765700000001   -2.89038100000000   -1.81056300000000
C        96.99392500000000   -2.67756400000000   -0.90853300000000
N        96.59193500000001   -1.57055300000000   -0.12576100000000
C        98.25500000000000   -3.38170600000000   -0.65561900000000
C        99.35021700000001   -2.82301300000000   -0.19318600000000
C       100.42384199999999   -3.31521800000000    0.70003600000000
C       101.26140500000001   -2.32145100000000    0.80912100000000
C       100.82310800000002   -1.15330200000000    0.03188600000000
N        99.71817000000000   -1.49469400000000   -0.52541300000000
C       101.43394300000000    0.15493300000000   -0.14198400000000
C       100.76978200000002    1.28746600000000   -0.18709000000000
C       101.14363100000000    2.50959200000000   -0.93080500000000
C       100.19488400000000    3.37131900000000   -0.67752700000000
C        99.20916000000000    2.75912500000000    0.20713700000000
N        99.56220500000001    1.54104600000000    0.48274700000000
C        97.97827200000000    3.32111900000000    0.76683100000000
C        96.85523000000001    2.63691400000000    0.90949900000000
N        96.52663000000000    1.52213900000000    0.09006400000000
H        95.71048200000000    3.62570100000000    2.63951800000000
H        93.93830900000000    1.85980600000000    2.21476600000000
H        94.09551200000000   -1.79985500000000   -2.19924700000000
H        96.04075800000000   -3.66571500000000   -2.58038300000000
H        98.30272200000000   -4.45680400000000   -0.86243300000000
H       100.47666400000000   -4.29463500000000    1.15116300000000
H       102.17303600000001   -2.40092300000000    1.42234600000000
H       102.53219300000001    0.17048900000000   -0.24007100000000
H       102.01248600000000    2.68153600000000   -1.55875800000000
H       100.19773000000002    4.38280000000000   -1.09590400000000
H        98.01375400000001    4.37713500000000    1.08010000000000
C        47.56180500000000    0.02252500000000   -0.01045300000000
C        48.77801000000000    0.02252500000000   -0.01045300000000
C        58.37542700000000    0.02252500000000   -0.01045300000000
C        59.59163200000000    0.02252500000000   -0.01045300000000
C        69.18904900000000    0.02252500000000   -0.01045300000000
C        70.40525400000000    0.02252500000000   -0.01045300000000
C        80.00266999999999    0.02252500000000   -0.01045300000000
C        81.21887599999999    0.02252500000000   -0.01045300000000
C        90.81629200000000    0.02252500000000   -0.01045300000000
C        92.03249800000002    0.02252500000000   -0.01045300000000
Cu       53.60821400000000    0.03532600000000    0.00303200000000
C        51.32840400000000   -3.22612100000000   -0.90663300000000
C        50.37219400000001   -2.32677100000000   -1.00866000000000
C        50.76456900000000   -1.16446600000000   -0.20614400000000
C        50.12945200000001   -0.01319300000000    0.00612200000000
C        50.81490900000001    1.26140600000000    0.23235200000000
C        50.47961900000001    2.34000600000000    0.93659200000000
C        51.50416000000000    3.35932300000000    0.84601000000000
C        52.45475700000000    2.86239800000000    0.07264600000000
N        52.07776300000000    1.54579300000000   -0.34349700000000
C        53.70189700000000    3.47410000000000   -0.34422000000000
C        54.80344900000000    2.80684300000000   -0.67599100000000
C        55.79699500000000    3.05882700000000   -1.71016100000000
C        56.69087800000000    2.09796800000000   -1.60867700000000
C        56.31118000000000    1.18608400000000   -0.50470000000000
N        55.21626500000000    1.63540300000000    0.00266700000000
C        56.96838700000000   -0.01319300000000    0.00612200000000
C        56.34497600000000   -1.08237500000000    0.46763900000000
C        56.72368800000000   -2.01449100000000    1.54311500000000
C        55.78302000000001   -2.92863700000000    1.62898100000000
C        54.77471800000000   -2.63285800000000    0.63155400000000
N        55.11249300000000   -1.57948000000000   -0.01774100000000
C        53.52232500000000   -3.33986500000000    0.30036000000000
C        52.40844800000000   -2.74316800000000   -0.04698100000000
N        52.02633600000000   -1.46041100000000    0.37070200000000
H        51.32874800000000   -4.21719500000000   -1.39786800000000
H        49.46366000000000   -2.44846500000000   -1.58980800000000
H        49.55476700000000    2.45835800000000    1.51351800000000
H        51.53145500000000    4.34848700000000    1.30266100000000
H        53.78783700000000    4.57147800000000   -0.40624300000000
H        55.82966700000000    3.86504300000000   -2.43698500000000
H        57.58394000000000    1.98500000000000   -2.24245100000000
H        57.63843900000001   -1.94008400000000    2.15328500000000
H        55.80206600000001   -3.74224500000000    2.33724800000000
H        53.56081000000000   -4.43982400000000    0.35939700000000
Cu       64.42183600000000    0.03532600000000    0.00303200000000
C        62.14202600000001   -3.22612100000000   -0.90663300000000
C        61.18581600000000   -2.32677100000000   -1.00866000000000
C        61.57819000000000   -1.16446600000000   -0.20614400000000
C        60.94307400000001   -0.01319300000000    0.00612200000000
C        61.62853100000000    1.26140600000000    0.23235200000000
C        61.29324100000001    2.34000600000000    0.93659200000000
C        62.31778200000000    3.35932300000000    0.84601000000000
C        63.26837900000000    2.86239800000000    0.07264600000000
N        62.89138500000000    1.54579300000000   -0.34349700000000
C        64.51551900000000    3.47410000000000   -0.34422000000000
C        65.61707100000000    2.80684300000000   -0.67599100000000
C        66.61061700000000    3.05882700000000   -1.71016100000000
C        67.50449999999999    2.09796800000000   -1.60867700000000
C        67.12480200000000    1.18608400000000   -0.50470000000000
N        66.02988700000000    1.63540300000000    0.00266700000000
C        67.78200900000000   -0.01319300000000    0.00612200000000
C        67.15859800000000   -1.08237500000000    0.46763900000000
C        67.53731000000001   -2.01449100000000    1.54311500000000
C        66.59664200000000   -2.92863700000000    1.62898100000000
C        65.58834000000000   -2.63285800000000    0.63155400000000
N        65.92611500000000   -1.57948000000000   -0.01774100000000
C        64.33594700000000   -3.33986500000000    0.30036000000000
C        63.22207000000000   -2.74316800000000   -0.04698100000000
N        62.83995800000001   -1.46041100000000    0.37070200000000
H        62.14237000000000   -4.21719500000000   -1.39786800000000
H        60.27728200000000   -2.44846500000000   -1.58980800000000
H        60.36838900000001    2.45835800000000    1.51351800000000
H        62.34507700000000    4.34848700000000    1.30266100000000
H        64.60145900000001    4.57147800000000   -0.40624300000000
H        66.64328900000000    3.86504300000000   -2.43698500000000
H        68.39756199999999    1.98500000000000   -2.24245100000000
H        68.45206000000000   -1.94008400000000    2.15328500000000
H        66.61568800000001   -3.74224500000000    2.33724800000000
H        64.37443100000000   -4.43982400000000    0.35939700000000
Cu       75.23545800000001    0.03532600000000    0.00303200000000
C        72.95564700000000   -3.22612100000000   -0.90663300000000
C        71.99943800000001   -2.32677100000000   -1.00866000000000
C        72.39181200000000   -1.16446600000000   -0.20614400000000
C        71.75669600000001   -0.01319300000000    0.00612200000000
C        72.44215300000000    1.26140600000000    0.23235200000000
C        72.10686300000000    2.34000600000000    0.93659200000000
C        73.13140400000002    3.35932300000000    0.84601000000000
C        74.08200100000001    2.86239800000000    0.07264600000000
N        73.70500699999999    1.54579300000000   -0.34349700000000
C        75.32914100000001    3.47410000000000   -0.34422000000000
C        76.43069199999999    2.80684300000000   -0.67599100000000
C        77.42423900000000    3.05882700000000   -1.71016100000000
C        78.31812200000000    2.09796800000000   -1.60867700000000
C        77.93842400000000    1.18608400000000   -0.50470000000000
N        76.84350900000000    1.63540300000000    0.00266700000000
C        78.59563100000000   -0.01319300000000    0.00612200000000
C        77.97221900000001   -1.08237500000000    0.46763900000000
C        78.35093200000000   -2.01449100000000    1.54311500000000
C        77.41026300000000   -2.92863700000000    1.62898100000000
C        76.40196200000000   -2.63285800000000    0.63155400000000
N        76.73973700000001   -1.57948000000000   -0.01774100000000
C        75.14956900000000   -3.33986500000000    0.30036000000000
C        74.03569200000000   -2.74316800000000   -0.04698100000000
N        73.65358000000001   -1.46041100000000    0.37070200000000
H        72.95599199999999   -4.21719500000000   -1.39786800000000
H        71.09090399999999   -2.44846500000000   -1.58980800000000
H        71.18201100000000    2.45835800000000    1.51351800000000
H        73.15869900000000    4.34848700000000    1.30266100000000
H        75.41508100000000    4.57147800000000   -0.40624300000000
H        77.45691100000001    3.86504300000000   -2.43698500000000
H        79.21118400000000    1.98500000000000   -2.24245100000000
H        79.26568200000000   -1.94008400000000    2.15328500000000
H        77.42931000000000   -3.74224500000000    2.33724800000000
H        75.18805300000000   -4.43982400000000    0.35939700000000
Cu       86.04908000000002    0.03532600000000    0.00303200000000
C        83.76926899999999   -3.22612100000000   -0.90663300000000
C        82.81306000000001   -2.32677100000000   -1.00866000000000
C        83.20543400000001   -1.16446600000000   -0.20614400000000
C        82.57031800000001   -0.01319300000000    0.00612200000000
C        83.25577500000000    1.26140600000000    0.23235200000000
C        82.92048400000000    2.34000600000000    0.93659200000000
C        83.94502600000000    3.35932300000000    0.84601000000000
C        84.89562300000000    2.86239800000000    0.07264600000000
N        84.51862900000000    1.54579300000000   -0.34349700000000
C        86.14276300000000    3.47410000000000   -0.34422000000000
C        87.24431400000000    2.80684300000000   -0.67599100000000
C        88.23786100000000    3.05882700000000   -1.71016100000000
C        89.13174400000001    2.09796800000000   -1.60867700000000
C        88.75204600000001    1.18608400000000   -0.50470000000000
N        87.65713100000001    1.63540300000000    0.00266700000000
C        89.40925300000001   -0.01319300000000    0.00612200000000
C        88.78584100000000   -1.08237500000000    0.46763900000000
C        89.16455400000001   -2.01449100000000    1.54311500000000
C        88.22388500000000   -2.92863700000000    1.62898100000000
C        87.21558400000001   -2.63285800000000    0.63155400000000
N        87.55335900000000   -1.57948000000000   -0.01774100000000
C        85.96319100000001   -3.33986500000000    0.30036000000000
C        84.84931400000001   -2.74316800000000   -0.04698100000000
N        84.46720200000001   -1.46041100000000    0.37070200000000
H        83.76961400000000   -4.21719500000000   -1.39786800000000
H        81.90452600000000   -2.44846500000000   -1.58980800000000
H        81.99563200000000    2.45835800000000    1.51351800000000
H        83.97232099999999    4.34848700000000    1.30266100000000
H        86.22870300000001    4.57147800000000   -0.40624300000000
H        88.27053300000000    3.86504300000000   -2.43698500000000
H        90.02480500000001    1.98500000000000   -2.24245100000000
H        90.07930399999999   -1.94008400000000    2.15328500000000
H        88.24293200000000   -3.74224500000000    2.33724800000000
H        86.00167500000001   -4.43982400000000    0.35939700000000
222
 energy: -402.609527834243 gnorm: 0.501047582702 xtb: 6.4.1 (bd6e46d)
Cu       41.50450701995286    0.04607814660763   -0.01326153174779
C        43.82420534265805   -3.10934122889316    1.29940650537888
C        44.75407011964859   -2.15534478637794    1.25465549638887
C        44.32544044259022   -1.10439324837125    0.34255302277748
C        44.93559109492564    0.04231109447361   -0.01223640281095
C        44.23231981137505    1.23958117507141   -0.36478209803904
C        44.58341605914481    2.23011650744233   -1.24010327183813
C        43.56627823166671    3.22058946832614   -1.25306019763611
C        42.59425865857573    2.81802388244024   -0.38500744908262
N        42.97904222805710    1.58904870388647    0.17371828720587
C        41.35783576215822    3.48525735680713   -0.01323212765346
C        40.23351441573639    2.83717617372577    0.33825847952138
C        39.17135793017727    3.17883253700904    1.29073906225426
C        38.30859411103814    2.16583507087179    1.23455855902024
C        38.76644217550167    1.17193183278070    0.26450718237154
N        39.90878807418775    1.58854079069546   -0.21822403803252
C        38.14922340343584   -0.06239112364467   -0.15852510524918
C        38.82766678003635   -1.19181833572394   -0.42301299639820
C        38.44149990268572   -2.25067036214941   -1.36268758212923
C        39.40691213966947   -3.16454843430837   -1.28589162218301
C        40.39387636957260   -2.71521656017744   -0.31210771046294
N        40.04427015454328   -1.53819141434547    0.16745620481494
C        41.59892847385790   -3.36905308906301    0.13447223041738
C        42.74669506884064   -2.70210819856269    0.40979020725649
N        43.06334807172501   -1.46446152905408   -0.16160381961148
H        43.87589091054765   -4.00481328755878    1.91743495055308
H        45.66082599051739   -2.18689784596365    1.83278394194755
H        45.49659099996884    2.22753755736749   -1.82523117372322
H        43.56013321945424    4.12038316226749   -1.85274168950586
H        41.30684090228842    4.57753845925163   -0.00988026881056
H        39.12422386800930    4.04801570824822    1.92600246044747
H        37.41683890384621    2.12947781615265    1.84617424297788
H        37.06381734566911   -0.07230679447858   -0.26951225747069
H        37.58332603848329   -2.29427599003029   -2.01792854503076
H        39.40679856968655   -4.06462705865559   -1.88272452891690
H        41.57579620803674   -4.45445611485511    0.25481493981224
Cu       98.08980509496352   -0.00010823306631   -0.01757334062539
C        95.77016826980123    2.85698412638745    1.85771249669312
C        94.84022206522445    1.92791697435487    1.63666936900980
C        95.26870309207469    1.06457407226094    0.54540100393279
C        94.65798059094448    0.00311391321554   -0.01519445938555
C        95.36198446196535   -1.10752883699674   -0.58448272452090
C        95.01092113275786   -1.91859734097389   -1.62818834296629
C        96.02807926100188   -2.88953675734001   -1.82474539423810
C        97.00004598543350   -2.65503146080560   -0.89712510668054
N        96.61523041359953   -1.55085139253899   -0.12027771760678
C        98.23644520372008   -3.37961316820995   -0.65558725314228
C        99.36078240016745   -2.80793664100607   -0.18994224253137
C       100.42292283705821   -3.32035570295052    0.68261264532190
C       101.28573854415131   -2.31454278344330    0.81527233904532
C       100.82788527512358   -1.15791515186234    0.04648932169286
N        99.68546518468027   -1.47778412800524   -0.50510033398143
C       101.44508376957533    0.13339747654299   -0.14017932326387
C       100.76659986050331    1.29233483623717   -0.19059153414762
C       101.15275878701699    2.50709782668689   -0.91753979159668
C       100.18739059359326    3.39091573409775   -0.67246455653844
C        99.20041852325632    2.76873234850320    0.20103190608637
N        99.55004414236281    1.52309607231344    0.45386556387654
C        97.99538252487800    3.32834187722461    0.76109448960069
C        96.84760787975340    2.62183064866784    0.90801567538198
N        96.53097728735582    1.51158011174777    0.11698360197914
H        95.71842608134467    3.62229499087120    2.63108645566124
H        93.93348740172952    1.85169010966917    2.21065147228032
H        94.09773129564095   -1.80753514918177   -2.20280157833964
H        96.03418627761539   -3.66243932626913   -2.58099504888121
H        98.28748147832437   -4.45354168839429   -0.85496365945202
H       100.47007747522208   -4.29232411889190    1.14559234794679
H       102.17746908353490   -2.39228024458394    1.42306164499382
H       102.53048872335938    0.16376624009408   -0.24738692214011
H       102.01096309838925    2.67152201746339   -1.55328863780517
H       100.18749586151411    4.38606814879422   -1.09199884903050
H        98.01847574917993    4.37260339301717    1.08065933426891
C        47.53024358462805    0.02110387890924   -0.01195469118883
C        48.75440565345150    0.03081334600094   -0.01207106991857
C        58.37068114962962    0.02890880572384   -0.00857990133208
C        59.58660402959553    0.03008061133965   -0.01158195244779
C        69.18491423831708    0.02904841350265   -0.00825592736698
C        70.39969593884699    0.03013212846742   -0.01155865983399
C        79.99803622486895    0.02899638500238   -0.00835729686462
C        81.21361639185022    0.03006619398122   -0.01164090638467
C        90.83620834977903    0.02931299583830   -0.00614521038434
C        92.05735173910942    0.02229564765399   -0.01170677383246
Cu       53.60017817996138    0.03731066994286   -0.00002965809945
C        51.32980931107863   -3.24371959828953   -0.90050942764996
C        50.36627555762988   -2.32536476262086   -1.00144626652659
C        50.78781678444033   -1.17811545316324   -0.20860487894062
C        50.13702431575786    0.00718245905623    0.00493758911688
C        50.84138381529532    1.26375881094151    0.22802112134840
C        50.47015303118402    2.36626435027646    0.94773059540830
C        51.47967237732640    3.36013536576413    0.85415470250166
C        52.46511069211901    2.84039925010935    0.06777116559554
N        52.10346845787547    1.53060960941789   -0.33018744287766
C        53.68780787588263    3.47261035373952   -0.34586258827952
C        54.81194124312873    2.79444435090960   -0.67638872788705
C        55.80356741004834    3.06676504578365   -1.69771685732020
C        56.71054464532425    2.08587724461037   -1.60837182579891
C        56.31333016275598    1.18738908652931   -0.51841981691456
N        55.18333773925720    1.61557062070291   -0.01436345206845
C        56.97909378023952    0.00435054979907   -0.00263866157476
C        56.33179823303333   -1.09629800591676    0.47334908111417
C        56.73521810835452   -2.01269253703164    1.53378422343739
C        55.77908624979328   -2.94534451647120    1.62788960182496
C        54.76445557566839   -2.63993142758129    0.64003715024611
N        55.09726558730449   -1.54263829993572   -0.00525607158097
C        53.54257951694858   -3.34573432115250    0.31045445493408
C        52.39535950221112   -2.72936719286735   -0.05391436036404
N        52.03791751204783   -1.44711111045961    0.34052125418582
H        51.33363231698323   -4.21397090225553   -1.39413644772350
H        49.46430329274934   -2.43874718894551   -1.58527128370598
H        49.55418015940368    2.46239366074885    1.51472080459357
H        51.52099859909643    4.34272212367007    1.30476647351255
H        53.77127516231199    4.56499004235503   -0.41203547868956
H        55.82280150235695    3.86358891992798   -2.42915415184895
H        57.58465609033380    1.97869581937509   -2.23925066624940
H        57.63305388108097   -1.93507991612113    2.14514130343611
H        55.79487898350265   -3.74835047475238    2.33785830509894
H        53.56639728508022   -4.43666915206761    0.35745097436343
Cu       64.41327750404051    0.03763154629376    0.00021701699991
C        62.14240994911452   -3.24473619822794   -0.90008972675538
C        61.18029265057201   -2.32637171317020   -1.00127194091847
C        61.60354245176744   -1.18007784551129   -0.20569034782969
C        60.95446399152795    0.00617931405448    0.00523034379377
C        61.65737860910286    1.26590098913592    0.22680361678158
C        61.28474020760549    2.36611413326544    0.94800077275723
C        62.29345521449574    3.36119638600747    0.85358829853749
C        63.27902557626179    2.84146159865149    0.06783340094836
N        62.91627967234995    1.53122858350226   -0.33065463943953
C        64.50125196320242    3.47264235085968   -0.34520131805482
C        65.62589849041890    2.79412296993910   -0.67619750571402
C        66.61701482128620    3.06640116304602   -1.69806881634376
C        67.52442392629749    2.08595222498560   -1.60842241801657
C        67.12692247440057    1.18710987713440   -0.51885122175663
N        65.99701564107278    1.61599628517205   -0.01413219052213
C        67.79178511207729    0.00416825243286   -0.00238584078970
C        67.14594113661266   -1.09590847280808    0.47350216988593
C        67.54977614261350   -2.01315579838741    1.53349371634922
C        66.59254375697230   -2.94424143495834    1.62897837174966
C        65.57869534053590   -2.63871411375195    0.64034500108947
N        65.91068038304314   -1.54403332701598   -0.00565931662832
C        64.35519701340706   -3.34586679048425    0.30908641063767
C        63.20992292320510   -2.73011449173994   -0.05384643417883
N        62.85128349662170   -1.44746744401695    0.34064347328571
H        62.14704720483064   -4.21432974696546   -1.39433609801137
H        60.27809770988616   -2.43886361103228   -1.58540741125484
H        60.36784761623343    2.46235891868476    1.51454630288524
H        62.33467474996406    4.34310568739314    1.30491127059482
H        64.58499075172513    4.56503343203787   -0.41172799490734
H        66.63641737900151    3.86354986308033   -2.42918573139510
H        68.39836743476937    1.97871671446889   -2.23936703379016
H        68.44700384884155   -1.93515790298345    2.14521047780553
H        66.60857821749438   -3.74821397024192    2.33794398438954
H        64.38010092383423   -4.43674276786844    0.35630701537941
Cu       75.22704745146631    0.03745427828994    0.00013106878607
C        72.95615718791279   -3.24439446043987   -0.90046391811561
C        71.99358127933679   -2.32647226658535   -1.00103462435527
C        72.41696455624447   -1.17971411801005   -0.20611591882581
C        71.76874574728819    0.00616606488782    0.00509284051766
C        72.47078202456520    1.26569374047022    0.22711248994736
C        72.09811233030599    2.36620921293099    0.94793648857310
C        73.10700383591809    3.36096202382756    0.85380951970123
C        74.09260216892169    2.84117834418031    0.06778984539006
N        73.73023237295943    1.53135297565814   -0.33055717998406
C        75.31492837046198    3.47260521888961   -0.34538282114139
C        76.43944251417409    2.79422042526907   -0.67628701792093
C        77.43073369095028    3.06658505390703   -1.69797176049866
C        78.33791655983306    2.08592599609032   -1.60850015400149
C        77.94047279960346    1.18741513060091   -0.51865098033675
N        76.81092635315898    1.61607213855392   -0.01412725771487
C        78.60593119775544    0.00417720880389   -0.00248253868031
C        77.95938902016943   -1.09623781587419    0.47332471974457
C        78.36299841193306   -2.01294431796387    1.53376429189668
C        77.40634694074461   -2.94475671789100    1.62856197082926
C        76.39223389186687   -2.63901777093164    0.64033765714832
N        76.72473386785789   -1.54380479017201   -0.00558660957904
C        75.16906133365264   -3.34575936628150    0.30950140013386
C        74.02348526495746   -2.72977196642293   -0.05387024204317
N        73.66536671491815   -1.44773037208054    0.34074799877898
H        72.96066730104903   -4.21424958222416   -1.39432412160574
H        71.09164074631121   -2.43889383503928   -1.58543071870304
H        71.18145234396269    2.46238283301530    1.51465738162053
H        73.14823889523122    4.34306308834903    1.30485507902546
H        75.39858377644784    4.56501713280946   -0.41183558629920
H        77.45004950534381    3.86359506427633   -2.42920334030702
H        79.21197194797180    1.97871119602681   -2.23933730113411
H        79.26052970721599   -1.93512914817997    2.14519904429327
H        77.42216953960853   -3.74828365496189    2.33795648633718
H        75.19369772856025   -4.43667623732503    0.35662310954040
Cu       86.04050148926859    0.03755035675362    0.00015548314629
C        83.76950360777776   -3.24484455177490   -0.89969815320795
C        82.80766387376281   -2.32636814206426   -1.00113597242795
C        83.23073626245943   -1.17965299092182   -0.20586033049504
C        82.58168410402573    0.00604662618008    0.00505576886349
C        83.28452966750100    1.26582242798853    0.22724654769663
C        82.91209662971173    2.36577797233359    0.94795861035693
C        83.92096315606750    3.36120122398547    0.85340865924070
C        84.90649790447156    2.84175288757650    0.06794900997635
N        84.54388120657708    1.53092706208123   -0.33035220963084
C        86.12858654700869    3.47261936202513   -0.34504348573495
C        87.25354262305167    2.79388162902497   -0.67576560304735
C        88.24420526477019    3.06605573602303   -1.69794216950719
C        89.15189243276672    2.08577254425340   -1.60864230609161
C        88.75553653920836    1.18448861174773   -0.52053218497432
N        87.62486155277512    1.61484652003188   -0.01418587616510
C        89.42344482365101    0.00368940118187   -0.00226035815370
C        88.77602899121531   -1.09304062575519    0.47427714933680
C        89.17772620818809   -2.01299027156555    1.53308103486383
C        88.21943794536674   -2.94304986876237    1.62916333248836
C        87.20684077627243   -2.63773281836597    0.64020634842651
N        87.53758498682268   -1.54339475436384   -0.00511575920672
C        85.98186361357411   -3.34620306199450    0.30835801976297
C        84.83753897170580   -2.73064557784622   -0.05347958436868
N        84.47907529086527   -1.44667549695254    0.34032088482025
H        83.77430023179879   -4.21428479450255   -1.39428917803007
H        81.90543969459353   -2.43884734889367   -1.58538188070631
H        81.99512636968629    2.46231003773897    1.51439867634938
H        83.96196143497093    4.34310566592037    1.30480105726767
H        86.21228283911520    4.56500327572404   -0.41180049329843
H        88.26359972374402    3.86343456832048   -2.42906778743228
H        90.02567547863924    1.97871521958229   -2.23938926663731
H        90.07444850208854   -1.93529130845810    2.14509830963921
H        88.23571160253108   -3.74786153569458    2.33771738344185
H        86.00740824739549   -4.43687906328172    0.35566881008233
222
 energy: -402.813033872845 gnorm: 0.215587453307 xtb: 6.4.1 (bd6e46d)