      -----------------------------------------------------------      
     |                   =====================                   |     
     |                           x T B                           |     
     |                   =====================                   |     
     |                         S. Grimme                         |     
     |          Mulliken Center for Theoretical Chemistry        |     
     |                    University of Bonn                     |     
      -----------------------------------------------------------      

   * xtb version 6.4.1 (bd6e46d) compiled by 'conda@4901f00b25ba' on 2021-06-10

   xtb is free software: you can redistribute it and/or modify it under
   the terms of the GNU Lesser General Public License as published by
   the Free Software Foundation, either version 3 of the License, or
   (at your option) any later version.
   
   xtb is distributed in the hope that it will be useful,
   but WITHOUT ANY WARRANTY; without even the implied warranty of
   MERCHANTABILITY or FITNESS FOR A PARTICULAR PURPOSE.  See the
   GNU Lesser General Public License for more details.
   
   Cite this work as:
   * C. Bannwarth, E. Caldeweyher, S. Ehlert, A. Hansen, P. Pracht,
     J. Seibert, S. Spicher, S. Grimme, WIREs Comput. Mol. Sci., 2020, 11,
     e01493. DOI: 10.1002/wcms.1493
   
   for GFN2-xTB:
   * C. Bannwarth, S. Ehlert and S. Grimme., J. Chem. Theory Comput., 2019,
     15, 1652-1671. DOI: 10.1021/acs.jctc.8b01176
   for GFN1-xTB:
   * S. Grimme, C. Bannwarth, P. Shushkov, J. Chem. Theory Comput., 2017,
     13, 1989-2009. DOI: 10.1021/acs.jctc.7b00118
   for GFN0-xTB:
   * P. Pracht, E. Caldeweyher, S. Ehlert, S. Grimme, ChemRxiv, 2019, preprint.
     DOI: 10.26434/chemrxiv.8326202.v1
   for GFN-FF:
   * S. Spicher and S. Grimme, Angew. Chem. Int. Ed., 2020, 59, 15665-15673.
     DOI: 10.1002/anie.202004239
   
   for DFT-D4:
   * E. Caldeweyher, C. Bannwarth and S. Grimme, J. Chem. Phys., 2017,
     147, 034112. DOI: 10.1063/1.4993215
   * E. Caldeweyher, S. Ehlert, A. Hansen, H. Neugebauer, S. Spicher,
     C. Bannwarth and S. Grimme, J. Chem. Phys., 2019, 150, 154122.
     DOI: 10.1063/1.5090222
   * E. Caldeweyher, J.-M. Mewes, S. Ehlert and S. Grimme, Phys. Chem. Chem. Phys.
     2020, 22, 8499-8512. DOI: 10.1039/D0CP00502A
   
   for sTDA-xTB:
   * S. Grimme and C. Bannwarth, J. Chem. Phys., 2016, 145, 054103.
     DOI: 10.1063/1.4959605
   
   in the mass-spec context:
   * V. Asgeirsson, C. Bauer and S. Grimme, Chem. Sci., 2017, 8, 4879.
     DOI: 10.1039/c7sc00601b
   * J. Koopman and S. Grimme, ACS Omega 2019, 4, 12, 15120-15133.
     DOI: 10.1021/acsomega.9b02011
   
   for metadynamics refer to:
   * S. Grimme, J. Chem. Theory Comput., 2019, 155, 2847-2862
     DOI: 10.1021/acs.jctc.9b00143
   
   for SPH calculations refer to:
   * S. Spicher and S. Grimme, J. Chem. Theory Comput., 2021, 17, 1701-1714
     DOI: 10.1021/acs.jctc.0c01306
   
   with help from (in alphabetical order)
   P. Atkinson, C. Bannwarth, F. Bohle, G. Brandenburg, E. Caldeweyher
   M. Checinski, S. Dohm, S. Ehlert, S. Ehrlich, I. Gerasimov, J. Koopman
   C. Lavigne, S. Lehtola, F. März, M. Müller, F. Musil, H. Neugebauer
   J. Pisarek, C. Plett, P. Pracht, J. Seibert, P. Shushkov, S. Spicher
   M. Stahn, M. Steiner, T. Strunk, J. Stückrath, T. Rose, and J. Unsleber
   
 * started run on 2021/11/21 at 21:24:12.976     

           -------------------------------------------------
          |                Calculation Setup                |
           -------------------------------------------------

          program call               : /home/jeff/miniconda3/bin/xtb /home/jeff/chem/final-year-proejct/Zn+2_4_8_outenergy/input_structure.xyz --gfn 2 --parallel 1 --etemp 300 --chrg 0 --uhf 0 -I det_control.in
          coordinate file            : /home/jeff/chem/final-year-proejct/Zn+2_4_8_outenergy/input_structure.xyz
          omp threads                :                     1
          number of atoms            :                   310
          number of electrons        :                  1010
          charge                     :                     0
          spin                       :                   0.0
          first test random number   :      0.99821045367489

   ID    Z sym.   atoms
    1   30 Zn     1, 37, 101, 136, 171, 206, 241, 276
    2    6 C      2-9, 11-15, 17-21, 23, 24, 38-45, 47-51, 53-57, 59, 60,
                  73-100, 102-109, 111-115, 117-121, 123, 124, 137-144,
                  146-150, 152-156, 158, 159, 172-179, 181-185, 187-191, 193,
                  194, 207-214, 216-220, 222-226, 228, 229, 242-249, 251-255,
                  257-261, 263, 264, 277-284, 286-290, 292-296, 298, 299
    3    7 N      10, 16, 22, 25, 46, 52, 58, 61, 110, 116, 122, 125, 145,
                  151, 157, 160, 180, 186, 192, 195, 215, 221, 227, 230, 250,
                  256, 262, 265, 285, 291, 297, 300
    4    1 H      26-36, 62-72, 126-135, 161-170, 196-205, 231-240, 266-275,
                  301-310

           -------------------------------------------------
          |                 G F N 2 - x T B                 |
           -------------------------------------------------

        Reference                      10.1021/acs.jctc.8b01176
      * Hamiltonian:
        H0-scaling (s, p, d)           1.850000    2.230000    2.230000
        zeta-weighting                 0.500000
      * Dispersion:
        s8                             2.700000
        a1                             0.520000
        a2                             5.000000
        s9                             5.000000
      * Repulsion:
        kExp                           1.500000    1.000000
        rExp                           1.000000
      * Coulomb:
        alpha                          2.000000
        third order                    shell-resolved
        anisotropic                    true
        a3                             3.000000
        a5                             4.000000
        cn-shift                       1.200000
        cn-exp                         4.000000
        max-rad                        5.000000


          ...................................................
          :                      SETUP                      :
          :.................................................:
          :  # basis functions                 994          :
          :  # atomic orbitals                 994          :
          :  # shells                          538          :
          :  # electrons                      1010          :
          :  max. iterations                   250          :
          :  Hamiltonian                  GFN2-xTB          :
          :  restarted?                      false          :
          :  GBSA solvation                  false          :
          :  PC potential                    false          :
          :  electronic temp.          300.0000000     K    :
          :  accuracy                    1.0000000          :
          :  -> integral cutoff          0.2500000E+02      :
          :  -> integral neglect         0.1000000E-07      :
          :  -> SCF convergence          0.1000000E-05 Eh   :
          :  -> wf. convergence          0.1000000E-03 e    :
          :  Broyden damping             0.4000000          :
          ...................................................

 iter      E             dE          RMSdq      gap      omega  full diag
   1   -550.6522904 -0.550652E+03  0.706E+00    0.83       0.0  T
   2   -551.7424874 -0.109020E+01  0.371E+00    0.78       1.0  T
   3   -551.4412528  0.301235E+00  0.249E+00    0.89       1.0  T
   4   -552.6189389 -0.117769E+01  0.400E-01    0.81       1.0  T
   5   -552.6265786 -0.763978E-02  0.269E-01    0.84       1.0  T
   6   -552.6296893 -0.311066E-02  0.166E-01    0.83       1.0  T
   7   -552.6327830 -0.309371E-02  0.924E-02    0.82       1.0  T
   8   -552.6358681 -0.308508E-02  0.333E-02    0.83       1.0  T
   9   -552.6361961 -0.328067E-03  0.144E-02    0.83       1.0  T
  10   -552.6362290 -0.328425E-04  0.647E-03    0.83       1.0  T
  11   -552.6362357 -0.668836E-05  0.243E-03    0.83       2.3  T
  12   -552.6362367 -0.102688E-05  0.110E-03    0.83       5.1  T
  13   -552.6362367 -0.130482E-07  0.654E-04    0.83       8.7  T
  14   -552.6362369 -0.132772E-06  0.196E-04    0.83      29.0  T

   *** convergence criteria satisfied after 14 iterations ***

         #    Occupation            Energy/Eh            Energy/eV
      -------------------------------------------------------------
         1        2.0000           -0.6687102             -18.1965
       ...           ...                  ...                  ...
       499        2.0000           -0.3693772             -10.0513
       500        2.0000           -0.3663614              -9.9692
       501        2.0000           -0.3622279              -9.8567
       502        2.0000           -0.3580015              -9.7417
       503        2.0000           -0.3539840              -9.6324
       504        2.0000           -0.3505666              -9.5394
       505        2.0000           -0.3483747              -9.4798 (HOMO)
       506        0.0000           -0.3179699              -8.6524 (LUMO)
       507                         -0.3151866              -8.5767
       508                         -0.3114677              -8.4755
       509                         -0.3072268              -8.3601
       510                         -0.3028071              -8.2398
       ...                                ...                  ...
       994                          1.6311070              44.3847
      -------------------------------------------------------------
                  HL-Gap            0.0304048 Eh            0.8274 eV
             Fermi-level           -0.3331513 Eh           -9.0655 eV

 SCC (total)                   0 d,  0 h,  0 min,  5.749 sec
 SCC setup                      ...        0 min,  0.017 sec (  0.301%)
 Dispersion                     ...        0 min,  0.034 sec (  0.584%)
 classical contributions        ...        0 min,  0.003 sec (  0.052%)
 integral evaluation            ...        0 min,  0.260 sec (  4.516%)
 iterations                     ...        0 min,  4.759 sec ( 82.781%)
 molecular gradient             ...        0 min,  0.632 sec ( 10.986%)
 printout                       ...        0 min,  0.045 sec (  0.778%)

         :::::::::::::::::::::::::::::::::::::::::::::::::::::
         ::                     SUMMARY                     ::
         :::::::::::::::::::::::::::::::::::::::::::::::::::::
         :: total energy            -542.419585393961 Eh    ::
         :: gradient norm              0.000982227673 Eh/a0 ::
         :: HOMO-LUMO gap              0.827357892901 eV    ::
         ::.................................................::
         :: SCC energy              -552.636236852249 Eh    ::
         :: -> isotropic ES            0.520692138647 Eh    ::
         :: -> anisotropic ES          0.068768585427 Eh    ::
         :: -> anisotropic XC          0.313490924003 Eh    ::
         :: -> dispersion             -0.505778472146 Eh    ::
         :: repulsion energy          10.225904599344 Eh    ::
         :: add. restraining           0.000000000000 Eh    ::
         :: total charge               0.000000000002 e     ::
         :::::::::::::::::::::::::::::::::::::::::::::::::::::

           -------------------------------------------------
          |                Property Printout                |
           -------------------------------------------------

    * Orbital Energies and Occupations

         #    Occupation            Energy/Eh            Energy/eV
      -------------------------------------------------------------
         1        2.0000           -0.6687102             -18.1965
       ...           ...                  ...                  ...
       493        2.0000           -0.3709807             -10.0949
       494        2.0000           -0.3709779             -10.0948
       495        2.0000           -0.3706901             -10.0870
       496        2.0000           -0.3706828             -10.0868
       497        2.0000           -0.3700433             -10.0694
       498        2.0000           -0.3693910             -10.0516
       499        2.0000           -0.3693772             -10.0513
       500        2.0000           -0.3663614              -9.9692
       501        2.0000           -0.3622279              -9.8567
       502        2.0000           -0.3580015              -9.7417
       503        2.0000           -0.3539840              -9.6324
       504        2.0000           -0.3505666              -9.5394
       505        2.0000           -0.3483747              -9.4798 (HOMO)
       506        0.0000           -0.3179699              -8.6524 (LUMO)
       507                         -0.3151866              -8.5767
       508                         -0.3114677              -8.4755
       509                         -0.3072268              -8.3601
       510                         -0.3028071              -8.2398
       511                         -0.3003239              -8.1722
       512                         -0.3003227              -8.1722
       513                         -0.3002163              -8.1693
       514                         -0.3002107              -8.1691
       515                         -0.2999167              -8.1611
       516                         -0.2999150              -8.1611
       ...                                ...                  ...
       994                          1.6311070              44.3847
      -------------------------------------------------------------
                  HL-Gap            0.0304048 Eh            0.8274 eV
             Fermi-level           -0.3331513 Eh           -9.0655 eV

     #   Z          covCN         q      C6AA      α(0)
     1  30 Zn       3.042     0.245   122.298    21.603
     2   6 C        3.020    -0.052    29.266     8.874
     3   6 C        3.018    -0.050    29.228     8.868
     4   6 C        3.166     0.077    25.943     8.323
     5   6 C        2.953     0.017    27.630     8.622
     6   6 C        3.166     0.077    25.944     8.324
     7   6 C        3.018    -0.050    29.227     8.868
     8   6 C        3.020    -0.052    29.266     8.874
     9   6 C        3.149     0.076    26.051     8.349
    10   7 N        2.632    -0.177    24.836     7.402
    11   6 C        2.901    -0.050    29.234     8.865
    12   6 C        3.145     0.077    26.038     8.348
    13   6 C        3.017    -0.051    29.244     8.871
    14   6 C        3.018    -0.051    29.247     8.871
    15   6 C        3.145     0.077    26.028     8.347
    16   7 N        2.635    -0.175    24.790     7.395
    17   6 C        2.901    -0.051    29.278     8.872
    18   6 C        3.145     0.077    26.028     8.347
    19   6 C        3.018    -0.051    29.247     8.871
    20   6 C        3.017    -0.051    29.244     8.871
    21   6 C        3.145     0.077    26.038     8.348
    22   7 N        2.635    -0.175    24.791     7.395
    23   6 C        2.901    -0.050    29.234     8.865
    24   6 C        3.149     0.076    26.052     8.349
    25   7 N        2.632    -0.177    24.835     7.401
    26   1 H        0.926     0.034     2.534     2.489
    27   1 H        0.926     0.035     2.510     2.478
    28   1 H        0.926     0.035     2.510     2.477
    29   1 H        0.926     0.034     2.534     2.489
    30   1 H        0.926     0.049     2.329     2.387
    31   1 H        0.926     0.034     2.526     2.485
    32   1 H        0.926     0.034     2.527     2.486
    33   1 H        0.926     0.049     2.337     2.391
    34   1 H        0.926     0.034     2.527     2.486
    35   1 H        0.926     0.034     2.526     2.485
    36   1 H        0.926     0.049     2.329     2.387
    37  30 Zn       3.042     0.245   122.298    21.603
    38   6 C        3.020    -0.052    29.266     8.874
    39   6 C        3.018    -0.050    29.228     8.868
    40   6 C        3.166     0.077    25.944     8.324
    41   6 C        2.953     0.017    27.631     8.622
    42   6 C        3.166     0.077    25.944     8.324
    43   6 C        3.018    -0.050    29.227     8.868
    44   6 C        3.020    -0.052    29.266     8.874
    45   6 C        3.149     0.076    26.051     8.349
    46   7 N        2.632    -0.177    24.837     7.402
    47   6 C        2.901    -0.050    29.235     8.865
    48   6 C        3.145     0.077    26.038     8.348
    49   6 C        3.017    -0.051    29.244     8.871
    50   6 C        3.018    -0.051    29.247     8.871
    51   6 C        3.145     0.077    26.028     8.347
    52   7 N        2.635    -0.175    24.790     7.395
    53   6 C        2.901    -0.052    29.278     8.872
    54   6 C        3.145     0.077    26.028     8.347
    55   6 C        3.018    -0.051    29.247     8.871
    56   6 C        3.017    -0.051    29.244     8.871
    57   6 C        3.145     0.077    26.038     8.348
    58   7 N        2.635    -0.175    24.791     7.395
    59   6 C        2.901    -0.050    29.235     8.865
    60   6 C        3.149     0.076    26.051     8.349
    61   7 N        2.632    -0.177    24.835     7.401
    62   1 H        0.926     0.034     2.534     2.489
    63   1 H        0.926     0.035     2.510     2.477
    64   1 H        0.926     0.035     2.510     2.477
    65   1 H        0.926     0.034     2.534     2.489
    66   1 H        0.926     0.049     2.329     2.387
    67   1 H        0.926     0.034     2.526     2.485
    68   1 H        0.926     0.034     2.527     2.486
    69   1 H        0.926     0.049     2.337     2.391
    70   1 H        0.926     0.034     2.527     2.486
    71   1 H        0.926     0.034     2.526     2.485
    72   1 H        0.926     0.049     2.329     2.387
    73   6 C        1.996    -0.020    31.582     9.076
    74   6 C        1.963    -0.010    31.336     9.040
    75   6 C        1.963    -0.009    31.316     9.037
    76   6 C        1.996    -0.021    31.604     9.079
    77   6 C        1.996    -0.020    31.586     9.076
    78   6 C        1.963    -0.010    31.325     9.038
    79   6 C        1.963    -0.009    31.318     9.037
    80   6 C        1.996    -0.021    31.593     9.077
    81   6 C        1.996    -0.021    31.587     9.076
    82   6 C        1.963    -0.009    31.321     9.038
    83   6 C        1.963    -0.009    31.319     9.038
    84   6 C        1.996    -0.021    31.590     9.077
    85   6 C        1.996    -0.021    31.588     9.077
    86   6 C        1.963    -0.009    31.320     9.038
    87   6 C        1.963    -0.009    31.320     9.038
    88   6 C        1.996    -0.021    31.588     9.077
    89   6 C        1.996    -0.021    31.590     9.077
    90   6 C        1.963    -0.009    31.319     9.038
    91   6 C        1.963    -0.009    31.321     9.038
    92   6 C        1.996    -0.021    31.587     9.076
    93   6 C        1.996    -0.021    31.594     9.077
    94   6 C        1.963    -0.009    31.318     9.037
    95   6 C        1.963    -0.010    31.325     9.038
    96   6 C        1.996    -0.020    31.586     9.076
    97   6 C        1.996    -0.021    31.603     9.079
    98   6 C        1.963    -0.009    31.315     9.037
    99   6 C        1.963    -0.010    31.335     9.040
   100   6 C        1.996    -0.020    31.581     9.075
   101  30 Zn       3.038     0.246   122.275    21.601
   102   6 C        3.021    -0.052    29.262     8.873
   103   6 C        3.019    -0.050    29.227     8.868
   104   6 C        3.167     0.077    25.934     8.321
   105   6 C        2.953     0.017    27.620     8.620
   106   6 C        3.167     0.077    25.935     8.322
   107   6 C        3.019    -0.050    29.226     8.868
   108   6 C        3.021    -0.052    29.262     8.873
   109   6 C        3.151     0.075    26.056     8.349
   110   7 N        2.632    -0.177    24.837     7.402
   111   6 C        2.901    -0.048    29.181     8.857
   112   6 C        3.150     0.075    26.057     8.349
   113   6 C        3.020    -0.052    29.261     8.873
   114   6 C        3.019    -0.050    29.229     8.868
   115   6 C        3.167     0.078    25.934     8.321
   116   7 N        2.632    -0.177    24.838     7.402
   117   6 C        2.953     0.017    27.629     8.621
   118   6 C        3.167     0.078    25.932     8.321
   119   6 C        3.019    -0.050    29.229     8.868
   120   6 C        3.021    -0.052    29.261     8.873
   121   6 C        3.151     0.075    26.057     8.349
   122   7 N        2.632    -0.177    24.839     7.402
   123   6 C        2.901    -0.048    29.181     8.857
   124   6 C        3.151     0.075    26.056     8.349
   125   7 N        2.632    -0.177    24.836     7.402
   126   1 H        0.926     0.034     2.532     2.488
   127   1 H        0.926     0.036     2.508     2.477
   128   1 H        0.926     0.036     2.508     2.476
   129   1 H        0.926     0.034     2.532     2.488
   130   1 H        0.925     0.050     2.320     2.382
   131   1 H        0.926     0.034     2.532     2.488
   132   1 H        0.926     0.035     2.510     2.478
   133   1 H        0.926     0.035     2.510     2.478
   134   1 H        0.926     0.034     2.532     2.488
   135   1 H        0.925     0.050     2.320     2.382
   136  30 Zn       3.038     0.246   122.275    21.601
   137   6 C        3.021    -0.052    29.261     8.873
   138   6 C        3.019    -0.050    29.227     8.868
   139   6 C        3.167     0.078    25.933     8.321
   140   6 C        2.953     0.017    27.623     8.620
   141   6 C        3.167     0.078    25.933     8.321
   142   6 C        3.019    -0.050    29.228     8.868
   143   6 C        3.021    -0.052    29.260     8.873
   144   6 C        3.151     0.075    26.056     8.349
   145   7 N        2.632    -0.177    24.835     7.401
   146   6 C        2.901    -0.047    29.178     8.857
   147   6 C        3.150     0.075    26.057     8.349
   148   6 C        3.021    -0.052    29.260     8.873
   149   6 C        3.019    -0.050    29.228     8.868
   150   6 C        3.167     0.078    25.933     8.321
   151   7 N        2.632    -0.177    24.836     7.402
   152   6 C        2.953     0.017    27.626     8.621
   153   6 C        3.167     0.078    25.933     8.321
   154   6 C        3.019    -0.050    29.228     8.868
   155   6 C        3.021    -0.052    29.260     8.873
   156   6 C        3.150     0.075    26.057     8.349
   157   7 N        2.632    -0.177    24.836     7.402
   158   6 C        2.901    -0.047    29.179     8.857
   159   6 C        3.151     0.075    26.056     8.349
   160   7 N        2.632    -0.177    24.836     7.402
   161   1 H        0.926     0.034     2.531     2.488
   162   1 H        0.926     0.036     2.509     2.477
   163   1 H        0.926     0.036     2.509     2.477
   164   1 H        0.926     0.034     2.531     2.488
   165   1 H        0.925     0.050     2.319     2.381
   166   1 H        0.926     0.034     2.531     2.488
   167   1 H        0.926     0.035     2.509     2.477
   168   1 H        0.926     0.035     2.509     2.477
   169   1 H        0.926     0.034     2.531     2.488
   170   1 H        0.925     0.050     2.319     2.381
   171  30 Zn       3.038     0.246   122.274    21.601
   172   6 C        3.021    -0.052    29.260     8.873
   173   6 C        3.019    -0.050    29.227     8.868
   174   6 C        3.167     0.078    25.933     8.321
   175   6 C        2.953     0.017    27.624     8.620
   176   6 C        3.167     0.078    25.933     8.321
   177   6 C        3.019    -0.050    29.227     8.868
   178   6 C        3.021    -0.052    29.260     8.873
   179   6 C        3.150     0.075    26.056     8.349
   180   7 N        2.632    -0.177    24.836     7.401
   181   6 C        2.901    -0.047    29.178     8.857
   182   6 C        3.150     0.075    26.057     8.349
   183   6 C        3.021    -0.052    29.260     8.873
   184   6 C        3.019    -0.050    29.227     8.868
   185   6 C        3.167     0.078    25.933     8.321
   186   7 N        2.632    -0.177    24.836     7.401
   187   6 C        2.953     0.017    27.625     8.621
   188   6 C        3.167     0.078    25.933     8.321
   189   6 C        3.019    -0.050    29.228     8.868
   190   6 C        3.021    -0.052    29.260     8.873
   191   6 C        3.150     0.075    26.056     8.349
   192   7 N        2.632    -0.177    24.836     7.401
   193   6 C        2.901    -0.047    29.178     8.857
   194   6 C        3.151     0.075    26.056     8.349
   195   7 N        2.632    -0.177    24.836     7.401
   196   1 H        0.926     0.034     2.531     2.488
   197   1 H        0.926     0.036     2.509     2.477
   198   1 H        0.926     0.036     2.509     2.477
   199   1 H        0.926     0.034     2.531     2.488
   200   1 H        0.925     0.050     2.319     2.381
   201   1 H        0.926     0.034     2.531     2.488
   202   1 H        0.926     0.036     2.509     2.477
   203   1 H        0.926     0.036     2.509     2.477
   204   1 H        0.926     0.034     2.531     2.488
   205   1 H        0.925     0.050     2.319     2.381
   206  30 Zn       3.038     0.246   122.275    21.601
   207   6 C        3.021    -0.052    29.260     8.873
   208   6 C        3.019    -0.050    29.228     8.868
   209   6 C        3.167     0.078    25.933     8.321
   210   6 C        2.953     0.017    27.625     8.621
   211   6 C        3.167     0.078    25.933     8.321
   212   6 C        3.019    -0.050    29.228     8.868
   213   6 C        3.020    -0.052    29.260     8.873
   214   6 C        3.150     0.075    26.056     8.349
   215   7 N        2.632    -0.177    24.836     7.401
   216   6 C        2.901    -0.047    29.178     8.857
   217   6 C        3.151     0.075    26.056     8.349
   218   6 C        3.021    -0.052    29.260     8.873
   219   6 C        3.019    -0.050    29.227     8.868
   220   6 C        3.167     0.078    25.933     8.321
   221   7 N        2.632    -0.177    24.836     7.401
   222   6 C        2.953     0.017    27.624     8.620
   223   6 C        3.167     0.078    25.934     8.321
   224   6 C        3.019    -0.050    29.227     8.868
   225   6 C        3.021    -0.052    29.260     8.873
   226   6 C        3.150     0.075    26.057     8.349
   227   7 N        2.632    -0.177    24.836     7.401
   228   6 C        2.901    -0.047    29.178     8.857
   229   6 C        3.150     0.075    26.057     8.349
   230   7 N        2.632    -0.177    24.836     7.401
   231   1 H        0.926     0.034     2.531     2.488
   232   1 H        0.926     0.036     2.509     2.477
   233   1 H        0.926     0.036     2.509     2.477
   234   1 H        0.926     0.034     2.531     2.488
   235   1 H        0.925     0.050     2.319     2.381
   236   1 H        0.926     0.034     2.531     2.488
   237   1 H        0.926     0.036     2.509     2.477
   238   1 H        0.926     0.036     2.509     2.477
   239   1 H        0.926     0.034     2.531     2.488
   240   1 H        0.925     0.050     2.319     2.381
   241  30 Zn       3.038     0.246   122.275    21.601
   242   6 C        3.020    -0.052    29.260     8.873
   243   6 C        3.019    -0.050    29.228     8.868
   244   6 C        3.167     0.078    25.933     8.321
   245   6 C        2.953     0.017    27.626     8.621
   246   6 C        3.167     0.078    25.933     8.321
   247   6 C        3.019    -0.050    29.228     8.868
   248   6 C        3.021    -0.052    29.260     8.873
   249   6 C        3.150     0.075    26.057     8.349
   250   7 N        2.632    -0.177    24.836     7.402
   251   6 C        2.901    -0.048    29.179     8.857
   252   6 C        3.151     0.075    26.056     8.349
   253   6 C        3.021    -0.052    29.260     8.873
   254   6 C        3.019    -0.050    29.227     8.868
   255   6 C        3.167     0.078    25.933     8.321
   256   7 N        2.632    -0.177    24.836     7.402
   257   6 C        2.953     0.017    27.623     8.620
   258   6 C        3.167     0.078    25.933     8.321
   259   6 C        3.019    -0.050    29.228     8.868
   260   6 C        3.021    -0.052    29.261     8.873
   261   6 C        3.151     0.075    26.056     8.349
   262   7 N        2.632    -0.177    24.835     7.401
   263   6 C        2.901    -0.047    29.178     8.857
   264   6 C        3.150     0.075    26.057     8.349
   265   7 N        2.632    -0.177    24.836     7.402
   266   1 H        0.926     0.034     2.531     2.488
   267   1 H        0.926     0.036     2.509     2.477
   268   1 H        0.926     0.035     2.509     2.477
   269   1 H        0.926     0.034     2.531     2.488
   270   1 H        0.925     0.050     2.319     2.381
   271   1 H        0.926     0.034     2.531     2.488
   272   1 H        0.926     0.036     2.509     2.477
   273   1 H        0.926     0.036     2.509     2.477
   274   1 H        0.926     0.034     2.531     2.488
   275   1 H        0.925     0.050     2.319     2.381
   276  30 Zn       3.038     0.246   122.275    21.601
   277   6 C        3.021    -0.052    29.261     8.873
   278   6 C        3.019    -0.050    29.229     8.868
   279   6 C        3.167     0.078    25.933     8.321
   280   6 C        2.953     0.017    27.630     8.621
   281   6 C        3.167     0.078    25.933     8.321
   282   6 C        3.019    -0.050    29.228     8.868
   283   6 C        3.020    -0.052    29.261     8.873
   284   6 C        3.150     0.075    26.057     8.349
   285   7 N        2.632    -0.177    24.839     7.402
   286   6 C        2.901    -0.048    29.182     8.857
   287   6 C        3.151     0.075    26.055     8.349
   288   6 C        3.021    -0.052    29.261     8.873
   289   6 C        3.019    -0.050    29.227     8.868
   290   6 C        3.167     0.077    25.936     8.322
   291   7 N        2.632    -0.177    24.836     7.402
   292   6 C        2.953     0.017    27.620     8.620
   293   6 C        3.167     0.077    25.934     8.321
   294   6 C        3.018    -0.050    29.226     8.868
   295   6 C        3.021    -0.052    29.262     8.873
   296   6 C        3.151     0.075    26.055     8.349
   297   7 N        2.632    -0.177    24.838     7.402
   298   6 C        2.901    -0.048    29.182     8.857
   299   6 C        3.150     0.075    26.057     8.349
   300   7 N        2.632    -0.177    24.838     7.402
   301   1 H        0.926     0.034     2.532     2.488
   302   1 H        0.926     0.035     2.510     2.478
   303   1 H        0.926     0.035     2.510     2.478
   304   1 H        0.926     0.034     2.532     2.488
   305   1 H        0.925     0.050     2.320     2.382
   306   1 H        0.926     0.034     2.532     2.488
   307   1 H        0.926     0.036     2.508     2.476
   308   1 H        0.926     0.036     2.507     2.476
   309   1 H        0.926     0.034     2.532     2.488
   310   1 H        0.925     0.050     2.320     2.382

 Mol. C6AA /au·bohr⁶  :    1890425.679123
 Mol. C8AA /au·bohr⁸  :   53900754.225013
 Mol. α(0) /au        :       2246.522341


Wiberg/Mayer (AO) data.
largest (>0.10) Wiberg bond orders for each atom

 ---------------------------------------------------------------------------
     #   Z sym  total        # sym  WBO       # sym  WBO       # sym  WBO
 ---------------------------------------------------------------------------
     1  30 Zn   2.081 --    16 N    0.491    22 N    0.491    25 N    0.489
                            10 N    0.489
     2   6 C    3.953 --     3 C    1.650    24 C    1.171    26 H    0.972
     3   6 C    3.957 --     2 C    1.650     4 C    1.179    27 H    0.971
     4   6 C    3.912 --    25 N    1.286     5 C    1.252     3 C    1.179
     5   6 C    3.941 --     6 C    1.252     4 C    1.252    73 C    1.185
     6   6 C    3.912 --    10 N    1.286     5 C    1.252     7 C    1.179
     7   6 C    3.957 --     8 C    1.650     6 C    1.179    28 H    0.971
     8   6 C    3.953 --     7 C    1.650     9 C    1.171    29 H    0.972
     9   6 C    3.924 --    11 C    1.358    10 N    1.247     8 C    1.171
    10   7 N    3.467 --     6 C    1.286     9 C    1.247     1 Zn   0.489
    11   6 C    3.931 --     9 C    1.358    12 C    1.354    30 H    0.964
    12   6 C    3.929 --    11 C    1.354    16 N    1.261    13 C    1.163
    13   6 C    3.957 --    14 C    1.666    12 C    1.163    31 H    0.972
    14   6 C    3.955 --    13 C    1.666    15 C    1.162    32 H    0.972
    15   6 C    3.932 --    17 C    1.354    16 N    1.263    14 C    1.162
    16   7 N    3.464 --    15 C    1.263    12 C    1.261     1 Zn   0.491
    17   6 C    3.926 --    15 C    1.354    18 C    1.354    33 H    0.964
    18   6 C    3.932 --    17 C    1.354    22 N    1.263    19 C    1.162
    19   6 C    3.955 --    20 C    1.666    18 C    1.162    34 H    0.972
    20   6 C    3.957 --    19 C    1.666    21 C    1.163    35 H    0.972
    21   6 C    3.929 --    23 C    1.354    22 N    1.261    20 C    1.163
    22   7 N    3.464 --    18 C    1.263    21 C    1.261     1 Zn   0.491
    23   6 C    3.931 --    24 C    1.358    21 C    1.354    36 H    0.964
    24   6 C    3.924 --    23 C    1.358    25 N    1.247     2 C    1.171
    25   7 N    3.467 --     4 C    1.286    24 C    1.247     1 Zn   0.489
    26   1 H    0.998 --     2 C    0.972
    27   1 H    0.998 --     3 C    0.971
    28   1 H    0.998 --     7 C    0.971
    29   1 H    0.998 --     8 C    0.972
    30   1 H    0.996 --    11 C    0.964
    31   1 H    0.998 --    13 C    0.972
    32   1 H    0.998 --    14 C    0.972
    33   1 H    0.996 --    17 C    0.964
    34   1 H    0.998 --    19 C    0.972
    35   1 H    0.998 --    20 C    0.972
    36   1 H    0.996 --    23 C    0.964
    37  30 Zn   2.081 --    52 N    0.491    58 N    0.491    61 N    0.489
                            46 N    0.489
    38   6 C    3.953 --    39 C    1.651    60 C    1.171    62 H    0.972
    39   6 C    3.957 --    38 C    1.651    40 C    1.179    63 H    0.971
    40   6 C    3.912 --    61 N    1.286    41 C    1.252    39 C    1.179
    41   6 C    3.941 --    42 C    1.253    40 C    1.252   100 C    1.183
    42   6 C    3.912 --    46 N    1.286    41 C    1.253    43 C    1.179
    43   6 C    3.957 --    44 C    1.651    42 C    1.179    64 H    0.971
    44   6 C    3.953 --    43 C    1.651    45 C    1.171    65 H    0.972
    45   6 C    3.924 --    47 C    1.358    46 N    1.247    44 C    1.171
    46   7 N    3.467 --    42 C    1.286    45 C    1.247    37 Zn   0.489
    47   6 C    3.931 --    45 C    1.358    48 C    1.354    66 H    0.964
    48   6 C    3.929 --    47 C    1.354    52 N    1.261    49 C    1.163
    49   6 C    3.957 --    50 C    1.666    48 C    1.163    67 H    0.972
    50   6 C    3.955 --    49 C    1.666    51 C    1.162    68 H    0.972
    51   6 C    3.932 --    53 C    1.354    52 N    1.263    50 C    1.162
    52   7 N    3.464 --    51 C    1.263    48 C    1.261    37 Zn   0.491
    53   6 C    3.926 --    51 C    1.354    54 C    1.354    69 H    0.964
    54   6 C    3.932 --    53 C    1.354    58 N    1.263    55 C    1.162
    55   6 C    3.955 --    56 C    1.666    54 C    1.162    70 H    0.972
    56   6 C    3.957 --    55 C    1.666    57 C    1.163    71 H    0.972
    57   6 C    3.929 --    59 C    1.354    58 N    1.261    56 C    1.163
    58   7 N    3.464 --    54 C    1.263    57 C    1.261    37 Zn   0.491
    59   6 C    3.931 --    60 C    1.358    57 C    1.354    72 H    0.964
    60   6 C    3.924 --    59 C    1.358    61 N    1.247    38 C    1.171
    61   7 N    3.467 --    40 C    1.286    60 C    1.247    37 Zn   0.489
    62   1 H    0.998 --    38 C    0.972
    63   1 H    0.998 --    39 C    0.971
    64   1 H    0.998 --    43 C    0.971
    65   1 H    0.998 --    44 C    0.972
    66   1 H    0.996 --    47 C    0.964
    67   1 H    0.998 --    49 C    0.972
    68   1 H    0.998 --    50 C    0.972
    69   1 H    0.996 --    53 C    0.964
    70   1 H    0.998 --    55 C    0.972
    71   1 H    0.998 --    56 C    0.972
    72   1 H    0.996 --    59 C    0.964
    73   6 C    3.918 --    74 C    2.470     5 C    1.185    76 C    0.203
    74   6 C    3.928 --    73 C    2.470    75 C    1.305
    75   6 C    3.925 --    76 C    2.469    74 C    1.305
    76   6 C    3.919 --    75 C    2.469   105 C    1.187    73 C    0.203
    77   6 C    3.918 --    78 C    2.466   117 C    1.188    80 C    0.202
    78   6 C    3.925 --    77 C    2.466    79 C    1.307
    79   6 C    3.925 --    80 C    2.466    78 C    1.307
    80   6 C    3.918 --    79 C    2.466   140 C    1.188    77 C    0.202
    81   6 C    3.918 --    82 C    2.466   152 C    1.188    84 C    0.202
    82   6 C    3.925 --    81 C    2.466    83 C    1.307
    83   6 C    3.925 --    84 C    2.466    82 C    1.307
    84   6 C    3.918 --    83 C    2.466   175 C    1.188    81 C    0.202
    85   6 C    3.918 --    86 C    2.466   187 C    1.188    88 C    0.202
    86   6 C    3.925 --    85 C    2.466    87 C    1.307
    87   6 C    3.925 --    88 C    2.466    86 C    1.307
    88   6 C    3.918 --    87 C    2.466   210 C    1.188    85 C    0.202
    89   6 C    3.918 --    90 C    2.466   222 C    1.188    92 C    0.202
    90   6 C    3.925 --    89 C    2.466    91 C    1.307
    91   6 C    3.925 --    92 C    2.466    90 C    1.307
    92   6 C    3.918 --    91 C    2.466   245 C    1.188    89 C    0.202
    93   6 C    3.918 --    94 C    2.466   257 C    1.188    96 C    0.202
    94   6 C    3.925 --    93 C    2.466    95 C    1.307
    95   6 C    3.925 --    96 C    2.466    94 C    1.307
    96   6 C    3.918 --    95 C    2.466   280 C    1.188    93 C    0.202
    97   6 C    3.919 --    98 C    2.469   292 C    1.186   100 C    0.203
    98   6 C    3.925 --    97 C    2.469    99 C    1.304
    99   6 C    3.928 --   100 C    2.471    98 C    1.304
   100   6 C    3.917 --    99 C    2.471    41 C    1.183    97 C    0.203
   101  30 Zn   2.076 --   116 N    0.489   125 N    0.489   110 N    0.489
                           122 N    0.489
   102   6 C    3.954 --   103 C    1.648   124 C    1.173   126 H    0.972
   103   6 C    3.955 --   102 C    1.648   104 C    1.181   127 H    0.971
   104   6 C    3.912 --   125 N    1.287   105 C    1.249   103 C    1.181
   105   6 C    3.929 --   106 C    1.250   104 C    1.249    76 C    1.187
   106   6 C    3.912 --   110 N    1.287   105 C    1.250   107 C    1.181
   107   6 C    3.955 --   108 C    1.648   106 C    1.181   128 H    0.971
   108   6 C    3.954 --   107 C    1.648   109 C    1.173   129 H    0.972
   109   6 C    3.923 --   111 C    1.356   110 N    1.245   108 C    1.173
   110   7 N    3.460 --   106 C    1.287   109 C    1.245   101 Zn   0.489
   111   6 C    3.925 --   112 C    1.357   109 C    1.356   130 H    0.964
   112   6 C    3.923 --   111 C    1.357   116 N    1.244   113 C    1.173
   113   6 C    3.954 --   114 C    1.648   112 C    1.173   131 H    0.972
   114   6 C    3.955 --   113 C    1.648   115 C    1.181   132 H    0.971
   115   6 C    3.912 --   116 N    1.288   117 C    1.249   114 C    1.181
   116   7 N    3.460 --   115 C    1.288   112 C    1.244   101 Zn   0.489
   117   6 C    3.929 --   118 C    1.249   115 C    1.249    77 C    1.188
   118   6 C    3.912 --   122 N    1.288   117 C    1.249   119 C    1.181
   119   6 C    3.955 --   120 C    1.648   118 C    1.181   133 H    0.971
   120   6 C    3.954 --   119 C    1.648   121 C    1.173   134 H    0.972
   121   6 C    3.923 --   123 C    1.357   122 N    1.244   120 C    1.173
   122   7 N    3.460 --   118 C    1.288   121 C    1.244   101 Zn   0.489
   123   6 C    3.925 --   121 C    1.357   124 C    1.356   135 H    0.964
   124   6 C    3.923 --   123 C    1.356   125 N    1.245   102 C    1.173
   125   7 N    3.460 --   104 C    1.287   124 C    1.245   101 Zn   0.489
   126   1 H    0.998 --   102 C    0.972
   127   1 H    0.998 --   103 C    0.971
   128   1 H    0.998 --   107 C    0.971
   129   1 H    0.998 --   108 C    0.972
   130   1 H    0.996 --   111 C    0.964
   131   1 H    0.998 --   113 C    0.972
   132   1 H    0.998 --   114 C    0.971
   133   1 H    0.998 --   119 C    0.971
   134   1 H    0.998 --   120 C    0.972
   135   1 H    0.996 --   123 C    0.964
   136  30 Zn   2.076 --   157 N    0.489   145 N    0.489   160 N    0.489
                           151 N    0.489
   137   6 C    3.953 --   138 C    1.648   159 C    1.173   161 H    0.972
   138   6 C    3.955 --   137 C    1.648   139 C    1.181   162 H    0.971
   139   6 C    3.912 --   160 N    1.288   140 C    1.249   138 C    1.181
   140   6 C    3.929 --   139 C    1.249   141 C    1.249    80 C    1.188
   141   6 C    3.912 --   145 N    1.288   140 C    1.249   142 C    1.181
   142   6 C    3.955 --   143 C    1.648   141 C    1.181   163 H    0.971
   143   6 C    3.953 --   142 C    1.648   144 C    1.173   164 H    0.972
   144   6 C    3.923 --   146 C    1.356   145 N    1.245   143 C    1.173
   145   7 N    3.460 --   141 C    1.288   144 C    1.245   136 Zn   0.489
   146   6 C    3.925 --   147 C    1.356   144 C    1.356   165 H    0.964
   147   6 C    3.923 --   146 C    1.356   151 N    1.244   148 C    1.173
   148   6 C    3.954 --   149 C    1.648   147 C    1.173   166 H    0.972
   149   6 C    3.955 --   148 C    1.648   150 C    1.181   167 H    0.971
   150   6 C    3.912 --   151 N    1.288   152 C    1.249   149 C    1.181
   151   7 N    3.460 --   150 C    1.288   147 C    1.244   136 Zn   0.489
   152   6 C    3.929 --   153 C    1.249   150 C    1.249    81 C    1.188
   153   6 C    3.912 --   157 N    1.288   152 C    1.249   154 C    1.181
   154   6 C    3.955 --   155 C    1.648   153 C    1.181   168 H    0.971
   155   6 C    3.954 --   154 C    1.648   156 C    1.173   169 H    0.972
   156   6 C    3.923 --   158 C    1.356   157 N    1.244   155 C    1.173
   157   7 N    3.460 --   153 C    1.288   156 C    1.244   136 Zn   0.489
   158   6 C    3.925 --   156 C    1.356   159 C    1.356   170 H    0.964
   159   6 C    3.923 --   158 C    1.356   160 N    1.245   137 C    1.173
   160   7 N    3.460 --   139 C    1.288   159 C    1.245   136 Zn   0.489
   161   1 H    0.998 --   137 C    0.972
   162   1 H    0.998 --   138 C    0.971
   163   1 H    0.998 --   142 C    0.971
   164   1 H    0.998 --   143 C    0.972
   165   1 H    0.996 --   146 C    0.964
   166   1 H    0.998 --   148 C    0.972
   167   1 H    0.998 --   149 C    0.971
   168   1 H    0.998 --   154 C    0.971
   169   1 H    0.998 --   155 C    0.972
   170   1 H    0.996 --   158 C    0.964
   171  30 Zn   2.076 --   186 N    0.489   195 N    0.489   180 N    0.489
                           192 N    0.489
   172   6 C    3.953 --   173 C    1.648   194 C    1.173   196 H    0.972
   173   6 C    3.955 --   172 C    1.648   174 C    1.181   197 H    0.971
   174   6 C    3.912 --   195 N    1.288   175 C    1.249   173 C    1.181
   175   6 C    3.929 --   176 C    1.249   174 C    1.249    84 C    1.188
   176   6 C    3.912 --   180 N    1.288   175 C    1.249   177 C    1.181
   177   6 C    3.955 --   178 C    1.648   176 C    1.181   198 H    0.971
   178   6 C    3.953 --   177 C    1.648   179 C    1.173   199 H    0.972
   179   6 C    3.923 --   181 C    1.356   180 N    1.245   178 C    1.173
   180   7 N    3.460 --   176 C    1.288   179 C    1.245   171 Zn   0.489
   181   6 C    3.925 --   182 C    1.356   179 C    1.356   200 H    0.964
   182   6 C    3.923 --   181 C    1.356   186 N    1.245   183 C    1.173
   183   6 C    3.954 --   184 C    1.648   182 C    1.173   201 H    0.972
   184   6 C    3.955 --   183 C    1.648   185 C    1.181   202 H    0.971
   185   6 C    3.912 --   186 N    1.288   187 C    1.249   184 C    1.181
   186   7 N    3.460 --   185 C    1.288   182 C    1.245   171 Zn   0.489
   187   6 C    3.929 --   185 C    1.249   188 C    1.249    85 C    1.188
   188   6 C    3.912 --   192 N    1.288   187 C    1.249   189 C    1.181
   189   6 C    3.955 --   190 C    1.648   188 C    1.181   203 H    0.971
   190   6 C    3.954 --   189 C    1.648   191 C    1.173   204 H    0.972
   191   6 C    3.923 --   193 C    1.356   192 N    1.245   190 C    1.173
   192   7 N    3.460 --   188 C    1.288   191 C    1.245   171 Zn   0.489
   193   6 C    3.925 --   191 C    1.356   194 C    1.356   205 H    0.964
   194   6 C    3.923 --   193 C    1.356   195 N    1.245   172 C    1.173
   195   7 N    3.460 --   174 C    1.288   194 C    1.245   171 Zn   0.489
   196   1 H    0.998 --   172 C    0.972
   197   1 H    0.998 --   173 C    0.971
   198   1 H    0.998 --   177 C    0.971
   199   1 H    0.998 --   178 C    0.972
   200   1 H    0.996 --   181 C    0.964
   201   1 H    0.998 --   183 C    0.972
   202   1 H    0.998 --   184 C    0.971
   203   1 H    0.998 --   189 C    0.971
   204   1 H    0.998 --   190 C    0.972
   205   1 H    0.996 --   193 C    0.964
   206  30 Zn   2.076 --   230 N    0.489   221 N    0.489   227 N    0.489
                           215 N    0.489
   207   6 C    3.954 --   208 C    1.648   229 C    1.173   231 H    0.972
   208   6 C    3.955 --   207 C    1.648   209 C    1.181   232 H    0.971
   209   6 C    3.912 --   230 N    1.288   210 C    1.249   208 C    1.181
   210   6 C    3.929 --   209 C    1.249   211 C    1.249    88 C    1.188
   211   6 C    3.912 --   215 N    1.288   210 C    1.249   212 C    1.181
   212   6 C    3.955 --   213 C    1.648   211 C    1.181   233 H    0.971
   213   6 C    3.954 --   212 C    1.648   214 C    1.173   234 H    0.972
   214   6 C    3.923 --   216 C    1.356   215 N    1.245   213 C    1.173
   215   7 N    3.460 --   211 C    1.288   214 C    1.245   206 Zn   0.489
   216   6 C    3.925 --   214 C    1.356   217 C    1.356   235 H    0.964
   217   6 C    3.923 --   216 C    1.356   221 N    1.245   218 C    1.173
   218   6 C    3.953 --   219 C    1.648   217 C    1.173   236 H    0.972
   219   6 C    3.955 --   218 C    1.648   220 C    1.181   237 H    0.971
   220   6 C    3.912 --   221 N    1.288   222 C    1.249   219 C    1.181
   221   7 N    3.460 --   220 C    1.288   217 C    1.245   206 Zn   0.489
   222   6 C    3.929 --   220 C    1.249   223 C    1.249    89 C    1.188
   223   6 C    3.912 --   227 N    1.288   222 C    1.249   224 C    1.181
   224   6 C    3.955 --   225 C    1.648   223 C    1.181   238 H    0.971
   225   6 C    3.953 --   224 C    1.648   226 C    1.173   239 H    0.972
   226   6 C    3.923 --   228 C    1.356   227 N    1.245   225 C    1.173
   227   7 N    3.460 --   223 C    1.288   226 C    1.245   206 Zn   0.489
   228   6 C    3.925 --   229 C    1.356   226 C    1.356   240 H    0.964
   229   6 C    3.923 --   228 C    1.356   230 N    1.245   207 C    1.173
   230   7 N    3.460 --   209 C    1.288   229 C    1.245   206 Zn   0.489
   231   1 H    0.998 --   207 C    0.972
   232   1 H    0.998 --   208 C    0.971
   233   1 H    0.998 --   212 C    0.971
   234   1 H    0.998 --   213 C    0.972
   235   1 H    0.996 --   216 C    0.964
   236   1 H    0.998 --   218 C    0.972
   237   1 H    0.998 --   219 C    0.971
   238   1 H    0.998 --   224 C    0.971
   239   1 H    0.998 --   225 C    0.972
   240   1 H    0.996 --   228 C    0.964
   241  30 Zn   2.076 --   250 N    0.489   256 N    0.489   262 N    0.489
                           265 N    0.489
   242   6 C    3.954 --   243 C    1.648   264 C    1.173   266 H    0.972
   243   6 C    3.955 --   242 C    1.648   244 C    1.181   267 H    0.971
   244   6 C    3.912 --   265 N    1.288   245 C    1.249   243 C    1.181
   245   6 C    3.929 --   246 C    1.249   244 C    1.249    92 C    1.188
   246   6 C    3.912 --   250 N    1.288   245 C    1.249   247 C    1.181
   247   6 C    3.955 --   248 C    1.648   246 C    1.181   268 H    0.971
   248   6 C    3.954 --   247 C    1.648   249 C    1.173   269 H    0.972
   249   6 C    3.923 --   251 C    1.356   250 N    1.244   248 C    1.173
   250   7 N    3.460 --   246 C    1.288   249 C    1.244   241 Zn   0.489
   251   6 C    3.925 --   249 C    1.356   252 C    1.356   270 H    0.964
   252   6 C    3.923 --   251 C    1.356   256 N    1.245   253 C    1.173
   253   6 C    3.953 --   254 C    1.648   252 C    1.173   271 H    0.972
   254   6 C    3.955 --   253 C    1.648   255 C    1.181   272 H    0.971
   255   6 C    3.912 --   256 N    1.288   257 C    1.249   254 C    1.181
   256   7 N    3.460 --   255 C    1.288   252 C    1.245   241 Zn   0.489
   257   6 C    3.929 --   255 C    1.249   258 C    1.249    93 C    1.188
   258   6 C    3.912 --   262 N    1.288   257 C    1.249   259 C    1.181
   259   6 C    3.955 --   260 C    1.648   258 C    1.181   273 H    0.971
   260   6 C    3.953 --   259 C    1.648   261 C    1.173   274 H    0.972
   261   6 C    3.923 --   263 C    1.356   262 N    1.245   260 C    1.173
   262   7 N    3.460 --   258 C    1.288   261 C    1.245   241 Zn   0.489
   263   6 C    3.925 --   264 C    1.356   261 C    1.356   275 H    0.964
   264   6 C    3.923 --   263 C    1.356   265 N    1.244   242 C    1.173
   265   7 N    3.460 --   244 C    1.288   264 C    1.244   241 Zn   0.489
   266   1 H    0.998 --   242 C    0.972
   267   1 H    0.998 --   243 C    0.971
   268   1 H    0.998 --   247 C    0.971
   269   1 H    0.998 --   248 C    0.972
   270   1 H    0.996 --   251 C    0.964
   271   1 H    0.998 --   253 C    0.972
   272   1 H    0.998 --   254 C    0.971
   273   1 H    0.998 --   259 C    0.971
   274   1 H    0.998 --   260 C    0.972
   275   1 H    0.996 --   263 C    0.964
   276  30 Zn   2.076 --   300 N    0.489   291 N    0.489   285 N    0.489
                           297 N    0.489
   277   6 C    3.954 --   278 C    1.648   299 C    1.173   301 H    0.972
   278   6 C    3.955 --   277 C    1.648   279 C    1.181   302 H    0.971
   279   6 C    3.912 --   300 N    1.288   280 C    1.249   278 C    1.181
   280   6 C    3.929 --   281 C    1.249   279 C    1.249    96 C    1.188
   281   6 C    3.912 --   285 N    1.288   280 C    1.249   282 C    1.181
   282   6 C    3.955 --   283 C    1.648   281 C    1.181   303 H    0.971
   283   6 C    3.954 --   282 C    1.648   284 C    1.173   304 H    0.972
   284   6 C    3.923 --   286 C    1.357   285 N    1.244   283 C    1.173
   285   7 N    3.460 --   281 C    1.288   284 C    1.244   276 Zn   0.489
   286   6 C    3.925 --   284 C    1.357   287 C    1.356   305 H    0.964
   287   6 C    3.923 --   286 C    1.356   291 N    1.245   288 C    1.173
   288   6 C    3.954 --   289 C    1.648   287 C    1.173   306 H    0.972
   289   6 C    3.955 --   288 C    1.648   290 C    1.181   307 H    0.971
   290   6 C    3.912 --   291 N    1.287   292 C    1.250   289 C    1.181
   291   7 N    3.460 --   290 C    1.287   287 C    1.245   276 Zn   0.489
   292   6 C    3.929 --   293 C    1.250   290 C    1.250    97 C    1.186
   293   6 C    3.912 --   297 N    1.287   292 C    1.250   294 C    1.181
   294   6 C    3.955 --   295 C    1.648   293 C    1.181   308 H    0.971
   295   6 C    3.954 --   294 C    1.648   296 C    1.173   309 H    0.972
   296   6 C    3.923 --   298 C    1.356   297 N    1.245   295 C    1.173
   297   7 N    3.460 --   293 C    1.287   296 C    1.245   276 Zn   0.489
   298   6 C    3.925 --   299 C    1.357   296 C    1.356   310 H    0.964
   299   6 C    3.923 --   298 C    1.357   300 N    1.244   277 C    1.173
   300   7 N    3.460 --   279 C    1.288   299 C    1.244   276 Zn   0.489
   301   1 H    0.998 --   277 C    0.972
   302   1 H    0.998 --   278 C    0.971
   303   1 H    0.998 --   282 C    0.971
   304   1 H    0.998 --   283 C    0.972
   305   1 H    0.996 --   286 C    0.964
   306   1 H    0.998 --   288 C    0.972
   307   1 H    0.998 --   289 C    0.971
   308   1 H    0.998 --   294 C    0.971
   309   1 H    0.998 --   295 C    0.972
   310   1 H    0.996 --   298 C    0.964
 ---------------------------------------------------------------------------

Topologies differ in total number of bonds
Writing topology from bond orders to xtbtopo.mol

molecular dipole:
                 x           y           z       tot (Debye)
 q only:        0.000      -0.001      -0.002
   full:        0.000      -0.001      -0.004       0.010
molecular quadrupole (traceless):
                xx          xy          yy          xz          yz          zz
 q only:      136.097       0.459     -20.841      -0.477      -6.351    -115.256
  q+dip:      241.145       0.634       0.253      -0.913     -16.106    -241.399
   full:      173.336       0.611     -21.210      -0.896      -8.793    -152.126


           -------------------------------------------------
          | TOTAL ENERGY             -542.419585393961 Eh   |
          | GRADIENT NORM               0.000982227673 Eh/α |
          | HOMO-LUMO GAP               0.827357892901 eV   |
           -------------------------------------------------

------------------------------------------------------------------------
 * finished run on 2021/11/21 at 21:24:18.920     
------------------------------------------------------------------------
 total:
 * wall-time:     0 d,  0 h,  0 min,  5.944 sec
 *  cpu-time:     0 d,  0 h,  0 min,  5.944 sec
 * ratio c/w:     1.000 speedup
 SCF:
 * wall-time:     0 d,  0 h,  0 min,  5.754 sec
 *  cpu-time:     0 d,  0 h,  0 min,  5.754 sec
 * ratio c/w:     1.000 speedup

