      -----------------------------------------------------------      
     |                   =====================                   |     
     |                           x T B                           |     
     |                   =====================                   |     
     |                         S. Grimme                         |     
     |          Mulliken Center for Theoretical Chemistry        |     
     |                    University of Bonn                     |     
      -----------------------------------------------------------      

   * xtb version 6.4.1 (bd6e46d) compiled by 'conda@4901f00b25ba' on 2021-06-10

   xtb is free software: you can redistribute it and/or modify it under
   the terms of the GNU Lesser General Public License as published by
   the Free Software Foundation, either version 3 of the License, or
   (at your option) any later version.
   
   xtb is distributed in the hope that it will be useful,
   but WITHOUT ANY WARRANTY; without even the implied warranty of
   MERCHANTABILITY or FITNESS FOR A PARTICULAR PURPOSE.  See the
   GNU Lesser General Public License for more details.
   
   Cite this work as:
   * C. Bannwarth, E. Caldeweyher, S. Ehlert, A. Hansen, P. Pracht,
     J. Seibert, S. Spicher, S. Grimme, WIREs Comput. Mol. Sci., 2020, 11,
     e01493. DOI: 10.1002/wcms.1493
   
   for GFN2-xTB:
   * C. Bannwarth, S. Ehlert and S. Grimme., J. Chem. Theory Comput., 2019,
     15, 1652-1671. DOI: 10.1021/acs.jctc.8b01176
   for GFN1-xTB:
   * S. Grimme, C. Bannwarth, P. Shushkov, J. Chem. Theory Comput., 2017,
     13, 1989-2009. DOI: 10.1021/acs.jctc.7b00118
   for GFN0-xTB:
   * P. Pracht, E. Caldeweyher, S. Ehlert, S. Grimme, ChemRxiv, 2019, preprint.
     DOI: 10.26434/chemrxiv.8326202.v1
   for GFN-FF:
   * S. Spicher and S. Grimme, Angew. Chem. Int. Ed., 2020, 59, 15665-15673.
     DOI: 10.1002/anie.202004239
   
   for DFT-D4:
   * E. Caldeweyher, C. Bannwarth and S. Grimme, J. Chem. Phys., 2017,
     147, 034112. DOI: 10.1063/1.4993215
   * E. Caldeweyher, S. Ehlert, A. Hansen, H. Neugebauer, S. Spicher,
     C. Bannwarth and S. Grimme, J. Chem. Phys., 2019, 150, 154122.
     DOI: 10.1063/1.5090222
   * E. Caldeweyher, J.-M. Mewes, S. Ehlert and S. Grimme, Phys. Chem. Chem. Phys.
     2020, 22, 8499-8512. DOI: 10.1039/D0CP00502A
   
   for sTDA-xTB:
   * S. Grimme and C. Bannwarth, J. Chem. Phys., 2016, 145, 054103.
     DOI: 10.1063/1.4959605
   
   in the mass-spec context:
   * V. Asgeirsson, C. Bauer and S. Grimme, Chem. Sci., 2017, 8, 4879.
     DOI: 10.1039/c7sc00601b
   * J. Koopman and S. Grimme, ACS Omega 2019, 4, 12, 15120-15133.
     DOI: 10.1021/acsomega.9b02011
   
   for metadynamics refer to:
   * S. Grimme, J. Chem. Theory Comput., 2019, 155, 2847-2862
     DOI: 10.1021/acs.jctc.9b00143
   
   for SPH calculations refer to:
   * S. Spicher and S. Grimme, J. Chem. Theory Comput., 2021, 17, 1701-1714
     DOI: 10.1021/acs.jctc.0c01306
   
   with help from (in alphabetical order)
   P. Atkinson, C. Bannwarth, F. Bohle, G. Brandenburg, E. Caldeweyher
   M. Checinski, S. Dohm, S. Ehlert, S. Ehrlich, I. Gerasimov, J. Koopman
   C. Lavigne, S. Lehtola, F. März, M. Müller, F. Musil, H. Neugebauer
   J. Pisarek, C. Plett, P. Pracht, J. Seibert, P. Shushkov, S. Spicher
   M. Stahn, M. Steiner, T. Strunk, J. Stückrath, T. Rose, and J. Unsleber
   
 * started run on 2021/11/21 at 19:15:27.312     

           -------------------------------------------------
          |                Calculation Setup                |
           -------------------------------------------------

          program call               : /home/jeff/miniconda3/bin/xtb /home/jeff/chem/final-year-proejct/free_base/_6_6_outenergy/input_structure.xyz --gfn 2 --parallel 1 --etemp 300 --chrg 0 --uhf 0 -I det_control.in
          coordinate file            : /home/jeff/chem/final-year-proejct/free_base/_6_6_outenergy/input_structure.xyz
          omp threads                :                     1
          number of atoms            :                   248
          number of electrons        :                   794
          charge                     :                     0
          spin                       :                   0.0
          first test random number   :      0.37409616626273

   ID    Z sym.   atoms
    1    6 C      1-8, 10-14, 16-20, 22, 23, 38-45, 47-51, 53-57, 59, 60,
                  75-112, 114-118, 120-124, 126, 127, 141-148, 150-154,
                  156-160, 162, 163, 177-184, 186-190, 192-196, 198, 199,
                  213-220, 222-226, 228-232, 234, 235
    2    7 N      9, 15, 21, 24, 46, 52, 58, 61, 113, 119, 125, 128, 149,
                  155, 161, 164, 185, 191, 197, 200, 221, 227, 233, 236
    3    1 H      25-37, 62-74, 129-140, 165-176, 201-212, 237-248

           -------------------------------------------------
          |                 G F N 2 - x T B                 |
           -------------------------------------------------

        Reference                      10.1021/acs.jctc.8b01176
      * Hamiltonian:
        H0-scaling (s, p, d)           1.850000    2.230000    2.230000
        zeta-weighting                 0.500000
      * Dispersion:
        s8                             2.700000
        a1                             0.520000
        a2                             5.000000
        s9                             5.000000
      * Repulsion:
        kExp                           1.500000    1.000000
        rExp                           1.000000
      * Coulomb:
        alpha                          2.000000
        third order                    shell-resolved
        anisotropic                    true
        a3                             3.000000
        a5                             4.000000
        cn-shift                       1.200000
        cn-exp                         4.000000
        max-rad                        5.000000


          ...................................................
          :                      SETUP                      :
          :.................................................:
          :  # basis functions                 770          :
          :  # atomic orbitals                 770          :
          :  # shells                          422          :
          :  # electrons                       794          :
          :  max. iterations                   250          :
          :  Hamiltonian                  GFN2-xTB          :
          :  restarted?                      false          :
          :  GBSA solvation                  false          :
          :  PC potential                    false          :
          :  electronic temp.          300.0000000     K    :
          :  accuracy                    1.0000000          :
          :  -> integral cutoff          0.2500000E+02      :
          :  -> integral neglect         0.1000000E-07      :
          :  -> SCF convergence          0.1000000E-05 Eh   :
          :  -> wf. convergence          0.1000000E-03 e    :
          :  Broyden damping             0.4000000          :
          ...................................................

 iter      E             dE          RMSdq      gap      omega  full diag
   1   -436.0297944 -0.436030E+03  0.614E+00    0.55       0.0  T
   2   -436.6326103 -0.602816E+00  0.390E+00    0.78       1.0  T
   3   -436.4082697  0.224341E+00  0.155E+00    0.61       1.0  T
   4   -436.6477083 -0.239439E+00  0.576E-01    0.78       1.0  T
   5   -436.7465921 -0.988837E-01  0.198E-01    0.77       1.0  T
   6   -436.7583146 -0.117225E-01  0.892E-02    0.77       1.0  T
   7   -436.7593186 -0.100396E-02  0.588E-02    0.77       1.0  T
   8   -436.7600749 -0.756365E-03  0.236E-02    0.77       1.0  T
   9   -436.7601721 -0.972287E-04  0.124E-02    0.77       1.0  T
  10   -436.7601877 -0.155998E-04  0.698E-03    0.77       1.0  T
  11   -436.7602035 -0.157512E-04  0.213E-03    0.77       3.0  T
  12   -436.7602048 -0.127196E-05  0.107E-03    0.77       6.0  T
  13   -436.7602050 -0.251952E-06  0.483E-04    0.77      13.2  T
  14   -436.7602050 -0.167624E-07  0.310E-04    0.77      20.5  T

   *** convergence criteria satisfied after 14 iterations ***

         #    Occupation            Energy/Eh            Energy/eV
      -------------------------------------------------------------
         1        2.0000           -0.6862425             -18.6736
       ...           ...                  ...                  ...
       391        2.0000           -0.3694607             -10.0535
       392        2.0000           -0.3643222              -9.9137
       393        2.0000           -0.3615087              -9.8372
       394        2.0000           -0.3574364              -9.7263
       395        2.0000           -0.3528318              -9.6010
       396        2.0000           -0.3485318              -9.4840
       397        2.0000           -0.3455875              -9.4039 (HOMO)
       398        0.0000           -0.3173154              -8.6346 (LUMO)
       399                         -0.3135716              -8.5327
       400                         -0.3088777              -8.4050
       401                         -0.3040150              -8.2727
       402                         -0.3003789              -8.1737
       ...                                ...                  ...
       770                          1.7161304              46.6983
      -------------------------------------------------------------
                  HL-Gap            0.0282720 Eh            0.7693 eV
             Fermi-level           -0.3314395 Eh           -9.0189 eV

 SCC (total)                   0 d,  0 h,  0 min,  3.044 sec
 SCC setup                      ...        0 min,  0.010 sec (  0.326%)
 Dispersion                     ...        0 min,  0.021 sec (  0.703%)
 classical contributions        ...        0 min,  0.002 sec (  0.061%)
 integral evaluation            ...        0 min,  0.156 sec (  5.113%)
 iterations                     ...        0 min,  2.431 sec ( 79.863%)
 molecular gradient             ...        0 min,  0.401 sec ( 13.185%)
 printout                       ...        0 min,  0.023 sec (  0.748%)

         :::::::::::::::::::::::::::::::::::::::::::::::::::::
         ::                     SUMMARY                     ::
         :::::::::::::::::::::::::::::::::::::::::::::::::::::
         :: total energy            -428.248094165907 Eh    ::
         :: gradient norm              0.000659668843 Eh/a0 ::
         :: HOMO-LUMO gap              0.769321583218 eV    ::
         ::.................................................::
         :: SCC energy              -436.760205038006 Eh    ::
         :: -> isotropic ES            0.203814368561 Eh    ::
         :: -> anisotropic ES         -0.020970652917 Eh    ::
         :: -> anisotropic XC          0.319112591372 Eh    ::
         :: -> dispersion             -0.346601173307 Eh    ::
         :: repulsion energy           8.518102426042 Eh    ::
         :: add. restraining           0.000000000000 Eh    ::
         :: total charge               0.000000000001 e     ::
         :::::::::::::::::::::::::::::::::::::::::::::::::::::

           -------------------------------------------------
          |                Property Printout                |
           -------------------------------------------------

    * Orbital Energies and Occupations

         #    Occupation            Energy/Eh            Energy/eV
      -------------------------------------------------------------
         1        2.0000           -0.6862425             -18.6736
       ...           ...                  ...                  ...
       385        2.0000           -0.3719801             -10.1221
       386        2.0000           -0.3713005             -10.1036
       387        2.0000           -0.3712693             -10.1028
       388        2.0000           -0.3709904             -10.0952
       389        2.0000           -0.3709823             -10.0949
       390        2.0000           -0.3694736             -10.0539
       391        2.0000           -0.3694607             -10.0535
       392        2.0000           -0.3643222              -9.9137
       393        2.0000           -0.3615087              -9.8372
       394        2.0000           -0.3574364              -9.7263
       395        2.0000           -0.3528318              -9.6010
       396        2.0000           -0.3485318              -9.4840
       397        2.0000           -0.3455875              -9.4039 (HOMO)
       398        0.0000           -0.3173154              -8.6346 (LUMO)
       399                         -0.3135716              -8.5327
       400                         -0.3088777              -8.4050
       401                         -0.3040150              -8.2727
       402                         -0.3003789              -8.1737
       403                         -0.3000498              -8.1648
       404                         -0.2996941              -8.1551
       405                         -0.2995017              -8.1499
       406                         -0.2990025              -8.1363
       407                         -0.2984237              -8.1205
       408                         -0.2977086              -8.1011
       ...                                ...                  ...
       770                          1.7161304              46.6983
      -------------------------------------------------------------
                  HL-Gap            0.0282720 Eh            0.7693 eV
             Fermi-level           -0.3314395 Eh           -9.0189 eV

     #   Z          covCN         q      C6AA      α(0)
     1   6 C        3.016    -0.055    29.335     8.884
     2   6 C        3.009    -0.053    29.300     8.879
     3   6 C        3.196     0.087    25.560     8.242
     4   6 C        2.952     0.011    27.762     8.642
     5   6 C        3.097     0.064    26.447     8.428
     6   6 C        3.026    -0.050    29.211     8.865
     7   6 C        3.034    -0.052    29.249     8.871
     8   6 C        3.073     0.064    26.485     8.438
     9   7 N        2.785    -0.081    22.816     7.094
    10   6 C        2.899    -0.055    29.362     8.885
    11   6 C        3.171     0.087    25.715     8.284
    12   6 C        3.012    -0.054    29.314     8.881
    13   6 C        3.010    -0.054    29.316     8.882
    14   6 C        3.174     0.087    25.705     8.280
    15   7 N        1.870    -0.321    29.169     8.006
    16   6 C        2.899    -0.057    29.404     8.891
    17   6 C        3.074     0.065    26.467     8.435
    18   6 C        3.026    -0.051    29.237     8.869
    19   6 C        3.031    -0.051    29.229     8.868
    20   6 C        3.069     0.066    26.460     8.435
    21   7 N        2.787    -0.081    22.810     7.093
    22   6 C        2.899    -0.055    29.362     8.885
    23   6 C        3.175     0.086    25.718     8.282
    24   7 N        1.870    -0.325    29.279     8.021
    25   1 H        0.926     0.019     2.752     2.594
    26   1 H        0.926     0.021     2.714     2.576
    27   1 H        0.926     0.043     2.404     2.425
    28   1 H        0.926     0.042     2.428     2.437
    29   1 H        0.860     0.214     1.037     1.595
    30   1 H        0.925     0.047     2.356     2.400
    31   1 H        0.926     0.020     2.739     2.588
    32   1 H        0.926     0.020     2.738     2.588
    33   1 H        0.926     0.046     2.366     2.405
    34   1 H        0.926     0.042     2.421     2.433
    35   1 H        0.926     0.042     2.421     2.433
    36   1 H        0.860     0.214     1.035     1.594
    37   1 H        0.925     0.047     2.355     2.400
    38   6 C        3.016    -0.055    29.335     8.884
    39   6 C        3.009    -0.053    29.300     8.879
    40   6 C        3.196     0.087    25.560     8.242
    41   6 C        2.952     0.011    27.762     8.642
    42   6 C        3.097     0.064    26.448     8.428
    43   6 C        3.026    -0.050    29.212     8.865
    44   6 C        3.034    -0.052    29.249     8.871
    45   6 C        3.073     0.064    26.485     8.438
    46   7 N        2.785    -0.081    22.816     7.094
    47   6 C        2.899    -0.055    29.361     8.884
    48   6 C        3.171     0.087    25.715     8.284
    49   6 C        3.012    -0.054    29.314     8.881
    50   6 C        3.010    -0.054    29.316     8.882
    51   6 C        3.174     0.087    25.704     8.280
    52   7 N        1.870    -0.321    29.169     8.006
    53   6 C        2.899    -0.057    29.404     8.891
    54   6 C        3.074     0.065    26.468     8.435
    55   6 C        3.026    -0.051    29.237     8.869
    56   6 C        3.031    -0.051    29.229     8.868
    57   6 C        3.069     0.066    26.460     8.435
    58   7 N        2.787    -0.081    22.810     7.093
    59   6 C        2.899    -0.055    29.362     8.885
    60   6 C        3.175     0.086    25.719     8.282
    61   7 N        1.870    -0.325    29.279     8.021
    62   1 H        0.926     0.019     2.752     2.594
    63   1 H        0.926     0.021     2.714     2.576
    64   1 H        0.926     0.043     2.404     2.425
    65   1 H        0.926     0.042     2.428     2.437
    66   1 H        0.860     0.214     1.037     1.595
    67   1 H        0.925     0.047     2.356     2.400
    68   1 H        0.926     0.020     2.739     2.588
    69   1 H        0.926     0.020     2.738     2.588
    70   1 H        0.926     0.046     2.366     2.405
    71   1 H        0.926     0.042     2.421     2.433
    72   1 H        0.926     0.042     2.421     2.433
    73   1 H        0.860     0.214     1.035     1.594
    74   1 H        0.925     0.047     2.355     2.400
    75   6 C        1.996    -0.020    31.577     9.075
    76   6 C        1.963    -0.012    31.387     9.047
    77   6 C        1.965    -0.003    31.148     9.013
    78   6 C        1.965    -0.004    31.170     9.016
    79   6 C        1.964    -0.011    31.361     9.044
    80   6 C        1.995    -0.021    31.601     9.078
    81   6 C        1.995    -0.020    31.583     9.076
    82   6 C        1.964    -0.011    31.368     9.045
    83   6 C        1.965    -0.003    31.149     9.013
    84   6 C        1.965    -0.003    31.155     9.014
    85   6 C        1.964    -0.011    31.362     9.044
    86   6 C        1.995    -0.021    31.589     9.077
    87   6 C        1.995    -0.020    31.585     9.076
    88   6 C        1.964    -0.011    31.363     9.044
    89   6 C        1.965    -0.003    31.151     9.013
    90   6 C        1.965    -0.003    31.151     9.013
    91   6 C        1.964    -0.011    31.364     9.044
    92   6 C        1.995    -0.020    31.584     9.076
    93   6 C        1.995    -0.021    31.589     9.077
    94   6 C        1.964    -0.011    31.362     9.044
    95   6 C        1.965    -0.003    31.155     9.014
    96   6 C        1.965    -0.003    31.149     9.013
    97   6 C        1.964    -0.011    31.368     9.045
    98   6 C        1.995    -0.020    31.583     9.076
    99   6 C        1.994    -0.021    31.602     9.078
   100   6 C        1.964    -0.011    31.360     9.043
   101   6 C        1.965    -0.004    31.170     9.016
   102   6 C        1.965    -0.003    31.149     9.013
   103   6 C        1.963    -0.012    31.387     9.047
   104   6 C        1.996    -0.020    31.578     9.075
   105   6 C        3.017    -0.054    29.328     8.883
   106   6 C        3.009    -0.053    29.297     8.879
   107   6 C        3.197     0.087    25.558     8.241
   108   6 C        2.952     0.012    27.747     8.640
   109   6 C        3.100     0.064    26.453     8.428
   110   6 C        3.025    -0.050    29.217     8.866
   111   6 C        3.036    -0.052    29.247     8.870
   112   6 C        3.073     0.064    26.490     8.439
   113   7 N        2.786    -0.081    22.816     7.094
   114   6 C        2.899    -0.053    29.306     8.876
   115   6 C        3.174     0.085    25.729     8.284
   116   6 C        3.017    -0.054    29.327     8.883
   117   6 C        3.009    -0.053    29.298     8.879
   118   6 C        3.197     0.087    25.554     8.240
   119   7 N        1.870    -0.324    29.258     8.018
   120   6 C        2.952     0.012    27.758     8.641
   121   6 C        3.100     0.064    26.452     8.428
   122   6 C        3.025    -0.050    29.219     8.867
   123   6 C        3.037    -0.052    29.246     8.870
   124   6 C        3.073     0.064    26.491     8.439
   125   7 N        2.786    -0.081    22.819     7.095
   126   6 C        2.899    -0.053    29.304     8.876
   127   6 C        3.174     0.085    25.730     8.285
   128   7 N        1.870    -0.324    29.254     8.017
   129   1 H        0.926     0.019     2.748     2.592
   130   1 H        0.926     0.021     2.712     2.575
   131   1 H        0.926     0.043     2.405     2.425
   132   1 H        0.926     0.041     2.429     2.437
   133   1 H        0.860     0.214     1.035     1.594
   134   1 H        0.925     0.048     2.345     2.395
   135   1 H        0.926     0.019     2.748     2.592
   136   1 H        0.926     0.021     2.713     2.576
   137   1 H        0.926     0.043     2.407     2.426
   138   1 H        0.926     0.041     2.429     2.437
   139   1 H        0.860     0.214     1.035     1.594
   140   1 H        0.925     0.048     2.345     2.395
   141   6 C        3.017    -0.054    29.327     8.883
   142   6 C        3.009    -0.053    29.298     8.879
   143   6 C        3.197     0.087    25.554     8.240
   144   6 C        2.952     0.012    27.751     8.640
   145   6 C        3.100     0.064    26.451     8.428
   146   6 C        3.025    -0.050    29.218     8.866
   147   6 C        3.036    -0.052    29.246     8.870
   148   6 C        3.073     0.064    26.490     8.439
   149   7 N        2.786    -0.081    22.816     7.094
   150   6 C        2.899    -0.052    29.302     8.876
   151   6 C        3.174     0.085    25.729     8.284
   152   6 C        3.017    -0.054    29.327     8.883
   153   6 C        3.009    -0.053    29.298     8.879
   154   6 C        3.197     0.087    25.554     8.240
   155   7 N        1.870    -0.324    29.254     8.017
   156   6 C        2.952     0.012    27.753     8.641
   157   6 C        3.100     0.064    26.450     8.428
   158   6 C        3.025    -0.050    29.218     8.866
   159   6 C        3.036    -0.052    29.246     8.870
   160   6 C        3.073     0.064    26.490     8.439
   161   7 N        2.786    -0.081    22.816     7.094
   162   6 C        2.899    -0.052    29.302     8.876
   163   6 C        3.174     0.085    25.729     8.284
   164   7 N        1.870    -0.324    29.254     8.017
   165   1 H        0.926     0.019     2.746     2.591
   166   1 H        0.926     0.021     2.712     2.575
   167   1 H        0.926     0.043     2.405     2.425
   168   1 H        0.926     0.042     2.428     2.437
   169   1 H        0.860     0.214     1.035     1.594
   170   1 H        0.925     0.048     2.344     2.394
   171   1 H        0.926     0.019     2.746     2.591
   172   1 H        0.926     0.021     2.712     2.575
   173   1 H        0.926     0.043     2.406     2.425
   174   1 H        0.926     0.042     2.428     2.437
   175   1 H        0.860     0.214     1.035     1.594
   176   1 H        0.925     0.048     2.343     2.394
   177   6 C        3.017    -0.054    29.327     8.883
   178   6 C        3.009    -0.053    29.298     8.879
   179   6 C        3.197     0.087    25.554     8.240
   180   6 C        2.952     0.012    27.753     8.641
   181   6 C        3.100     0.064    26.451     8.428
   182   6 C        3.025    -0.050    29.218     8.867
   183   6 C        3.036    -0.052    29.245     8.870
   184   6 C        3.073     0.064    26.490     8.439
   185   7 N        2.786    -0.081    22.816     7.094
   186   6 C        2.899    -0.052    29.302     8.876
   187   6 C        3.174     0.085    25.729     8.284
   188   6 C        3.017    -0.054    29.327     8.883
   189   6 C        3.009    -0.053    29.298     8.879
   190   6 C        3.197     0.087    25.555     8.240
   191   7 N        1.870    -0.324    29.253     8.017
   192   6 C        2.952     0.012    27.751     8.640
   193   6 C        3.100     0.064    26.451     8.428
   194   6 C        3.025    -0.050    29.218     8.866
   195   6 C        3.036    -0.052    29.246     8.870
   196   6 C        3.073     0.064    26.490     8.439
   197   7 N        2.786    -0.081    22.816     7.094
   198   6 C        2.899    -0.052    29.302     8.876
   199   6 C        3.174     0.085    25.729     8.284
   200   7 N        1.870    -0.324    29.254     8.017
   201   1 H        0.926     0.019     2.746     2.592
   202   1 H        0.926     0.021     2.712     2.575
   203   1 H        0.926     0.043     2.406     2.425
   204   1 H        0.926     0.042     2.428     2.437
   205   1 H        0.860     0.214     1.035     1.594
   206   1 H        0.925     0.048     2.343     2.394
   207   1 H        0.926     0.019     2.746     2.592
   208   1 H        0.926     0.021     2.712     2.575
   209   1 H        0.926     0.043     2.405     2.425
   210   1 H        0.926     0.042     2.428     2.437
   211   1 H        0.860     0.214     1.035     1.594
   212   1 H        0.925     0.048     2.344     2.394
   213   6 C        3.017    -0.054    29.327     8.883
   214   6 C        3.009    -0.053    29.298     8.879
   215   6 C        3.197     0.087    25.555     8.240
   216   6 C        2.952     0.012    27.758     8.641
   217   6 C        3.100     0.064    26.451     8.428
   218   6 C        3.025    -0.050    29.220     8.867
   219   6 C        3.036    -0.052    29.246     8.870
   220   6 C        3.073     0.064    26.491     8.439
   221   7 N        2.786    -0.081    22.819     7.095
   222   6 C        2.899    -0.053    29.304     8.876
   223   6 C        3.174     0.085    25.731     8.285
   224   6 C        3.017    -0.054    29.328     8.883
   225   6 C        3.009    -0.053    29.297     8.879
   226   6 C        3.197     0.087    25.559     8.241
   227   7 N        1.870    -0.324    29.254     8.017
   228   6 C        2.952     0.012    27.747     8.640
   229   6 C        3.100     0.064    26.453     8.429
   230   6 C        3.025    -0.050    29.217     8.866
   231   6 C        3.036    -0.052    29.247     8.870
   232   6 C        3.073     0.064    26.489     8.439
   233   7 N        2.786    -0.081    22.817     7.094
   234   6 C        2.899    -0.053    29.305     8.876
   235   6 C        3.174     0.085    25.730     8.285
   236   7 N        1.870    -0.324    29.257     8.018
   237   1 H        0.926     0.019     2.748     2.592
   238   1 H        0.926     0.021     2.713     2.576
   239   1 H        0.926     0.043     2.407     2.426
   240   1 H        0.926     0.041     2.429     2.437
   241   1 H        0.860     0.214     1.035     1.594
   242   1 H        0.925     0.048     2.345     2.395
   243   1 H        0.926     0.019     2.748     2.592
   244   1 H        0.926     0.021     2.712     2.575
   245   1 H        0.926     0.043     2.406     2.425
   246   1 H        0.926     0.041     2.429     2.437
   247   1 H        0.860     0.214     1.035     1.594
   248   1 H        0.925     0.048     2.345     2.395

 Mol. C6AA /au·bohr⁶  :    1068187.607426
 Mol. C8AA /au·bohr⁸  :   27721754.944223
 Mol. α(0) /au        :       1663.257388


Wiberg/Mayer (AO) data.
largest (>0.10) Wiberg bond orders for each atom

 ---------------------------------------------------------------------------
     #   Z sym  total        # sym  WBO       # sym  WBO       # sym  WBO
 ---------------------------------------------------------------------------
     1   6 C    3.960 --     2 C    1.717    23 C    1.115    25 H    0.973
     2   6 C    3.961 --     1 C    1.717     3 C    1.122    26 H    0.971
     3   6 C    3.915 --    24 N    1.362     4 C    1.242     2 C    1.122
     4   6 C    3.940 --     5 C    1.247     3 C    1.242    75 C    1.194
     5   6 C    3.901 --     4 C    1.247     6 C    1.237     9 N    1.226
     6   6 C    3.955 --     7 C    1.592     5 C    1.237    27 H    0.972
     7   6 C    3.948 --     6 C    1.592     8 C    1.224    28 H    0.973
     8   6 C    3.918 --    10 C    1.345     7 C    1.224     9 N    1.202
     9   7 N    3.590 --     5 C    1.226     8 C    1.202    29 H    0.900
    10   6 C    3.921 --    11 C    1.357     8 C    1.345    30 H    0.964
    11   6 C    3.939 --    10 C    1.357    15 N    1.324    12 C    1.107
    12   6 C    3.963 --    13 C    1.731    11 C    1.107    31 H    0.973
    13   6 C    3.962 --    12 C    1.731    14 C    1.109    32 H    0.973
    14   6 C    3.938 --    16 C    1.354    15 N    1.325    13 C    1.109
    15   7 N    3.001 --    14 C    1.325    11 C    1.324
    16   6 C    3.922 --    14 C    1.354    17 C    1.347    33 H    0.965
    17   6 C    3.921 --    16 C    1.347    18 C    1.216    21 N    1.210
    18   6 C    3.949 --    19 C    1.608    17 C    1.216    34 H    0.973
    19   6 C    3.953 --    18 C    1.608    20 C    1.215    35 H    0.973
    20   6 C    3.916 --    22 C    1.342    19 C    1.215    21 N    1.211
    21   7 N    3.586 --    20 C    1.211    17 C    1.210    36 H    0.900
    22   6 C    3.937 --    23 C    1.367    20 C    1.342    37 H    0.964
    23   6 C    3.924 --    22 C    1.367    24 N    1.298     1 C    1.115
    24   7 N    3.009 --     3 C    1.362    23 C    1.298
    25   1 H    0.999 --     1 C    0.973
    26   1 H    0.999 --     2 C    0.971
    27   1 H    0.998 --     6 C    0.972
    28   1 H    0.998 --     7 C    0.973
    29   1 H    0.954 --     9 N    0.900
    30   1 H    0.997 --    10 C    0.964
    31   1 H    0.999 --    12 C    0.973
    32   1 H    0.999 --    13 C    0.973
    33   1 H    0.997 --    16 C    0.965
    34   1 H    0.998 --    18 C    0.973
    35   1 H    0.998 --    19 C    0.973
    36   1 H    0.954 --    21 N    0.900
    37   1 H    0.997 --    22 C    0.964
    38   6 C    3.960 --    39 C    1.717    60 C    1.115    62 H    0.973
    39   6 C    3.961 --    38 C    1.717    40 C    1.122    63 H    0.971
    40   6 C    3.915 --    61 N    1.362    41 C    1.242    39 C    1.122
    41   6 C    3.940 --    42 C    1.247    40 C    1.242   104 C    1.194
    42   6 C    3.901 --    41 C    1.247    43 C    1.237    46 N    1.226
    43   6 C    3.955 --    44 C    1.592    42 C    1.237    64 H    0.972
    44   6 C    3.948 --    43 C    1.592    45 C    1.224    65 H    0.973
    45   6 C    3.918 --    47 C    1.345    44 C    1.224    46 N    1.202
    46   7 N    3.590 --    42 C    1.226    45 C    1.202    66 H    0.900
    47   6 C    3.921 --    48 C    1.357    45 C    1.345    67 H    0.964
    48   6 C    3.939 --    47 C    1.357    52 N    1.324    49 C    1.107
    49   6 C    3.963 --    50 C    1.731    48 C    1.107    68 H    0.973
    50   6 C    3.962 --    49 C    1.731    51 C    1.109    69 H    0.973
    51   6 C    3.938 --    53 C    1.354    52 N    1.325    50 C    1.109
    52   7 N    3.001 --    51 C    1.325    48 C    1.324
    53   6 C    3.922 --    51 C    1.354    54 C    1.347    70 H    0.965
    54   6 C    3.921 --    53 C    1.347    55 C    1.216    58 N    1.210
    55   6 C    3.949 --    56 C    1.608    54 C    1.216    71 H    0.973
    56   6 C    3.953 --    55 C    1.608    57 C    1.215    72 H    0.973
    57   6 C    3.916 --    59 C    1.342    56 C    1.215    58 N    1.211
    58   7 N    3.586 --    57 C    1.211    54 C    1.210    73 H    0.900
    59   6 C    3.937 --    60 C    1.367    57 C    1.342    74 H    0.964
    60   6 C    3.924 --    59 C    1.367    61 N    1.299    38 C    1.115
    61   7 N    3.009 --    40 C    1.362    60 C    1.299
    62   1 H    0.999 --    38 C    0.973
    63   1 H    0.999 --    39 C    0.971
    64   1 H    0.998 --    43 C    0.972
    65   1 H    0.998 --    44 C    0.973
    66   1 H    0.954 --    46 N    0.900
    67   1 H    0.997 --    47 C    0.964
    68   1 H    0.999 --    49 C    0.973
    69   1 H    0.999 --    50 C    0.973
    70   1 H    0.997 --    53 C    0.965
    71   1 H    0.998 --    55 C    0.973
    72   1 H    0.998 --    56 C    0.973
    73   1 H    0.954 --    58 N    0.900
    74   1 H    0.997 --    59 C    0.964
    75   6 C    3.882 --    76 C    2.435     4 C    1.194    78 C    0.192
    76   6 C    3.924 --    75 C    2.435    77 C    1.337
    77   6 C    3.915 --    78 C    2.349    76 C    1.337    80 C    0.191
    78   6 C    3.917 --    77 C    2.349    79 C    1.338    75 C    0.192
    79   6 C    3.920 --    80 C    2.431    78 C    1.338
    80   6 C    3.883 --    79 C    2.431   108 C    1.198    77 C    0.191
    81   6 C    3.881 --    82 C    2.428   120 C    1.200    84 C    0.191
    82   6 C    3.920 --    81 C    2.428    83 C    1.341
    83   6 C    3.915 --    84 C    2.345    82 C    1.341    86 C    0.191
    84   6 C    3.915 --    83 C    2.345    85 C    1.341    81 C    0.191
    85   6 C    3.919 --    86 C    2.428    84 C    1.341
    86   6 C    3.881 --    85 C    2.428   144 C    1.200    83 C    0.191
    87   6 C    3.881 --    88 C    2.428   156 C    1.200    90 C    0.191
    88   6 C    3.919 --    87 C    2.428    89 C    1.341
    89   6 C    3.915 --    90 C    2.345    88 C    1.341    92 C    0.191
    90   6 C    3.915 --    89 C    2.345    91 C    1.341    87 C    0.191
    91   6 C    3.919 --    92 C    2.428    90 C    1.341
    92   6 C    3.881 --    91 C    2.428   180 C    1.200    89 C    0.191
    93   6 C    3.881 --    94 C    2.428   192 C    1.200    96 C    0.191
    94   6 C    3.919 --    93 C    2.428    95 C    1.341
    95   6 C    3.915 --    96 C    2.345    94 C    1.341    98 C    0.191
    96   6 C    3.915 --    95 C    2.345    97 C    1.340    93 C    0.191
    97   6 C    3.920 --    98 C    2.428    96 C    1.340
    98   6 C    3.881 --    97 C    2.428   216 C    1.200    95 C    0.191
    99   6 C    3.883 --   100 C    2.431   228 C    1.199   102 C    0.191
   100   6 C    3.920 --    99 C    2.431   101 C    1.338
   101   6 C    3.917 --   102 C    2.349   100 C    1.338   104 C    0.192
   102   6 C    3.915 --   101 C    2.349   103 C    1.337    99 C    0.191
   103   6 C    3.924 --   104 C    2.434   102 C    1.337
   104   6 C    3.882 --   103 C    2.434    41 C    1.194   101 C    0.192
   105   6 C    3.961 --   106 C    1.716   127 C    1.115   129 H    0.973
   106   6 C    3.960 --   105 C    1.716   107 C    1.123   130 H    0.972
   107   6 C    3.916 --   128 N    1.363   108 C    1.240   106 C    1.123
   108   6 C    3.926 --   109 C    1.242   107 C    1.240    80 C    1.198
   109   6 C    3.902 --   108 C    1.242   110 C    1.242   113 N    1.227
   110   6 C    3.952 --   111 C    1.587   109 C    1.242   131 H    0.972
   111   6 C    3.949 --   110 C    1.587   112 C    1.228   132 H    0.973
   112   6 C    3.914 --   114 C    1.335   111 C    1.228   113 N    1.203
   113   7 N    3.586 --   109 C    1.227   112 C    1.203   133 H    0.898
   114   6 C    3.923 --   115 C    1.372   112 C    1.335   134 H    0.963
   115   6 C    3.926 --   114 C    1.372   119 N    1.294   116 C    1.115
   116   6 C    3.961 --   117 C    1.716   115 C    1.115   135 H    0.973
   117   6 C    3.960 --   116 C    1.716   118 C    1.123   136 H    0.972
   118   6 C    3.916 --   119 N    1.364   120 C    1.239   117 C    1.123
   119   7 N    3.000 --   118 C    1.364   115 C    1.294
   120   6 C    3.926 --   121 C    1.242   118 C    1.239    81 C    1.200
   121   6 C    3.902 --   120 C    1.242   122 C    1.242   125 N    1.227
   122   6 C    3.952 --   123 C    1.587   121 C    1.242   137 H    0.972
   123   6 C    3.949 --   122 C    1.587   124 C    1.228   138 H    0.973
   124   6 C    3.914 --   126 C    1.336   123 C    1.228   125 N    1.203
   125   7 N    3.586 --   121 C    1.227   124 C    1.203   139 H    0.898
   126   6 C    3.922 --   127 C    1.371   124 C    1.336   140 H    0.963
   127   6 C    3.926 --   126 C    1.371   128 N    1.295   105 C    1.115
   128   7 N    2.999 --   107 C    1.363   127 C    1.295
   129   1 H    0.999 --   105 C    0.973
   130   1 H    0.999 --   106 C    0.972
   131   1 H    0.998 --   110 C    0.972
   132   1 H    0.998 --   111 C    0.973
   133   1 H    0.954 --   113 N    0.898
   134   1 H    0.997 --   114 C    0.963
   135   1 H    0.999 --   116 C    0.973
   136   1 H    0.999 --   117 C    0.972
   137   1 H    0.998 --   122 C    0.972
   138   1 H    0.998 --   123 C    0.973
   139   1 H    0.954 --   125 N    0.898
   140   1 H    0.997 --   126 C    0.963
   141   6 C    3.961 --   142 C    1.716   163 C    1.115   165 H    0.973
   142   6 C    3.960 --   141 C    1.716   143 C    1.123   166 H    0.972
   143   6 C    3.915 --   164 N    1.364   144 C    1.239   142 C    1.123
   144   6 C    3.925 --   145 C    1.242   143 C    1.239    86 C    1.200
   145   6 C    3.902 --   144 C    1.242   146 C    1.242   149 N    1.227
   146   6 C    3.952 --   147 C    1.587   145 C    1.242   167 H    0.972
   147   6 C    3.949 --   146 C    1.587   148 C    1.228   168 H    0.973
   148   6 C    3.914 --   150 C    1.335   147 C    1.228   149 N    1.203
   149   7 N    3.586 --   145 C    1.227   148 C    1.203   169 H    0.898
   150   6 C    3.922 --   151 C    1.372   148 C    1.335   170 H    0.963
   151   6 C    3.926 --   150 C    1.372   155 N    1.294   152 C    1.115
   152   6 C    3.961 --   153 C    1.716   151 C    1.115   171 H    0.973
   153   6 C    3.960 --   152 C    1.716   154 C    1.123   172 H    0.972
   154   6 C    3.915 --   155 N    1.364   156 C    1.239   153 C    1.123
   155   7 N    2.999 --   154 C    1.364   151 C    1.294
   156   6 C    3.925 --   157 C    1.242   154 C    1.239    87 C    1.200
   157   6 C    3.902 --   156 C    1.242   158 C    1.242   161 N    1.227
   158   6 C    3.952 --   159 C    1.587   157 C    1.242   173 H    0.972
   159   6 C    3.949 --   158 C    1.587   160 C    1.228   174 H    0.973
   160   6 C    3.914 --   162 C    1.335   159 C    1.228   161 N    1.203
   161   7 N    3.586 --   157 C    1.227   160 C    1.203   175 H    0.898
   162   6 C    3.922 --   163 C    1.372   160 C    1.335   176 H    0.963
   163   6 C    3.926 --   162 C    1.372   164 N    1.294   141 C    1.115
   164   7 N    2.999 --   143 C    1.364   163 C    1.294
   165   1 H    0.999 --   141 C    0.973
   166   1 H    0.999 --   142 C    0.972
   167   1 H    0.998 --   146 C    0.972
   168   1 H    0.998 --   147 C    0.973
   169   1 H    0.954 --   149 N    0.898
   170   1 H    0.997 --   150 C    0.963
   171   1 H    0.999 --   152 C    0.973
   172   1 H    0.999 --   153 C    0.972
   173   1 H    0.998 --   158 C    0.972
   174   1 H    0.998 --   159 C    0.973
   175   1 H    0.954 --   161 N    0.898
   176   1 H    0.997 --   162 C    0.963
   177   6 C    3.961 --   178 C    1.716   199 C    1.115   201 H    0.973
   178   6 C    3.960 --   177 C    1.716   179 C    1.123   202 H    0.972
   179   6 C    3.916 --   200 N    1.364   180 C    1.239   178 C    1.123
   180   6 C    3.925 --   181 C    1.242   179 C    1.239    92 C    1.200
   181   6 C    3.902 --   180 C    1.242   182 C    1.242   185 N    1.227
   182   6 C    3.952 --   183 C    1.587   181 C    1.242   203 H    0.972
   183   6 C    3.949 --   182 C    1.587   184 C    1.228   204 H    0.973
   184   6 C    3.914 --   186 C    1.335   183 C    1.228   185 N    1.203
   185   7 N    3.586 --   181 C    1.227   184 C    1.203   205 H    0.898
   186   6 C    3.922 --   187 C    1.372   184 C    1.335   206 H    0.963
   187   6 C    3.926 --   186 C    1.372   191 N    1.294   188 C    1.115
   188   6 C    3.961 --   189 C    1.716   187 C    1.115   207 H    0.973
   189   6 C    3.960 --   188 C    1.716   190 C    1.123   208 H    0.972
   190   6 C    3.915 --   191 N    1.364   192 C    1.239   189 C    1.123
   191   7 N    2.999 --   190 C    1.364   187 C    1.294
   192   6 C    3.925 --   193 C    1.242   190 C    1.239    93 C    1.200
   193   6 C    3.902 --   192 C    1.242   194 C    1.242   197 N    1.227
   194   6 C    3.952 --   195 C    1.587   193 C    1.242   209 H    0.972
   195   6 C    3.949 --   194 C    1.587   196 C    1.228   210 H    0.973
   196   6 C    3.914 --   198 C    1.335   195 C    1.228   197 N    1.203
   197   7 N    3.586 --   193 C    1.227   196 C    1.203   211 H    0.898
   198   6 C    3.922 --   199 C    1.372   196 C    1.335   212 H    0.963
   199   6 C    3.926 --   198 C    1.372   200 N    1.294   177 C    1.115
   200   7 N    2.999 --   179 C    1.364   199 C    1.294
   201   1 H    0.999 --   177 C    0.973
   202   1 H    0.999 --   178 C    0.972
   203   1 H    0.998 --   182 C    0.972
   204   1 H    0.998 --   183 C    0.973
   205   1 H    0.954 --   185 N    0.898
   206   1 H    0.997 --   186 C    0.963
   207   1 H    0.999 --   188 C    0.973
   208   1 H    0.999 --   189 C    0.972
   209   1 H    0.998 --   194 C    0.972
   210   1 H    0.998 --   195 C    0.973
   211   1 H    0.954 --   197 N    0.898
   212   1 H    0.997 --   198 C    0.963
   213   6 C    3.961 --   214 C    1.716   235 C    1.115   237 H    0.973
   214   6 C    3.960 --   213 C    1.716   215 C    1.123   238 H    0.972
   215   6 C    3.916 --   236 N    1.364   216 C    1.239   214 C    1.123
   216   6 C    3.926 --   217 C    1.242   215 C    1.239    98 C    1.200
   217   6 C    3.902 --   216 C    1.242   218 C    1.242   221 N    1.227
   218   6 C    3.952 --   219 C    1.587   217 C    1.242   239 H    0.972
   219   6 C    3.949 --   218 C    1.587   220 C    1.228   240 H    0.973
   220   6 C    3.914 --   222 C    1.336   219 C    1.228   221 N    1.203
   221   7 N    3.586 --   217 C    1.227   220 C    1.203   241 H    0.898
   222   6 C    3.922 --   223 C    1.371   220 C    1.336   242 H    0.963
   223   6 C    3.926 --   222 C    1.371   227 N    1.295   224 C    1.115
   224   6 C    3.961 --   225 C    1.715   223 C    1.115   243 H    0.973
   225   6 C    3.960 --   224 C    1.715   226 C    1.124   244 H    0.972
   226   6 C    3.916 --   227 N    1.363   228 C    1.240   225 C    1.124
   227   7 N    3.000 --   226 C    1.363   223 C    1.295
   228   6 C    3.926 --   229 C    1.242   226 C    1.240    99 C    1.199
   229   6 C    3.902 --   228 C    1.242   230 C    1.242   233 N    1.227
   230   6 C    3.952 --   231 C    1.587   229 C    1.242   245 H    0.972
   231   6 C    3.949 --   230 C    1.587   232 C    1.228   246 H    0.973
   232   6 C    3.914 --   234 C    1.335   231 C    1.228   233 N    1.203
   233   7 N    3.586 --   229 C    1.227   232 C    1.203   247 H    0.898
   234   6 C    3.923 --   235 C    1.372   232 C    1.335   248 H    0.963
   235   6 C    3.926 --   234 C    1.372   236 N    1.294   213 C    1.115
   236   7 N    3.000 --   215 C    1.364   235 C    1.294
   237   1 H    0.999 --   213 C    0.973
   238   1 H    0.999 --   214 C    0.972
   239   1 H    0.998 --   218 C    0.972
   240   1 H    0.998 --   219 C    0.973
   241   1 H    0.954 --   221 N    0.898
   242   1 H    0.997 --   222 C    0.963
   243   1 H    0.999 --   224 C    0.973
   244   1 H    0.999 --   225 C    0.972
   245   1 H    0.998 --   230 C    0.972
   246   1 H    0.998 --   231 C    0.973
   247   1 H    0.954 --   233 N    0.898
   248   1 H    0.997 --   234 C    0.963
 ---------------------------------------------------------------------------

Topologies differ in total number of bonds
Writing topology from bond orders to xtbtopo.mol

molecular dipole:
                 x           y           z       tot (Debye)
 q only:        0.000      -0.000      -0.015
   full:        0.000      -0.001      -0.020       0.051
molecular quadrupole (traceless):
                xx          xy          yy          xz          yz          zz
 q only:      131.853     -65.563     -39.954       1.597      -4.736     -91.899
  q+dip:      229.964     -34.153     -26.930      -2.030     -15.406    -203.034
   full:      174.087     -33.001     -35.407      -2.201      -9.099    -138.680


           -------------------------------------------------
          | TOTAL ENERGY             -428.248094165907 Eh   |
          | GRADIENT NORM               0.000659668843 Eh/α |
          | HOMO-LUMO GAP               0.769321583218 eV   |
           -------------------------------------------------

------------------------------------------------------------------------
 * finished run on 2021/11/21 at 19:15:30.485     
------------------------------------------------------------------------
 total:
 * wall-time:     0 d,  0 h,  0 min,  3.173 sec
 *  cpu-time:     0 d,  0 h,  0 min,  3.173 sec
 * ratio c/w:     1.000 speedup
 SCF:
 * wall-time:     0 d,  0 h,  0 min,  3.048 sec
 *  cpu-time:     0 d,  0 h,  0 min,  3.048 sec
 * ratio c/w:     1.000 speedup

