      -----------------------------------------------------------      
     |                   =====================                   |     
     |                           x T B                           |     
     |                   =====================                   |     
     |                         S. Grimme                         |     
     |          Mulliken Center for Theoretical Chemistry        |     
     |                    University of Bonn                     |     
      -----------------------------------------------------------      

   * xtb version 6.4.1 (bd6e46d) compiled by 'conda@4901f00b25ba' on 2021-06-10

   xtb is free software: you can redistribute it and/or modify it under
   the terms of the GNU Lesser General Public License as published by
   the Free Software Foundation, either version 3 of the License, or
   (at your option) any later version.
   
   xtb is distributed in the hope that it will be useful,
   but WITHOUT ANY WARRANTY; without even the implied warranty of
   MERCHANTABILITY or FITNESS FOR A PARTICULAR PURPOSE.  See the
   GNU Lesser General Public License for more details.
   
   Cite this work as:
   * C. Bannwarth, E. Caldeweyher, S. Ehlert, A. Hansen, P. Pracht,
     J. Seibert, S. Spicher, S. Grimme, WIREs Comput. Mol. Sci., 2020, 11,
     e01493. DOI: 10.1002/wcms.1493
   
   for GFN2-xTB:
   * C. Bannwarth, S. Ehlert and S. Grimme., J. Chem. Theory Comput., 2019,
     15, 1652-1671. DOI: 10.1021/acs.jctc.8b01176
   for GFN1-xTB:
   * S. Grimme, C. Bannwarth, P. Shushkov, J. Chem. Theory Comput., 2017,
     13, 1989-2009. DOI: 10.1021/acs.jctc.7b00118
   for GFN0-xTB:
   * P. Pracht, E. Caldeweyher, S. Ehlert, S. Grimme, ChemRxiv, 2019, preprint.
     DOI: 10.26434/chemrxiv.8326202.v1
   for GFN-FF:
   * S. Spicher and S. Grimme, Angew. Chem. Int. Ed., 2020, 59, 15665-15673.
     DOI: 10.1002/anie.202004239
   
   for DFT-D4:
   * E. Caldeweyher, C. Bannwarth and S. Grimme, J. Chem. Phys., 2017,
     147, 034112. DOI: 10.1063/1.4993215
   * E. Caldeweyher, S. Ehlert, A. Hansen, H. Neugebauer, S. Spicher,
     C. Bannwarth and S. Grimme, J. Chem. Phys., 2019, 150, 154122.
     DOI: 10.1063/1.5090222
   * E. Caldeweyher, J.-M. Mewes, S. Ehlert and S. Grimme, Phys. Chem. Chem. Phys.
     2020, 22, 8499-8512. DOI: 10.1039/D0CP00502A
   
   for sTDA-xTB:
   * S. Grimme and C. Bannwarth, J. Chem. Phys., 2016, 145, 054103.
     DOI: 10.1063/1.4959605
   
   in the mass-spec context:
   * V. Asgeirsson, C. Bauer and S. Grimme, Chem. Sci., 2017, 8, 4879.
     DOI: 10.1039/c7sc00601b
   * J. Koopman and S. Grimme, ACS Omega 2019, 4, 12, 15120-15133.
     DOI: 10.1021/acsomega.9b02011
   
   for metadynamics refer to:
   * S. Grimme, J. Chem. Theory Comput., 2019, 155, 2847-2862
     DOI: 10.1021/acs.jctc.9b00143
   
   for SPH calculations refer to:
   * S. Spicher and S. Grimme, J. Chem. Theory Comput., 2021, 17, 1701-1714
     DOI: 10.1021/acs.jctc.0c01306
   
   with help from (in alphabetical order)
   P. Atkinson, C. Bannwarth, F. Bohle, G. Brandenburg, E. Caldeweyher
   M. Checinski, S. Dohm, S. Ehlert, S. Ehrlich, I. Gerasimov, J. Koopman
   C. Lavigne, S. Lehtola, F. März, M. Müller, F. Musil, H. Neugebauer
   J. Pisarek, C. Plett, P. Pracht, J. Seibert, P. Shushkov, S. Spicher
   M. Stahn, M. Steiner, T. Strunk, J. Stückrath, T. Rose, and J. Unsleber
   
 * started run on 2021/11/21 at 21:09:20.748     

           -------------------------------------------------
          |                Calculation Setup                |
           -------------------------------------------------

          program call               : /home/jeff/miniconda3/bin/xtb /home/jeff/chem/final-year-proejct/Zn+2_4_2_outenergy/input_structure.xyz --gfn 2 --parallel 1 --etemp 300 --chrg 0 --uhf 0 -I det_control.in
          coordinate file            : /home/jeff/chem/final-year-proejct/Zn+2_4_2_outenergy/input_structure.xyz
          omp threads                :                     1
          number of atoms            :                    76
          number of electrons        :                   242
          charge                     :                     0
          spin                       :                   0.0
          first test random number   :      0.59249944771971

   ID    Z sym.   atoms
    1   30 Zn     1, 41
    2    6 C      2-9, 11-15, 17-21, 23, 24, 37-40, 42-49, 51-55, 57-61, 63,
                  64
    3    7 N      10, 16, 22, 25, 50, 56, 62, 65
    4    1 H      26-36, 66-76

           -------------------------------------------------
          |                 G F N 2 - x T B                 |
           -------------------------------------------------

        Reference                      10.1021/acs.jctc.8b01176
      * Hamiltonian:
        H0-scaling (s, p, d)           1.850000    2.230000    2.230000
        zeta-weighting                 0.500000
      * Dispersion:
        s8                             2.700000
        a1                             0.520000
        a2                             5.000000
        s9                             5.000000
      * Repulsion:
        kExp                           1.500000    1.000000
        rExp                           1.000000
      * Coulomb:
        alpha                          2.000000
        third order                    shell-resolved
        anisotropic                    true
        a3                             3.000000
        a5                             4.000000
        cn-shift                       1.200000
        cn-exp                         4.000000
        max-rad                        5.000000


          ...................................................
          :                      SETUP                      :
          :.................................................:
          :  # basis functions                 238          :
          :  # atomic orbitals                 238          :
          :  # shells                          130          :
          :  # electrons                       242          :
          :  max. iterations                   250          :
          :  Hamiltonian                  GFN2-xTB          :
          :  restarted?                      false          :
          :  GBSA solvation                  false          :
          :  PC potential                    false          :
          :  electronic temp.          300.0000000     K    :
          :  accuracy                    1.0000000          :
          :  -> integral cutoff          0.2500000E+02      :
          :  -> integral neglect         0.1000000E-07      :
          :  -> SCF convergence          0.1000000E-05 Eh   :
          :  -> wf. convergence          0.1000000E-03 e    :
          :  Broyden damping             0.4000000          :
          ...................................................

 iter      E             dE          RMSdq      gap      omega  full diag
   1   -131.8690116 -0.131869E+03  0.666E+00    1.24       0.0  T
   2   -132.1412156 -0.272204E+00  0.344E+00    1.17       1.0  T
   3   -132.1040031  0.372125E-01  0.246E+00    1.29       1.0  T
   4   -132.3603668 -0.256364E+00  0.419E-01    1.20       1.0  T
   5   -132.3615540 -0.118719E-02  0.284E-01    1.23       1.0  T
   6   -132.3641628 -0.260879E-02  0.176E-01    1.23       1.0  T
   7   -132.3661763 -0.201353E-02  0.719E-02    1.22       1.0  T
   8   -132.3665096 -0.333243E-03  0.197E-02    1.22       1.0  T
   9   -132.3665191 -0.955952E-05  0.111E-02    1.22       1.0  T
  10   -132.3665237 -0.452159E-05  0.372E-03    1.22       3.1  T
  11   -132.3665240 -0.387364E-06  0.142E-03    1.22       8.1  T
  12   -132.3665241 -0.341932E-07  0.714E-04    1.22      16.1  T
  13   -132.3665241 -0.175516E-07  0.227E-04    1.22      50.5  T

   *** convergence criteria satisfied after 13 iterations ***

         #    Occupation            Energy/Eh            Energy/eV
      -------------------------------------------------------------
         1        2.0000           -0.6662284             -18.1290
       ...           ...                  ...                  ...
       115        2.0000           -0.3886873             -10.5767
       116        2.0000           -0.3855835             -10.4923
       117        2.0000           -0.3853397             -10.4856
       118        2.0000           -0.3684744             -10.0267
       119        2.0000           -0.3684624             -10.0264
       120        2.0000           -0.3679967             -10.0137
       121        2.0000           -0.3532529              -9.6125 (HOMO)
       122                         -0.3083645              -8.3910 (LUMO)
       123                         -0.2977886              -8.1032
       124                         -0.2977825              -8.1031
       125                         -0.2936348              -7.9902
       126                         -0.2637186              -7.1761
       ...                                ...                  ...
       238                          1.6332608              44.4433
      -------------------------------------------------------------
                  HL-Gap            0.0448884 Eh            1.2215 eV
             Fermi-level           -0.3308086 Eh           -9.0018 eV

 SCC (total)                   0 d,  0 h,  0 min,  0.248 sec
 SCC setup                      ...        0 min,  0.001 sec (  0.407%)
 Dispersion                     ...        0 min,  0.002 sec (  0.853%)
 classical contributions        ...        0 min,  0.000 sec (  0.160%)
 integral evaluation            ...        0 min,  0.022 sec (  9.084%)
 iterations                     ...        0 min,  0.140 sec ( 56.594%)
 molecular gradient             ...        0 min,  0.080 sec ( 32.449%)
 printout                       ...        0 min,  0.001 sec (  0.446%)

         :::::::::::::::::::::::::::::::::::::::::::::::::::::
         ::                     SUMMARY                     ::
         :::::::::::::::::::::::::::::::::::::::::::::::::::::
         :: total energy            -130.006133333374 Eh    ::
         :: gradient norm              0.000590116745 Eh/a0 ::
         :: HOMO-LUMO gap              1.221475121685 eV    ::
         ::.................................................::
         :: SCC energy              -132.366524100587 Eh    ::
         :: -> isotropic ES            0.129971936651 Eh    ::
         :: -> anisotropic ES          0.019635577891 Eh    ::
         :: -> anisotropic XC          0.071350250557 Eh    ::
         :: -> dispersion             -0.117027727726 Eh    ::
         :: repulsion energy           2.361668419760 Eh    ::
         :: add. restraining           0.000000000000 Eh    ::
         :: total charge              -0.000000000000 e     ::
         :::::::::::::::::::::::::::::::::::::::::::::::::::::

           -------------------------------------------------
          |                Property Printout                |
           -------------------------------------------------

    * Orbital Energies and Occupations

         #    Occupation            Energy/Eh            Energy/eV
      -------------------------------------------------------------
         1        2.0000           -0.6662284             -18.1290
       ...           ...                  ...                  ...
       109        2.0000           -0.4010637             -10.9135
       110        2.0000           -0.4010617             -10.9134
       111        2.0000           -0.4005972             -10.9008
       112        2.0000           -0.4004866             -10.8978
       113        2.0000           -0.4004822             -10.8977
       114        2.0000           -0.3958558             -10.7718
       115        2.0000           -0.3886873             -10.5767
       116        2.0000           -0.3855835             -10.4923
       117        2.0000           -0.3853397             -10.4856
       118        2.0000           -0.3684744             -10.0267
       119        2.0000           -0.3684624             -10.0264
       120        2.0000           -0.3679967             -10.0137
       121        2.0000           -0.3532529              -9.6125 (HOMO)
       122                         -0.3083645              -8.3910 (LUMO)
       123                         -0.2977886              -8.1032
       124                         -0.2977825              -8.1031
       125                         -0.2936348              -7.9902
       126                         -0.2637186              -7.1761
       127                         -0.2550305              -6.9397
       128                         -0.2250547              -6.1241
       129                         -0.2048145              -5.5733
       130                         -0.1888030              -5.1376
       131                         -0.1887938              -5.1373
       132                         -0.1696418              -4.6162
       ...                                ...                  ...
       238                          1.6332608              44.4433
      -------------------------------------------------------------
                  HL-Gap            0.0448884 Eh            1.2215 eV
             Fermi-level           -0.3308086 Eh           -9.0018 eV

     #   Z          covCN         q      C6AA      α(0)
     1  30 Zn       3.042     0.245   122.299    21.603
     2   6 C        3.020    -0.052    29.269     8.874
     3   6 C        3.018    -0.050    29.226     8.868
     4   6 C        3.166     0.077    25.946     8.324
     5   6 C        2.953     0.017    27.628     8.621
     6   6 C        3.166     0.077    25.945     8.324
     7   6 C        3.018    -0.050    29.228     8.868
     8   6 C        3.020    -0.052    29.269     8.874
     9   6 C        3.149     0.076    26.053     8.349
    10   7 N        2.632    -0.177    24.837     7.402
    11   6 C        2.901    -0.050    29.238     8.866
    12   6 C        3.145     0.077    26.040     8.349
    13   6 C        3.017    -0.051    29.246     8.871
    14   6 C        3.018    -0.051    29.249     8.871
    15   6 C        3.145     0.077    26.030     8.347
    16   7 N        2.635    -0.175    24.794     7.395
    17   6 C        2.901    -0.052    29.284     8.873
    18   6 C        3.145     0.077    26.030     8.347
    19   6 C        3.018    -0.051    29.250     8.871
    20   6 C        3.017    -0.051    29.245     8.871
    21   6 C        3.145     0.077    26.041     8.349
    22   7 N        2.635    -0.175    24.794     7.395
    23   6 C        2.901    -0.050    29.238     8.866
    24   6 C        3.149     0.076    26.053     8.349
    25   7 N        2.632    -0.177    24.839     7.402
    26   1 H        0.926     0.033     2.537     2.491
    27   1 H        0.926     0.035     2.511     2.478
    28   1 H        0.926     0.035     2.511     2.478
    29   1 H        0.926     0.034     2.537     2.491
    30   1 H        0.925     0.049     2.332     2.388
    31   1 H        0.926     0.034     2.529     2.487
    32   1 H        0.926     0.034     2.530     2.487
    33   1 H        0.926     0.048     2.341     2.392
    34   1 H        0.926     0.034     2.530     2.487
    35   1 H        0.926     0.034     2.529     2.487
    36   1 H        0.925     0.049     2.332     2.388
    37   6 C        1.996    -0.021    31.601     9.078
    38   6 C        1.963    -0.010    31.335     9.040
    39   6 C        1.963    -0.010    31.334     9.040
    40   6 C        1.996    -0.021    31.601     9.078
    41  30 Zn       3.042     0.245   122.299    21.603
    42   6 C        3.020    -0.052    29.268     8.874
    43   6 C        3.018    -0.050    29.227     8.868
    44   6 C        3.166     0.077    25.945     8.324
    45   6 C        2.953     0.017    27.628     8.621
    46   6 C        3.166     0.077    25.945     8.324
    47   6 C        3.018    -0.050    29.228     8.868
    48   6 C        3.020    -0.052    29.269     8.874
    49   6 C        3.149     0.076    26.052     8.349
    50   7 N        2.632    -0.177    24.839     7.402
    51   6 C        2.901    -0.050    29.237     8.866
    52   6 C        3.145     0.077    26.042     8.349
    53   6 C        3.017    -0.051    29.246     8.871
    54   6 C        3.018    -0.051    29.249     8.871
    55   6 C        3.145     0.077    26.030     8.347
    56   7 N        2.635    -0.175    24.794     7.395
    57   6 C        2.901    -0.052    29.284     8.873
    58   6 C        3.145     0.077    26.030     8.347
    59   6 C        3.018    -0.051    29.249     8.871
    60   6 C        3.017    -0.051    29.246     8.871
    61   6 C        3.145     0.077    26.040     8.349
    62   7 N        2.635    -0.175    24.795     7.395
    63   6 C        2.901    -0.050    29.238     8.866
    64   6 C        3.149     0.076    26.053     8.349
    65   7 N        2.632    -0.177    24.838     7.402
    66   1 H        0.926     0.034     2.537     2.491
    67   1 H        0.926     0.035     2.511     2.478
    68   1 H        0.926     0.035     2.511     2.478
    69   1 H        0.926     0.033     2.537     2.491
    70   1 H        0.925     0.049     2.332     2.388
    71   1 H        0.926     0.034     2.529     2.487
    72   1 H        0.926     0.034     2.530     2.487
    73   1 H        0.926     0.048     2.341     2.393
    74   1 H        0.926     0.034     2.530     2.487
    75   1 H        0.926     0.034     2.529     2.487
    76   1 H        0.926     0.049     2.332     2.388

 Mol. C6AA /au·bohr⁶  :     108583.048762
 Mol. C8AA /au·bohr⁸  :    3078533.430659
 Mol. α(0) /au        :        538.606934


Wiberg/Mayer (AO) data.
largest (>0.10) Wiberg bond orders for each atom

 ---------------------------------------------------------------------------
     #   Z sym  total        # sym  WBO       # sym  WBO       # sym  WBO
 ---------------------------------------------------------------------------
     1  30 Zn   2.081 --    22 N    0.492    16 N    0.491    10 N    0.489
                            25 N    0.489
     2   6 C    3.953 --     3 C    1.650    24 C    1.171    26 H    0.972
     3   6 C    3.957 --     2 C    1.650     4 C    1.179    27 H    0.971
     4   6 C    3.912 --    25 N    1.286     5 C    1.253     3 C    1.179
     5   6 C    3.941 --     4 C    1.253     6 C    1.252    37 C    1.184
     6   6 C    3.912 --    10 N    1.286     5 C    1.252     7 C    1.179
     7   6 C    3.957 --     8 C    1.650     6 C    1.179    28 H    0.971
     8   6 C    3.953 --     7 C    1.650     9 C    1.171    29 H    0.972
     9   6 C    3.924 --    11 C    1.357    10 N    1.247     8 C    1.171
    10   7 N    3.467 --     6 C    1.286     9 C    1.247     1 Zn   0.489
    11   6 C    3.931 --     9 C    1.357    12 C    1.354    30 H    0.964
    12   6 C    3.930 --    11 C    1.354    16 N    1.261    13 C    1.163
    13   6 C    3.957 --    14 C    1.666    12 C    1.163    31 H    0.972
    14   6 C    3.955 --    13 C    1.666    15 C    1.162    32 H    0.972
    15   6 C    3.932 --    17 C    1.354    16 N    1.263    14 C    1.162
    16   7 N    3.464 --    15 C    1.263    12 C    1.261     1 Zn   0.491
    17   6 C    3.926 --    15 C    1.354    18 C    1.354    33 H    0.964
    18   6 C    3.932 --    17 C    1.354    22 N    1.263    19 C    1.162
    19   6 C    3.955 --    20 C    1.666    18 C    1.162    34 H    0.972
    20   6 C    3.957 --    19 C    1.666    21 C    1.163    35 H    0.972
    21   6 C    3.930 --    23 C    1.354    22 N    1.261    20 C    1.163
    22   7 N    3.464 --    18 C    1.263    21 C    1.261     1 Zn   0.492
    23   6 C    3.931 --    24 C    1.357    21 C    1.354    36 H    0.964
    24   6 C    3.924 --    23 C    1.357    25 N    1.247     2 C    1.171
    25   7 N    3.467 --     4 C    1.286    24 C    1.247     1 Zn   0.489
    26   1 H    0.998 --     2 C    0.972
    27   1 H    0.998 --     3 C    0.971
    28   1 H    0.998 --     7 C    0.971
    29   1 H    0.998 --     8 C    0.972
    30   1 H    0.996 --    11 C    0.964
    31   1 H    0.998 --    13 C    0.972
    32   1 H    0.998 --    14 C    0.972
    33   1 H    0.996 --    17 C    0.964
    34   1 H    0.998 --    19 C    0.972
    35   1 H    0.998 --    20 C    0.972
    36   1 H    0.996 --    23 C    0.964
    37   6 C    3.920 --    38 C    2.472     5 C    1.184    40 C    0.203
    38   6 C    3.928 --    37 C    2.472    39 C    1.303
    39   6 C    3.928 --    40 C    2.472    38 C    1.303
    40   6 C    3.920 --    39 C    2.472    45 C    1.184    37 C    0.203
    41  30 Zn   2.081 --    56 N    0.491    62 N    0.491    50 N    0.489
                            65 N    0.489
    42   6 C    3.953 --    43 C    1.650    64 C    1.171    66 H    0.972
    43   6 C    3.957 --    42 C    1.650    44 C    1.179    67 H    0.971
    44   6 C    3.912 --    65 N    1.286    45 C    1.252    43 C    1.179
    45   6 C    3.941 --    44 C    1.252    46 C    1.252    40 C    1.184
    46   6 C    3.912 --    50 N    1.286    45 C    1.252    47 C    1.179
    47   6 C    3.957 --    48 C    1.650    46 C    1.179    68 H    0.971
    48   6 C    3.953 --    47 C    1.650    49 C    1.171    69 H    0.972
    49   6 C    3.924 --    51 C    1.357    50 N    1.247    48 C    1.171
    50   7 N    3.467 --    46 C    1.286    49 C    1.247    41 Zn   0.489
    51   6 C    3.931 --    49 C    1.357    52 C    1.354    70 H    0.964
    52   6 C    3.930 --    51 C    1.354    56 N    1.261    53 C    1.163
    53   6 C    3.957 --    54 C    1.666    52 C    1.163    71 H    0.972
    54   6 C    3.955 --    53 C    1.666    55 C    1.162    72 H    0.972
    55   6 C    3.932 --    57 C    1.354    56 N    1.263    54 C    1.162
    56   7 N    3.464 --    55 C    1.263    52 C    1.261    41 Zn   0.491
    57   6 C    3.926 --    58 C    1.354    55 C    1.354    73 H    0.964
    58   6 C    3.932 --    57 C    1.354    62 N    1.263    59 C    1.162
    59   6 C    3.955 --    60 C    1.666    58 C    1.162    74 H    0.972
    60   6 C    3.957 --    59 C    1.666    61 C    1.163    75 H    0.972
    61   6 C    3.930 --    63 C    1.354    62 N    1.261    60 C    1.163
    62   7 N    3.464 --    58 C    1.263    61 C    1.261    41 Zn   0.491
    63   6 C    3.931 --    64 C    1.357    61 C    1.354    76 H    0.964
    64   6 C    3.924 --    63 C    1.357    65 N    1.247    42 C    1.171
    65   7 N    3.467 --    44 C    1.286    64 C    1.247    41 Zn   0.489
    66   1 H    0.998 --    42 C    0.972
    67   1 H    0.998 --    43 C    0.971
    68   1 H    0.998 --    47 C    0.971
    69   1 H    0.998 --    48 C    0.972
    70   1 H    0.996 --    51 C    0.964
    71   1 H    0.998 --    53 C    0.972
    72   1 H    0.998 --    54 C    0.972
    73   1 H    0.996 --    57 C    0.964
    74   1 H    0.998 --    59 C    0.972
    75   1 H    0.998 --    60 C    0.972
    76   1 H    0.996 --    63 C    0.964
 ---------------------------------------------------------------------------

Topologies differ in total number of bonds
Writing topology from bond orders to xtbtopo.mol

molecular dipole:
                 x           y           z       tot (Debye)
 q only:       -0.001       0.004      -0.025
   full:       -0.001       0.005      -0.041       0.106
molecular quadrupole (traceless):
                xx          xy          yy          xz          yz          zz
 q only:       14.341       0.247       4.473      -1.605       0.088     -18.814
  q+dip:       34.480       0.422      13.305      -3.138       0.226     -47.785
   full:       20.808       0.352       5.889      -2.543       0.124     -26.697


           -------------------------------------------------
          | TOTAL ENERGY             -130.006133333374 Eh   |
          | GRADIENT NORM               0.000590116745 Eh/α |
          | HOMO-LUMO GAP               1.221475121685 eV   |
           -------------------------------------------------

------------------------------------------------------------------------
 * finished run on 2021/11/21 at 21:09:21.027     
------------------------------------------------------------------------
 total:
 * wall-time:     0 d,  0 h,  0 min,  0.279 sec
 *  cpu-time:     0 d,  0 h,  0 min,  0.279 sec
 * ratio c/w:     1.000 speedup
 SCF:
 * wall-time:     0 d,  0 h,  0 min,  0.248 sec
 *  cpu-time:     0 d,  0 h,  0 min,  0.248 sec
 * ratio c/w:     1.000 speedup

