 Entering Gaussian System
 *********************************************
 Gaussian 98:
 frequency output generated by the xtb code
 *********************************************
                         Standard orientation:
 --------------------------------------------------------------------
  Center     Atomic     Atomic              Coordinates (Angstroms)
  Number     Number      Type              X           Y           Z
 --------------------------------------------------------------------
    1         26             0       25.277225    0.015442   -0.008700
    2          6             0       27.765168   -2.883231    1.758975
    3          6             0       28.759460   -2.085489    1.303903
    4          6             0       28.124756   -1.001650    0.618477
    5          6             0       28.805066    0.040076   -0.017941
    6          6             0       28.107642    1.074465   -0.647467
    7          6             0       28.723726    2.170689   -1.330112
    8          6             0       27.716058    2.957446   -1.774879
    9          6             0       26.490375    2.333097   -1.367324
   10          7             0       26.750557    1.174983   -0.683150
   11          6             0       25.250436    2.873035   -1.648449
   12          6             0       24.020914    2.338301   -1.318084
   13          6             0       22.779780    2.976476   -1.660079
   14          6             0       21.789463    2.175246   -1.207203
   15          6             0       22.428508    1.049784   -0.589075
   16          7             0       23.786774    1.163323   -0.659074
   17          6             0       21.767229   -0.014712   -0.009592
   18          6             0       22.446306   -1.067244    0.571125
   19          6             0       21.826354   -2.203194    1.189508
   20          6             0       22.830001   -2.985639    1.645885
   21          6             0       24.060094   -2.325884    1.305179
   22          7             0       23.806228   -1.156549    0.643430
   23          6             0       25.298450   -2.837767    1.638619
   24          6             0       26.528940   -2.278900    1.353209
   25          7             0       26.769417   -1.120716    0.661898
   26          1             0       27.841755   -3.795314    2.318901
   27          1             0       29.819744   -2.195069    1.420061
   28          1             0       29.781879    2.295972   -1.450230
   29          1             0       27.776961    3.874082   -2.329291
   30          1             0       25.242647    3.810176   -2.187127
   31          1             0       22.701225    3.912255   -2.179637
   32          1             0       20.727485    2.312202   -1.274612
   33          1             0       20.688318   -0.024079   -0.010110
   34          1             0       20.766900   -2.359349    1.254726
   35          1             0       22.767360   -3.922135    2.166277
   36          1             0       25.306800   -3.772523    2.181375
   37         26             0       58.499774    0.041562   -0.015724
   38          6             0       56.020685    2.939419    1.767241
   39          6             0       55.023874    2.156351    1.292653
   40          6             0       55.656395    1.071662    0.606247
   41          6             0       54.973434    0.036989   -0.037945
   42          6             0       55.665978   -0.993850   -0.677825
   43          6             0       55.044694   -2.076893   -1.376909
   44          6             0       56.049447   -2.854376   -1.844106
   45          6             0       57.277962   -2.239585   -1.430288
   46          7             0       57.022620   -1.095966   -0.720581
   47          6             0       58.516116   -2.774072   -1.728990
   48          6             0       59.747249   -2.253440   -1.382529
   49          6             0       60.986144   -2.888499   -1.738099
   50          6             0       61.979066   -2.109679   -1.253041
   51          6             0       61.343879   -1.000230   -0.602841
   52          7             0       59.985382   -1.101050   -0.686023
   53          6             0       62.009047    0.037931    0.018394
   54          6             0       61.334263    1.078361    0.625297
   55          6             0       61.958908    2.187602    1.285925
   56          6             0       60.958295    2.970449    1.748201
   57          6             0       59.725357    2.337547    1.369113
   58          7             0       59.974640    1.182732    0.680651
   59          6             0       58.488587    2.861141    1.690034
   60          6             0       57.255768    2.325191    1.372709
   61          7             0       57.012183    1.177777    0.664783
   62          1             0       55.946587    3.847365    2.334138
   63          1             0       53.963139    2.276730    1.394548
   64          1             0       53.985528   -2.199610   -1.492096
   65          1             0       55.984770   -3.759259   -2.417098
   66          1             0       58.520892   -3.695985   -2.293329
   67          1             0       61.061426   -3.807803   -2.286675
   68          1             0       63.040447   -2.252291   -1.317835
   69          1             0       63.087948    0.036494    0.029268
   70          1             0       63.019093    2.327606    1.372337
   71          1             0       61.024739    3.890850    2.296082
   72          1             0       58.483682    3.785168    2.250862
   73          6             0       30.206267    0.045966   -0.023273
   74          6             0       31.418940    0.044012   -0.027912
   75          6             0       41.283726    0.020663    0.009576
   76          6             0       42.496614    0.018444    0.013361
   77          6             0       52.359746    0.029648   -0.039465
   78          6             0       53.572142    0.033371   -0.039867
   79         26             0       36.351586    0.031393   -0.018964
   80          6             0       33.877445   -3.340046    0.458352
   81          6             0       32.878603   -2.442562    0.287222
   82          6             0       33.506136   -1.165625    0.136065
   83          6             0       32.819747    0.041001   -0.027995
   84          6             0       33.513610    1.243116   -0.192393
   85          6             0       32.893953    2.522904   -0.351535
   86          6             0       33.898546    3.413793   -0.523509
   87          6             0       35.125403    2.673228   -0.462166
   88          7             0       34.869375    1.344875   -0.244668
   89          6             0       36.362014    3.263700   -0.632673
   90          6             0       37.594746    2.644448   -0.571076
   91          6             0       38.826465    3.348838   -0.780711
   92          6             0       39.825358    2.451740   -0.607585
   93          6             0       39.197360    1.206570   -0.287957
   94          7             0       37.842294    1.327821   -0.283380
   95          6             0       39.883367    0.023602    0.002316
   96          6             0       39.188782   -1.157057    0.281155
   97          6             0       39.807701   -2.406573    0.601460
   98          6             0       38.803266   -3.301113    0.754400
   99          6             0       37.577139   -2.590401    0.533608
  100          7             0       37.833449   -1.272879    0.258150
  101          6             0       36.341057   -3.204255    0.579699
  102          6             0       35.108689   -2.606219    0.405098
  103          7             0       34.861012   -1.275398    0.193089
  104          1             0       33.806659   -4.400250    0.607120
  105          1             0       31.819879   -2.608790    0.252810
  106          1             0       31.835974    2.694939   -0.322479
  107          1             0       33.834495    4.473730   -0.677136
  108          1             0       36.365499    4.325517   -0.835059
  109          1             0       38.897515    4.390514   -1.027749
  110          1             0       40.884444    2.595353   -0.693494
  111          1             0       40.864981   -2.554638    0.700893
  112          1             0       38.867000   -4.344864    0.994573
  113          1             0       36.337699   -4.267332    0.775333
  114         26             0       47.428331    0.022252   -0.007879
  115          6             0       44.965882   -3.355796   -0.497779
  116          6             0       43.963775   -2.451276   -0.397130
  117          6             0       44.587329   -1.181780   -0.181537
  118          6             0       43.897019    0.018277    0.012083
  119          6             0       44.586971    1.219300    0.201131
  120          6             0       43.962736    2.486803    0.426566
  121          6             0       44.963656    3.393665    0.516920
  122          6             0       46.192948    2.673084    0.352840
  123          7             0       45.941966    1.338008    0.173338
  124          6             0       47.426637    3.293400    0.360232
  125          6             0       48.661717    2.689145    0.232497
  126          6             0       49.890701    3.428844    0.241026
  127          6             0       50.892820    2.525402    0.131157
  128          6             0       50.269019    1.239529    0.060415
  129          7             0       48.913777    1.348127    0.109315
  130          6             0       50.958881    0.027780   -0.032434
  131          6             0       50.270811   -1.185606   -0.115564
  132          6             0       50.897304   -2.469816   -0.192954
  133          6             0       49.896349   -3.376270   -0.287320
  134          6             0       48.665411   -2.640143   -0.263078
  135          7             0       48.915246   -1.298107   -0.145412
  136          6             0       47.430596   -3.248337   -0.373432
  137          6             0       46.195189   -2.631746   -0.350215
  138          7             0       45.942896   -1.297162   -0.169157
  139          1             0       44.898570   -4.414515   -0.658261
  140          1             0       42.905148   -2.605517   -0.468862
  141          1             0       42.904675    2.637902    0.512216
  142          1             0       44.895712    4.451915    0.680201
  143          1             0       47.425425    4.367630    0.480391
  144          1             0       49.957865    4.496722    0.320709
  145          1             0       51.951457    2.691823    0.090518
  146          1             0       51.956962   -2.632820   -0.167036
  147          1             0       49.965327   -4.444104   -0.365777
  148          1             0       47.431122   -4.322667   -0.492660
 --------------------------------------------------------------------
     1 basis functions        1 primitive gaussians
     1 alpha electrons        1 beta electrons

 Harmonic frequencies (cm**-1), IR intensities (km*mol⁻¹),
 Raman scattering activities (A**4/amu), Raman depolarization ratios,
 reduced masses (AMU), force constants (mDyne/A) and normal coordinates:
                      1                      2                      3
                        a                      a                      a 
 Frequencies --     1.6262                 3.5870                 5.6624
 Red. masses --    17.5443                16.9777                16.4177
 Frc consts  --     0.0000                 0.0000                 0.0000
 IR Inten    --     6.8990                 0.5513                 0.5871
 Raman Activ --     0.0000                 0.0000                 0.0000
 Depolar     --     0.0000                 0.0000                 0.0000
 Atom AN      X      Y      Z        X      Y      Z        X      Y      Z
   1  26    -0.00  -0.01  -0.18    -0.00  -0.16  -0.03     0.00  -0.07   0.06
   2   6    -0.03  -0.00  -0.04     0.03  -0.03   0.02     0.06  -0.01  -0.02
   3   6    -0.02  -0.00  -0.02     0.02  -0.01   0.02     0.05   0.00  -0.04
   4   6    -0.01  -0.00  -0.03     0.01  -0.03   0.02     0.02  -0.00  -0.03
   5   6     0.00  -0.00  -0.02    -0.00  -0.02   0.02     0.00   0.00  -0.04
   6   6     0.01  -0.00  -0.04    -0.01  -0.03   0.01    -0.02  -0.00  -0.03
   7   6     0.02  -0.00  -0.03    -0.02  -0.02   0.02    -0.05   0.00  -0.04
   8   6     0.03  -0.00  -0.04    -0.03  -0.03   0.01    -0.06  -0.01  -0.02
   9   6     0.02  -0.00  -0.06    -0.02  -0.05   0.00    -0.05  -0.02   0.00
  10   7     0.01  -0.00  -0.06    -0.01  -0.05   0.00    -0.03  -0.02  -0.00
  11   6     0.03  -0.00  -0.09    -0.03  -0.07  -0.01    -0.06  -0.03   0.03
  12   6     0.02  -0.00  -0.11    -0.02  -0.09  -0.03    -0.05  -0.04   0.05
  13   6     0.03  -0.01  -0.13    -0.03  -0.11  -0.04    -0.06  -0.05   0.08
  14   6     0.02  -0.01  -0.15    -0.02  -0.13  -0.06    -0.04  -0.06   0.10
  15   6     0.01  -0.01  -0.13    -0.01  -0.12  -0.05    -0.02  -0.06   0.08
  16   7     0.01  -0.00  -0.12    -0.01  -0.11  -0.04    -0.02  -0.05   0.06
  17   6    -0.00  -0.01  -0.15     0.00  -0.13  -0.06     0.00  -0.06   0.10
  18   6    -0.01  -0.00  -0.13     0.01  -0.12  -0.05     0.02  -0.06   0.09
  19   6    -0.02  -0.00  -0.14     0.02  -0.13  -0.06     0.04  -0.06   0.10
  20   6    -0.03  -0.00  -0.13     0.03  -0.11  -0.04     0.06  -0.05   0.08
  21   6    -0.02  -0.00  -0.10     0.02  -0.09  -0.03     0.05  -0.04   0.05
  22   7    -0.01  -0.00  -0.12     0.01  -0.11  -0.04     0.03  -0.05   0.06
  23   6    -0.03  -0.00  -0.08     0.03  -0.07  -0.01     0.06  -0.03   0.03
  24   6    -0.02  -0.00  -0.06     0.02  -0.05   0.00     0.05  -0.02   0.00
  25   7    -0.01  -0.00  -0.06     0.01  -0.05   0.00     0.03  -0.02  -0.00
  26   1    -0.01  -0.00  -0.01     0.01  -0.01   0.01     0.02  -0.00  -0.01
  27   1    -0.01  -0.00  -0.00     0.01   0.00   0.01     0.01   0.00  -0.02
  28   1     0.01  -0.00  -0.00    -0.01   0.00   0.01    -0.01   0.00  -0.02
  29   1     0.01  -0.00  -0.01    -0.01  -0.01   0.00    -0.02  -0.00  -0.01
  30   1     0.01  -0.00  -0.02    -0.01  -0.02  -0.00    -0.02  -0.01   0.01
  31   1     0.01  -0.00  -0.04    -0.01  -0.03  -0.01    -0.02  -0.02   0.02
  32   1     0.01  -0.00  -0.05    -0.01  -0.04  -0.02    -0.01  -0.02   0.03
  33   1     0.00  -0.00  -0.05     0.00  -0.04  -0.02     0.00  -0.02   0.03
  34   1    -0.01  -0.00  -0.05     0.01  -0.04  -0.02     0.01  -0.02   0.03
  35   1    -0.01  -0.00  -0.04     0.01  -0.03  -0.01     0.02  -0.02   0.02
  36   1    -0.01  -0.00  -0.02     0.01  -0.02  -0.00     0.02  -0.01   0.01
  37  26    -0.00   0.00  -0.18     0.00  -0.16   0.03     0.00  -0.07  -0.06
  38   6     0.03   0.00  -0.04     0.03  -0.03  -0.01     0.07  -0.00   0.02
  39   6     0.02   0.00  -0.02     0.02  -0.01  -0.02     0.05   0.01   0.04
  40   6     0.01   0.00  -0.03     0.01  -0.02  -0.01     0.02  -0.00   0.03
  41   6    -0.00   0.00  -0.02     0.00  -0.01  -0.02    -0.00   0.01   0.04
  42   6    -0.01   0.00  -0.03    -0.01  -0.03  -0.01    -0.02  -0.00   0.03
  43   6    -0.02   0.00  -0.02    -0.02  -0.01  -0.02    -0.05   0.01   0.04
  44   6    -0.03   0.00  -0.04    -0.03  -0.03  -0.01    -0.07  -0.01   0.02
  45   6    -0.02   0.00  -0.06    -0.02  -0.05   0.00    -0.05  -0.02  -0.00
  46   7    -0.01   0.00  -0.06    -0.01  -0.05  -0.00    -0.03  -0.02   0.00
  47   6    -0.03   0.00  -0.08    -0.03  -0.07   0.01    -0.07  -0.03  -0.03
  48   6    -0.02   0.00  -0.11    -0.02  -0.09   0.03    -0.05  -0.05  -0.05
  49   6    -0.03   0.00  -0.13    -0.03  -0.11   0.04    -0.07  -0.06  -0.08
  50   6    -0.02   0.00  -0.15    -0.02  -0.13   0.06    -0.05  -0.07  -0.10
  51   6    -0.01   0.00  -0.14    -0.01  -0.12   0.05    -0.02  -0.07  -0.08
  52   7    -0.01   0.00  -0.12    -0.01  -0.11   0.04    -0.03  -0.05  -0.06
  53   6     0.00   0.00  -0.15    -0.00  -0.13   0.06     0.00  -0.07  -0.10
  54   6     0.01   0.00  -0.14     0.01  -0.12   0.05     0.02  -0.07  -0.08
  55   6     0.02   0.00  -0.15     0.02  -0.13   0.06     0.05  -0.07  -0.10
  56   6     0.03   0.00  -0.13     0.03  -0.11   0.04     0.07  -0.06  -0.08
  57   6     0.02   0.00  -0.11     0.02  -0.09   0.03     0.05  -0.05  -0.05
  58   7     0.01   0.00  -0.12     0.01  -0.11   0.04     0.03  -0.05  -0.06
  59   6     0.03   0.00  -0.08     0.03  -0.07   0.01     0.07  -0.03  -0.03
  60   6     0.02   0.00  -0.06     0.02  -0.05  -0.00     0.05  -0.02  -0.00
  61   7     0.01   0.00  -0.06     0.01  -0.05  -0.00     0.03  -0.02   0.00
  62   1     0.01   0.00  -0.01     0.01  -0.01  -0.00     0.03  -0.00   0.01
  63   1     0.01   0.00  -0.00     0.01   0.00  -0.01     0.02   0.01   0.02
  64   1    -0.01   0.00  -0.00    -0.01   0.00  -0.01    -0.02   0.01   0.02
  65   1    -0.01   0.00  -0.01    -0.01  -0.01  -0.00    -0.03  -0.00   0.01
  66   1    -0.01   0.00  -0.02    -0.01  -0.02   0.00    -0.03  -0.01  -0.01
  67   1    -0.01   0.00  -0.04    -0.01  -0.03   0.01    -0.03  -0.02  -0.02
  68   1    -0.01   0.00  -0.05    -0.01  -0.04   0.02    -0.01  -0.02  -0.03
  69   1     0.00   0.00  -0.05    -0.00  -0.04   0.02     0.00  -0.02  -0.03
  70   1     0.01   0.00  -0.05     0.01  -0.04   0.02     0.02  -0.02  -0.03
  71   1     0.01   0.00  -0.04     0.01  -0.03   0.01     0.03  -0.02  -0.02
  72   1     0.01   0.00  -0.02     0.01  -0.02   0.00     0.03  -0.01  -0.01
  73   6     0.00  -0.00   0.00    -0.00   0.00   0.03    -0.00   0.01  -0.07
  74   6     0.00  -0.00   0.02    -0.00   0.02   0.04    -0.00   0.02  -0.09
  75   6     0.00   0.00   0.11     0.00   0.11   0.01    -0.00   0.04  -0.01
  76   6    -0.00  -0.00   0.11     0.00   0.11  -0.01    -0.00   0.04   0.01
  77   6    -0.00   0.00   0.02     0.00   0.02  -0.04    -0.00   0.03   0.09
  78   6    -0.00   0.00   0.00     0.00   0.01  -0.03    -0.00   0.02   0.07
  79  26     0.00   0.01   0.17    -0.00   0.15   0.10    -0.00   0.06  -0.20
  80   6    -0.00   0.00   0.06     0.03   0.05   0.06     0.00   0.02  -0.13
  81   6    -0.00   0.00   0.05     0.02   0.04   0.05     0.00   0.02  -0.12
  82   6    -0.00   0.00   0.05     0.01   0.04   0.05     0.00   0.02  -0.11
  83   6     0.00   0.00   0.04    -0.00   0.04   0.04    -0.00   0.02  -0.10
  84   6     0.00   0.00   0.05    -0.01   0.04   0.05    -0.00   0.02  -0.11
  85   6     0.00   0.00   0.05    -0.02   0.04   0.05    -0.00   0.02  -0.12
  86   6     0.00   0.00   0.06    -0.03   0.05   0.06    -0.00   0.02  -0.12
  87   6     0.00   0.00   0.07    -0.03   0.06   0.06    -0.00   0.02  -0.12
  88   7     0.00   0.00   0.07    -0.01   0.06   0.05    -0.00   0.02  -0.12
  89   6     0.00   0.00   0.09    -0.03   0.07   0.06    -0.00   0.02  -0.11
  90   6     0.00   0.00   0.09    -0.02   0.08   0.05    -0.00   0.03  -0.09
  91   6     0.01   0.00   0.10    -0.03   0.09   0.05     0.00   0.03  -0.07
  92   6     0.00   0.00   0.11    -0.02   0.10   0.04     0.00   0.03  -0.05
  93   6     0.00   0.00   0.10    -0.01   0.09   0.03     0.00   0.03  -0.05
  94   7     0.00   0.00   0.10    -0.01   0.09   0.05    -0.00   0.03  -0.08
  95   6     0.00   0.00   0.10     0.00   0.10   0.03    -0.00   0.04  -0.04
  96   6    -0.00   0.00   0.10     0.01   0.09   0.03    -0.00   0.03  -0.05
  97   6    -0.00   0.00   0.11     0.02   0.10   0.04    -0.00   0.03  -0.05
  98   6    -0.01   0.00   0.11     0.03   0.09   0.05    -0.00   0.03  -0.07
  99   6    -0.00   0.00   0.10     0.02   0.08   0.05     0.00   0.03  -0.09
 100   7    -0.00   0.00   0.10     0.01   0.09   0.05    -0.00   0.03  -0.08
 101   6    -0.00   0.00   0.09     0.03   0.07   0.06     0.00   0.02  -0.11
 102   6    -0.00   0.00   0.07     0.02   0.06   0.06     0.00   0.02  -0.12
 103   7    -0.00   0.00   0.07     0.01   0.06   0.06     0.00   0.02  -0.12
 104   1    -0.00   0.00   0.02     0.01   0.01   0.02     0.00   0.00  -0.04
 105   1    -0.00   0.00   0.01     0.01   0.01   0.01     0.00   0.01  -0.04
 106   1     0.00   0.00   0.01    -0.01   0.01   0.01    -0.00   0.01  -0.04
 107   1     0.00   0.00   0.02    -0.01   0.01   0.02    -0.00   0.00  -0.04
 108   1     0.00   0.00   0.03    -0.01   0.02   0.02    -0.00   0.01  -0.03
 109   1     0.00   0.00   0.03    -0.01   0.03   0.02     0.00   0.01  -0.02
 110   1     0.00   0.00   0.03    -0.01   0.03   0.01     0.00   0.01  -0.01
 111   1    -0.00   0.00   0.03     0.01   0.03   0.01    -0.00   0.01  -0.01
 112   1    -0.00   0.00   0.03     0.01   0.03   0.02    -0.00   0.01  -0.02
 113   1    -0.00   0.00   0.03     0.01   0.02   0.02     0.00   0.01  -0.04
 114  26    -0.00  -0.00   0.18     0.00   0.15  -0.10    -0.00   0.07   0.20
 115   6    -0.00  -0.00   0.11    -0.03   0.09  -0.05     0.00   0.04   0.07
 116   6    -0.00  -0.00   0.11    -0.02   0.10  -0.04     0.00   0.04   0.04
 117   6    -0.00  -0.00   0.10    -0.01   0.09  -0.04     0.00   0.04   0.05
 118   6     0.00  -0.00   0.10     0.00   0.10  -0.03    -0.00   0.04   0.04
 119   6     0.00  -0.00   0.10     0.01   0.09  -0.03    -0.00   0.04   0.05
 120   6     0.00  -0.00   0.11     0.02   0.10  -0.04    -0.00   0.04   0.05
 121   6     0.00  -0.00   0.11     0.03   0.09  -0.05    -0.00   0.04   0.07
 122   6     0.00  -0.00   0.10     0.02   0.08  -0.05    -0.00   0.03   0.09
 123   7     0.00  -0.00   0.10     0.01   0.09  -0.05    -0.00   0.04   0.08
 124   6     0.00  -0.00   0.09     0.03   0.07  -0.06     0.00   0.03   0.11
 125   6     0.00  -0.00   0.08     0.02   0.06  -0.06     0.00   0.03   0.11
 126   6     0.00  -0.00   0.06     0.03   0.05  -0.06     0.00   0.03   0.12
 127   6     0.00  -0.00   0.05     0.02   0.04  -0.05     0.00   0.03   0.12
 128   6     0.00  -0.00   0.05     0.01   0.04  -0.05     0.00   0.03   0.11
 129   7     0.00  -0.00   0.07     0.01   0.06  -0.05     0.00   0.03   0.11
 130   6    -0.00  -0.00   0.04     0.00   0.04  -0.04    -0.00   0.03   0.10
 131   6    -0.00  -0.00   0.05    -0.01   0.04  -0.05    -0.00   0.03   0.11
 132   6    -0.00  -0.00   0.05    -0.02   0.04  -0.05    -0.00   0.03   0.12
 133   6    -0.00  -0.00   0.06    -0.03   0.05  -0.06    -0.00   0.03   0.12
 134   6    -0.00  -0.00   0.07    -0.02   0.06  -0.06    -0.00   0.03   0.11
 135   7    -0.00  -0.00   0.07    -0.01   0.06  -0.05    -0.00   0.03   0.11
 136   6    -0.00  -0.00   0.09    -0.03   0.07  -0.06    -0.00   0.03   0.11
 137   6    -0.00  -0.00   0.10    -0.02   0.08  -0.05    -0.00   0.03   0.09
 138   7    -0.00  -0.00   0.10    -0.01   0.09  -0.05    -0.00   0.04   0.08
 139   1    -0.00  -0.00   0.03    -0.01   0.03  -0.02     0.00   0.01   0.02
 140   1    -0.00  -0.00   0.03    -0.01   0.03  -0.01     0.00   0.01   0.01
 141   1     0.00  -0.00   0.03     0.01   0.03  -0.01    -0.00   0.01   0.01
 142   1     0.00  -0.00   0.03     0.01   0.03  -0.02    -0.00   0.01   0.02
 143   1     0.00  -0.00   0.03     0.01   0.02  -0.02     0.00   0.01   0.03
 144   1     0.00  -0.00   0.02     0.01   0.01  -0.02     0.00   0.01   0.04
 145   1    -0.00  -0.00   0.01     0.01   0.01  -0.01     0.00   0.01   0.04
 146   1    -0.00  -0.00   0.01    -0.01   0.01  -0.01    -0.00   0.01   0.04
 147   1    -0.00  -0.00   0.02    -0.01   0.01  -0.02    -0.00   0.01   0.04
 148   1    -0.00  -0.00   0.03    -0.01   0.02  -0.02    -0.00   0.01   0.03
                      4                      5                      6
                        a                      a                      a 
 Frequencies --     7.7843                 9.1457                12.3992
 Red. masses --    11.2150                13.4000                11.6098
 Frc consts  --     0.0000                 0.0000                 0.0000
 IR Inten    --   711.3003                 0.6178               102.7505
 Raman Activ --     0.0000                 0.0000                 0.0000
 Depolar     --     0.0000                 0.0000                 0.0000
 Atom AN      X      Y      Z        X      Y      Z        X      Y      Z
   1  26    -0.00   0.00  -0.00    -0.00   0.04  -0.02     0.00   0.02   0.03
   2   6    -0.01  -0.10  -0.15    -0.06  -0.07  -0.06     0.03   0.11   0.15
   3   6    -0.00  -0.07  -0.11    -0.05  -0.09  -0.06     0.02   0.11   0.13
   4   6    -0.00  -0.04  -0.05    -0.02  -0.07  -0.04     0.01   0.08   0.08
   5   6    -0.00  -0.00  -0.00     0.00  -0.08  -0.04     0.00   0.07   0.06
   6   6     0.00   0.03   0.05     0.02  -0.07  -0.05    -0.01   0.06   0.04
   7   6     0.00   0.06   0.10     0.05  -0.10  -0.07    -0.02   0.06   0.05
   8   6     0.00   0.09   0.15     0.07  -0.08  -0.07    -0.02   0.04   0.03
   9   6     0.00   0.07   0.12     0.05  -0.04  -0.05    -0.02   0.02   0.01
  10   7     0.00   0.04   0.06     0.03  -0.04  -0.04    -0.01   0.03   0.02
  11   6     0.00   0.09   0.15     0.06   0.00  -0.04    -0.02  -0.02  -0.04
  12   6     0.00   0.08   0.13     0.05   0.05  -0.00    -0.02  -0.05  -0.07
  13   6     0.00   0.10   0.17     0.07   0.09   0.02    -0.03  -0.09  -0.13
  14   6     0.00   0.08   0.13     0.05   0.13   0.06    -0.02  -0.12  -0.16
  15   6    -0.00   0.04   0.06     0.02   0.12   0.05    -0.01  -0.09  -0.11
  16   7     0.00   0.04   0.07     0.03   0.07   0.02    -0.01  -0.05  -0.07
  17   6    -0.00   0.01   0.00    -0.00   0.15   0.08     0.00  -0.09  -0.11
  18   6    -0.00  -0.03  -0.06    -0.03   0.12   0.06     0.01  -0.05  -0.05
  19   6    -0.00  -0.06  -0.12    -0.05   0.14   0.08     0.02  -0.04  -0.02
  20   6    -0.01  -0.09  -0.17    -0.07   0.10   0.04     0.03   0.01   0.04
  21   6    -0.00  -0.07  -0.13    -0.05   0.06   0.01     0.02   0.03   0.06
  22   7    -0.00  -0.04  -0.07    -0.03   0.08   0.03     0.01  -0.01   0.00
  23   6    -0.01  -0.09  -0.16    -0.07   0.01  -0.02     0.03   0.07   0.11
  24   6    -0.00  -0.07  -0.12    -0.05  -0.03  -0.04     0.02   0.08   0.11
  25   7    -0.00  -0.04  -0.07    -0.03  -0.03  -0.03     0.01   0.07   0.08
  26   1    -0.00  -0.04  -0.06    -0.02  -0.02  -0.02     0.01   0.04   0.05
  27   1    -0.00  -0.02  -0.03    -0.01  -0.04  -0.02     0.01   0.04   0.04
  28   1     0.00   0.02   0.03     0.01  -0.04  -0.02    -0.00   0.02   0.02
  29   1     0.00   0.03   0.06     0.02  -0.03  -0.03    -0.01   0.01   0.01
  30   1     0.00   0.03   0.06     0.02  -0.00  -0.01    -0.01  -0.01  -0.01
  31   1     0.00   0.04   0.06     0.03   0.03   0.00    -0.01  -0.03  -0.04
  32   1     0.00   0.02   0.04     0.02   0.05   0.02    -0.01  -0.04  -0.06
  33   1    -0.00   0.00   0.00    -0.00   0.05   0.03     0.00  -0.04  -0.04
  34   1    -0.00  -0.02  -0.04    -0.02   0.05   0.03     0.01  -0.02  -0.02
  35   1    -0.00  -0.03  -0.06    -0.03   0.03   0.01     0.01   0.01   0.02
  36   1    -0.00  -0.03  -0.06    -0.03   0.00  -0.01     0.01   0.03   0.04
  37  26     0.00  -0.00  -0.00    -0.00  -0.03  -0.01    -0.00   0.02  -0.02
  38   6     0.01   0.10  -0.16     0.06   0.07  -0.05     0.02   0.11  -0.13
  39   6     0.00   0.08  -0.12     0.05   0.09  -0.06     0.02   0.10  -0.11
  40   6     0.00   0.04  -0.06     0.02   0.07  -0.04     0.01   0.07  -0.08
  41   6     0.00   0.01  -0.00     0.00   0.09  -0.05    -0.00   0.07  -0.06
  42   6    -0.00  -0.03   0.05    -0.02   0.07  -0.05    -0.01   0.05  -0.04
  43   6    -0.00  -0.06   0.10    -0.04   0.10  -0.07    -0.02   0.06  -0.05
  44   6    -0.00  -0.09   0.15    -0.06   0.08  -0.07    -0.02   0.04  -0.03
  45   6    -0.00  -0.07   0.12    -0.05   0.04  -0.05    -0.02   0.02  -0.01
  46   7    -0.00  -0.04   0.06    -0.03   0.04  -0.04    -0.01   0.03  -0.02
  47   6    -0.00  -0.10   0.15    -0.06   0.00  -0.03    -0.02  -0.02   0.03
  48   6    -0.00  -0.08   0.13    -0.05  -0.05   0.00    -0.02  -0.05   0.07
  49   6    -0.00  -0.11   0.17    -0.07  -0.09   0.03    -0.03  -0.09   0.12
  50   6    -0.00  -0.08   0.13    -0.05  -0.13   0.07    -0.02  -0.11   0.15
  51   6    -0.00  -0.04   0.07    -0.02  -0.12   0.06    -0.01  -0.08   0.10
  52   7    -0.00  -0.05   0.07    -0.03  -0.07   0.02    -0.01  -0.05   0.06
  53   6     0.00  -0.01   0.01    -0.00  -0.15   0.08    -0.00  -0.09   0.10
  54   6     0.00   0.03  -0.06     0.02  -0.12   0.07     0.01  -0.05   0.04
  55   6     0.00   0.06  -0.12     0.05  -0.14   0.08     0.02  -0.04   0.02
  56   6     0.01   0.09  -0.17     0.06  -0.10   0.05     0.02   0.01  -0.04
  57   6     0.00   0.08  -0.13     0.05  -0.06   0.02     0.02   0.02  -0.05
  58   7     0.00   0.04  -0.07     0.03  -0.07   0.03     0.01  -0.01  -0.00
  59   6     0.01   0.10  -0.16     0.06  -0.01  -0.01     0.02   0.06  -0.10
  60   6     0.00   0.08  -0.13     0.05   0.03  -0.03     0.02   0.08  -0.10
  61   7     0.00   0.04  -0.07     0.03   0.03  -0.03     0.01   0.06  -0.07
  62   1     0.00   0.04  -0.06     0.02   0.02  -0.02     0.01   0.04  -0.05
  63   1     0.00   0.02  -0.04     0.01   0.04  -0.02     0.01   0.03  -0.04
  64   1    -0.00  -0.02   0.03    -0.01   0.04  -0.02    -0.00   0.02  -0.02
  65   1    -0.00  -0.04   0.06    -0.02   0.03  -0.02    -0.01   0.01  -0.01
  66   1    -0.00  -0.04   0.06    -0.02   0.00  -0.01    -0.01  -0.01   0.01
  67   1    -0.00  -0.04   0.06    -0.02  -0.03   0.01    -0.01  -0.03   0.04
  68   1    -0.00  -0.03   0.04    -0.02  -0.05   0.03    -0.01  -0.04   0.05
  69   1     0.00  -0.00   0.00    -0.00  -0.05   0.03    -0.00  -0.03   0.04
  70   1     0.00   0.02  -0.04     0.01  -0.05   0.03     0.01  -0.02   0.01
  71   1     0.00   0.04  -0.06     0.02  -0.03   0.01     0.01   0.01  -0.02
  72   1     0.00   0.04  -0.06     0.02  -0.00  -0.01     0.01   0.02  -0.04
  73   6    -0.00  -0.01  -0.00     0.00  -0.11  -0.04     0.00   0.08   0.06
  74   6    -0.00  -0.01  -0.00     0.00  -0.11  -0.02     0.00   0.07   0.05
  75   6     0.00  -0.00   0.00     0.00  -0.01   0.02    -0.00  -0.08  -0.01
  76   6     0.00  -0.00   0.00     0.00   0.01   0.02    -0.00  -0.08   0.01
  77   6     0.00   0.01  -0.00     0.00   0.12  -0.03    -0.00   0.07  -0.04
  78   6     0.00   0.01  -0.00     0.00   0.11  -0.04    -0.00   0.07  -0.06
  79  26     0.00  -0.01   0.00     0.00  -0.14   0.02    -0.00  -0.03  -0.04
  80   6     0.00  -0.02  -0.08     0.03  -0.09   0.01    -0.05   0.02  -0.07
  81   6     0.00  -0.01  -0.06     0.02  -0.10   0.00    -0.04   0.04  -0.03
  82   6     0.00  -0.01  -0.03     0.01  -0.09  -0.00    -0.02   0.03  -0.00
  83   6    -0.00  -0.01   0.00     0.00  -0.10  -0.01     0.00   0.05   0.03
  84   6    -0.00  -0.00   0.03    -0.01  -0.10  -0.01     0.02   0.04   0.03
  85   6    -0.00   0.00   0.06    -0.02  -0.10  -0.01     0.04   0.05   0.06
  86   6    -0.00   0.01   0.08    -0.03  -0.09  -0.00     0.05   0.04   0.06
  87   6    -0.00   0.00   0.06    -0.02  -0.08   0.00     0.04   0.01   0.04
  88   7    -0.00  -0.00   0.03    -0.01  -0.09   0.00     0.02   0.02   0.02
  89   6    -0.00   0.01   0.06    -0.03  -0.06   0.01     0.05  -0.00   0.04
  90   6    -0.00   0.00   0.04    -0.02  -0.05   0.01     0.04  -0.02   0.03
  91   6    -0.00   0.01   0.04    -0.03  -0.04   0.02     0.05  -0.03   0.05
  92   6    -0.00   0.00   0.03    -0.02  -0.03   0.02     0.03  -0.05   0.03
  93   6    -0.00   0.00   0.01    -0.01  -0.04   0.02     0.02  -0.05   0.01
  94   7    -0.00   0.00   0.02    -0.01  -0.05   0.02     0.02  -0.03   0.01
  95   6     0.00  -0.00   0.00     0.00  -0.03   0.02    -0.00  -0.06  -0.02
  96   6     0.00  -0.01  -0.01     0.01  -0.04   0.02    -0.02  -0.06  -0.06
  97   6     0.00  -0.01  -0.03     0.02  -0.03   0.03    -0.03  -0.09  -0.11
  98   6     0.00  -0.01  -0.04     0.03  -0.04   0.03    -0.05  -0.08  -0.14
  99   6     0.00  -0.01  -0.04     0.02  -0.05   0.02    -0.04  -0.05  -0.11
 100   7     0.00  -0.01  -0.02     0.01  -0.05   0.02    -0.02  -0.05  -0.07
 101   6     0.00  -0.01  -0.06     0.03  -0.06   0.02    -0.05  -0.03  -0.11
 102   6     0.00  -0.01  -0.05     0.03  -0.08   0.01    -0.04  -0.00  -0.07
 103   7     0.00  -0.01  -0.03     0.01  -0.09   0.01    -0.02   0.01  -0.03
 104   1     0.00  -0.01  -0.03     0.01  -0.03   0.00    -0.02   0.00  -0.03
 105   1     0.00  -0.00  -0.02     0.01  -0.03  -0.00    -0.01   0.02  -0.00
 106   1    -0.00   0.00   0.02    -0.01  -0.03  -0.00     0.01   0.02   0.02
 107   1    -0.00   0.00   0.03    -0.01  -0.03   0.00     0.02   0.01   0.02
 108   1    -0.00   0.00   0.02    -0.01  -0.02   0.00     0.02   0.00   0.02
 109   1    -0.00   0.00   0.02    -0.01  -0.01   0.01     0.02  -0.01   0.02
 110   1    -0.00   0.00   0.01    -0.01  -0.01   0.01     0.01  -0.02   0.01
 111   1     0.00  -0.00  -0.01     0.01  -0.01   0.01    -0.01  -0.03  -0.04
 112   1     0.00  -0.00  -0.02     0.01  -0.01   0.01    -0.02  -0.03  -0.05
 113   1     0.00  -0.01  -0.02     0.01  -0.02   0.01    -0.02  -0.01  -0.04
 114  26     0.00   0.01   0.00     0.00   0.14   0.00    -0.00  -0.02   0.04
 115   6     0.00  -0.00   0.04     0.04   0.04   0.01     0.05  -0.04  -0.05
 116   6     0.00  -0.00   0.02     0.03   0.02   0.02     0.03  -0.05  -0.04
 117   6     0.00   0.00   0.01     0.01   0.03   0.02     0.02  -0.05  -0.01
 118   6     0.00   0.00   0.00     0.00   0.02   0.02    -0.00  -0.06   0.02
 119   6     0.00   0.00  -0.01    -0.01   0.03   0.02    -0.02  -0.06   0.06
 120   6    -0.00   0.00  -0.02    -0.03   0.02   0.02    -0.03  -0.08   0.11
 121   6    -0.00   0.01  -0.03    -0.04   0.03   0.02    -0.05  -0.06   0.14
 122   6    -0.00   0.01  -0.03    -0.03   0.05   0.02    -0.04  -0.04   0.11
 123   7    -0.00   0.00  -0.02    -0.02   0.05   0.01    -0.02  -0.04   0.07
 124   6    -0.00   0.01  -0.05    -0.04   0.06   0.01    -0.05  -0.02   0.11
 125   6    -0.00   0.01  -0.05    -0.03   0.08   0.00    -0.04   0.00   0.08
 126   6    -0.00   0.01  -0.08    -0.04   0.09   0.00    -0.05   0.02   0.07
 127   6    -0.00   0.01  -0.07    -0.03   0.10  -0.01    -0.04   0.04   0.03
 128   6    -0.00   0.01  -0.03    -0.01   0.10  -0.01    -0.02   0.03   0.01
 129   7    -0.00   0.01  -0.03    -0.01   0.09  -0.00    -0.02   0.01   0.04
 130   6     0.00   0.01  -0.00     0.00   0.11  -0.02    -0.00   0.05  -0.03
 131   6     0.00   0.00   0.03     0.01   0.10  -0.02     0.02   0.04  -0.04
 132   6     0.00   0.00   0.06     0.03   0.10  -0.02     0.04   0.05  -0.06
 133   6     0.00   0.00   0.08     0.04   0.09  -0.02     0.05   0.03  -0.06
 134   6     0.00   0.00   0.05     0.03   0.08  -0.01     0.04   0.01  -0.04
 135   7     0.00   0.00   0.03     0.02   0.09  -0.01     0.02   0.02  -0.03
 136   6     0.00  -0.00   0.05     0.04   0.06   0.00     0.05  -0.00  -0.05
 137   6     0.00  -0.00   0.04     0.03   0.05   0.01     0.04  -0.02  -0.03
 138   7     0.00   0.00   0.02     0.02   0.05   0.01     0.02  -0.03  -0.01
 139   1     0.00  -0.00   0.01     0.01   0.01   0.00     0.02  -0.01  -0.02
 140   1     0.00  -0.00   0.01     0.01   0.00   0.01     0.01  -0.02  -0.01
 141   1    -0.00   0.00  -0.00    -0.01   0.00   0.01    -0.01  -0.03   0.04
 142   1    -0.00   0.00  -0.01    -0.01   0.01   0.01    -0.02  -0.02   0.05
 143   1    -0.00   0.00  -0.02    -0.01   0.02   0.00    -0.02  -0.01   0.04
 144   1    -0.00   0.00  -0.03    -0.01   0.03   0.00    -0.02   0.01   0.03
 145   1    -0.00   0.00  -0.02    -0.01   0.03  -0.00    -0.01   0.02   0.00
 146   1     0.00   0.00   0.02     0.01   0.03  -0.01     0.01   0.02  -0.02
 147   1     0.00  -0.00   0.03     0.01   0.03  -0.00     0.02   0.01  -0.02
 148   1     0.00  -0.00   0.02     0.01   0.02   0.00     0.02  -0.00  -0.02
                      7                      8                      9
                        a                      a                      a 
 Frequencies --    12.5394                13.3851                16.9360
 Red. masses --    11.4489                11.8828                11.2077
 Frc consts  --     0.0000                 0.0000                 0.0000
 IR Inten    --   336.6754                31.7000                 8.2807
 Raman Activ --     0.0000                 0.0000                 0.0000
 Depolar     --     0.0000                 0.0000                 0.0000
 Atom AN      X      Y      Z        X      Y      Z        X      Y      Z
   1  26     0.00   0.02   0.02    -0.00   0.02   0.02    -0.00  -0.00  -0.00
   2   6     0.01   0.01  -0.01    -0.07   0.00   0.09    -0.00   0.01   0.02
   3   6     0.01   0.03   0.02    -0.05  -0.01   0.10    -0.00  -0.00   0.00
   4   6     0.00   0.03   0.03    -0.02  -0.01   0.08    -0.00  -0.00   0.00
   5   6     0.00   0.05   0.05    -0.00  -0.02   0.10    -0.00  -0.00   0.00
   6   6    -0.00   0.06   0.08     0.02  -0.01   0.08     0.00  -0.00   0.00
   7   6    -0.01   0.09   0.12     0.05  -0.01   0.10     0.00  -0.00   0.00
   8   6    -0.01   0.10   0.15     0.06  -0.00   0.08     0.00  -0.01  -0.02
   9   6    -0.01   0.08   0.12     0.05   0.00   0.05     0.00  -0.01  -0.03
  10   7    -0.01   0.06   0.08     0.02  -0.00   0.05     0.00  -0.01  -0.01
  11   6    -0.01   0.07   0.13     0.06   0.01   0.01     0.00  -0.03  -0.05
  12   6    -0.01   0.04   0.08     0.05   0.01  -0.03     0.00  -0.03  -0.06
  13   6    -0.02   0.03   0.08     0.06   0.02  -0.07     0.00  -0.04  -0.08
  14   6    -0.01  -0.01   0.01     0.04   0.02  -0.11     0.00  -0.04  -0.07
  15   6    -0.01  -0.02  -0.02     0.02   0.01  -0.09     0.00  -0.02  -0.03
  16   7    -0.01   0.01   0.02     0.02   0.01  -0.04     0.00  -0.02  -0.03
  17   6     0.00  -0.06  -0.09    -0.00   0.02  -0.11    -0.00   0.00  -0.00
  18   6     0.01  -0.07  -0.11    -0.02   0.02  -0.08    -0.00   0.02   0.03
  19   6     0.01  -0.11  -0.17    -0.05   0.02  -0.10    -0.00   0.04   0.07
  20   6     0.02  -0.10  -0.16    -0.06   0.02  -0.06    -0.00   0.05   0.08
  21   6     0.01  -0.06  -0.09    -0.05   0.02  -0.02    -0.00   0.03   0.05
  22   7     0.01  -0.05  -0.07    -0.03   0.02  -0.04    -0.00   0.02   0.03
  23   6     0.01  -0.03  -0.07    -0.06   0.02   0.02    -0.00   0.03   0.05
  24   6     0.01  -0.00  -0.02    -0.05   0.01   0.05    -0.00   0.01   0.03
  25   7     0.01   0.01   0.01    -0.03   0.00   0.06    -0.00   0.01   0.01
  26   1     0.00   0.00  -0.01    -0.02   0.00   0.03    -0.00   0.00   0.01
  27   1     0.00   0.01   0.01    -0.02  -0.01   0.04     0.00  -0.00  -0.00
  28   1    -0.00   0.03   0.04     0.01  -0.01   0.03     0.00   0.00   0.00
  29   1    -0.01   0.04   0.05     0.02  -0.00   0.02     0.00  -0.00  -0.01
  30   1    -0.01   0.03   0.05     0.02   0.00   0.00     0.00  -0.01  -0.02
  31   1    -0.01   0.02   0.04     0.02   0.01  -0.02     0.00  -0.02  -0.03
  32   1    -0.00  -0.01  -0.00     0.01   0.01  -0.04     0.00  -0.01  -0.02
  33   1     0.00  -0.03  -0.04    -0.00   0.00  -0.04    -0.00   0.00  -0.00
  34   1     0.00  -0.04  -0.06    -0.01   0.01  -0.04    -0.00   0.01   0.02
  35   1     0.01  -0.03  -0.05    -0.02   0.01  -0.02    -0.00   0.02   0.03
  36   1     0.01  -0.01  -0.03    -0.02   0.01   0.01    -0.00   0.01   0.02
  37  26    -0.00   0.01  -0.02     0.01  -0.02   0.03     0.00  -0.00  -0.00
  38   6     0.02   0.01   0.02     0.07  -0.00   0.10     0.00  -0.01   0.02
  39   6     0.01   0.03  -0.01     0.05   0.01   0.12     0.00   0.00   0.00
  40   6     0.01   0.03  -0.02     0.02   0.01   0.09     0.00   0.00   0.00
  41   6    -0.00   0.05  -0.04     0.00   0.01   0.11     0.00   0.00   0.00
  42   6    -0.01   0.06  -0.06    -0.02   0.00   0.10    -0.00   0.00  -0.00
  43   6    -0.02   0.09  -0.10    -0.05   0.00   0.12    -0.00   0.00  -0.00
  44   6    -0.02   0.10  -0.13    -0.06  -0.01   0.11    -0.00   0.01  -0.02
  45   6    -0.02   0.07  -0.10    -0.05  -0.01   0.07    -0.00   0.02  -0.03
  46   7    -0.01   0.05  -0.07    -0.03  -0.01   0.07    -0.00   0.01  -0.01
  47   6    -0.02   0.07  -0.11    -0.06  -0.02   0.03    -0.00   0.03  -0.05
  48   6    -0.02   0.04  -0.08    -0.05  -0.02  -0.02    -0.00   0.03  -0.06
  49   6    -0.02   0.03  -0.08    -0.06  -0.02  -0.06    -0.00   0.05  -0.08
  50   6    -0.02  -0.01  -0.03    -0.04  -0.01  -0.11    -0.00   0.04  -0.07
  51   6    -0.01  -0.03   0.01    -0.02  -0.01  -0.09    -0.00   0.02  -0.03
  52   7    -0.01   0.00  -0.03    -0.02  -0.01  -0.04    -0.00   0.02  -0.03
  53   6    -0.00  -0.07   0.07     0.00  -0.00  -0.13     0.00  -0.00   0.00
  54   6     0.01  -0.07   0.09     0.03  -0.00  -0.10     0.00  -0.02   0.03
  55   6     0.01  -0.11   0.14     0.05  -0.00  -0.12     0.00  -0.04   0.07
  56   6     0.02  -0.10   0.14     0.07  -0.01  -0.08     0.00  -0.05   0.08
  57   6     0.02  -0.06   0.09     0.05  -0.01  -0.03     0.00  -0.03   0.06
  58   7     0.01  -0.05   0.06     0.03  -0.01  -0.05     0.00  -0.02   0.03
  59   6     0.02  -0.04   0.07     0.07  -0.01   0.02     0.00  -0.03   0.05
  60   6     0.02  -0.01   0.03     0.05  -0.01   0.06     0.00  -0.01   0.03
  61   7     0.01   0.01   0.00     0.03  -0.00   0.07     0.00  -0.01   0.01
  62   1     0.01   0.00   0.01     0.03  -0.00   0.03     0.00  -0.00   0.01
  63   1     0.00   0.01  -0.01     0.02   0.00   0.04     0.00   0.00  -0.00
  64   1    -0.00   0.03  -0.03    -0.01   0.00   0.04    -0.00  -0.00   0.00
  65   1    -0.01   0.03  -0.05    -0.02  -0.00   0.03    -0.00   0.01  -0.01
  66   1    -0.01   0.03  -0.04    -0.02  -0.01   0.01    -0.00   0.01  -0.02
  67   1    -0.01   0.02  -0.04    -0.02  -0.01  -0.02    -0.00   0.02  -0.03
  68   1    -0.01  -0.01  -0.00    -0.01  -0.00  -0.04    -0.00   0.01  -0.02
  69   1    -0.00  -0.03   0.03     0.00   0.00  -0.05     0.00  -0.00   0.00
  70   1     0.00  -0.04   0.05     0.02   0.00  -0.05     0.00  -0.01   0.02
  71   1     0.01  -0.03   0.05     0.03  -0.00  -0.02     0.00  -0.02   0.03
  72   1     0.01  -0.01   0.03     0.03  -0.00   0.01     0.00  -0.01   0.02
  73   6     0.00   0.05   0.05    -0.00  -0.03   0.12    -0.00  -0.00   0.00
  74   6     0.00   0.05   0.04    -0.00  -0.03   0.12    -0.00  -0.00   0.01
  75   6     0.00  -0.05  -0.01    -0.00  -0.01  -0.14    -0.00  -0.00  -0.01
  76   6     0.00  -0.05  -0.00    -0.00   0.00  -0.15     0.00  -0.00  -0.01
  77   6    -0.00   0.05  -0.03     0.00   0.03   0.13     0.00   0.00   0.00
  78   6    -0.00   0.06  -0.04     0.00   0.03   0.13     0.00   0.00   0.00
  79  26     0.00  -0.02  -0.03    -0.00  -0.05  -0.01    -0.00  -0.00   0.00
  80   6    -0.03   0.03   0.09     0.02  -0.03   0.09    -0.00  -0.03  -0.19
  81   6    -0.02   0.04   0.08     0.01  -0.03   0.12    -0.00  -0.02  -0.14
  82   6    -0.01   0.03   0.04     0.01  -0.03   0.09    -0.00  -0.01  -0.07
  83   6     0.00   0.03   0.03    -0.00  -0.03   0.11    -0.00   0.00   0.01
  84   6     0.01   0.02  -0.01    -0.01  -0.03   0.09    -0.00   0.01   0.08
  85   6     0.03   0.02  -0.04    -0.02  -0.03   0.11    -0.00   0.02   0.15
  86   6     0.04   0.00  -0.09    -0.02  -0.03   0.09    -0.00   0.03   0.21
  87   6     0.03  -0.01  -0.09    -0.02  -0.03   0.04    -0.00   0.02   0.16
  88   7     0.02  -0.00  -0.04    -0.01  -0.03   0.05    -0.00   0.01   0.08
  89   6     0.03  -0.03  -0.14    -0.03  -0.02  -0.00    -0.00   0.03   0.18
  90   6     0.03  -0.05  -0.13    -0.02  -0.02  -0.05    -0.00   0.03   0.13
  91   6     0.03  -0.07  -0.17    -0.03  -0.02  -0.09    -0.00   0.04   0.16
  92   6     0.02  -0.08  -0.14    -0.02  -0.02  -0.12    -0.00   0.03   0.10
  93   6     0.01  -0.05  -0.08    -0.01  -0.02  -0.10    -0.00   0.01   0.05
  94   7     0.01  -0.04  -0.08    -0.01  -0.02  -0.06    -0.00   0.01   0.07
  95   6     0.00  -0.05  -0.02    -0.00  -0.02  -0.12    -0.00  -0.00  -0.01
  96   6    -0.01  -0.03   0.02     0.01  -0.02  -0.11    -0.00  -0.01  -0.06
  97   6    -0.02  -0.03   0.06     0.02  -0.02  -0.13    -0.00  -0.03  -0.11
  98   6    -0.03  -0.01   0.09     0.03  -0.02  -0.10    -0.00  -0.04  -0.17
  99   6    -0.02  -0.01   0.06     0.02  -0.02  -0.05    -0.00  -0.03  -0.14
 100   7    -0.01  -0.02   0.02     0.01  -0.02  -0.07    -0.00  -0.01  -0.07
 101   6    -0.03   0.01   0.08     0.02  -0.02  -0.01    -0.00  -0.03  -0.18
 102   6    -0.03   0.01   0.06     0.02  -0.03   0.04    -0.00  -0.02  -0.15
 103   7    -0.01   0.01   0.04     0.01  -0.03   0.05    -0.00  -0.01  -0.08
 104   1    -0.01   0.01   0.03     0.01  -0.01   0.03    -0.00  -0.01  -0.07
 105   1    -0.01   0.01   0.02     0.00  -0.01   0.05    -0.00  -0.00  -0.04
 106   1     0.01   0.01  -0.01    -0.00  -0.01   0.04    -0.00   0.01   0.05
 107   1     0.01  -0.00  -0.04    -0.01  -0.01   0.03    -0.00   0.01   0.08
 108   1     0.01  -0.01  -0.05    -0.01  -0.01  -0.00    -0.00   0.01   0.07
 109   1     0.01  -0.02  -0.06    -0.01  -0.01  -0.03    -0.00   0.01   0.06
 110   1     0.01  -0.03  -0.04    -0.01  -0.00  -0.05    -0.00   0.01   0.03
 111   1    -0.01  -0.01   0.02     0.01  -0.01  -0.05    -0.00  -0.01  -0.03
 112   1    -0.01  -0.00   0.03     0.01  -0.01  -0.03    -0.00  -0.01  -0.06
 113   1    -0.01   0.00   0.03     0.01  -0.01  -0.00     0.00  -0.01  -0.07
 114  26     0.00  -0.01   0.03     0.00   0.05  -0.04     0.00   0.00   0.00
 115   6     0.04  -0.05   0.16     0.03   0.02  -0.12     0.01  -0.02   0.17
 116   6     0.03  -0.06   0.12     0.02   0.02  -0.15     0.00  -0.02   0.11
 117   6     0.01  -0.04   0.06     0.01   0.02  -0.12     0.00  -0.01   0.05
 118   6     0.00  -0.04   0.01    -0.00   0.01  -0.13     0.00  -0.00  -0.00
 119   6    -0.01  -0.03  -0.03    -0.01   0.02  -0.11     0.00   0.01  -0.06
 120   6    -0.03  -0.03  -0.08    -0.02   0.01  -0.13     0.00   0.02  -0.12
 121   6    -0.04  -0.02  -0.10    -0.03   0.02  -0.10     0.00   0.02  -0.17
 122   6    -0.03  -0.01  -0.07    -0.02   0.02  -0.06     0.00   0.02  -0.14
 123   7    -0.01  -0.02  -0.03    -0.01   0.02  -0.07     0.00   0.01  -0.08
 124   6    -0.04   0.01  -0.08    -0.02   0.02  -0.01    -0.00   0.02  -0.18
 125   6    -0.03   0.01  -0.06    -0.01   0.03   0.04    -0.00   0.02  -0.15
 126   6    -0.04   0.03  -0.08    -0.02   0.03   0.09    -0.00   0.02  -0.20
 127   6    -0.03   0.04  -0.06    -0.01   0.03   0.12     0.00   0.01  -0.15
 128   6    -0.01   0.03  -0.03    -0.00   0.03   0.09     0.00   0.01  -0.07
 129   7    -0.02   0.02  -0.03    -0.01   0.03   0.05     0.00   0.01  -0.08
 130   6    -0.00   0.04  -0.01     0.00   0.03   0.11     0.00   0.00   0.00
 131   6     0.01   0.03   0.02     0.01   0.03   0.08     0.00  -0.00   0.07
 132   6     0.03   0.03   0.05     0.01   0.03   0.11     0.00  -0.01   0.15
 133   6     0.04   0.02   0.10     0.02   0.03   0.07     0.00  -0.01   0.21
 134   6     0.03   0.00   0.09     0.02   0.03   0.02     0.00  -0.01   0.16
 135   7     0.02   0.01   0.05     0.01   0.03   0.04     0.00  -0.01   0.08
 136   6     0.04  -0.02   0.13     0.02   0.03  -0.03     0.00  -0.02   0.19
 137   6     0.03  -0.03   0.12     0.02   0.02  -0.08     0.00  -0.02   0.14
 138   7     0.02  -0.03   0.07     0.01   0.02  -0.08     0.00  -0.01   0.07
 139   1     0.01  -0.02   0.06     0.01   0.01  -0.04     0.00  -0.01   0.06
 140   1     0.01  -0.02   0.04     0.01   0.00  -0.05     0.00  -0.01   0.03
 141   1    -0.01  -0.01  -0.03    -0.01   0.00  -0.05     0.00   0.01  -0.03
 142   1    -0.01  -0.00  -0.04    -0.01   0.00  -0.03     0.00   0.01  -0.06
 143   1    -0.01   0.00  -0.03    -0.01   0.01  -0.00    -0.00   0.01  -0.07
 144   1    -0.01   0.01  -0.03    -0.01   0.01   0.03    -0.00   0.01  -0.08
 145   1    -0.01   0.01  -0.02    -0.00   0.01   0.05     0.00   0.00  -0.04
 146   1     0.01   0.01   0.01     0.00   0.01   0.04     0.00  -0.00   0.05
 147   1     0.01   0.00   0.04     0.01   0.01   0.02     0.00  -0.01   0.08
 148   1     0.01  -0.01   0.05     0.01   0.01  -0.01     0.00  -0.01   0.07
                     10                     11                     12
                        a                      a                      a 
 Frequencies --    23.3873                25.4157                30.9578
 Red. masses --    13.4429                13.6923                10.9278
 Frc consts  --     0.0000                 0.0000                 0.0000
 IR Inten    --    11.8919                 2.1463               139.6981
 Raman Activ --     0.0000                 0.0000                 0.0000
 Depolar     --     0.0000                 0.0000                 0.0000
 Atom AN      X      Y      Z        X      Y      Z        X      Y      Z
   1  26     0.00   0.01  -0.05    -0.00  -0.06  -0.07    -0.00   0.00   0.00
   2   6     0.08   0.03  -0.08     0.01  -0.06  -0.11    -0.00   0.07   0.11
   3   6     0.06   0.06  -0.09     0.01  -0.03  -0.07    -0.00   0.07   0.11
   4   6     0.03   0.05  -0.08     0.00  -0.02  -0.04    -0.00   0.03   0.05
   5   6     0.00   0.06  -0.09    -0.00  -0.00  -0.03    -0.00   0.00  -0.00
   6   6    -0.03   0.05  -0.08    -0.01  -0.02  -0.05    -0.00  -0.03  -0.05
   7   6    -0.06   0.05  -0.09    -0.01  -0.04  -0.08    -0.00  -0.07  -0.12
   8   6    -0.08   0.03  -0.09    -0.02  -0.06  -0.11    -0.00  -0.07  -0.11
   9   6    -0.06   0.01  -0.06    -0.01  -0.06  -0.10    -0.00  -0.03  -0.05
  10   7    -0.03   0.02  -0.06    -0.01  -0.04  -0.06    -0.00  -0.02  -0.03
  11   6    -0.07  -0.01  -0.04    -0.02  -0.06  -0.09    -0.00   0.00   0.00
  12   6    -0.06  -0.01   0.00    -0.01  -0.03  -0.03    -0.00   0.03   0.05
  13   6    -0.07  -0.02   0.04    -0.02  -0.01   0.02    -0.00   0.06   0.11
  14   6    -0.05  -0.03   0.08    -0.01   0.03   0.10    -0.00   0.06   0.11
  15   6    -0.03  -0.02   0.07    -0.01   0.03   0.09    -0.00   0.03   0.05
  16   7    -0.03  -0.01   0.02    -0.01  -0.01   0.02    -0.00   0.02   0.03
  17   6     0.00  -0.02   0.09    -0.00   0.05   0.14    -0.00  -0.00  -0.00
  18   6     0.03  -0.02   0.06     0.00   0.03   0.09     0.00  -0.03  -0.05
  19   6     0.06  -0.03   0.07     0.01   0.03   0.09     0.00  -0.06  -0.11
  20   6     0.08  -0.03   0.03     0.01  -0.02   0.01     0.00  -0.06  -0.11
  21   6     0.06  -0.02  -0.00     0.01  -0.03  -0.03     0.00  -0.03  -0.05
  22   7     0.03  -0.01   0.02     0.00  -0.01   0.01    -0.00  -0.02  -0.03
  23   6     0.08  -0.01  -0.04     0.01  -0.06  -0.09    -0.00   0.00   0.00
  24   6     0.06   0.01  -0.06     0.01  -0.06  -0.10    -0.00   0.03   0.05
  25   7     0.03   0.03  -0.06     0.00  -0.04  -0.06    -0.00   0.02   0.03
  26   1     0.03   0.01  -0.03     0.01  -0.02  -0.04    -0.00   0.03   0.04
  27   1     0.02   0.02  -0.03     0.00  -0.01  -0.02    -0.00   0.03   0.04
  28   1    -0.02   0.02  -0.03    -0.00  -0.01  -0.02    -0.00  -0.03  -0.04
  29   1    -0.03   0.01  -0.03    -0.01  -0.02  -0.04    -0.00  -0.03  -0.04
  30   1    -0.03  -0.00  -0.01    -0.01  -0.02  -0.04    -0.00   0.00   0.00
  31   1    -0.03  -0.01   0.01    -0.01  -0.01  -0.00    -0.00   0.02   0.04
  32   1    -0.02  -0.01   0.04    -0.00   0.02   0.04     0.00   0.02   0.04
  33   1     0.00  -0.01   0.04    -0.00   0.02   0.06    -0.00  -0.00  -0.00
  34   1     0.02  -0.01   0.03     0.00   0.01   0.04     0.00  -0.02  -0.04
  35   1     0.03  -0.01   0.01     0.00  -0.01  -0.00     0.00  -0.02  -0.04
  36   1     0.03  -0.00  -0.01     0.01  -0.02  -0.04    -0.00   0.00   0.00
  37  26     0.00   0.01   0.06     0.00   0.06  -0.07    -0.00   0.00  -0.00
  38   6     0.08   0.03   0.09    -0.00   0.07  -0.11    -0.00   0.09  -0.14
  39   6     0.05   0.05   0.10    -0.00   0.04  -0.07    -0.00   0.09  -0.14
  40   6     0.03   0.05   0.08     0.00   0.03  -0.04    -0.00   0.04  -0.06
  41   6    -0.00   0.06   0.08     0.00   0.01  -0.01    -0.00  -0.00   0.00
  42   6    -0.03   0.05   0.08     0.00   0.03  -0.04    -0.00  -0.04   0.06
  43   6    -0.05   0.05   0.10     0.00   0.05  -0.07    -0.00  -0.09   0.14
  44   6    -0.08   0.03   0.10     0.01   0.07  -0.11    -0.00  -0.08   0.13
  45   6    -0.06   0.01   0.07     0.01   0.07  -0.10    -0.00  -0.04   0.06
  46   7    -0.03   0.02   0.07     0.00   0.04  -0.06    -0.00  -0.02   0.03
  47   6    -0.07  -0.01   0.05     0.01   0.07  -0.10    -0.00   0.00  -0.00
  48   6    -0.06  -0.02   0.00     0.00   0.03  -0.04     0.00   0.04  -0.07
  49   6    -0.07  -0.02  -0.04     0.00   0.01   0.01     0.00   0.08  -0.14
  50   6    -0.05  -0.02  -0.08     0.00  -0.04   0.09     0.00   0.08  -0.14
  51   6    -0.02  -0.01  -0.07     0.00  -0.04   0.09     0.00   0.04  -0.06
  52   7    -0.03  -0.01  -0.02     0.00   0.00   0.01    -0.00   0.02  -0.04
  53   6     0.00  -0.01  -0.10    -0.00  -0.07   0.13    -0.00  -0.00   0.00
  54   6     0.03  -0.01  -0.07    -0.00  -0.04   0.09    -0.00  -0.04   0.07
  55   6     0.06  -0.02  -0.08    -0.00  -0.04   0.09    -0.00  -0.08   0.14
  56   6     0.08  -0.03  -0.03    -0.00   0.01   0.01    -0.00  -0.08   0.14
  57   6     0.06  -0.02   0.01    -0.00   0.03  -0.03    -0.00  -0.04   0.07
  58   7     0.03  -0.01  -0.02    -0.00   0.00   0.01    -0.00  -0.02   0.04
  59   6     0.07  -0.01   0.05    -0.00   0.07  -0.10    -0.00   0.00   0.00
  60   6     0.06   0.01   0.07    -0.00   0.06  -0.10    -0.00   0.04  -0.06
  61   7     0.03   0.02   0.07     0.00   0.04  -0.06    -0.00   0.02  -0.03
  62   1     0.03   0.01   0.03    -0.00   0.03  -0.04    -0.00   0.03  -0.05
  63   1     0.02   0.02   0.03    -0.00   0.01  -0.02    -0.00   0.03  -0.05
  64   1    -0.02   0.02   0.03     0.00   0.01  -0.02    -0.00  -0.03   0.05
  65   1    -0.03   0.01   0.03     0.00   0.03  -0.04    -0.00  -0.03   0.05
  66   1    -0.03  -0.00   0.02     0.00   0.03  -0.04    -0.00   0.00  -0.00
  67   1    -0.03  -0.01  -0.01     0.00   0.01  -0.00     0.00   0.03  -0.05
  68   1    -0.02  -0.01  -0.04     0.00  -0.02   0.04     0.00   0.03  -0.05
  69   1     0.00  -0.00  -0.04    -0.00  -0.03   0.06    -0.00  -0.00   0.00
  70   1     0.02  -0.01  -0.03    -0.00  -0.02   0.04    -0.00  -0.03   0.05
  71   1     0.03  -0.01  -0.01    -0.00   0.01  -0.00    -0.00  -0.03   0.05
  72   1     0.03  -0.00   0.02    -0.00   0.03  -0.04    -0.00   0.00   0.00
  73   6    -0.00   0.08  -0.09    -0.00   0.02   0.00    -0.00  -0.00  -0.00
  74   6     0.00   0.07  -0.08    -0.00   0.05   0.03    -0.00  -0.00  -0.00
  75   6    -0.00  -0.11   0.03     0.00   0.01  -0.16     0.00   0.00   0.00
  76   6    -0.00  -0.11   0.01     0.00  -0.03  -0.16     0.00   0.00   0.00
  77   6    -0.00   0.07   0.07     0.00  -0.04   0.05    -0.00  -0.00   0.00
  78   6    -0.00   0.08   0.09     0.00  -0.01   0.02    -0.00  -0.00   0.00
  79  26    -0.00  -0.01   0.13    -0.00   0.11   0.07     0.00  -0.00   0.00
  80   6    -0.07   0.04   0.02    -0.00   0.07   0.12    -0.00   0.02   0.14
  81   6    -0.05   0.05  -0.03    -0.00   0.06   0.10    -0.01   0.02   0.14
  82   6    -0.02   0.04  -0.02    -0.00   0.06   0.07    -0.00   0.01   0.07
  83   6     0.00   0.05  -0.05    -0.00   0.06   0.06    -0.00  -0.00  -0.00
  84   6     0.02   0.04  -0.02    -0.00   0.06   0.07    -0.00  -0.01  -0.07
  85   6     0.05   0.05  -0.02    -0.00   0.06   0.10    -0.01  -0.02  -0.15
  86   6     0.07   0.04   0.03     0.00   0.07   0.12    -0.01  -0.02  -0.15
  87   6     0.05   0.02   0.06    -0.00   0.06   0.10    -0.00  -0.01  -0.07
  88   7     0.03   0.02   0.03    -0.00   0.06   0.07    -0.00  -0.01  -0.04
  89   6     0.07   0.00   0.10    -0.00   0.06   0.08     0.00   0.00  -0.00
  90   6     0.05  -0.02   0.10    -0.00   0.05   0.02     0.00   0.01   0.06
  91   6     0.07  -0.05   0.10    -0.01   0.04  -0.03     0.01   0.03   0.14
  92   6     0.05  -0.08   0.07    -0.01   0.03  -0.10     0.01   0.03   0.14
  93   6     0.02  -0.07   0.06    -0.00   0.03  -0.09     0.00   0.02   0.07
  94   7     0.03  -0.04   0.08    -0.00   0.05  -0.02     0.00   0.01   0.04
  95   6    -0.00  -0.08   0.05     0.00   0.02  -0.13     0.00   0.00   0.00
  96   6    -0.02  -0.06   0.06     0.00   0.03  -0.08     0.01  -0.02  -0.06
  97   6    -0.05  -0.07   0.08     0.01   0.03  -0.09     0.01  -0.03  -0.14
  98   6    -0.07  -0.05   0.11     0.00   0.04  -0.02     0.01  -0.03  -0.13
  99   6    -0.06  -0.02   0.10     0.00   0.05   0.02     0.01  -0.02  -0.06
 100   7    -0.03  -0.04   0.08    -0.00   0.05  -0.02     0.00  -0.01  -0.03
 101   6    -0.07   0.00   0.10    -0.00   0.06   0.09     0.00  -0.00   0.00
 102   6    -0.05   0.02   0.06    -0.00   0.06   0.10    -0.00   0.01   0.07
 103   7    -0.03   0.02   0.03    -0.00   0.06   0.08    -0.00   0.00   0.04
 104   1    -0.03   0.01   0.01    -0.00   0.02   0.04    -0.00   0.01   0.05
 105   1    -0.01   0.02  -0.02    -0.00   0.02   0.03    -0.00   0.01   0.05
 106   1     0.01   0.02  -0.02    -0.00   0.02   0.03    -0.00  -0.01  -0.06
 107   1     0.03   0.01   0.01     0.00   0.02   0.04    -0.00  -0.01  -0.06
 108   1     0.03   0.00   0.03    -0.00   0.02   0.03     0.00   0.00  -0.00
 109   1     0.03  -0.01   0.03    -0.00   0.01  -0.00     0.00   0.01   0.05
 110   1     0.01  -0.03   0.02    -0.00   0.01  -0.04     0.00   0.01   0.05
 111   1    -0.01  -0.03   0.02     0.00   0.01  -0.04     0.00  -0.01  -0.05
 112   1    -0.03  -0.01   0.04     0.00   0.01   0.00     0.00  -0.01  -0.05
 113   1    -0.03   0.00   0.03    -0.00   0.02   0.03     0.00  -0.00   0.00
 114  26    -0.00  -0.02  -0.14     0.00  -0.12   0.06     0.00   0.00  -0.00
 115   6     0.06  -0.06  -0.08     0.01  -0.05  -0.04     0.01   0.03  -0.16
 116   6     0.05  -0.08  -0.04     0.01  -0.05  -0.10     0.01   0.03  -0.16
 117   6     0.02  -0.07  -0.04     0.00  -0.04  -0.09     0.00   0.01  -0.07
 118   6    -0.00  -0.09  -0.02     0.00  -0.04  -0.13     0.00   0.00   0.00
 119   6    -0.02  -0.07  -0.04    -0.00  -0.04  -0.09     0.01  -0.01   0.07
 120   6    -0.05  -0.08  -0.05    -0.01  -0.05  -0.10     0.01  -0.03   0.16
 121   6    -0.07  -0.05  -0.09    -0.01  -0.05  -0.03     0.01  -0.02   0.16
 122   6    -0.05  -0.03  -0.10    -0.01  -0.05   0.02     0.01  -0.01   0.07
 123   7    -0.03  -0.04  -0.07    -0.00  -0.05  -0.02     0.00  -0.01   0.04
 124   6    -0.07  -0.00  -0.11    -0.00  -0.06   0.08     0.00  -0.00   0.00
 125   6    -0.05   0.02  -0.08    -0.00  -0.06   0.10    -0.00   0.00  -0.07
 126   6    -0.07   0.04  -0.05    -0.00  -0.06   0.12    -0.01   0.01  -0.15
 127   6    -0.05   0.05   0.00    -0.00  -0.05   0.11    -0.01   0.01  -0.15
 128   6    -0.02   0.04   0.00    -0.00  -0.05   0.08    -0.00   0.00  -0.07
 129   7    -0.03   0.02  -0.05    -0.00  -0.06   0.08    -0.00   0.00  -0.04
 130   6    -0.00   0.05   0.03     0.00  -0.05   0.07    -0.00  -0.00   0.00
 131   6     0.02   0.04   0.00     0.00  -0.05   0.08    -0.00  -0.01   0.07
 132   6     0.05   0.05   0.00     0.01  -0.05   0.11    -0.00  -0.01   0.16
 133   6     0.06   0.04  -0.05     0.01  -0.06   0.12    -0.00  -0.01   0.15
 134   6     0.05   0.02  -0.08     0.01  -0.06   0.09    -0.00  -0.00   0.07
 135   7     0.03   0.02  -0.05     0.00  -0.06   0.08    -0.00  -0.00   0.04
 136   6     0.06  -0.00  -0.11     0.01  -0.06   0.07     0.00   0.00  -0.00
 137   6     0.05  -0.03  -0.09     0.01  -0.05   0.01     0.00   0.01  -0.08
 138   7     0.03  -0.04  -0.07     0.00  -0.05  -0.03     0.00   0.01  -0.04
 139   1     0.02  -0.02  -0.03     0.00  -0.02  -0.01     0.00   0.01  -0.06
 140   1     0.01  -0.03  -0.01     0.00  -0.01  -0.04     0.00   0.01  -0.06
 141   1    -0.01  -0.03  -0.01    -0.00  -0.01  -0.04     0.00  -0.01   0.06
 142   1    -0.03  -0.02  -0.03    -0.00  -0.02  -0.00     0.00  -0.01   0.06
 143   1    -0.03   0.00  -0.04    -0.00  -0.02   0.03     0.00  -0.00   0.00
 144   1    -0.03   0.01  -0.02    -0.00  -0.02   0.04    -0.00   0.00  -0.06
 145   1    -0.01   0.02   0.01    -0.00  -0.02   0.03    -0.00   0.00  -0.06
 146   1     0.01   0.02   0.01     0.00  -0.02   0.03    -0.00  -0.00   0.06
 147   1     0.02   0.01  -0.02     0.00  -0.02   0.04    -0.00  -0.00   0.06
 148   1     0.03  -0.00  -0.04     0.00  -0.02   0.03     0.00   0.00  -0.00
                     13                     14                     15
                        a                      a                      a 
 Frequencies --    33.3052                33.7063                37.5263
 Red. masses --    11.0821                11.9826                12.7454
 Frc consts  --     0.0000                 0.0000                 0.0000
 IR Inten    --   456.6980                14.2413               104.3451
 Raman Activ --     0.0000                 0.0000                 0.0000
 Depolar     --     0.0000                 0.0000                 0.0000
 Atom AN      X      Y      Z        X      Y      Z        X      Y      Z
   1  26    -0.01  -0.02  -0.01    -0.01   0.06   0.05    -0.13  -0.00  -0.00
   2   6    -0.01   0.09   0.15     0.01   0.10   0.13    -0.06  -0.10  -0.16
   3   6    -0.01   0.10   0.17     0.00   0.05   0.05    -0.06  -0.09  -0.15
   4   6    -0.01   0.05   0.09    -0.00   0.02  -0.01    -0.05  -0.04  -0.07
   5   6    -0.01   0.01   0.02    -0.00  -0.02  -0.07    -0.05   0.00   0.00
   6   6    -0.01  -0.05  -0.07    -0.01  -0.01  -0.05    -0.05   0.04   0.07
   7   6    -0.01  -0.11  -0.17    -0.01  -0.00  -0.05    -0.06   0.09   0.14
   8   6    -0.01  -0.13  -0.20    -0.02   0.04   0.03    -0.06   0.09   0.15
   9   6    -0.01  -0.07  -0.11    -0.01   0.05   0.06    -0.06   0.04   0.08
  10   7    -0.01  -0.04  -0.05    -0.01   0.03   0.01    -0.06   0.02   0.04
  11   6    -0.00  -0.03  -0.04    -0.01   0.08   0.11    -0.06   0.01   0.02
  12   6    -0.00   0.03   0.05    -0.01   0.05   0.08    -0.07  -0.03  -0.04
  13   6    -0.00   0.08   0.15    -0.01   0.04   0.07    -0.07  -0.07  -0.11
  14   6    -0.00   0.10   0.19    -0.01  -0.01  -0.02    -0.07  -0.07  -0.12
  15   6    -0.00   0.06   0.10    -0.01  -0.03  -0.06    -0.07  -0.03  -0.05
  16   7    -0.00   0.02   0.04    -0.01   0.01   0.01    -0.07  -0.02  -0.02
  17   6    -0.00   0.02   0.04    -0.00  -0.07  -0.13    -0.07   0.00   0.01
  18   6    -0.01  -0.03  -0.05     0.00  -0.05  -0.10    -0.07   0.03   0.06
  19   6    -0.00  -0.08  -0.14     0.01  -0.06  -0.11    -0.07   0.07   0.13
  20   6    -0.00  -0.10  -0.17     0.01  -0.00  -0.01    -0.07   0.06   0.11
  21   6    -0.01  -0.05  -0.09     0.01   0.03   0.04    -0.07   0.02   0.04
  22   7    -0.01  -0.02  -0.04     0.00   0.00  -0.02    -0.07   0.01   0.03
  23   6    -0.01  -0.02  -0.03     0.00   0.08   0.12    -0.06  -0.01  -0.04
  24   6    -0.01   0.03   0.06     0.00   0.08   0.11    -0.06  -0.05  -0.09
  25   7    -0.01   0.02   0.04    -0.00   0.04   0.04    -0.06  -0.02  -0.05
  26   1    -0.00   0.03   0.06     0.00   0.04   0.05    -0.02  -0.04  -0.06
  27   1    -0.00   0.04   0.07     0.00   0.01   0.01    -0.02  -0.03  -0.05
  28   1    -0.00  -0.04  -0.06    -0.00  -0.01  -0.03    -0.02   0.03   0.05
  29   1    -0.00  -0.05  -0.08    -0.01   0.02   0.02    -0.02   0.03   0.06
  30   1    -0.00  -0.01  -0.02    -0.00   0.03   0.05    -0.02   0.00   0.01
  31   1     0.00   0.03   0.05    -0.01   0.02   0.04    -0.02  -0.02  -0.04
  32   1    -0.00   0.04   0.07    -0.00  -0.01  -0.02    -0.02  -0.03  -0.05
  33   1    -0.00   0.01   0.02    -0.00  -0.03  -0.05    -0.02   0.00   0.00
  34   1    -0.00  -0.03  -0.05     0.00  -0.03  -0.05    -0.02   0.03   0.05
  35   1    -0.00  -0.04  -0.07     0.00   0.00   0.00    -0.02   0.02   0.04
  36   1    -0.00  -0.01  -0.01     0.00   0.03   0.05    -0.02  -0.01  -0.01
  37  26     0.02  -0.02   0.01     0.01   0.06  -0.04     0.11  -0.00   0.00
  38   6     0.00  -0.12   0.17     0.03   0.05  -0.02     0.05  -0.05   0.07
  39   6     0.00  -0.10   0.14     0.02   0.00   0.06     0.05  -0.04   0.06
  40   6     0.01  -0.05   0.06     0.01  -0.00   0.06     0.05  -0.02   0.03
  41   6     0.01   0.00  -0.03     0.00  -0.01   0.08     0.04   0.00  -0.01
  42   6     0.01   0.04  -0.08    -0.00   0.03   0.01     0.05   0.02  -0.03
  43   6     0.01   0.08  -0.15    -0.01   0.07  -0.04     0.05   0.04  -0.06
  44   6     0.02   0.07  -0.12    -0.01   0.12  -0.13     0.05   0.04  -0.06
  45   6     0.01   0.02  -0.05    -0.01   0.09  -0.11     0.05   0.02  -0.03
  46   7     0.01   0.01  -0.03    -0.00   0.05  -0.04     0.05   0.01  -0.02
  47   6     0.01  -0.02   0.03    -0.01   0.09  -0.12     0.05   0.01  -0.00
  48   6     0.01  -0.05   0.08    -0.01   0.03  -0.04     0.05  -0.01   0.02
  49   6     0.01  -0.09   0.14    -0.02  -0.01   0.01     0.05  -0.03   0.05
  50   6     0.01  -0.07   0.12    -0.01  -0.07   0.11     0.05  -0.03   0.05
  51   6     0.01  -0.02   0.04    -0.00  -0.06   0.10     0.05  -0.01   0.02
  52   7     0.01  -0.02   0.03    -0.00  -0.00   0.01     0.06  -0.01   0.01
  53   6     0.01   0.03  -0.04     0.00  -0.08   0.13     0.05   0.00  -0.01
  54   6     0.01   0.05  -0.09     0.01  -0.04   0.05     0.05   0.02  -0.03
  55   6     0.00   0.10  -0.16     0.02  -0.02   0.01     0.05   0.03  -0.06
  56   6     0.00   0.07  -0.12     0.03   0.05  -0.08     0.05   0.03  -0.05
  57   6     0.00   0.02  -0.04     0.02   0.06  -0.08     0.05   0.01  -0.02
  58   7     0.01   0.02  -0.03     0.01   0.01  -0.01     0.06   0.00  -0.01
  59   6     0.00  -0.03   0.05     0.02   0.09  -0.12     0.05  -0.01   0.02
  60   6     0.00  -0.07   0.10     0.02   0.06  -0.06     0.05  -0.03   0.04
  61   7     0.01  -0.04   0.05     0.01   0.03  -0.01     0.05  -0.02   0.02
  62   1    -0.00  -0.05   0.07     0.01   0.02  -0.01     0.02  -0.02   0.03
  63   1     0.00  -0.04   0.05     0.01  -0.01   0.03     0.01  -0.01   0.02
  64   1     0.00   0.03  -0.06    -0.00   0.02  -0.01     0.01   0.01  -0.02
  65   1     0.01   0.03  -0.05    -0.01   0.05  -0.06     0.02   0.02  -0.02
  66   1     0.00  -0.01   0.01    -0.01   0.04  -0.05     0.01   0.00  -0.00
  67   1     0.00  -0.03   0.06    -0.01   0.00  -0.00     0.01  -0.01   0.02
  68   1     0.00  -0.02   0.04    -0.00  -0.04   0.05     0.01  -0.01   0.02
  69   1     0.00   0.01  -0.02     0.00  -0.04   0.05     0.02   0.00  -0.00
  70   1     0.00   0.04  -0.06     0.01  -0.01   0.01     0.01   0.01  -0.02
  71   1    -0.00   0.03  -0.04     0.01   0.02  -0.04     0.01   0.01  -0.02
  72   1    -0.00  -0.01   0.02     0.01   0.03  -0.05     0.01  -0.01   0.01
  73   6    -0.01   0.01   0.03    -0.00  -0.05  -0.12    -0.04   0.00   0.00
  74   6    -0.01   0.02   0.04    -0.00  -0.08  -0.13    -0.04   0.01   0.00
  75   6    -0.00  -0.01  -0.01    -0.00   0.03   0.03     0.01  -0.00  -0.00
  76   6     0.00  -0.01   0.00    -0.00   0.03  -0.01     0.01  -0.00  -0.00
  77   6     0.01   0.02  -0.05     0.00  -0.08   0.15     0.04   0.01  -0.01
  78   6     0.01   0.01  -0.04     0.00  -0.04   0.13     0.04   0.00  -0.01
  79  26    -0.01   0.01  -0.01    -0.01  -0.04   0.02    -0.04   0.00   0.00
  80   6    -0.02   0.02   0.07     0.03  -0.05  -0.03    -0.03   0.04   0.21
  81   6    -0.02   0.03   0.10     0.02  -0.07  -0.08    -0.03   0.03   0.20
  82   6    -0.01   0.02   0.06     0.01  -0.06  -0.08    -0.03   0.02   0.09
  83   6    -0.01   0.02   0.04    -0.00  -0.07  -0.12    -0.04   0.00   0.00
  84   6    -0.01   0.01  -0.00    -0.02  -0.06  -0.10    -0.03  -0.01  -0.09
  85   6    -0.00   0.01  -0.03    -0.03  -0.08  -0.13    -0.03  -0.02  -0.20
  86   6    -0.00   0.01  -0.04    -0.04  -0.06  -0.07    -0.02  -0.03  -0.21
  87   6    -0.00   0.01  -0.01    -0.03  -0.03  -0.02    -0.02  -0.02  -0.10
  88   7    -0.01   0.01   0.01    -0.02  -0.04  -0.04    -0.03  -0.01  -0.05
  89   6     0.00   0.01   0.02    -0.03  -0.01   0.06    -0.02  -0.01  -0.02
  90   6     0.00   0.01   0.05    -0.02   0.01   0.10    -0.01   0.01   0.07
  91   6     0.00   0.02   0.08    -0.03   0.04   0.15    -0.01   0.04   0.17
  92   6     0.00   0.02   0.07    -0.02   0.04   0.14    -0.00   0.04   0.17
  93   6    -0.00   0.00   0.03    -0.01   0.02   0.09    -0.00   0.02   0.08
  94   7    -0.00   0.00   0.02    -0.01   0.01   0.07    -0.00   0.00   0.04
  95   6    -0.00  -0.01  -0.02    -0.00   0.02   0.06     0.01  -0.00  -0.00
  96   6    -0.00  -0.02  -0.07     0.01   0.01   0.05    -0.00  -0.02  -0.08
  97   6    -0.01  -0.04  -0.14     0.02   0.02   0.06    -0.01  -0.04  -0.18
  98   6    -0.01  -0.04  -0.16     0.02   0.02   0.07    -0.01  -0.04  -0.17
  99   6    -0.01  -0.02  -0.10     0.02   0.00   0.05    -0.01  -0.01  -0.07
 100   7    -0.01  -0.01  -0.06     0.01   0.00   0.05    -0.01  -0.00  -0.04
 101   6    -0.01  -0.00  -0.06     0.03  -0.01   0.04    -0.02   0.02   0.02
 102   6    -0.02   0.01   0.01     0.02  -0.03  -0.01    -0.03   0.03   0.10
 103   7    -0.01   0.01   0.02     0.01  -0.04  -0.04    -0.03   0.02   0.06
 104   1    -0.01   0.01   0.02     0.01  -0.01  -0.00    -0.01   0.01   0.08
 105   1    -0.01   0.01   0.04     0.01  -0.02  -0.03    -0.01   0.01   0.07
 106   1    -0.00   0.00  -0.02    -0.01  -0.03  -0.05    -0.01  -0.01  -0.07
 107   1     0.00   0.00  -0.02    -0.01  -0.02  -0.02    -0.01  -0.01  -0.08
 108   1     0.00   0.00   0.01    -0.01  -0.00   0.02    -0.00  -0.00  -0.01
 109   1     0.00   0.01   0.03    -0.01   0.01   0.06    -0.00   0.01   0.06
 110   1     0.00   0.01   0.03    -0.01   0.02   0.05    -0.00   0.02   0.07
 111   1    -0.00  -0.01  -0.05     0.01   0.01   0.02    -0.00  -0.02  -0.07
 112   1    -0.00  -0.01  -0.06     0.01   0.01   0.02    -0.00  -0.01  -0.06
 113   1    -0.00  -0.00  -0.02     0.01  -0.00   0.01    -0.01   0.01   0.01
 114  26     0.01   0.02   0.01     0.00  -0.05  -0.03     0.06  -0.00  -0.00
 115   6     0.01  -0.02   0.14    -0.03   0.01  -0.08     0.03  -0.00   0.00
 116   6     0.01  -0.02   0.12    -0.02   0.02  -0.06     0.03  -0.00  -0.01
 117   6     0.01  -0.01   0.06    -0.01   0.01  -0.04     0.02  -0.00  -0.00
 118   6     0.00  -0.00   0.01    -0.00   0.02  -0.04     0.01  -0.00   0.00
 119   6    -0.00   0.00  -0.02     0.01   0.02  -0.07     0.02  -0.01   0.01
 120   6    -0.00   0.01  -0.06     0.03   0.03  -0.12     0.03  -0.01   0.02
 121   6    -0.01   0.01  -0.07     0.03   0.02  -0.15     0.03  -0.01   0.01
 122   6    -0.00   0.01  -0.04     0.03   0.00  -0.11     0.02  -0.01  -0.00
 123   7    -0.00   0.01  -0.01     0.02   0.00  -0.07     0.02  -0.01  -0.00
 124   6    -0.00   0.01  -0.02     0.04  -0.01  -0.08     0.03  -0.01  -0.02
 125   6    -0.00   0.01   0.00     0.03  -0.04  -0.01     0.03  -0.00  -0.03
 126   6    -0.00   0.01   0.02     0.04  -0.05   0.04     0.02   0.00  -0.05
 127   6     0.00   0.02   0.02     0.03  -0.07   0.11     0.03   0.01  -0.04
 128   6     0.00   0.02  -0.01     0.02  -0.06   0.10     0.04   0.00  -0.02
 129   7     0.00   0.01  -0.01     0.02  -0.05   0.03     0.04  -0.00  -0.02
 130   6     0.01   0.02  -0.04     0.00  -0.07   0.12     0.04   0.00  -0.01
 131   6     0.01   0.02  -0.05    -0.01  -0.06   0.09     0.04   0.00   0.01
 132   6     0.02   0.03  -0.08    -0.03  -0.07   0.09     0.03   0.00   0.03
 133   6     0.02   0.02  -0.05    -0.04  -0.05   0.03     0.03   0.00   0.04
 134   6     0.02   0.01  -0.00    -0.03  -0.04  -0.00     0.03   0.00   0.03
 135   7     0.01   0.01  -0.01    -0.01  -0.05   0.04     0.04   0.01   0.01
 136   6     0.02   0.00   0.06    -0.03  -0.02  -0.05     0.03   0.01   0.03
 137   6     0.01  -0.01   0.09    -0.02  -0.00  -0.07     0.03   0.00   0.01
 138   7     0.01  -0.00   0.05    -0.01  -0.00  -0.05     0.02   0.00   0.01
 139   1     0.01  -0.01   0.05    -0.01   0.01  -0.03     0.01  -0.00   0.00
 140   1     0.00  -0.01   0.04    -0.01   0.01  -0.02     0.01  -0.00  -0.01
 141   1    -0.00   0.00  -0.02     0.01   0.01  -0.04     0.01  -0.00   0.01
 142   1    -0.00   0.00  -0.03     0.01   0.01  -0.05     0.01  -0.00   0.00
 143   1    -0.00   0.00  -0.01     0.01  -0.00  -0.03     0.01  -0.00  -0.01
 144   1    -0.00   0.00   0.01     0.02  -0.02   0.01     0.01   0.00  -0.02
 145   1     0.00   0.01   0.01     0.01  -0.03   0.05     0.01   0.00  -0.01
 146   1     0.01   0.01  -0.04    -0.01  -0.02   0.04     0.01  -0.00   0.01
 147   1     0.01   0.01  -0.02    -0.01  -0.02   0.00     0.01   0.00   0.02
 148   1     0.01  -0.00   0.02    -0.01  -0.00  -0.02     0.01   0.00   0.01
                     16                     17                     18
                        a                      a                      a 
 Frequencies --    37.9200                40.5634                45.7100
 Red. masses --    13.0649                11.9702                14.5324
 Frc consts  --     0.0000                 0.0000                 0.0000
 IR Inten    --    30.9991                 3.1955               138.4209
 Raman Activ --     0.0000                 0.0000                 0.0000
 Depolar     --     0.0000                 0.0000                 0.0000
 Atom AN      X      Y      Z        X      Y      Z        X      Y      Z
   1  26    -0.12   0.00   0.00    -0.00   0.06   0.00    -0.17   0.00  -0.00
   2   6    -0.06   0.03   0.04     0.04   0.08   0.03    -0.08   0.04   0.05
   3   6    -0.06   0.03   0.04     0.03   0.04  -0.06    -0.07   0.04   0.05
   4   6    -0.05   0.01   0.02     0.01   0.02  -0.09    -0.07   0.02   0.02
   5   6    -0.05   0.00  -0.00    -0.00  -0.00  -0.14    -0.06   0.01   0.00
   6   6    -0.05  -0.01  -0.02    -0.02   0.02  -0.09    -0.07  -0.01  -0.02
   7   6    -0.06  -0.02  -0.04    -0.03   0.04  -0.07    -0.08  -0.02  -0.05
   8   6    -0.06  -0.02  -0.04    -0.05   0.08   0.03    -0.08  -0.04  -0.06
   9   6    -0.06  -0.01  -0.02    -0.03   0.07   0.05    -0.08  -0.03  -0.03
  10   7    -0.06  -0.01  -0.01    -0.02   0.04  -0.02    -0.08  -0.01  -0.02
  11   6    -0.06  -0.00   0.00    -0.04   0.08   0.10    -0.08  -0.02  -0.02
  12   6    -0.06   0.01   0.02    -0.03   0.04   0.07    -0.08  -0.00   0.01
  13   6    -0.06   0.02   0.04    -0.05   0.02   0.06    -0.08   0.02   0.03
  14   6    -0.06   0.02   0.03    -0.03  -0.04  -0.02    -0.08   0.02   0.04
  15   6    -0.06   0.01   0.01    -0.02  -0.05  -0.05    -0.08   0.01   0.02
  16   7    -0.06   0.00   0.01    -0.02   0.00   0.00    -0.09  -0.00   0.01
  17   6    -0.06  -0.00  -0.00     0.00  -0.08  -0.09    -0.09   0.00   0.01
  18   6    -0.06  -0.01  -0.02     0.02  -0.05  -0.05    -0.08  -0.01  -0.02
  19   6    -0.06  -0.02  -0.04     0.03  -0.04  -0.03    -0.08  -0.03  -0.04
  20   6    -0.05  -0.02  -0.03     0.04   0.02   0.06    -0.07  -0.02  -0.04
  21   6    -0.06  -0.00  -0.01     0.03   0.04   0.06    -0.08  -0.00  -0.02
  22   7    -0.06  -0.00  -0.01     0.02   0.00   0.00    -0.09  -0.00  -0.01
  23   6    -0.06   0.01   0.01     0.04   0.08   0.10    -0.07   0.02   0.01
  24   6    -0.06   0.02   0.02     0.03   0.07   0.05    -0.07   0.03   0.03
  25   7    -0.06   0.01   0.01     0.02   0.04  -0.02    -0.08   0.02   0.01
  26   1    -0.02   0.01   0.02     0.02   0.03   0.02    -0.02   0.01   0.02
  27   1    -0.02   0.01   0.01     0.01   0.01  -0.03    -0.02   0.01   0.02
  28   1    -0.02  -0.01  -0.02    -0.01   0.01  -0.03    -0.02  -0.01  -0.02
  29   1    -0.02  -0.01  -0.01    -0.02   0.03   0.02    -0.03  -0.01  -0.02
  30   1    -0.02  -0.00   0.00    -0.02   0.03   0.04    -0.02  -0.01  -0.01
  31   1    -0.02   0.01   0.01    -0.02   0.01   0.03    -0.02   0.01   0.01
  32   1    -0.02   0.01   0.01    -0.01  -0.02  -0.02    -0.02   0.01   0.02
  33   1    -0.02  -0.00  -0.00     0.00  -0.03  -0.04    -0.02   0.00   0.00
  34   1    -0.02  -0.01  -0.01     0.01  -0.02  -0.02    -0.02  -0.01  -0.01
  35   1    -0.02  -0.01  -0.01     0.02   0.01   0.03    -0.02  -0.01  -0.01
  36   1    -0.02   0.00   0.00     0.02   0.03   0.04    -0.02   0.01   0.00
  37  26     0.14   0.00  -0.00    -0.00  -0.05  -0.01     0.18  -0.00  -0.00
  38   6     0.07   0.09  -0.16    -0.05  -0.08   0.02     0.08  -0.04   0.05
  39   6     0.06   0.09  -0.14    -0.03  -0.04  -0.06     0.07  -0.03   0.04
  40   6     0.06   0.04  -0.07    -0.01  -0.02  -0.08     0.07  -0.02   0.02
  41   6     0.05  -0.00  -0.00     0.00  -0.00  -0.13     0.07  -0.01   0.00
  42   6     0.06  -0.04   0.07     0.01  -0.02  -0.08     0.07   0.01  -0.02
  43   6     0.06  -0.09   0.14     0.03  -0.04  -0.07     0.08   0.02  -0.05
  44   6     0.07  -0.09   0.15     0.05  -0.08   0.02     0.09   0.03  -0.06
  45   6     0.06  -0.05   0.08     0.03  -0.07   0.04     0.08   0.02  -0.03
  46   7     0.06  -0.02   0.05     0.02  -0.04  -0.02     0.08   0.01  -0.02
  47   6     0.07  -0.01   0.03     0.04  -0.08   0.08     0.09   0.02  -0.02
  48   6     0.07   0.03  -0.04     0.04  -0.04   0.06     0.09  -0.00   0.01
  49   6     0.07   0.07  -0.11     0.05  -0.02   0.05     0.09  -0.02   0.03
  50   6     0.07   0.07  -0.12     0.03   0.04  -0.01     0.09  -0.02   0.04
  51   6     0.07   0.03  -0.05     0.02   0.04  -0.04     0.09  -0.01   0.02
  52   7     0.08   0.02  -0.02     0.02  -0.00   0.00     0.10  -0.00   0.01
  53   6     0.07  -0.00   0.00     0.00   0.08  -0.07     0.09  -0.00   0.01
  54   6     0.07  -0.03   0.06    -0.02   0.05  -0.04     0.09   0.01  -0.01
  55   6     0.07  -0.07   0.12    -0.03   0.04  -0.02     0.08   0.02  -0.03
  56   6     0.06  -0.06   0.11    -0.05  -0.01   0.05     0.08   0.02  -0.03
  57   6     0.07  -0.03   0.04    -0.04  -0.04   0.05     0.08   0.00  -0.01
  58   7     0.08  -0.02   0.02    -0.02  -0.00   0.00     0.09  -0.00  -0.01
  59   6     0.06   0.01  -0.03    -0.04  -0.08   0.09     0.08  -0.02   0.01
  60   6     0.06   0.05  -0.09    -0.04  -0.07   0.04     0.08  -0.03   0.02
  61   7     0.06   0.02  -0.05    -0.02  -0.04  -0.02     0.08  -0.02   0.01
  62   1     0.02   0.04  -0.06    -0.02  -0.03   0.02     0.02  -0.01   0.02
  63   1     0.02   0.03  -0.05    -0.01  -0.01  -0.03     0.02  -0.01   0.02
  64   1     0.02  -0.03   0.05     0.01  -0.01  -0.03     0.02   0.01  -0.02
  65   1     0.02  -0.04   0.06     0.02  -0.03   0.02     0.03   0.01  -0.02
  66   1     0.02  -0.00   0.01     0.02  -0.03   0.04     0.02   0.01  -0.01
  67   1     0.02   0.03  -0.04     0.02  -0.01   0.03     0.02  -0.01   0.01
  68   1     0.02   0.03  -0.05     0.01   0.02  -0.01     0.02  -0.01   0.02
  69   1     0.02  -0.00   0.00     0.00   0.03  -0.03     0.03  -0.00   0.00
  70   1     0.02  -0.03   0.05    -0.01   0.02  -0.01     0.02   0.01  -0.01
  71   1     0.02  -0.02   0.04    -0.02  -0.01   0.03     0.02   0.01  -0.01
  72   1     0.02   0.01  -0.01    -0.02  -0.03   0.04     0.02  -0.01   0.00
  73   6    -0.05  -0.00  -0.01    -0.00  -0.03  -0.18    -0.06   0.01   0.01
  74   6    -0.05  -0.00  -0.00    -0.00  -0.08  -0.16    -0.06   0.00   0.01
  75   6    -0.01  -0.00   0.00     0.00  -0.02  -0.17    -0.00  -0.01   0.01
  76   6    -0.01   0.00   0.00     0.00  -0.00  -0.18    -0.00   0.01   0.01
  77   6     0.05  -0.00  -0.00     0.00   0.07  -0.13     0.06  -0.00   0.00
  78   6     0.05  -0.00  -0.00     0.00   0.02  -0.16     0.06  -0.01   0.00
  79  26    -0.06  -0.00  -0.00    -0.00  -0.05   0.05    -0.07  -0.01  -0.00
  80   6    -0.03  -0.00  -0.02     0.03  -0.04   0.09    -0.03  -0.02  -0.14
  81   6    -0.03  -0.00  -0.01     0.02  -0.06  -0.02    -0.04  -0.02  -0.14
  82   6    -0.04  -0.00  -0.01     0.01  -0.06  -0.05    -0.05  -0.01  -0.06
  83   6    -0.04  -0.00  -0.00    -0.00  -0.08  -0.10    -0.06   0.00   0.01
  84   6    -0.04  -0.00   0.00    -0.01  -0.06  -0.05    -0.04   0.00   0.07
  85   6    -0.04  -0.00   0.00    -0.03  -0.06  -0.00    -0.03   0.02   0.14
  86   6    -0.03  -0.00   0.01    -0.03  -0.03   0.10    -0.02   0.01   0.14
  87   6    -0.03  -0.01   0.02    -0.02  -0.02   0.11    -0.03  -0.01   0.06
  88   7    -0.04  -0.01   0.01    -0.01  -0.04   0.02    -0.05  -0.01   0.04
  89   6    -0.03  -0.01   0.02    -0.03   0.00   0.15    -0.03  -0.03  -0.01
[...]
  50   6     0.00  -0.00  -0.00     0.00  -0.00  -0.00     0.00  -0.00  -0.00
  51   6     0.00   0.00   0.00     0.00   0.00   0.00     0.00   0.00   0.00
  52   7     0.00  -0.00  -0.00    -0.00   0.00   0.00     0.00  -0.00  -0.00
  53   6     0.00   0.00   0.00     0.00   0.00   0.00     0.00   0.00   0.00
  54   6     0.00  -0.00  -0.00     0.00  -0.00  -0.00     0.00  -0.00  -0.00
  55   6     0.00   0.00   0.00     0.00   0.00   0.00     0.00   0.00   0.00
  56   6     0.00   0.00   0.00     0.00   0.00   0.00     0.00   0.00   0.00
  57   6    -0.00   0.00   0.00    -0.00  -0.00  -0.00    -0.00   0.00   0.00
  58   7     0.00   0.00   0.00    -0.00  -0.00  -0.00     0.00   0.00   0.00
  59   6    -0.00   0.00   0.00    -0.00   0.00   0.00    -0.00   0.00   0.00
  60   6     0.00   0.00   0.00     0.00   0.00   0.00     0.00   0.00   0.00
  61   7     0.00  -0.00  -0.00     0.00  -0.00  -0.00     0.00  -0.00  -0.00
  62   1     0.00  -0.04  -0.03     0.00  -0.02  -0.01     0.00  -0.01  -0.01
  63   1     0.10  -0.01  -0.01     0.03  -0.00  -0.00     0.02  -0.00  -0.00
  64   1     0.02   0.00   0.00     0.02   0.00   0.00     0.02   0.00   0.00
  65   1     0.00   0.01   0.01     0.00   0.01   0.01     0.00   0.01   0.00
  66   1    -0.00   0.00   0.00    -0.00   0.00   0.00    -0.00   0.00   0.00
  67   1    -0.00   0.01   0.00    -0.00   0.01   0.00    -0.00   0.00   0.00
  68   1    -0.01   0.00   0.00    -0.01   0.00   0.00    -0.00   0.00   0.00
  69   1    -0.00   0.00  -0.00    -0.00   0.00  -0.00    -0.00   0.00  -0.00
  70   1    -0.01  -0.00  -0.00    -0.01  -0.00  -0.00    -0.00  -0.00  -0.00
  71   1    -0.00  -0.01  -0.00    -0.00  -0.01  -0.00    -0.00  -0.00  -0.00
  72   1    -0.00  -0.00  -0.00    -0.00  -0.00  -0.00    -0.00  -0.00  -0.00
  73   6    -0.00   0.00   0.00    -0.00  -0.00   0.00    -0.00  -0.00   0.00
  74   6     0.00   0.00  -0.00     0.00   0.00  -0.00    -0.00   0.00  -0.00
  75   6     0.00   0.00   0.00    -0.00  -0.00   0.00    -0.00  -0.00  -0.00
  76   6    -0.00   0.00  -0.00     0.00   0.00  -0.00    -0.00   0.00   0.00
  77   6    -0.00  -0.00  -0.00     0.00  -0.00  -0.00     0.00  -0.00  -0.00
  78   6    -0.00   0.00   0.00     0.00   0.00   0.00    -0.00  -0.00   0.00
  79  26     0.00   0.00  -0.00    -0.00   0.00  -0.00     0.00  -0.00   0.00
  80   6    -0.00  -0.07   0.01    -0.00  -0.02   0.00    -0.00   0.02  -0.00
  81   6    -0.14  -0.02  -0.00    -0.04  -0.00  -0.00     0.05   0.01   0.00
  82   6    -0.00   0.00  -0.00    -0.00   0.00  -0.00     0.00  -0.00   0.00
  83   6    -0.00  -0.00   0.00    -0.00  -0.00   0.00    -0.00   0.00  -0.00
  84   6    -0.00  -0.00   0.00    -0.00  -0.00   0.00    -0.00  -0.01   0.00
  85   6    -0.02   0.00   0.00    -0.03   0.00   0.00    -0.20   0.03   0.01
  86   6     0.00   0.01  -0.00     0.00   0.02  -0.00     0.00   0.10  -0.01
  87   6     0.00   0.00  -0.00     0.00  -0.00  -0.00     0.00   0.00  -0.00
  88   7     0.00  -0.00   0.00     0.00  -0.00   0.00     0.00  -0.00   0.00
  89   6    -0.00  -0.00   0.00     0.00   0.00  -0.00    -0.00   0.00  -0.00
  90   6     0.00  -0.00  -0.00    -0.00   0.00   0.00     0.00  -0.00   0.00
  91   6    -0.00  -0.05   0.01     0.00   0.06  -0.01     0.00   0.00  -0.00
  92   6    -0.10  -0.01   0.01     0.11   0.01  -0.01    -0.00  -0.00   0.00
  93   6    -0.00   0.00  -0.00     0.00  -0.00   0.00     0.00  -0.00   0.00
  94   7     0.00   0.00  -0.00    -0.00  -0.00   0.00    -0.00  -0.00   0.00
  95   6    -0.00  -0.00   0.00     0.00  -0.00   0.00    -0.00   0.00  -0.00
  96   6     0.00   0.00  -0.00     0.00   0.01  -0.00    -0.00  -0.00   0.00
  97   6     0.04  -0.00   0.00     0.15  -0.02   0.01    -0.01   0.00  -0.00
  98   6    -0.00  -0.02   0.01    -0.00  -0.08   0.02    -0.00   0.01  -0.00
  99   6    -0.00   0.00  -0.00    -0.00  -0.00  -0.00     0.00   0.00  -0.00
 100   7    -0.00   0.00  -0.00    -0.00   0.00  -0.00     0.00  -0.00   0.00
 101   6    -0.00  -0.00   0.00     0.00  -0.00   0.00     0.00   0.00  -0.00
 102   6     0.00  -0.00   0.00     0.00   0.00   0.00    -0.00   0.00  -0.00
 103   7     0.00   0.00  -0.00     0.00   0.00  -0.00    -0.00  -0.00   0.00
 104   1     0.01   0.22  -0.03     0.00   0.07  -0.01    -0.00  -0.07   0.01
 105   1     0.45   0.07   0.01     0.13   0.02   0.00    -0.17  -0.03  -0.01
 106   1     0.08  -0.01  -0.00     0.10  -0.02  -0.00     0.65  -0.11  -0.02
 107   1     0.00  -0.03   0.00     0.00  -0.05   0.01     0.02  -0.30   0.04
 108   1    -0.00   0.00  -0.00     0.00  -0.00   0.00    -0.00  -0.01   0.00
 109   1     0.01   0.15  -0.04    -0.01  -0.17   0.04    -0.00  -0.00   0.00
 110   1     0.33   0.04  -0.03    -0.37  -0.05   0.03     0.00   0.00  -0.00
 111   1    -0.15   0.02  -0.01    -0.51   0.07  -0.05     0.04  -0.01   0.00
 112   1    -0.00   0.07  -0.02    -0.01   0.24  -0.05     0.00  -0.02   0.01
 113   1    -0.00   0.01  -0.00     0.00   0.01  -0.00     0.00  -0.00   0.00
 114  26    -0.00   0.00   0.00     0.00   0.00   0.00    -0.00  -0.00  -0.00
 115   6    -0.00  -0.02  -0.00     0.00  -0.06  -0.01    -0.00   0.02   0.00
 116   6    -0.03  -0.00  -0.00    -0.12  -0.01  -0.01     0.03   0.00   0.00
 117   6    -0.00   0.00   0.00    -0.00   0.00   0.00     0.00  -0.00  -0.00
 118   6     0.00  -0.00  -0.00    -0.00  -0.00  -0.00     0.00   0.00   0.00
 119   6     0.00   0.00   0.00    -0.00  -0.00  -0.00    -0.00  -0.00  -0.00
 120   6     0.10  -0.01  -0.01    -0.11   0.01   0.01    -0.01   0.00   0.00
 121   6    -0.00  -0.05  -0.01     0.00   0.06   0.01     0.00   0.00   0.00
 122   6    -0.00  -0.00   0.00     0.00   0.00  -0.00     0.00   0.00  -0.00
 123   7    -0.00   0.00   0.00     0.00  -0.00  -0.00     0.00  -0.00  -0.00
 124   6     0.00  -0.00  -0.00    -0.00   0.00   0.00    -0.00   0.00   0.00
 125   6     0.00   0.00  -0.00    -0.00  -0.00  -0.00     0.00  -0.00  -0.00
 126   6     0.00  -0.01  -0.00     0.00   0.00   0.00     0.00  -0.00  -0.00
 127   6    -0.02  -0.00   0.00     0.00   0.00  -0.00    -0.00  -0.00   0.00
 128   6    -0.00   0.00   0.00     0.00  -0.00  -0.00    -0.00   0.00   0.00
 129   7     0.00   0.00  -0.00    -0.00  -0.00  -0.00     0.00   0.00  -0.00
 130   6     0.00  -0.00  -0.00    -0.00  -0.00  -0.00     0.00   0.00  -0.00
 131   6     0.00   0.00   0.00     0.00   0.00   0.00    -0.00  -0.00  -0.00
 132   6     0.01  -0.00   0.00     0.00  -0.00   0.00    -0.01   0.00  -0.00
 133   6     0.00  -0.01  -0.00     0.00  -0.00  -0.00    -0.00   0.00   0.00
 134   6    -0.00  -0.00  -0.00    -0.00   0.00   0.00     0.00  -0.00   0.00
 135   7    -0.00   0.00   0.00    -0.00   0.00   0.00     0.00  -0.00   0.00
 136   6    -0.00  -0.00  -0.00    -0.00  -0.00  -0.00     0.00   0.00   0.00
 137   6     0.00  -0.00   0.00     0.00  -0.00   0.00    -0.00   0.00  -0.00
 138   7     0.00   0.00   0.00     0.00   0.00   0.00    -0.00  -0.00  -0.00
 139   1     0.00   0.05   0.01     0.01   0.19   0.03    -0.00  -0.05  -0.01
 140   1     0.09   0.01   0.01     0.39   0.06   0.02    -0.11  -0.02  -0.01
 141   1    -0.33   0.05   0.03     0.37  -0.05  -0.03     0.03  -0.00  -0.00
 142   1    -0.01   0.16   0.02     0.01  -0.17  -0.03     0.00  -0.01  -0.00
 143   1     0.00   0.00   0.00    -0.00  -0.00  -0.00    -0.00  -0.00  -0.00
 144   1     0.00   0.03   0.00    -0.00  -0.01  -0.00     0.00   0.00   0.00
 145   1     0.07   0.01  -0.00    -0.00  -0.00   0.00     0.01   0.00  -0.00
 146   1    -0.04   0.01  -0.00    -0.01   0.00  -0.00     0.02  -0.00   0.00
 147   1    -0.00   0.02   0.00    -0.00   0.01   0.00     0.00  -0.01  -0.00
 148   1    -0.00   0.00   0.00    -0.00   0.00   0.00     0.00  -0.00  -0.00
                    436                    437                    438
                        a                      a                      a 
 Frequencies --  3169.5941              3169.7570              3170.0039
 Red. masses --     1.9517                 1.9514                 1.9514
 Frc consts  --     0.0000                 0.0000                 0.0000
 IR Inten    --    21.8771                13.3850                65.7595
 Raman Activ --     0.0000                 0.0000                 0.0000
 Depolar     --     0.0000                 0.0000                 0.0000
 Atom AN      X      Y      Z        X      Y      Z        X      Y      Z
   1  26     0.00  -0.00   0.00     0.00  -0.00   0.00     0.00  -0.00   0.00
   2   6    -0.00   0.01  -0.01     0.00   0.07  -0.04     0.00   0.01  -0.00
   3   6    -0.02   0.00  -0.00    -0.17   0.01  -0.02    -0.02   0.00  -0.00
   4   6    -0.00  -0.00   0.00    -0.00  -0.00   0.00    -0.00  -0.00   0.00
   5   6    -0.00   0.00  -0.00    -0.00   0.00  -0.00     0.00   0.00  -0.00
   6   6    -0.00   0.00  -0.00    -0.00   0.00  -0.00    -0.00   0.00  -0.00
   7   6    -0.01  -0.00   0.00    -0.05  -0.00   0.00    -0.01  -0.00   0.00
   8   6     0.00  -0.00   0.00     0.00  -0.02   0.01     0.00  -0.00   0.00
   9   6     0.00  -0.00  -0.00     0.00  -0.00  -0.00     0.00   0.00  -0.00
  10   7     0.00   0.00  -0.00     0.00   0.00  -0.00     0.00   0.00   0.00
  11   6    -0.00   0.00  -0.00    -0.00  -0.00   0.00    -0.00   0.00  -0.00
  12   6     0.00   0.00  -0.00     0.00   0.00  -0.00     0.00   0.00  -0.00
  13   6    -0.00   0.00  -0.00     0.00   0.00  -0.00    -0.00   0.00  -0.00
  14   6    -0.00   0.00  -0.00    -0.00   0.00  -0.00    -0.00   0.00  -0.00
  15   6    -0.00  -0.00   0.00    -0.00  -0.00   0.00     0.00  -0.00   0.00
  16   7     0.00  -0.00  -0.00     0.00   0.00  -0.00    -0.00  -0.00   0.00
  17   6    -0.00   0.00  -0.00    -0.00   0.00  -0.00     0.00   0.00  -0.00
  18   6    -0.00  -0.00   0.00    -0.00  -0.00   0.00     0.00   0.00  -0.00
  19   6    -0.00  -0.00   0.00    -0.00  -0.00   0.00    -0.00  -0.00   0.00
  20   6     0.00   0.00  -0.00     0.00   0.00  -0.00    -0.00  -0.00   0.00
  21   6     0.00  -0.00   0.00     0.00  -0.00   0.00     0.00  -0.00   0.00
  22   7     0.00  -0.00   0.00     0.00  -0.00   0.00    -0.00   0.00  -0.00
  23   6    -0.00   0.00  -0.00    -0.00   0.00  -0.00    -0.00   0.00  -0.00
  24   6     0.00   0.00  -0.00     0.00   0.00  -0.00     0.00   0.00   0.00
  25   7     0.00  -0.00   0.00     0.00  -0.00   0.00     0.00  -0.00   0.00
  26   1     0.00  -0.03   0.02     0.02  -0.20   0.12     0.00  -0.02   0.01
  27   1     0.08  -0.01   0.01     0.57  -0.06   0.06     0.06  -0.01   0.01
  28   1     0.04   0.00  -0.00     0.16   0.02  -0.02     0.02   0.00  -0.00
  29   1     0.00   0.01  -0.01     0.00   0.06  -0.03     0.00   0.00  -0.00
  30   1    -0.00  -0.00   0.00    -0.00   0.00  -0.00    -0.00  -0.00   0.00
  31   1     0.00  -0.00   0.00     0.00  -0.00   0.00     0.00  -0.00   0.00
  32   1     0.00  -0.00   0.00     0.01  -0.00   0.00     0.00  -0.00   0.00
  33   1     0.00   0.00   0.00     0.00   0.00   0.00    -0.00   0.00  -0.00
  34   1     0.00   0.00  -0.00     0.00   0.00  -0.00     0.00   0.00  -0.00
  35   1    -0.00  -0.00   0.00    -0.00  -0.00   0.00     0.00   0.00  -0.00
  36   1    -0.00  -0.00   0.00    -0.00  -0.00   0.00    -0.00  -0.00   0.00
  37  26    -0.00  -0.00  -0.00    -0.00  -0.00   0.00     0.00  -0.00   0.00
  38   6     0.00   0.00   0.00    -0.00   0.00   0.00     0.00   0.00   0.00
  39   6    -0.00   0.00   0.00    -0.01   0.00   0.00    -0.01   0.00   0.00
  40   6    -0.00  -0.00  -0.00    -0.00  -0.00  -0.00    -0.00  -0.00  -0.00
  41   6    -0.00   0.00   0.00     0.00   0.00   0.00     0.00   0.00   0.00
  42   6    -0.00   0.00   0.00    -0.00   0.00   0.00    -0.00   0.00   0.00
  43   6    -0.00  -0.00  -0.00    -0.00  -0.00  -0.00    -0.00  -0.00  -0.00
  44   6    -0.00  -0.00  -0.00    -0.00  -0.00  -0.00     0.00  -0.00  -0.00
  45   6     0.00  -0.00  -0.00     0.00  -0.00  -0.00     0.00  -0.00  -0.00
  46   7     0.00   0.00   0.00     0.00   0.00   0.00     0.00  -0.00  -0.00
  47   6     0.00  -0.00  -0.00    -0.00  -0.00  -0.00    -0.00  -0.00  -0.00
  48   6    -0.00  -0.00  -0.00    -0.00  -0.00  -0.00     0.00   0.00   0.00
  49   6     0.00  -0.00  -0.00     0.00  -0.00  -0.00    -0.00   0.00   0.00
  50   6     0.00  -0.00  -0.00     0.00  -0.00  -0.00     0.00  -0.00  -0.00
  51   6     0.00   0.00   0.00     0.00   0.00   0.00     0.00   0.00  -0.00
  52   7    -0.00   0.00   0.00     0.00  -0.00  -0.00     0.00  -0.00  -0.00
  53   6     0.00  -0.00  -0.00     0.00   0.00   0.00     0.00  -0.00   0.00
  54   6    -0.00   0.00   0.00     0.00  -0.00  -0.00     0.00  -0.00   0.00
  55   6    -0.00  -0.00  -0.00     0.00   0.00   0.00     0.00   0.00   0.00
  56   6     0.00   0.00   0.00     0.00   0.00   0.00    -0.00  -0.00  -0.00
  57   6    -0.00  -0.00  -0.00    -0.00   0.00  -0.00     0.00  -0.00  -0.00
  58   7    -0.00  -0.00  -0.00     0.00  -0.00   0.00     0.00   0.00   0.00
  59   6    -0.00   0.00   0.00    -0.00   0.00   0.00    -0.00   0.00   0.00
  60   6     0.00   0.00   0.00     0.00   0.00   0.00     0.00   0.00   0.00
  61   7     0.00  -0.00  -0.00     0.00  -0.00  -0.00     0.00   0.00   0.00
  62   1     0.00  -0.00  -0.00     0.00  -0.01  -0.01     0.00  -0.01  -0.00
  63   1     0.01  -0.00  -0.00     0.02  -0.00  -0.00     0.02  -0.00  -0.00
  64   1     0.00   0.00   0.00     0.01   0.00   0.00     0.02   0.00   0.00
  65   1     0.00   0.00   0.00     0.00   0.01   0.00     0.00   0.00   0.00
  66   1    -0.00   0.00   0.00    -0.00   0.00   0.00    -0.00   0.00   0.00
  67   1    -0.00   0.00   0.00    -0.00   0.00   0.00     0.00  -0.00  -0.00
  68   1    -0.00   0.00   0.00    -0.00   0.00   0.00    -0.00   0.00   0.00
  69   1    -0.00  -0.00  -0.00    -0.00   0.00  -0.00    -0.00   0.00  -0.00
  70   1     0.00   0.00   0.00    -0.00  -0.00  -0.00    -0.00  -0.00  -0.00
  71   1    -0.00  -0.00  -0.00    -0.00  -0.00  -0.00     0.00   0.00   0.00
  72   1    -0.00  -0.00  -0.00    -0.00  -0.00  -0.00    -0.00  -0.00  -0.00
  73   6    -0.00  -0.00  -0.00    -0.00   0.00  -0.00     0.00   0.00  -0.00
  74   6    -0.00  -0.00   0.00    -0.00  -0.00   0.00    -0.00  -0.00   0.00
  75   6    -0.00   0.00   0.00    -0.00  -0.00  -0.00    -0.00   0.00   0.00
  76   6     0.00  -0.00   0.00     0.00   0.00  -0.00    -0.00  -0.00  -0.00
  77   6     0.00  -0.00  -0.00     0.00  -0.00  -0.00    -0.00  -0.00  -0.00
  78   6    -0.00   0.00   0.00    -0.00   0.00   0.00     0.00   0.00   0.00
  79  26     0.00  -0.00   0.00     0.00   0.00  -0.00     0.00   0.00   0.00
  80   6     0.00  -0.01   0.00     0.00  -0.08   0.01     0.00  -0.02   0.00
  81   6    -0.01  -0.00  -0.00    -0.17  -0.02  -0.01    -0.03  -0.00  -0.00
  82   6    -0.00   0.00  -0.00    -0.00   0.01  -0.00    -0.00   0.00  -0.00
  83   6    -0.00   0.00  -0.00    -0.00  -0.00   0.00    -0.00  -0.00   0.00
  84   6    -0.00  -0.00   0.00    -0.00  -0.00   0.00    -0.00  -0.00   0.00
  85   6    -0.02   0.00   0.00    -0.06   0.01   0.00    -0.02   0.00   0.00
  86   6     0.00   0.01  -0.00     0.00   0.03  -0.00     0.00   0.01  -0.00
  87   6     0.00  -0.00  -0.00     0.00   0.00  -0.00     0.00   0.00  -0.00
  88   7     0.00  -0.00   0.00     0.00  -0.00   0.00     0.00  -0.00   0.00
  89   6     0.00   0.00  -0.00    -0.00   0.00  -0.00    -0.00  -0.00   0.00
  90   6    -0.00   0.00   0.00     0.00  -0.00   0.00     0.00  -0.00  -0.00
  91   6    -0.00   0.06  -0.01    -0.00  -0.00   0.00     0.00  -0.05   0.01
  92   6     0.13   0.01  -0.01    -0.01  -0.00   0.00    -0.12  -0.01   0.01
  93   6     0.00  -0.00   0.00    -0.00   0.00  -0.00    -0.00   0.00  -0.00
  94   7    -0.00  -0.00   0.00     0.00   0.00   0.00     0.00   0.00  -0.00
  95   6     0.00   0.00  -0.00     0.00  -0.00   0.00    -0.00   0.00   0.00
  96   6    -0.00  -0.00   0.00     0.00   0.00  -0.00    -0.00  -0.00   0.00
  97   6    -0.10   0.01  -0.01     0.03  -0.00   0.00    -0.12   0.01  -0.01
  98   6     0.00   0.05  -0.01    -0.00  -0.01   0.00     0.00   0.06  -0.01
  99   6     0.00   0.00   0.00    -0.00   0.00  -0.00     0.00   0.00   0.00
 100   7     0.00  -0.00   0.00    -0.00   0.00  -0.00     0.00  -0.00   0.00
 101   6    -0.00   0.00  -0.00    -0.00  -0.00   0.00    -0.00   0.00  -0.00
 102   6     0.00  -0.00   0.00     0.00  -0.00   0.00     0.00  -0.00   0.00
 103   7     0.00   0.00   0.00     0.00   0.00  -0.00     0.00   0.00  -0.00
 104   1     0.00   0.02  -0.00     0.02   0.25  -0.04     0.00   0.05  -0.01
 105   1     0.05   0.01   0.00     0.58   0.09   0.02     0.11   0.02   0.00
 106   1     0.08  -0.01  -0.00     0.19  -0.03  -0.01     0.06  -0.01  -0.00
 107   1     0.00  -0.04   0.01     0.00  -0.09   0.01     0.00  -0.03   0.00
 108   1     0.00  -0.00   0.00    -0.00  -0.00   0.00    -0.00   0.00  -0.00
 109   1    -0.01  -0.18   0.04     0.00   0.01  -0.00     0.01   0.16  -0.04
 110   1    -0.43  -0.06   0.03     0.02   0.00  -0.00     0.40   0.05  -0.03
 111   1     0.33  -0.05   0.03    -0.09   0.01  -0.01     0.41  -0.06   0.04
 112   1     0.01  -0.14   0.03    -0.00   0.04  -0.01     0.01  -0.17   0.04
 113   1    -0.00  -0.00   0.00    -0.00   0.00  -0.00    -0.00  -0.00   0.00
 114  26    -0.00   0.00   0.00    -0.00  -0.00  -0.00     0.00   0.00  -0.00
 115   6     0.00  -0.07  -0.01    -0.00   0.02   0.00     0.00  -0.07  -0.01
 116   6    -0.14  -0.02  -0.01     0.04   0.01   0.00    -0.15  -0.02  -0.01
 117   6    -0.00   0.00   0.00     0.00  -0.00  -0.00    -0.00   0.00   0.00
 118   6    -0.00  -0.00  -0.00     0.00   0.00   0.00    -0.00  -0.00  -0.00
 119   6     0.00   0.00   0.00     0.00   0.00   0.00    -0.00  -0.00  -0.00
 120   6     0.14  -0.02  -0.01     0.01  -0.00  -0.00    -0.13   0.01   0.01
 121   6    -0.00  -0.07  -0.01     0.00  -0.01  -0.00     0.00   0.06   0.01
 122   6    -0.00  -0.00   0.00    -0.00  -0.00   0.00     0.00   0.00  -0.00
 123   7    -0.00   0.00   0.00    -0.00   0.00  -0.00     0.00  -0.00  -0.00
 124   6     0.00  -0.00  -0.00     0.00  -0.00  -0.00    -0.00   0.00   0.00
 125   6     0.00   0.00  -0.00     0.00  -0.00  -0.00     0.00  -0.00  -0.00
 126   6    -0.00  -0.01  -0.00    -0.00  -0.00  -0.00     0.00  -0.00  -0.00
 127   6    -0.01  -0.00   0.00    -0.01  -0.00   0.00    -0.01  -0.00   0.00
 128   6    -0.00   0.00   0.00    -0.00   0.00   0.00    -0.00   0.00   0.00
 129   7     0.00   0.00   0.00     0.00   0.00  -0.00     0.00  -0.00  -0.00
 130   6     0.00  -0.00  -0.00     0.00   0.00  -0.00    -0.00  -0.00  -0.00
 131   6     0.00   0.00   0.00    -0.00  -0.00  -0.00    -0.00  -0.00  -0.00
 132   6     0.01  -0.00   0.00    -0.01   0.00  -0.00    -0.01   0.00  -0.00
 133   6     0.00  -0.00  -0.00    -0.00   0.00   0.00     0.00   0.00   0.00
 134   6    -0.00   0.00  -0.00     0.00  -0.00   0.00     0.00   0.00   0.00
 135   7    -0.00   0.00   0.00     0.00  -0.00   0.00     0.00   0.00  -0.00
 136   6    -0.00  -0.00  -0.00     0.00   0.00   0.00    -0.00  -0.00  -0.00
 137   6     0.00  -0.00   0.00    -0.00   0.00  -0.00     0.00  -0.00   0.00
 138   7     0.00   0.00   0.00    -0.00  -0.00  -0.00     0.00   0.00   0.00
 139   1     0.01   0.20   0.03    -0.00  -0.07  -0.01     0.01   0.21   0.03
 140   1     0.46   0.07   0.03    -0.15  -0.02  -0.01     0.48   0.07   0.03
 141   1    -0.48   0.07   0.04    -0.03   0.00   0.00     0.42  -0.06  -0.03
 142   1    -0.01   0.21   0.03    -0.00   0.02   0.00     0.01  -0.18  -0.03
 143   1     0.00   0.00   0.00     0.00   0.00   0.00    -0.00  -0.00  -0.00
 144   1     0.00   0.02   0.00     0.00   0.01   0.00     0.00   0.01   0.00
 145   1     0.03   0.00  -0.00     0.02   0.00  -0.00     0.03   0.00  -0.00
 146   1    -0.02   0.00  -0.00     0.02  -0.00   0.00     0.02  -0.00   0.00
 147   1    -0.00   0.01   0.00     0.00  -0.01  -0.00     0.00  -0.01  -0.00
 148   1    -0.00   0.00   0.00     0.00  -0.00  -0.00    -0.00   0.00   0.00
