148
 energy: -265.079910885865 gnorm: 0.000512282881 xtb: 6.4.1 (bd6e46d)
Fe       25.27722467864289    0.01544161443506   -0.00869970095296
C        27.76516798315555   -2.88323093003506    1.75897543917924
C        28.75945959846600   -2.08548927688084    1.30390276727607
C        28.12475555311013   -1.00165024812193    0.61847660751465
C        28.80506608120265    0.04007566229877   -0.01794095192028
C        28.10764217886257    1.07446465354506   -0.64746653146647
C        28.72372567464021    2.17068899672244   -1.33011247014140
C        27.71605829832500    2.95744621364393   -1.77487851603677
C        26.49037500279292    2.33309726260687   -1.36732381748485
N        26.75055724128318    1.17498333317672   -0.68314965392430
C        25.25043623665429    2.87303489527639   -1.64844896590290
C        24.02091382798666    2.33830086592937   -1.31808375951472
C        22.77978022840007    2.97647591147221   -1.66007871334997
C        21.78946346166851    2.17524555773527   -1.20720344671243
C        22.42850849148910    1.04978371216628   -0.58907472426073
N        23.78677352009456    1.16332304987278   -0.65907381913699
C        21.76722941577468   -0.01471245165814   -0.00959213542344
C        22.44630565884080   -1.06724362854271    0.57112543156999
C        21.82635391053262   -2.20319401816491    1.18950805020300
C        22.83000051774046   -2.98563881329211    1.64588520825966
C        24.06009397785701   -2.32588416823125    1.30517857209831
N        23.80622829985501   -1.15654876251955    0.64343045407194
C        25.29845014015477   -2.83776679895726    1.63861932310464
C        26.52893961377462   -2.27889998206319    1.35320901283911
N        26.76941733177218   -1.12071600905383    0.66189844538411
H        27.84175505692246   -3.79531398679143    2.31890129283731
H        29.81974418023654   -2.19506936603544    1.42006117075947
H        29.78187877694961    2.29597197550627   -1.45023010713367
H        27.77696085485893    3.87408177421052   -2.32929106553984
H        25.24264672472210    3.81017559068663   -2.18712695860261
H        22.70122520190158    3.91225462682051   -2.17963696587933
H        20.72748481545344    2.31220160695443   -1.27461222331172
H        20.68831786193827   -0.02407905158576   -0.01011045784461
H        20.76690045103367   -2.35934864125127    1.25472629146922
H        22.76735952400847   -3.92213510364887    2.16627715598394
H        25.30680031757622   -3.77252252086789    2.18137486532946
Fe       58.49977438606290    0.04156208235605   -0.01572441664812
C        56.02068509119874    2.93941862923560    1.76724123526144
C        55.02387372006709    2.15635088600284    1.29265256245368
C        55.65639467309475    1.07166151034116    0.60624701763600
C        54.97343366708849    0.03698871541502   -0.03794530520807
C        55.66597821007517   -0.99384988078314   -0.67782455233535
C        55.04469386430297   -2.07689255994475   -1.37690898554139
C        56.04944673860538   -2.85437557137822   -1.84410612059954
C        57.27796150416398   -2.23958479404571   -1.43028783770279
N        57.02261961079677   -1.09596575265991   -0.72058090159621
C        58.51611599268733   -2.77407168178419   -1.72898969524702
C        59.74724941434942   -2.25344022617208   -1.38252868754954
C        60.98614369223777   -2.88849869317264   -1.73809851852935
C        61.97906648692707   -2.10967851139091   -1.25304139373421
C        61.34387933034895   -1.00023040830394   -0.60284086895593
N        59.98538180946592   -1.10105003334705   -0.68602277226243
C        62.00904676144136    0.03793101639087    0.01839364376513
C        61.33426322482858    1.07836149967598    0.62529727818946
C        61.95890847729098    2.18760203139221    1.28592481403949
C        60.95829458377452    2.97044928760079    1.74820125103195
C        59.72535686089596    2.33754665200185    1.36911345214823
N        59.97464038616995    1.18273214712772    0.68065138437834
C        58.48858657014232    2.86114071483346    1.69003411857495
C        57.25576808978552    2.32519079978398    1.37270936988281
N        57.01218260945372    1.17777700421830    0.66478340818407
H        55.94658715785706    3.84736493890490    2.33413779324263
H        53.96313886322709    2.27673002795339    1.39454791173305
H        53.98552822028902   -2.19960976313024   -1.49209625567044
H        55.98477003980603   -3.75925894681256   -2.41709817200417
H        58.52089247946613   -3.69598510543919   -2.29332923019069
H        61.06142621611347   -3.80780348978236   -2.28667521789354
H        63.04044708419966   -2.25229114012845   -1.31783537067921
H        63.08794797864204    0.03649444430369    0.02926838224769
H        63.01909333605597    2.32760624067764    1.37233690528906
H        61.02473943959448    3.89085032510389    2.29608176985108
H        58.48368160067668    3.78516829085851    2.25086212323551
C        30.20626670367529    0.04596644390744   -0.02327348734237
C        31.41893958058162    0.04401204553226   -0.02791158440340
C        41.28372647438916    0.02066309856960    0.00957590501798
C        42.49661369768298    0.01844413905933    0.01336068921971
C        52.35974569734564    0.02964808446408   -0.03946473807954
C        53.57214192470993    0.03337105736706   -0.03986694581686
Fe       36.35158588855926    0.03139250743647   -0.01896374159529
C        33.87744457711755   -3.34004566274297    0.45835242501205
C        32.87860267958501   -2.44256175147898    0.28722224635066
C        33.50613598138438   -1.16562462579543    0.13606500417881
C        32.81974722721717    0.04100132771158   -0.02799506384099
C        33.51361044472663    1.24311568878981   -0.19239288355682
C        32.89395332254947    2.52290364178400   -0.35153493922635
C        33.89854577398280    3.41379305859690   -0.52350889155248
C        35.12540330245209    2.67322835484373   -0.46216553971247
N        34.86937473325675    1.34487498584763   -0.24466784945385
C        36.36201429823388    3.26370014301618   -0.63267349374330
C        37.59474645947566    2.64444842005485   -0.57107593631779
C        38.82646453782444    3.34883836523943   -0.78071103385250
C        39.82535812623146    2.45173954251060   -0.60758520974802
C        39.19735967378303    1.20657003962682   -0.28795741613038
N        37.84229351569765    1.32782090172193   -0.28337961525148
C        39.88336655649246    0.02360229486915    0.00231558185822
C        39.18878195536461   -1.15705698972942    0.28115459168821
C        39.80770133216244   -2.40657297619692    0.60145955476577
C        38.80326614908883   -3.30111336450916    0.75440000560048
C        37.57713872290361   -2.59040064694108    0.53360824304796
N        37.83344884810393   -1.27287900170521    0.25814951783704
C        36.34105656986409   -3.20425546859538    0.57969870594613
C        35.10868908042774   -2.60621855402462    0.40509801315328
N        34.86101218342777   -1.27539783360277    0.19308940114910
H        33.80665850970795   -4.40024965209705    0.60712034037350
H        31.81987890460928   -2.60878972249645    0.25280990724275
H        31.83597378181416    2.69493863008609   -0.32247938862193
H        33.83449534559822    4.47373002920496   -0.67713626311879
H        36.36549892680912    4.32551675665064   -0.83505868268521
H        38.89751492411762    4.39051419799224   -1.02774931605170
H        40.88444435171998    2.59535344961946   -0.69349433119448
H        40.86498065928863   -2.55463804620923    0.70089293649279
H        38.86700019176486   -4.34486392347804    0.99457303824739
H        36.33769909641410   -4.26733206876971    0.77533300802421
Fe       47.42833129073956    0.02225236287296   -0.00787949522580
C        44.96588179598478   -3.35579649686240   -0.49777857765314
C        43.96377476299895   -2.45127640039580   -0.39712967948573
C        44.58732934357276   -1.18177996495940   -0.18153726069159
C        43.89701857808366    0.01827660359197    0.01208260614696
C        44.58697084835779    1.21930029600397    0.20113073758263
C        43.96273639169343    2.48680276601738    0.42656622232420
C        44.96365554950859    3.39366462316593    0.51692030857013
C        46.19294848527726    2.67308363074909    0.35284020706135
N        45.94196587971817    1.33800758217940    0.17333845574759
C        47.42663681585197    3.29340044020932    0.36023176991459
C        48.66171681585792    2.68914467909199    0.23249679045283
C        49.89070102978339    3.42884400344780    0.24102570270090
C        50.89282029176223    2.52540201104882    0.13115696169600
C        50.26901860879051    1.23952882963896    0.06041540704857
N        48.91377697078611    1.34812709957342    0.10931506949303
C        50.95888102296916    0.02777955753862   -0.03243397370968
C        50.27081114387651   -1.18560551795633   -0.11556420852815
C        50.89730405233399   -2.46981594233718   -0.19295429681691
C        49.89634927395828   -3.37626960848272   -0.28731985740605
C        48.66541099804105   -2.64014331538529   -0.26307780140556
N        48.91524563375108   -1.29810727275023   -0.14541209502573
C        47.43059598307429   -3.24833658670240   -0.37343213627479
C        46.19518911336433   -2.63174555184039   -0.35021466901365
N        45.94289627196207   -1.29716238412074   -0.16915699438429
H        44.89856989395232   -4.41451464350246   -0.65826099589718
H        42.90514778950437   -2.60551729699448   -0.46886249448662
H        42.90467461548378    2.63790192844364    0.51221621657841
H        44.89571230212501    4.45191546373882    0.68020093973241
H        47.42542521718726    4.36762993803845    0.48039147568648
H        49.95786465908076    4.49672238463912    0.32070850561125
H        51.95145722502070    2.69182255945565    0.09051771411991
H        51.95696213665909   -2.63281970592387   -0.16703597406942
H        49.96532714300047   -4.44410373043736   -0.36577667695347
H        47.43112213227644   -4.32266685941306   -0.49265972401952
