148
 energy: -263.954126020117 gnorm: 0.710414040176 xtb: 6.4.1 (bd6e46d)
Fe       24.39195800000000    0.04122900000000   -0.01254500000000
C        26.72094900000000   -3.10556400000000    1.31014400000000
C        27.63705700000000   -2.16135600000000    1.25986200000000
C        27.22587700000000   -1.10745200000000    0.33857000000000
C        27.84474800000000    0.01689400000000   -0.00784000000000
C        27.14070500000000    1.23684200000000   -0.37194500000000
C        27.46881600000000    2.19689700000000   -1.21941900000000
C        26.43403600000000    3.21318200000000   -1.23631600000000
C        25.49776800000000    2.83672000000000   -0.38942500000000
N        25.89975800000000    1.60370900000000    0.17439200000000
C        24.23669400000000    3.48172000000000   -0.01027300000000
C        23.14147700000000    2.84693700000000    0.34048700000000
C        22.06785100000000    3.16489300000000    1.30951500000000
C        21.23028800000000    2.16813900000000    1.23234900000000
C        21.66858600000000    1.16445600000000    0.25189700000000
N        22.77352400000000    1.60330900000000   -0.23239500000000
C        21.05775100000000   -0.08881500000000   -0.16165100000000
C        21.72191100000000   -1.19332100000000   -0.41607600000000
C        21.34806300000000   -2.25626300000000   -1.37360300000000
C        22.29681000000000   -3.15001900000000   -1.28458400000000
C        23.28253400000000   -2.71256900000000   -0.30170600000000
N        22.92948800000000   -1.56676400000000    0.19509100000000
C        24.51342200000000   -3.36863900000000    0.14401500000000
C        25.63646300000000   -2.72277800000000    0.41113600000000
N        25.96506300000000   -1.47533700000000   -0.18726700000000
H        26.78121100000000   -4.01534400000000    1.92769100000000
H        28.55338400000000   -2.20130600000000    1.83791000000000
H        28.39618100000000    2.21369300000000   -1.82056200000000
H        26.45093500000000    4.11787100000000   -1.84893800000000
H        24.18897100000000    4.57652200000000   -0.01405000000000
H        22.01503000000000    4.04361800000000    1.93450800000000
H        20.31865800000000    2.13246900000000    1.84967300000000
H        19.95950000000000   -0.08590400000000   -0.26092200000000
H        20.47920700000000   -2.30872800000000   -2.02255300000000
H        22.29396400000000   -4.06632700000000   -1.88334300000000
H        24.47794000000000   -4.46444100000000    0.25594000000000
Fe       59.36988200000000   -0.00614700000000   -0.01697800000000
C        57.04089100000000    2.84064500000000    1.86652700000000
C        56.12478400000000    1.92215600000000    1.64195300000000
C        56.53596400000000    1.05745900000000    0.54113900000000
C        55.91709300000000    0.01689400000000   -0.00784000000000
C        56.62113500000000   -1.11433100000000   -0.59194300000000
C        56.29302500000000   -1.90050300000000   -1.60280900000000
C        57.32780400000000   -2.89601200000000   -1.80795000000000
C        58.26407300000000   -2.68319600000000   -0.90592000000000
N        57.86208200000000   -1.57618400000000   -0.12314800000000
C        59.52514700000000   -3.38733700000000   -0.65300600000000
C        60.62036400000000   -2.82864400000000   -0.19057300000000
C        61.69399000000000   -3.32084900000000    0.70264900000000
C        62.53155300000001   -2.32708200000000    0.81173400000000
C        62.09325500000000   -1.15893400000000    0.03449900000000
N        60.98831700000000   -1.50032600000000   -0.52280000000000
C        62.70409000000001    0.14930200000000   -0.13937100000000
C        62.03992900000000    1.28183500000000   -0.18447700000000
C        62.41377800000000    2.50396100000000   -0.92819200000000
C        61.46503100000001    3.36568800000000   -0.67491300000000
C        60.47930700000000    2.75349300000000    0.20975000000000
N        60.83235300000000    1.53541500000000    0.48536000000000
C        59.24841900000000    3.31548800000000    0.76944500000000
C        58.12537800000000    2.63128300000000    0.91211200000000
N        57.79677700000001    1.51650800000000    0.09267800000000
H        56.98062900000001    3.62007000000000    2.64213100000000
H        55.20845700000000    1.85417500000000    2.21737900000000
H        55.36566000000001   -1.80548600000000   -2.19663400000000
H        57.31090500000000   -3.67134700000000   -2.57777000000000
H        59.57287000000001   -4.46243500000000   -0.85982000000000
H        61.74681100000000   -4.30026600000000    1.15377600000000
H        63.44318300000000   -2.40655400000000    1.42496000000000
H        63.80234000000001    0.16485700000000   -0.23745800000000
H        63.28263400000001    2.67590500000000   -1.55614400000000
H        61.46787700000000    4.37716900000000   -1.09329100000000
H        59.28390100000000    4.37150400000000    1.08271400000000
C        30.45919600000000    0.01689400000000   -0.00784000000000
C        31.67540100000000    0.01689400000000   -0.00784000000000
C        41.27281800000001    0.01689400000000   -0.00784000000000
C        42.48902300000001    0.01689400000000   -0.00784000000000
C        52.08644000000000    0.01689400000000   -0.00784000000000
C        53.30264500000000    0.01689400000000   -0.00784000000000
Fe       36.50560500000000    0.02969500000000    0.00564600000000
C        34.22579500000001   -3.23175200000000   -0.90402000000000
C        33.26958500000000   -2.33240200000000   -1.00604600000000
C        33.66195900000000   -1.17009700000000   -0.20353000000000
C        33.02684300000000   -0.01882400000000    0.00873600000000
C        33.71230000000000    1.25577500000000    0.23496500000000
C        33.37701000000000    2.33437500000000    0.93920500000000
C        34.40155100000000    3.35369200000000    0.84862400000000
C        35.35214800000000    2.85676700000000    0.07525900000000
N        34.97515400000000    1.54016200000000   -0.34088400000000
C        36.59928800000000    3.46846900000000   -0.34160600000000
C        37.70084000000000    2.80121200000000   -0.67337800000000
C        38.69438600000001    3.05319600000000   -1.70754800000000
C        39.58826900000000    2.09233700000000   -1.60606400000000
C        39.20857100000001    1.18045300000000   -0.50208700000000
N        38.11365600000000    1.62977200000000    0.00528000000000
C        39.86577800000000   -0.01882400000000    0.00873600000000
C        39.24236700000001   -1.08800600000000    0.47025200000000
C        39.62107900000001   -2.02012200000000    1.54572800000000
C        38.68041100000001   -2.93426800000000    1.63159400000000
C        37.67210900000000   -2.63848900000000    0.63416700000000
N        38.00988400000000   -1.58511100000000   -0.01512800000000
C        36.41971600000001   -3.34549600000000    0.30297400000000
C        35.30583900000000   -2.74880000000000   -0.04436800000000
N        34.92372700000001   -1.46604200000000    0.37331500000000
H        34.22613900000000   -4.22282600000000   -1.39525400000000
H        32.36105100000000   -2.45409600000000   -1.58719400000000
H        32.45215800000000    2.45272700000000    1.51613100000000
H        34.42884600000000    4.34285600000000    1.30527400000000
H        36.68522800000001    4.56584700000000   -0.40362900000000
H        38.72705800000000    3.85941200000000   -2.43437200000000
H        40.48133100000000    1.97936900000000   -2.23983800000000
H        40.53583000000000   -1.94571500000000    2.15589800000000
H        38.69945700000000   -3.74787600000000    2.33986100000000
H        36.45820100000000   -4.44545500000000    0.36201000000000
Fe       47.31922700000000    0.02969500000000    0.00564600000000
C        45.03941700000000   -3.23175200000000   -0.90402000000000
C        44.08320700000000   -2.33240200000000   -1.00604600000000
C        44.47558100000000   -1.17009700000000   -0.20353000000000
C        43.84046500000000   -0.01882400000000    0.00873600000000
C        44.52592200000000    1.25577500000000    0.23496500000000
C        44.19063200000000    2.33437500000000    0.93920500000000
C        45.21517300000000    3.35369200000000    0.84862400000000
C        46.16577000000001    2.85676700000000    0.07525900000000
N        45.78877600000001    1.54016200000000   -0.34088400000000
C        47.41291000000000    3.46846900000000   -0.34160600000000
C        48.51446200000000    2.80121200000000   -0.67337800000000
C        49.50800800000000    3.05319600000000   -1.70754800000000
C        50.40189100000000    2.09233700000000   -1.60606400000000
C        50.02219300000000    1.18045300000000   -0.50208700000000
N        48.92727800000001    1.62977200000000    0.00528000000000
C        50.67940000000000   -0.01882400000000    0.00873600000000
C        50.05598900000000   -1.08800600000000    0.47025200000000
C        50.43470100000000   -2.02012200000000    1.54572800000000
C        49.49403300000000   -2.93426800000000    1.63159400000000
C        48.48573100000000   -2.63848900000000    0.63416700000000
N        48.82350600000000   -1.58511100000000   -0.01512800000000
C        47.23333800000000   -3.34549600000000    0.30297400000000
C        46.11946100000000   -2.74880000000000   -0.04436800000000
N        45.73734900000000   -1.46604200000000    0.37331500000000
H        45.03976100000000   -4.22282600000000   -1.39525400000000
H        43.17467300000000   -2.45409600000000   -1.58719400000000
H        43.26578000000000    2.45272700000000    1.51613100000000
H        45.24246800000000    4.34285600000000    1.30527400000000
H        47.49885000000000    4.56584700000000   -0.40362900000000
H        49.54068000000000    3.85941200000000   -2.43437200000000
H        51.29495300000001    1.97936900000000   -2.23983800000000
H        51.34945100000001   -1.94571500000000    2.15589800000000
H        49.51307900000000   -3.74787600000000    2.33986100000000
H        47.27182200000001   -4.44545500000000    0.36201000000000
148
 energy: -264.185789187145 gnorm: 0.383384337447 xtb: 6.4.1 (bd6e46d)
Fe       24.40462077202972    0.03863791198428   -0.01219839021196
C        26.72331300282072   -3.11536260712977    1.30089278273243
C        27.65569557788796   -2.16234353292222    1.25546232981468
C        27.22715200276697   -1.11054343647577    0.34487152759981
C        27.83432096593534    0.04131256377133   -0.00466995460468
C        27.12952653241970    1.23394679729738   -0.36434159755348
C        27.48325372728409    2.22769778027210   -1.23929683288475
C        26.46774870792625    3.21620342981046   -1.25116367576364
C        25.49306889560220    2.81071015303586   -0.38321829479352
N        25.87541303322552    1.57993998537267    0.17591431464141
C        24.25898584230594    3.47873149794469   -0.01016838034750
C        23.13048621524729    2.83030625599378    0.34154692753500
C        22.06674907424446    3.17369471514664    1.29049171281352
C        21.20041838445961    2.16136775449598    1.23582163269666
C        21.66164507290110    1.16570194365983    0.27108991175463
N        22.81018141067921    1.58118367196356   -0.21021816085413
C        21.04412280512274   -0.06461736566814   -0.15360858055067
C        21.72502359470927   -1.19665066613791   -0.42260224026952
C        21.33874395529870   -2.25780158069151   -1.35806050420723
C        22.30385043855349   -3.17512488704755   -1.28149030490739
C        23.29252054292904   -2.72492843344868   -0.31215691811655
N        22.94148315893266   -1.54317336232282    0.16597940660947
C        24.49471239720186   -3.37542216786613    0.13482080419143
C        25.64326768024860   -2.70613496775548    0.41540365226121
N        25.95894963089913   -1.46753101540106   -0.15346428544763
H        26.77114364152432   -4.00977803735395    1.91829993271033
H        28.56058668550522   -2.19033142589091    1.83524157682952
H        28.39499489659369    2.22539154573500   -1.82394298811429
H        26.46024795393235    4.11458620395043   -1.85138124282500
H        24.20977288404309    4.57052020815987   -0.00584259878222
H        22.02341917466970    4.04222733544336    1.92650691766152
H        20.31138201691648    2.12157146765651    1.84933487117876
H        19.96028456350384   -0.07491467766430   -0.26722670286064
H        20.48094266013235   -2.29765037493530   -2.01314610796049
H        22.30701131856271   -4.07295639701293   -1.87979034375418
H        24.47211462948911   -4.45981804160304    0.25566322045081
Fe       59.35721301426840   -0.00361263491338   -0.01620437767667
C        57.03855001653325    2.85199259793004    1.85926023261423
C        56.10624641513383    1.92391588706281    1.63783867860700
C        56.53501786647684    1.05929160488831    0.54803458811834
C        55.92873363186987   -0.00798669648575   -0.00870854930514
C        56.63261875064745   -1.11285381004480   -0.58386371025399
C        56.27868244810038   -1.92706623912206   -1.62803211166380
C        57.29403765818668   -2.89618710467615   -1.82309843762234
C        58.26882520725717   -2.65874997208256   -0.89497987834463
N        57.88660530752293   -1.55327169227614   -0.11712005830869
C        59.50286833873157   -3.38443090380581   -0.65237899373509
C        60.63135591334105   -2.81247884555023   -0.18646316112600
C        61.69508644668093   -3.32595249942980    0.68234149254922
C        62.56143680074433   -2.32108083896077    0.81636559414957
C        62.10017638917422   -1.16369929852148    0.05310435855946
N        60.95163805425058   -1.48271996488500   -0.49694079239156
C        62.71769785001479    0.12402023125397   -0.13595113678709
C        62.03678462250158    1.28632280012837   -0.19028070927958
C        62.42309173646842    2.50258519961753   -0.91264997732655
C        61.45797833551459    3.38977988570194   -0.66725030359250
C        60.46932279798742    2.76757076562056    0.20175250380645
N        60.82037373973696    1.51766408766641    0.45241807522873
C        59.26712320899750    3.32387915903175    0.76167126263276
C        58.11860517141287    2.61414532103728    0.91320092234121
N        57.80314378918318    1.50254181903376    0.12440194421535
H        56.99069102012372    3.61635724639161    2.63186223863165
H        55.20129991945905    1.84389624468146    2.21269433605459
H        55.36688461067018   -1.81633280101402   -2.20213172346303
H        57.30158146789047   -3.66764573608266   -2.57959252861926
H        59.55207293233310   -4.45806898808006   -0.85067546943341
H        61.73843177701620   -4.29741911545044    1.14616145131117
H        63.45046253357881   -2.39578235749411    1.42663646285402
H        63.80154347669760    0.15522336216209   -0.24569108016394
H        63.28090056910382    2.66327331476517   -1.54896462874106
H        61.45483200693801    4.38302995771890   -1.08858050928738
H        59.28971562800270    4.36702717118525    1.08158128852967
C        30.42065235797475    0.01586427509702   -0.00868937922200
C        31.64345129916181    0.02742156049458   -0.01119059756312
C        41.27016299467297    0.02608719389418   -0.00573763488359
C        42.48303379677898    0.02718570602357   -0.01010121877288
C        52.11363470966678    0.02564820157941   -0.00287893661094
C        53.33453167487752    0.01666041406849   -0.00818883490332
Fe       36.49607046790745    0.03227658334515    0.00291216824708
C        34.22529980618341   -3.25198769647693   -0.89609188392377
C        33.26134988603382   -2.33318711419162   -0.99564798153935
C        33.68362920974959   -1.18252249917191   -0.20816275127669
C        33.03347888248398    0.00333716280517    0.00527488973098
C        33.74041150183182    1.25965501308470    0.23282526516794
C        33.36566571932387    2.36375585161627    0.95240509015386
C        34.37380264692307    3.35587944023003    0.85705350207497
C        35.36228474720057    2.83406474475918    0.07201559138342
N        35.00057182729928    1.52468262250055   -0.32751560354763
C        36.58258462882999    3.46644132428775   -0.34397491444594
C        37.71045606122485    2.78850948596702   -0.67465372724117
C        38.70422048043913    3.06187475118173   -1.69266314403973
C        39.61260010920090    2.08035970134775   -1.60506651022525
C        39.21179332265399    1.17955968519857   -0.52064067482586
N        38.07816827670566    1.60941887350254   -0.01518216388952
C        39.87592321299039    0.00054049886529   -0.00127580643003
C        39.22919137089579   -1.10047733312798    0.47851315926548
C        39.63474598692290   -2.02067109229001    1.53403035083150
C        38.67717725857650   -2.95363208760213    1.63058323265681
C        37.66076701790050   -2.64723520765989    0.64548162168511
N        37.99340483762671   -1.54856587778732   -0.00059475847152
C        36.44140575897496   -3.35279287957198    0.31428843388432
C        35.29300779357583   -2.73559683945028   -0.05309700517533
N        34.93729402066020   -1.45202250600854    0.33786125754057
H        34.23210863120578   -4.22007266562365   -1.39096249981909
H        32.36110981506472   -2.44201224095435   -1.58152889260459
H        32.45003728495925    2.45907025062231    1.51826434780575
H        34.41462472040405    4.33665854439551    1.30862273224567
H        36.66286713666926    4.55788045125641   -0.41117900296421
H        38.71879144602676    3.85781792832269   -2.42429915832836
H        40.48397130458835    1.97102209427437   -2.23664451259565
H        40.53020682564648   -1.93944747970895    2.14565970580912
H        38.69062308649983   -3.75622586776064    2.34097180279898
H        36.46603295679183   -4.44238405388283    0.35940410009870
Fe       47.30984364039802    0.03242211515709    0.00313336228904
C        45.03829174335065   -3.25294659257550   -0.89586929446568
C        44.07543643842784   -2.33413823530368   -0.99515933314362
C        44.50126848675313   -1.18466438140857   -0.20594562133767
C        43.85567520836922    0.00269174442059    0.00590559197124
C        44.55722476248758    1.26173337439736    0.23215391160501
C        44.17996058799679    2.36385978303621    0.95214171389420
C        45.18763698271569    3.35650700285023    0.85688151631155
C        46.17638088031371    2.83500487390748    0.07185063681325
N        45.81540321930552    1.52581889183782   -0.32758603200846
C        47.39653590922003    3.46620854031458   -0.34341214975274
C        48.52493292431493    2.78763642792489   -0.67415717643025
C        49.51788841507125    3.06139748431492   -1.69273020442781
C        50.42665113827415    2.08012466183352   -1.60576231007403
C        50.02794777843682    1.17721714011950   -0.52245002392723
N        48.89405349563948    1.60814961581508   -0.01519847497042
C        50.69780343022449   -0.00025317666621   -0.00122972325369
C        50.04740057791632   -1.09801938850164    0.47842396100660
C        50.44933650942797   -2.02052782779600    1.53419416507121
C        49.49101512063032   -2.95234150582679    1.63099399727018
C        48.47561692730995   -2.64496714239030    0.64559349544867
N        48.80808527332459   -1.54779813351733   -0.00032062641047
C        47.25448242171688   -3.35291559525111    0.31303264284400
C        46.10766798278823   -2.73677951553824   -0.05262853123478
N        45.75238381875588   -1.45261857366824    0.33806381104187
H        45.04545942572484   -4.22043376971469   -1.39117738097006
H        43.17504988118340   -2.44197187537641   -1.58157174932592
H        43.26396125141481    2.45879626421649    1.51827403137942
H        45.22817129656554    4.33700368775153    1.30863029084303
H        47.47676002136174    4.55775728988067   -0.41109546414260
H        49.53233633930283    3.85772751212676   -2.42415674009050
H        51.29786110306868    1.97112435936783   -2.23688731050774
H        51.34428769535603   -1.93973204144184    2.14577541420171
H        49.50411793431022   -3.75575535348654    2.34085364035222
H        47.28003820638378   -4.44244097962928    0.35802959629630
148
 energy: -264.321316852158 gnorm: 0.150871669192 xtb: 6.4.1 (bd6e46d)
Fe       24.41612306815508    0.03881386514088   -0.00899077955020
C        26.72354341357706   -3.12032338703647    1.28919052727863
C        27.67287654680331   -2.16258058411289    1.24836571665822
C        27.22594262458951   -1.11184934506172    0.35515781573551
C        27.82061171724956    0.06496071358376   -0.00961248112169
C        27.12144715309364    1.22667590155007   -0.36049802244692
C        27.49380259793850    2.25948428997353   -1.24997665095850
C        26.50393327684041    3.21434982733011   -1.25353151587035
C        25.48854856795185    2.78094387864801   -0.37451392800979
N        25.85223605672672    1.55272579149718    0.15640565157162
C        24.28553083643505    3.46639651912903   -0.00984659058712
C        23.12956483802138    2.80341927031044    0.35050685003646
C        22.07184176704924    3.17504882820590    1.26548782777528
C        21.17437015922738    2.15900359216351    1.22817549644640
C        21.65567337177873    1.16453030918564    0.29250155495988
N        22.85451976947010    1.55339134358197   -0.17292918628539
C        21.03815249299737   -0.04148606058179   -0.14366608925208
C        21.73487649193608   -1.19386627722340   -0.43755266980069
C        21.33566906227612   -2.25654826351563   -1.33903547921152
C        22.30603736789121   -3.19699873907728   -1.26982410792714
C        23.30322120006243   -2.73369134669429   -0.32454631113478
N        22.95801648023021   -1.50805420033595    0.12187117909601
C        24.47803291953619   -3.37400937944211    0.12438242939043
C        25.64569064954740   -2.68166165930024    0.42427022902742
N        25.94925240071451   -1.45601219187070   -0.11082651195138
H        26.75962711416641   -4.00437836179433    1.90390937103739
H        28.57174137117415   -2.17825938143659    1.82778224986122
H        28.39471533170562    2.23593588251288   -1.82438148925042
H        26.46583187951870    4.10919771049624   -1.84720710022402
H        24.23240384629026    4.55532019675286   -0.00511286427888
H        22.03225488505485    4.03743067090344    1.91078653434421
H        20.30282558894929    2.11035573440379    1.84314306763964
H        19.96390897188284   -0.06748184269615   -0.26562180483488
H        20.48437986633064   -2.28621598268022   -1.99819436966370
H        22.31997380159507   -4.08152682735435   -1.87090306092078
H        24.47266074098197   -4.45101289622420    0.24877634522996
Fe       59.34566470338547   -0.00443902618901   -0.01307559772937
C        57.03837812112342    2.85900851637488    1.84869008654625
C        56.08924565201613    1.92530491745399    1.63087235006916
C        56.53663845961565    1.05880817073352    0.55807391378957
C        55.94362666040915   -0.02969389643148   -0.01957979299851
C        56.64106224825171   -1.10634385084168   -0.57902621981064
C        56.26831318911913   -1.95634477691351   -1.64452745281280
C        57.25792330997709   -2.89399513533292   -1.82508553268205
C        58.27343442836475   -2.63125616800533   -0.88086749783416
N        57.90998668603901   -1.52308562419915   -0.13124673845567
C        59.47637344525837   -3.37245832412367   -0.64977779461556
C        60.63228888957720   -2.78773463132857   -0.17265231282408
C        61.68999810110244   -3.32263846884554    0.65753626460612
C        62.58748747617241   -2.31732241877951    0.80930128212003
C        62.10617431509478   -1.16651320121389    0.07435657005978
N        60.90730434052111   -1.46233942412622   -0.45513778929701
C        62.72367681326840    0.09944053583942   -0.13047361386284
C        62.02693806785651    1.28635997442400   -0.20550164331967
C        62.42616686963306    2.49781345100566   -0.89420492213908
C        61.45579981938150    3.40911560394114   -0.65174557163927
C        60.45864789437769    2.77852750281566    0.19121459689072
N        60.80382759818170    1.49133906132275    0.40252921018043
C        59.28390867754425    3.32454500354690    0.75120234140416
C        58.11630804695024    2.58859583488290    0.91741478341498
N        57.81322852455123    1.48361308696328    0.16414592810564
H        57.00218601480615    3.61373333473750    2.61668343814354
H        55.19022246982045    1.83338326771408    2.20297638169516
H        55.36730402848700   -1.82659949414011   -2.20450626058144
H        57.29603646789860   -3.66317482558992   -2.57447549680287
H        59.52948930496052   -4.44332582045808   -0.84715643183167
H        61.72959744130649   -4.28978340119845    1.13161840950760
H        63.45902405379544   -2.38359845472845    1.42263503860293
H        63.79792395739827    0.14762555506471   -0.24547641827840
H        63.27746268501550    2.64925079781898   -1.53641052364324
H        61.44187106183876    4.38980150641588   -1.07827818157387
H        59.28921908015013    4.35974456031944    1.07318269916180
C        30.38572283886977    0.02282807136606   -0.00483953671175
C        31.61056891838928    0.03870590628222   -0.01042473774199
C        41.26865124202197    0.02986784200322   -0.00314654955780
C        42.48560874238818    0.03575657817963   -0.01213251468988
C        52.14681676154332    0.02523848427237   -0.00030310014676
C        53.37090559284975    0.00884338345862   -0.00275578502679
Fe       36.48984836839742    0.03510950634283   -0.00199274461135
C        34.22864104581848   -3.26699141323554   -0.88544516239768
C        33.25628203141747   -2.32938209868833   -0.98161942647696
C        33.70316242586411   -1.18657374362132   -0.21691325933521
C        33.03480337116684    0.02852739098320    0.00407898299156
C        33.76747383143918    1.25805622976065    0.23015516878841
C        33.35628934541213    2.39347669736690    0.95664129218656
C        34.34339931407262    3.35214677970137    0.85662652641981
C        35.37294532111611    2.80737308075252    0.06858333815752
N        35.02591935195477    1.50570647218418   -0.29210164721843
C        36.56153352095072    3.45730697839005   -0.34637121174525
C        37.71235915882476    2.76568812771285   -0.68243173694416
C        38.71062163399424    3.06449053404816   -1.67353512734300
C        39.63453955466968    2.07006377327855   -1.59303316642854
C        39.21397582721127    1.17390688685154   -0.54073803729762
N        38.03465190045610    1.58227873488673   -0.04801706084194
C        39.88187164145901    0.01780190811945   -0.01255365706021
C        39.20986041171208   -1.10537300638393    0.49159877374716
C        39.64139431872336   -2.01745890157215    1.51757175125085
C        38.67596552313248   -2.97079186194027    1.61889867375578
C        37.64760334403911   -2.65225785817789    0.65765289897509
N        37.97469235172915   -1.49988797828199    0.02829541361940
C        36.46157176583606   -3.35006309712927    0.32567500316689
C        35.28771599389064   -2.71822347913694   -0.06887000196311
N        34.95151825016505   -1.43562052979929    0.29011125411382
H        34.23843455279113   -4.21848592323679   -1.38120584252143
H        32.36067900344244   -2.42743267808176   -1.56926742780494
H        32.44684571365654    2.46297668989131    1.51652256282000
H        34.40064996477808    4.32722644552302    1.30730780003814
H        36.63685776329316    4.54312148746126   -0.41247309688022
H        38.71006305816265    3.85550862534119   -2.40664869324313
H        40.48853044250226    1.96239917569609   -2.22804878570406
H        40.52334100805040   -1.93421562674673    2.12988681931666
H        38.68087615578341   -3.76543697449678    2.33551166401582
H        36.46786542235606   -4.43327460767230    0.36317729033317
Fe       47.30615091889141    0.03524576451847   -0.00206428361459
C        45.04185684461446   -3.26978194603270   -0.88468598671951
C        44.07236170123023   -2.33096459764466   -0.98032029610988
C        44.53049034001610   -1.19151940096095   -0.21322786923957
C        43.87498647032582    0.02851316826865    0.00340313903168
C        44.59259987148857    1.26357752056548    0.22804696895857
C        44.17257734145180    2.39410503727618    0.95579308615539
C        45.15802778590587    3.35445962787095    0.85603996583235
C        46.18914135694624    2.81120018377758    0.06821544490895
N        45.84506099698014    1.50966737636371   -0.29242573921775
C        47.37727272988539    3.45662929107569   -0.34470156330466
C        48.52895699218305    2.76207155218817   -0.68141685269006
C        49.52454389965418    3.06256738299057   -1.67370139954687
C        50.45004271566748    2.06900649730228   -1.59481473086222
C        50.03786469596480    1.16877592997515   -0.54335341294687
N        48.85598302199969    1.57841605848546   -0.04751205713734
C        50.71975480745728    0.01685450734519   -0.01164209349441
C        50.03690436355063   -1.09917853383544    0.49199822984977
C        50.45813281891841   -2.01694939090687    1.51822107909927
C        49.49021619769627   -2.96742384830108    1.61990156081483
C        48.46505774521317   -2.64631244147788    0.65766184380582
N        48.79337093243333   -1.49700379029360    0.02790671990042
C        47.27593564303373   -3.35090825748139    0.32294979530030
C        46.10461466397171   -2.72267821766259   -0.06746635657994
N        45.77109980664945   -1.43857706107367    0.29094147884984
H        45.05163669153360   -4.21991235954337   -1.38165292545525
H        43.17584965446288   -2.42651570571455   -1.56846164274248
H        43.26202402473240    2.46188272069932    1.51574884900691
H        45.21410208487592    4.32858935811165    1.30751860522589
H        47.45250575776605    4.54261826685447   -0.41168045827982
H        49.52340694568007    3.85488216345439   -2.40602596874481
H        51.30351691589995    1.96283144157409   -2.22936563541777
H        51.33891726054540   -1.93516625013840    2.13074941731748
H        49.49407760053668   -3.76399582446962    2.33508295076941
H        47.28421948650926   -4.43379257267317    0.35965789889811
148