      -----------------------------------------------------------      
     |                   =====================                   |     
     |                           x T B                           |     
     |                   =====================                   |     
     |                         S. Grimme                         |     
     |          Mulliken Center for Theoretical Chemistry        |     
     |                    University of Bonn                     |     
      -----------------------------------------------------------      

   * xtb version 6.4.1 (bd6e46d) compiled by 'conda@4901f00b25ba' on 2021-06-10

   xtb is free software: you can redistribute it and/or modify it under
   the terms of the GNU Lesser General Public License as published by
   the Free Software Foundation, either version 3 of the License, or
   (at your option) any later version.
   
   xtb is distributed in the hope that it will be useful,
   but WITHOUT ANY WARRANTY; without even the implied warranty of
   MERCHANTABILITY or FITNESS FOR A PARTICULAR PURPOSE.  See the
   GNU Lesser General Public License for more details.
   
   Cite this work as:
   * C. Bannwarth, E. Caldeweyher, S. Ehlert, A. Hansen, P. Pracht,
     J. Seibert, S. Spicher, S. Grimme, WIREs Comput. Mol. Sci., 2020, 11,
     e01493. DOI: 10.1002/wcms.1493
   
   for GFN2-xTB:
   * C. Bannwarth, S. Ehlert and S. Grimme., J. Chem. Theory Comput., 2019,
     15, 1652-1671. DOI: 10.1021/acs.jctc.8b01176
   for GFN1-xTB:
   * S. Grimme, C. Bannwarth, P. Shushkov, J. Chem. Theory Comput., 2017,
     13, 1989-2009. DOI: 10.1021/acs.jctc.7b00118
   for GFN0-xTB:
   * P. Pracht, E. Caldeweyher, S. Ehlert, S. Grimme, ChemRxiv, 2019, preprint.
     DOI: 10.26434/chemrxiv.8326202.v1
   for GFN-FF:
   * S. Spicher and S. Grimme, Angew. Chem. Int. Ed., 2020, 59, 15665-15673.
     DOI: 10.1002/anie.202004239
   
   for DFT-D4:
   * E. Caldeweyher, C. Bannwarth and S. Grimme, J. Chem. Phys., 2017,
     147, 034112. DOI: 10.1063/1.4993215
   * E. Caldeweyher, S. Ehlert, A. Hansen, H. Neugebauer, S. Spicher,
     C. Bannwarth and S. Grimme, J. Chem. Phys., 2019, 150, 154122.
     DOI: 10.1063/1.5090222
   * E. Caldeweyher, J.-M. Mewes, S. Ehlert and S. Grimme, Phys. Chem. Chem. Phys.
     2020, 22, 8499-8512. DOI: 10.1039/D0CP00502A
   
   for sTDA-xTB:
   * S. Grimme and C. Bannwarth, J. Chem. Phys., 2016, 145, 054103.
     DOI: 10.1063/1.4959605
   
   in the mass-spec context:
   * V. Asgeirsson, C. Bauer and S. Grimme, Chem. Sci., 2017, 8, 4879.
     DOI: 10.1039/c7sc00601b
   * J. Koopman and S. Grimme, ACS Omega 2019, 4, 12, 15120-15133.
     DOI: 10.1021/acsomega.9b02011
   
   for metadynamics refer to:
   * S. Grimme, J. Chem. Theory Comput., 2019, 155, 2847-2862
     DOI: 10.1021/acs.jctc.9b00143
   
   for SPH calculations refer to:
   * S. Spicher and S. Grimme, J. Chem. Theory Comput., 2021, 17, 1701-1714
     DOI: 10.1021/acs.jctc.0c01306
   
   with help from (in alphabetical order)
   P. Atkinson, C. Bannwarth, F. Bohle, G. Brandenburg, E. Caldeweyher
   M. Checinski, S. Dohm, S. Ehlert, S. Ehrlich, I. Gerasimov, J. Koopman
   C. Lavigne, S. Lehtola, F. März, M. Müller, F. Musil, H. Neugebauer
   J. Pisarek, C. Plett, P. Pracht, J. Seibert, P. Shushkov, S. Spicher
   M. Stahn, M. Steiner, T. Strunk, J. Stückrath, T. Rose, and J. Unsleber
   
 * started run on 2021/11/21 at 21:09:35.911     

           -------------------------------------------------
          |                Calculation Setup                |
           -------------------------------------------------

          program call               : /home/jeff/miniconda3/bin/xtb /home/jeff/chem/final-year-proejct/Cu+2_2_3_outenergy/input_structure.xyz --gfn 2 --parallel 1 --etemp 300 --chrg 0 --uhf 0 -I det_control.in
          coordinate file            : /home/jeff/chem/final-year-proejct/Cu+2_2_3_outenergy/input_structure.xyz
          omp threads                :                     1
          number of atoms            :                   111
          number of electrons        :                   381
          charge                     :                     0
          spin                       :                   0.5
          first test random number   :      0.57899886969910

   ID    Z sym.   atoms
    1   29 Cu     1, 37, 77
    2    6 C      2-9, 11-15, 17-21, 23, 24, 38-45, 47-51, 53-57, 59, 60,
                  73-76, 78-85, 87-91, 93-97, 99, 100
    3    7 N      10, 16, 22, 25, 46, 52, 58, 61, 86, 92, 98, 101
    4    1 H      26-36, 62-72, 102-111

           -------------------------------------------------
          |                 G F N 2 - x T B                 |
           -------------------------------------------------

        Reference                      10.1021/acs.jctc.8b01176
      * Hamiltonian:
        H0-scaling (s, p, d)           1.850000    2.230000    2.230000
        zeta-weighting                 0.500000
      * Dispersion:
        s8                             2.700000
        a1                             0.520000
        a2                             5.000000
        s9                             5.000000
      * Repulsion:
        kExp                           1.500000    1.000000
        rExp                           1.000000
      * Coulomb:
        alpha                          2.000000
        third order                    shell-resolved
        anisotropic                    true
        a3                             3.000000
        a5                             4.000000
        cn-shift                       1.200000
        cn-exp                         4.000000
        max-rad                        5.000000


          ...................................................
          :                      SETUP                      :
          :.................................................:
          :  # basis functions                 366          :
          :  # atomic orbitals                 363          :
          :  # shells                          193          :
          :  # electrons                       381          :
          :  max. iterations                   250          :
          :  Hamiltonian                  GFN2-xTB          :
          :  restarted?                      false          :
          :  GBSA solvation                  false          :
          :  PC potential                    false          :
          :  electronic temp.          300.0000000     K    :
          :  accuracy                    1.0000000          :
          :  -> integral cutoff          0.2500000E+02      :
          :  -> integral neglect         0.1000000E-07      :
          :  -> SCF convergence          0.1000000E-05 Eh   :
          :  -> wf. convergence          0.1000000E-03 e    :
          :  Broyden damping             0.4000000          :
          ...................................................

 iter      E             dE          RMSdq      gap      omega  full diag
   1   -203.5801010 -0.203580E+03  0.495E+00    0.00       0.0  T
   2   -203.3820827  0.198018E+00  0.318E+00    0.53       1.0  T
   3   -158.9271278  0.444550E+02  0.102E+01    0.24       1.0  T
   4   -178.4864149 -0.195593E+02  0.882E+00    0.15       1.0  T
   5   -203.1354286 -0.246490E+02  0.174E+00    0.18       1.0  T
   6   -203.3686273 -0.233199E+00  0.110E+00    0.29       1.0  T
   7   -203.2691360  0.994913E-01  0.101E+00    0.62       1.0  T
   8   -203.4164728 -0.147337E+00  0.753E-01    0.04       1.0  T
   9   -203.4540060 -0.375332E-01  0.736E-01    0.06       1.0  T
  10   -203.4723463 -0.183402E-01  0.649E-01    0.13       1.0  T
  11   -203.4460733  0.262730E-01  0.690E-01    0.07       1.0  T
  12   -203.5989385 -0.152865E+00  0.413E-01    0.01       1.0  T
  13   -203.5662811  0.326573E-01  0.439E-01    0.05       1.0  T
  14   -203.6268998 -0.606187E-01  0.272E-01    0.03       1.0  T
  15   -203.5961170  0.307828E-01  0.396E-01    0.04       1.0  T
  16   -203.6239295 -0.278125E-01  0.292E-01    0.02       1.0  T
  17   -203.6520210 -0.280914E-01  0.129E-01    0.01       1.0  T
  18   -203.6545412 -0.252028E-02  0.110E-01    0.01       1.0  T
  19   -203.6527558  0.178542E-02  0.119E-01    0.01       1.0  T
  20   -203.6569334 -0.417758E-02  0.738E-02    0.00       1.0  T
  21   -203.6558918  0.104157E-02  0.777E-02    0.01       1.0  T
  22   -203.6570696 -0.117773E-02  0.519E-02    0.00       1.0  T
  23   -203.6549682  0.210135E-02  0.720E-02    0.00       1.0  T
  24   -203.6565046 -0.153642E-02  0.492E-02    0.00       1.0  T
  25   -203.6573423 -0.837676E-03  0.175E-02    0.00       1.0  T
  26   -203.6574010 -0.587183E-04  0.120E-02    0.00       1.0  T
  27   -203.6573064  0.946572E-04  0.179E-02    0.00       1.0  T
  28   -203.6574420 -0.135592E-03  0.581E-03    0.00       1.6  T
  29   -203.6574453 -0.335586E-05  0.491E-03    0.00       1.9  T
  30   -203.6574511 -0.575848E-05  0.313E-03    0.00       3.0  T
  31   -203.6574516 -0.555548E-06  0.266E-03    0.00       3.6  T
  32   -203.6574527 -0.112243E-05  0.205E-03    0.00       4.6  T
  33   -203.6574543 -0.154181E-05  0.107E-03    0.00       8.9  T
  34   -203.6574547 -0.440197E-06  0.483E-04    0.00      19.7  T
  35   -203.6574548 -0.845343E-07  0.191E-04    0.00      49.8  T

   *** convergence criteria satisfied after 35 iterations ***

         #    Occupation            Energy/Eh            Energy/eV
      -------------------------------------------------------------
         1        2.0000           -0.6784910             -18.4627
       ...           ...                  ...                  ...
       185        2.0000           -0.3692274             -10.0472
       186        2.0000           -0.3691345             -10.0447
       187        2.0000           -0.3681637             -10.0182
       188        2.0000           -0.3623644              -9.8604
       189        2.0000           -0.3514339              -9.5630
       190        1.0251           -0.3208283              -8.7302
       191        0.9919           -0.3207575              -8.7283 (HOMO)
       192        0.9824           -0.3207372              -8.7277 (LUMO)
       193        0.0006           -0.3127892              -8.5114
       194                         -0.3014138              -8.2019
       195                         -0.2991175              -8.1394
       196                         -0.2990742              -8.1382
       ...                                ...                  ...
       363                          1.4081447              38.3176
      -------------------------------------------------------------
                  HL-Gap            0.0000203 Eh            0.0006 eV
             Fermi-level           -0.3207747 Eh           -8.7287 eV

 SCC (total)                   0 d,  0 h,  0 min,  1.196 sec
 SCC setup                      ...        0 min,  0.002 sec (  0.192%)
 Dispersion                     ...        0 min,  0.005 sec (  0.399%)
 classical contributions        ...        0 min,  0.001 sec (  0.065%)
 integral evaluation            ...        0 min,  0.048 sec (  4.041%)
 iterations                     ...        0 min,  0.978 sec ( 81.807%)
 molecular gradient             ...        0 min,  0.158 sec ( 13.246%)
 printout                       ...        0 min,  0.003 sec (  0.247%)

         :::::::::::::::::::::::::::::::::::::::::::::::::::::
         ::                     SUMMARY                     ::
         :::::::::::::::::::::::::::::::::::::::::::::::::::::
         :: total energy            -200.253360949584 Eh    ::
         :: gradient norm              0.000763513763 Eh/a0 ::
         :: HOMO-LUMO gap              0.000552736476 eV    ::
         ::.................................................::
         :: SCC energy              -203.657454810764 Eh    ::
         :: -> isotropic ES            0.083206116920 Eh    ::
         :: -> anisotropic ES          0.029831720894 Eh    ::
         :: -> anisotropic XC          0.077048160468 Eh    ::
         :: -> dispersion             -0.183714607159 Eh    ::
         :: repulsion energy           3.406814275418 Eh    ::
         :: add. restraining           0.000000000000 Eh    ::
         :: total charge              -0.000000000002 e     ::
         :::::::::::::::::::::::::::::::::::::::::::::::::::::

           -------------------------------------------------
          |                Property Printout                |
           -------------------------------------------------

    * Orbital Energies and Occupations

         #    Occupation            Energy/Eh            Energy/eV
      -------------------------------------------------------------
         1        2.0000           -0.6784910             -18.4627
       ...           ...                  ...                  ...
       179        2.0000           -0.3760634             -10.2332
       180        2.0000           -0.3750482             -10.2056
       181        2.0000           -0.3718306             -10.1180
       182        2.0000           -0.3703550             -10.0779
       183        2.0000           -0.3703128             -10.0767
       184        2.0000           -0.3702240             -10.0743
       185        2.0000           -0.3692274             -10.0472
       186        2.0000           -0.3691345             -10.0447
       187        2.0000           -0.3681637             -10.0182
       188        2.0000           -0.3623644              -9.8604
       189        2.0000           -0.3514339              -9.5630
       190        1.0251           -0.3208283              -8.7302
       191        0.9919           -0.3207575              -8.7283 (HOMO)
       192        0.9824           -0.3207372              -8.7277 (LUMO)
       193        0.0006           -0.3127892              -8.5114
       194                         -0.3014138              -8.2019
       195                         -0.2991175              -8.1394
       196                         -0.2990742              -8.1382
       197                         -0.2989211              -8.1341
       198                         -0.2903365              -7.9005
       199                         -0.2666174              -7.2550
       200                         -0.2585086              -7.0344
       201                         -0.2535441              -6.8993
       202                         -0.1909599              -5.1963
       ...                                ...                  ...
       363                          1.4081447              38.3176
      -------------------------------------------------------------
                  HL-Gap            0.0000203 Eh            0.0006 eV
             Fermi-level           -0.3207747 Eh           -8.7287 eV

     #   Z          covCN         q      C6AA      α(0)
     1  29 Cu       2.957     0.196   146.206    27.533
     2   6 C        3.022    -0.051    29.235     8.869
     3   6 C        3.021    -0.049    29.188     8.862
     4   6 C        3.162     0.078    25.944     8.326
     5   6 C        2.953     0.018    27.597     8.616
     6   6 C        3.162     0.078    25.943     8.325
     7   6 C        3.021    -0.049    29.194     8.863
     8   6 C        3.022    -0.051    29.235     8.869
     9   6 C        3.148     0.077    26.026     8.346
    10   7 N        2.621    -0.171    24.714     7.383
    11   6 C        2.901    -0.050    29.234     8.865
    12   6 C        3.144     0.078    26.012     8.345
    13   6 C        3.020    -0.050    29.210     8.865
    14   6 C        3.020    -0.050    29.214     8.866
    15   6 C        3.145     0.079    25.994     8.342
    16   7 N        2.623    -0.170    24.683     7.379
    17   6 C        2.901    -0.051    29.277     8.872
    18   6 C        3.144     0.079    25.996     8.342
    19   6 C        3.020    -0.050    29.215     8.866
    20   6 C        3.019    -0.050    29.211     8.866
    21   6 C        3.144     0.078    26.011     8.345
    22   7 N        2.623    -0.170    24.684     7.379
    23   6 C        2.901    -0.050    29.235     8.865
    24   6 C        3.147     0.077    26.027     8.346
    25   7 N        2.621    -0.171    24.714     7.383
    26   1 H        0.926     0.034     2.525     2.485
    27   1 H        0.926     0.035     2.515     2.480
    28   1 H        0.926     0.035     2.510     2.478
    29   1 H        0.926     0.034     2.525     2.485
    30   1 H        0.926     0.050     2.323     2.384
    31   1 H        0.926     0.035     2.518     2.482
    32   1 H        0.926     0.035     2.519     2.482
    33   1 H        0.926     0.049     2.333     2.388
    34   1 H        0.926     0.035     2.519     2.482
    35   1 H        0.926     0.035     2.518     2.482
    36   1 H        0.926     0.050     2.323     2.384
    37  29 Cu       2.956     0.196   146.207    27.533
    38   6 C        3.022    -0.051    29.235     8.869
    39   6 C        3.021    -0.049    29.190     8.862
    40   6 C        3.162     0.078    25.943     8.325
    41   6 C        2.953     0.018    27.598     8.616
    42   6 C        3.162     0.078    25.944     8.326
    43   6 C        3.021    -0.049    29.193     8.863
    44   6 C        3.022    -0.051    29.235     8.869
    45   6 C        3.147     0.077    26.027     8.346
    46   7 N        2.620    -0.171    24.715     7.383
    47   6 C        2.901    -0.050    29.235     8.865
    48   6 C        3.144     0.078    26.013     8.345
    49   6 C        3.019    -0.050    29.211     8.866
    50   6 C        3.019    -0.050    29.215     8.866
    51   6 C        3.144     0.079    25.997     8.343
    52   7 N        2.623    -0.170    24.683     7.379
    53   6 C        2.901    -0.051    29.277     8.872
    54   6 C        3.144     0.079    25.996     8.342
    55   6 C        3.019    -0.050    29.215     8.866
    56   6 C        3.019    -0.050    29.211     8.866
    57   6 C        3.144     0.078    26.013     8.345
    58   7 N        2.623    -0.170    24.684     7.379
    59   6 C        2.901    -0.050    29.235     8.865
    60   6 C        3.147     0.077    26.026     8.346
    61   7 N        2.620    -0.171    24.715     7.383
    62   1 H        0.926     0.034     2.526     2.485
    63   1 H        0.926     0.035     2.514     2.479
    64   1 H        0.926     0.035     2.512     2.478
    65   1 H        0.926     0.034     2.526     2.485
    66   1 H        0.926     0.050     2.324     2.384
    67   1 H        0.926     0.035     2.519     2.482
    68   1 H        0.926     0.035     2.519     2.482
    69   1 H        0.926     0.049     2.333     2.389
    70   1 H        0.926     0.035     2.519     2.482
    71   1 H        0.926     0.035     2.519     2.482
    72   1 H        0.926     0.050     2.324     2.384
    73   6 C        1.992    -0.028    31.800     9.107
    74   6 C        1.992    -0.028    31.796     9.106
    75   6 C        1.992    -0.028    31.796     9.106
    76   6 C        1.992    -0.028    31.799     9.107
    77  29 Cu       2.949     0.198   146.186    27.531
    78   6 C        3.022    -0.051    29.235     8.869
    79   6 C        3.021    -0.049    29.195     8.863
    80   6 C        3.162     0.078    25.934     8.324
    81   6 C        2.953     0.018    27.599     8.617
    82   6 C        3.163     0.078    25.932     8.323
    83   6 C        3.021    -0.049    29.201     8.864
    84   6 C        3.022    -0.051    29.235     8.869
    85   6 C        3.148     0.077    26.034     8.347
    86   7 N        2.620    -0.172    24.740     7.387
    87   6 C        2.901    -0.048    29.185     8.858
    88   6 C        3.148     0.077    26.033     8.346
    89   6 C        3.022    -0.051    29.235     8.869
    90   6 C        3.021    -0.049    29.196     8.863
    91   6 C        3.163     0.078    25.932     8.323
    92   7 N        2.619    -0.172    24.742     7.387
    93   6 C        2.953     0.018    27.599     8.617
    94   6 C        3.163     0.078    25.931     8.323
    95   6 C        3.021    -0.049    29.201     8.864
    96   6 C        3.022    -0.051    29.234     8.869
    97   6 C        3.148     0.077    26.035     8.347
    98   7 N        2.620    -0.172    24.741     7.387
    99   6 C        2.901    -0.048    29.185     8.858
   100   6 C        3.148     0.077    26.034     8.347
   101   7 N        2.620    -0.172    24.741     7.387
   102   1 H        0.926     0.034     2.531     2.488
   103   1 H        0.926     0.034     2.525     2.485
   104   1 H        0.926     0.035     2.519     2.482
   105   1 H        0.926     0.034     2.531     2.488
   106   1 H        0.926     0.050     2.320     2.382
   107   1 H        0.926     0.034     2.531     2.488
   108   1 H        0.926     0.034     2.524     2.484
   109   1 H        0.926     0.035     2.519     2.482
   110   1 H        0.926     0.034     2.531     2.488
   111   1 H        0.926     0.050     2.320     2.382

 Mol. C6AA /au·bohr⁶  :     233660.067443
 Mol. C8AA /au·bohr⁸  :    6720189.273701
 Mol. α(0) /au        :        804.577238


Wiberg/Mayer (AO) data.
largest (>0.10) Wiberg bond orders for each atom

 ---------------------------------------------------------------------------
     #   Z sym  total        # sym  WBO       # sym  WBO       # sym  WBO
 ---------------------------------------------------------------------------
     1  29 Cu   2.329 --    22 N    0.534    16 N    0.534    10 N    0.533
                            25 N    0.533
     2   6 C    3.946 --     3 C    1.651    24 C    1.166    26 H    0.972
     3   6 C    3.950 --     2 C    1.651     4 C    1.174    27 H    0.968
     4   6 C    3.914 --    25 N    1.287     5 C    1.256     3 C    1.174
     5   6 C    3.942 --     4 C    1.256     6 C    1.255    73 C    1.171
     6   6 C    3.914 --    10 N    1.287     5 C    1.255     7 C    1.174
     7   6 C    3.950 --     8 C    1.651     6 C    1.174    28 H    0.968
     8   6 C    3.946 --     7 C    1.651     9 C    1.167    29 H    0.972
     9   6 C    3.922 --    11 C    1.354    10 N    1.250     8 C    1.167
    10   7 N    3.382 --     6 C    1.287     9 C    1.250     1 Cu   0.533
    11   6 C    3.932 --     9 C    1.354    12 C    1.352    30 H    0.964
    12   6 C    3.928 --    11 C    1.352    16 N    1.263    13 C    1.158
    13   6 C    3.950 --    14 C    1.666    12 C    1.158    31 H    0.972
    14   6 C    3.948 --    13 C    1.666    15 C    1.158    32 H    0.972
    15   6 C    3.929 --    17 C    1.351    16 N    1.265    14 C    1.158
    16   7 N    3.378 --    15 C    1.265    12 C    1.263     1 Cu   0.534
    17   6 C    3.927 --    18 C    1.351    15 C    1.351    33 H    0.964
    18   6 C    3.929 --    17 C    1.351    22 N    1.265    19 C    1.158
    19   6 C    3.948 --    20 C    1.666    18 C    1.158    34 H    0.972
    20   6 C    3.950 --    19 C    1.666    21 C    1.158    35 H    0.972
    21   6 C    3.928 --    23 C    1.352    22 N    1.263    20 C    1.158
    22   7 N    3.378 --    18 C    1.265    21 C    1.263     1 Cu   0.534
    23   6 C    3.932 --    24 C    1.354    21 C    1.352    36 H    0.964
    24   6 C    3.922 --    23 C    1.354    25 N    1.250     2 C    1.166
    25   7 N    3.382 --     4 C    1.287    24 C    1.250     1 Cu   0.533
    26   1 H    0.998 --     2 C    0.972
    27   1 H    0.998 --     3 C    0.968
    28   1 H    0.998 --     7 C    0.968
    29   1 H    0.998 --     8 C    0.972
    30   1 H    0.996 --    11 C    0.964
    31   1 H    0.998 --    13 C    0.972
    32   1 H    0.998 --    14 C    0.972
    33   1 H    0.997 --    17 C    0.964
    34   1 H    0.998 --    19 C    0.972
    35   1 H    0.998 --    20 C    0.972
    36   1 H    0.996 --    23 C    0.964
    37  29 Cu   2.328 --    52 N    0.534    58 N    0.534    46 N    0.532
                            61 N    0.532
    38   6 C    3.947 --    39 C    1.651    60 C    1.166    62 H    0.972
    39   6 C    3.950 --    38 C    1.651    40 C    1.174    63 H    0.968
    40   6 C    3.914 --    61 N    1.287    41 C    1.256    39 C    1.174
    41   6 C    3.942 --    40 C    1.256    42 C    1.255    76 C    1.170
    42   6 C    3.915 --    46 N    1.287    41 C    1.255    43 C    1.174
    43   6 C    3.950 --    44 C    1.651    42 C    1.174    64 H    0.968
    44   6 C    3.946 --    43 C    1.651    45 C    1.166    65 H    0.972
    45   6 C    3.922 --    47 C    1.354    46 N    1.251    44 C    1.166
    46   7 N    3.382 --    42 C    1.287    45 C    1.251    37 Cu   0.532
    47   6 C    3.932 --    45 C    1.354    48 C    1.352    66 H    0.964
    48   6 C    3.928 --    47 C    1.352    52 N    1.263    49 C    1.158
    49   6 C    3.950 --    50 C    1.666    48 C    1.158    67 H    0.972
    50   6 C    3.948 --    49 C    1.666    51 C    1.158    68 H    0.972
    51   6 C    3.929 --    53 C    1.352    52 N    1.265    50 C    1.158
    52   7 N    3.378 --    51 C    1.265    48 C    1.263    37 Cu   0.534
    53   6 C    3.927 --    51 C    1.352    54 C    1.351    69 H    0.964
    54   6 C    3.929 --    53 C    1.351    58 N    1.266    55 C    1.158
    55   6 C    3.948 --    56 C    1.666    54 C    1.158    70 H    0.972
    56   6 C    3.950 --    55 C    1.666    57 C    1.158    71 H    0.972
    57   6 C    3.928 --    59 C    1.352    58 N    1.263    56 C    1.158
    58   7 N    3.378 --    54 C    1.266    57 C    1.263    37 Cu   0.534
    59   6 C    3.932 --    60 C    1.354    57 C    1.352    72 H    0.964
    60   6 C    3.922 --    59 C    1.354    61 N    1.251    38 C    1.166
    61   7 N    3.382 --    40 C    1.287    60 C    1.251    37 Cu   0.532
    62   1 H    0.998 --    38 C    0.972
    63   1 H    0.998 --    39 C    0.968
    64   1 H    0.998 --    43 C    0.968
    65   1 H    0.998 --    44 C    0.972
    66   1 H    0.996 --    47 C    0.964
    67   1 H    0.998 --    49 C    0.972
    68   1 H    0.998 --    50 C    0.972
    69   1 H    0.997 --    53 C    0.964
    70   1 H    0.998 --    55 C    0.972
    71   1 H    0.998 --    56 C    0.972
    72   1 H    0.996 --    59 C    0.964
    73   6 C    3.924 --    74 C    2.576     5 C    1.171
    74   6 C    3.926 --    73 C    2.576    81 C    1.172
    75   6 C    3.926 --    76 C    2.576    93 C    1.172
    76   6 C    3.923 --    75 C    2.576    41 C    1.170
    77  29 Cu   2.302 --    86 N    0.528   101 N    0.528    98 N    0.528
                            92 N    0.528
    78   6 C    3.948 --    79 C    1.650   100 C    1.167   102 H    0.972
    79   6 C    3.949 --    78 C    1.650    80 C    1.174   103 H    0.968
    80   6 C    3.915 --   101 N    1.289    81 C    1.253    79 C    1.174
    81   6 C    3.931 --    80 C    1.253    82 C    1.253    74 C    1.172
    82   6 C    3.915 --    86 N    1.289    81 C    1.253    83 C    1.174
    83   6 C    3.949 --    84 C    1.650    82 C    1.174   104 H    0.968
    84   6 C    3.948 --    83 C    1.650    85 C    1.167   105 H    0.972
    85   6 C    3.921 --    87 C    1.354    86 N    1.250    84 C    1.167
    86   7 N    3.373 --    82 C    1.289    85 C    1.250    77 Cu   0.528
    87   6 C    3.926 --    85 C    1.354    88 C    1.354   106 H    0.964
    88   6 C    3.921 --    87 C    1.354    92 N    1.250    89 C    1.167
    89   6 C    3.948 --    90 C    1.651    88 C    1.167   107 H    0.972
    90   6 C    3.949 --    89 C    1.651    91 C    1.174   108 H    0.968
    91   6 C    3.915 --    92 N    1.289    93 C    1.254    90 C    1.174
    92   7 N    3.373 --    91 C    1.289    88 C    1.250    77 Cu   0.528
    93   6 C    3.931 --    91 C    1.254    94 C    1.253    75 C    1.172
    94   6 C    3.915 --    98 N    1.290    93 C    1.253    95 C    1.174
    95   6 C    3.949 --    96 C    1.650    94 C    1.174   109 H    0.968
    96   6 C    3.948 --    95 C    1.650    97 C    1.167   110 H    0.972
    97   6 C    3.921 --    99 C    1.354    98 N    1.249    96 C    1.167
    98   7 N    3.373 --    94 C    1.290    97 C    1.249    77 Cu   0.528
    99   6 C    3.926 --    97 C    1.354   100 C    1.354   111 H    0.964
   100   6 C    3.921 --    99 C    1.354   101 N    1.250    78 C    1.167
   101   7 N    3.373 --    80 C    1.289   100 C    1.250    77 Cu   0.528
   102   1 H    0.998 --    78 C    0.972
   103   1 H    0.998 --    79 C    0.968
   104   1 H    0.998 --    83 C    0.968
   105   1 H    0.998 --    84 C    0.972
   106   1 H    0.996 --    87 C    0.964
   107   1 H    0.998 --    89 C    0.972
   108   1 H    0.998 --    90 C    0.968
   109   1 H    0.998 --    95 C    0.968
   110   1 H    0.998 --    96 C    0.972
   111   1 H    0.996 --    99 C    0.964
 ---------------------------------------------------------------------------

Topologies differ in total number of bonds
Writing topology from bond orders to xtbtopo.mol

molecular dipole:
                 x           y           z       tot (Debye)
 q only:       -0.007       0.001       0.009
   full:       -0.007       0.001       0.016       0.045
molecular quadrupole (traceless):
                xx          xy          yy          xz          yz          zz
 q only:       25.918      -0.278       2.129       0.733       0.642     -28.047
  q+dip:       52.191      -0.686      10.881       1.234       1.583     -63.072
   full:       34.078      -0.445       3.975       1.296       0.895     -38.053


           -------------------------------------------------
          | TOTAL ENERGY             -200.253360949584 Eh   |
          | GRADIENT NORM               0.000763513763 Eh/α |
          | HOMO-LUMO GAP               0.000552736476 eV   |
           -------------------------------------------------

------------------------------------------------------------------------
 * finished run on 2021/11/21 at 21:09:37.159     
------------------------------------------------------------------------
 total:
 * wall-time:     0 d,  0 h,  0 min,  1.248 sec
 *  cpu-time:     0 d,  0 h,  0 min,  1.248 sec
 * ratio c/w:     1.000 speedup
 SCF:
 * wall-time:     0 d,  0 h,  0 min,  1.196 sec
 *  cpu-time:     0 d,  0 h,  0 min,  1.196 sec
 * ratio c/w:     1.000 speedup

