      -----------------------------------------------------------      
     |                   =====================                   |     
     |                           x T B                           |     
     |                   =====================                   |     
     |                         S. Grimme                         |     
     |          Mulliken Center for Theoretical Chemistry        |     
     |                    University of Bonn                     |     
      -----------------------------------------------------------      

   * xtb version 6.4.1 (bd6e46d) compiled by 'conda@4901f00b25ba' on 2021-06-10

   xtb is free software: you can redistribute it and/or modify it under
   the terms of the GNU Lesser General Public License as published by
   the Free Software Foundation, either version 3 of the License, or
   (at your option) any later version.
   
   xtb is distributed in the hope that it will be useful,
   but WITHOUT ANY WARRANTY; without even the implied warranty of
   MERCHANTABILITY or FITNESS FOR A PARTICULAR PURPOSE.  See the
   GNU Lesser General Public License for more details.
   
   Cite this work as:
   * C. Bannwarth, E. Caldeweyher, S. Ehlert, A. Hansen, P. Pracht,
     J. Seibert, S. Spicher, S. Grimme, WIREs Comput. Mol. Sci., 2020, 11,
     e01493. DOI: 10.1002/wcms.1493
   
   for GFN2-xTB:
   * C. Bannwarth, S. Ehlert and S. Grimme., J. Chem. Theory Comput., 2019,
     15, 1652-1671. DOI: 10.1021/acs.jctc.8b01176
   for GFN1-xTB:
   * S. Grimme, C. Bannwarth, P. Shushkov, J. Chem. Theory Comput., 2017,
     13, 1989-2009. DOI: 10.1021/acs.jctc.7b00118
   for GFN0-xTB:
   * P. Pracht, E. Caldeweyher, S. Ehlert, S. Grimme, ChemRxiv, 2019, preprint.
     DOI: 10.26434/chemrxiv.8326202.v1
   for GFN-FF:
   * S. Spicher and S. Grimme, Angew. Chem. Int. Ed., 2020, 59, 15665-15673.
     DOI: 10.1002/anie.202004239
   
   for DFT-D4:
   * E. Caldeweyher, C. Bannwarth and S. Grimme, J. Chem. Phys., 2017,
     147, 034112. DOI: 10.1063/1.4993215
   * E. Caldeweyher, S. Ehlert, A. Hansen, H. Neugebauer, S. Spicher,
     C. Bannwarth and S. Grimme, J. Chem. Phys., 2019, 150, 154122.
     DOI: 10.1063/1.5090222
   * E. Caldeweyher, J.-M. Mewes, S. Ehlert and S. Grimme, Phys. Chem. Chem. Phys.
     2020, 22, 8499-8512. DOI: 10.1039/D0CP00502A
   
   for sTDA-xTB:
   * S. Grimme and C. Bannwarth, J. Chem. Phys., 2016, 145, 054103.
     DOI: 10.1063/1.4959605
   
   in the mass-spec context:
   * V. Asgeirsson, C. Bauer and S. Grimme, Chem. Sci., 2017, 8, 4879.
     DOI: 10.1039/c7sc00601b
   * J. Koopman and S. Grimme, ACS Omega 2019, 4, 12, 15120-15133.
     DOI: 10.1021/acsomega.9b02011
   
   for metadynamics refer to:
   * S. Grimme, J. Chem. Theory Comput., 2019, 155, 2847-2862
     DOI: 10.1021/acs.jctc.9b00143
   
   for SPH calculations refer to:
   * S. Spicher and S. Grimme, J. Chem. Theory Comput., 2021, 17, 1701-1714
     DOI: 10.1021/acs.jctc.0c01306
   
   with help from (in alphabetical order)
   P. Atkinson, C. Bannwarth, F. Bohle, G. Brandenburg, E. Caldeweyher
   M. Checinski, S. Dohm, S. Ehlert, S. Ehrlich, I. Gerasimov, J. Koopman
   C. Lavigne, S. Lehtola, F. März, M. Müller, F. Musil, H. Neugebauer
   J. Pisarek, C. Plett, P. Pracht, J. Seibert, P. Shushkov, S. Spicher
   M. Stahn, M. Steiner, T. Strunk, J. Stückrath, T. Rose, and J. Unsleber
   
 * started run on 2021/11/21 at 01:39:59.331     

           -------------------------------------------------
          |                Calculation Setup                |
           -------------------------------------------------

          program call               : /home/jeff/miniconda3/bin/xtb /home/jeff/chem/final-year-proejct/Fe+2_6_2_outenergy/input_structure.xyz --gfn 2 --parallel 1 --etemp 300 --chrg 0 --uhf 0 -I det_control.in
          coordinate file            : /home/jeff/chem/final-year-proejct/Fe+2_6_2_outenergy/input_structure.xyz
          omp threads                :                     1
          number of atoms            :                    78
          number of electrons        :                   262
          charge                     :                     0
          spin                       :                   0.0
          first test random number   :      0.62723044126812

   ID    Z sym.   atoms
    1   26 Fe     1, 43
    2    6 C      2-9, 11-15, 17-21, 23, 24, 37-42, 44-51, 53-57, 59-63, 65,
                  66
    3    7 N      10, 16, 22, 25, 52, 58, 64, 67
    4    1 H      26-36, 68-78

           -------------------------------------------------
          |                 G F N 2 - x T B                 |
           -------------------------------------------------

        Reference                      10.1021/acs.jctc.8b01176
      * Hamiltonian:
        H0-scaling (s, p, d)           1.850000    2.230000    2.230000
        zeta-weighting                 0.500000
      * Dispersion:
        s8                             2.700000
        a1                             0.520000
        a2                             5.000000
        s9                             5.000000
      * Repulsion:
        kExp                           1.500000    1.000000
        rExp                           1.000000
      * Coulomb:
        alpha                          2.000000
        third order                    shell-resolved
        anisotropic                    true
        a3                             3.000000
        a5                             4.000000
        cn-shift                       1.200000
        cn-exp                         4.000000
        max-rad                        5.000000


          ...................................................
          :                      SETUP                      :
          :.................................................:
          :  # basis functions                 258          :
          :  # atomic orbitals                 256          :
          :  # shells                          136          :
          :  # electrons                       262          :
          :  max. iterations                   250          :
          :  Hamiltonian                  GFN2-xTB          :
          :  restarted?                      false          :
          :  GBSA solvation                  false          :
          :  PC potential                    false          :
          :  electronic temp.          300.0000000     K    :
          :  accuracy                    1.0000000          :
          :  -> integral cutoff          0.2500000E+02      :
          :  -> integral neglect         0.1000000E-07      :
          :  -> SCF convergence          0.1000000E-05 Eh   :
          :  -> wf. convergence          0.1000000E-03 e    :
          :  Broyden damping             0.4000000          :
          ...................................................

 iter      E             dE          RMSdq      gap      omega  full diag
   1   -141.3251114 -0.141325E+03  0.835E+00    0.01       0.0  T
   2   -134.5559027  0.676921E+01  0.886E+00    0.29       1.0  T
   3   -132.1981971  0.235771E+01  0.947E+00    0.05       1.0  T
   4   -138.9516122 -0.675342E+01  0.698E+00    0.55       1.0  T
   5   -134.6939317  0.425768E+01  0.712E+00    0.30       1.0  T
   6   -136.7951394 -0.210121E+01  0.617E+00    0.47       1.0  T
   7   -139.1554557 -0.236032E+01  0.485E+00    0.06       1.0  T
   8   -139.9297007 -0.774245E+00  0.446E+00    0.09       1.0  T
   9   -135.3673745  0.456233E+01  0.773E+00    0.07       1.0  T
  10   -141.7967351 -0.642936E+01  0.512E+00    0.18       1.0  T
  11   -141.8222893 -0.255543E-01  0.452E+00    0.25       1.0  T
  12   -141.7669812  0.553081E-01  0.566E+00    0.39       1.0  T
  13   -140.5764878  0.119049E+01  0.385E+00    0.15       1.0  T
  14   -141.8713981 -0.129491E+01  0.234E+00    0.25       1.0  T
  15   -141.8662384  0.515970E-02  0.300E+00    0.29       1.0  T
  16   -140.3206511  0.154559E+01  0.432E+00    0.24       1.0  T
  17   -140.5672008 -0.246550E+00  0.389E+00    0.13       1.0  T
  18   -141.8729113 -0.130571E+01  0.234E+00    0.26       1.0  T
  19   -141.8795585 -0.664715E-02  0.119E+00    0.24       1.0  T
  20   -141.8788101  0.748404E-03  0.746E-01    0.17       1.0  T
  21   -141.8794252 -0.615091E-03  0.778E-01    0.17       1.0  T
  22   -141.8832734 -0.384821E-02  0.643E-01    0.22       1.0  T
  23   -141.8834833 -0.209948E-03  0.508E-01    0.20       1.0  T
  24   -141.8840349 -0.551560E-03  0.237E-01    0.20       1.0  T
  25   -141.8836955  0.339356E-03  0.179E-01    0.18       1.0  T
  26   -141.8840818 -0.386243E-03  0.795E-02    0.18       1.0  T
  27   -141.8838437  0.238090E-03  0.194E-01    0.17       1.0  T
  28   -141.8839634 -0.119702E-03  0.155E-01    0.17       1.0  T
  29   -141.8841294 -0.165965E-03  0.161E-01    0.18       1.0  T
  30   -141.8843708 -0.241447E-03  0.833E-02    0.19       1.0  T
  31   -141.8843825 -0.117223E-04  0.544E-02    0.19       1.0  T
  32   -141.8843893 -0.677534E-05  0.187E-02    0.19       1.0  T
  33   -141.8843893  0.404385E-07  0.827E-03    0.19       1.4  T
  34   -141.8843907 -0.145562E-05  0.392E-03    0.19       2.9  T
  35   -141.8843909 -0.224928E-06  0.178E-03    0.19       6.4  T
  36   -141.8843910 -0.801096E-07  0.192E-03    0.19       5.9  T
  37   -141.8843911 -0.629856E-07  0.131E-03    0.19       8.6  T
  38   -141.8843911 -0.218505E-07  0.933E-04    0.19      12.1  T
  39   -141.8843911 -0.731157E-08  0.678E-04    0.19      16.7  T

   *** convergence criteria satisfied after 39 iterations ***

         #    Occupation            Energy/Eh            Energy/eV
      -------------------------------------------------------------
         1        2.0000           -0.6664006             -18.1337
       ...           ...                  ...                  ...
       125        2.0000           -0.3523024              -9.5866
       126        2.0000           -0.3392326              -9.2310
       127        2.0000           -0.3392230              -9.2307
       128        2.0000           -0.3372942              -9.1782
       129        2.0000           -0.3370786              -9.1724
       130        1.9556           -0.3288459              -8.9484
       131        1.9547           -0.3288267              -8.9478 (HOMO)
       132        0.0453           -0.3216731              -8.7532 (LUMO)
       133        0.0443           -0.3216518              -8.7526
       134                         -0.3011105              -8.1936
       135                         -0.2904450              -7.9034
       136                         -0.2904360              -7.9032
       ...                                ...                  ...
       256                          1.7212810              46.8384
      -------------------------------------------------------------
                  HL-Gap            0.0071536 Eh            0.1947 eV
             Fermi-level           -0.3252493 Eh           -8.8505 eV

 SCC (total)                   0 d,  0 h,  0 min,  0.599 sec
 SCC setup                      ...        0 min,  0.001 sec (  0.184%)
 Dispersion                     ...        0 min,  0.002 sec (  0.371%)
 classical contributions        ...        0 min,  0.000 sec (  0.067%)
 integral evaluation            ...        0 min,  0.025 sec (  4.112%)
 iterations                     ...        0 min,  0.485 sec ( 80.972%)
 molecular gradient             ...        0 min,  0.084 sec ( 14.081%)
 printout                       ...        0 min,  0.001 sec (  0.210%)

         :::::::::::::::::::::::::::::::::::::::::::::::::::::
         ::                     SUMMARY                     ::
         :::::::::::::::::::::::::::::::::::::::::::::::::::::
         :: total energy            -139.368233683263 Eh    ::
         :: gradient norm              0.000850826616 Eh/a0 ::
         :: HOMO-LUMO gap              0.194658284974 eV    ::
         ::.................................................::
         :: SCC energy              -141.884391121243 Eh    ::
         :: -> isotropic ES           -0.014127586330 Eh    ::
         :: -> anisotropic ES          0.022564033100 Eh    ::
         :: -> anisotropic XC          0.085973918579 Eh    ::
         :: -> dispersion             -0.105550539835 Eh    ::
         :: repulsion energy           2.517248412628 Eh    ::
         :: add. restraining           0.000000000000 Eh    ::
         :: total charge              -0.000000000108 e     ::
         :::::::::::::::::::::::::::::::::::::::::::::::::::::

           -------------------------------------------------
          |                Property Printout                |
           -------------------------------------------------

    * Orbital Energies and Occupations

         #    Occupation            Energy/Eh            Energy/eV
      -------------------------------------------------------------
         1        2.0000           -0.6664006             -18.1337
       ...           ...                  ...                  ...
       119        2.0000           -0.3977052             -10.8221
       120        2.0000           -0.3885781             -10.5737
       121        2.0000           -0.3749556             -10.2031
       122        2.0000           -0.3657743              -9.9532
       123        2.0000           -0.3637731              -9.8988
       124        2.0000           -0.3637588              -9.8984
       125        2.0000           -0.3523024              -9.5866
       126        2.0000           -0.3392326              -9.2310
       127        2.0000           -0.3392230              -9.2307
       128        2.0000           -0.3372942              -9.1782
       129        2.0000           -0.3370786              -9.1724
       130        1.9556           -0.3288459              -8.9484
       131        1.9547           -0.3288267              -8.9478 (HOMO)
       132        0.0453           -0.3216731              -8.7532 (LUMO)
       133        0.0443           -0.3216518              -8.7526
       134                         -0.3011105              -8.1936
       135                         -0.2904450              -7.9034
       136                         -0.2904360              -7.9032
       137                         -0.2885927              -7.8530
       138                         -0.2606023              -7.0913
       139                         -0.2521241              -6.8606
       140                         -0.2473838              -6.7317
       141                         -0.2218427              -6.0366
       142                         -0.2204151              -5.9978
       ...                                ...                  ...
       256                          1.7212810              46.8384
      -------------------------------------------------------------
                  HL-Gap            0.0071536 Eh            0.1947 eV
             Fermi-level           -0.3252493 Eh           -8.8505 eV

     #   Z          covCN         q      C6AA      α(0)
     1  26 Fe       3.081     0.560     5.147     7.319
     2   6 C        3.016    -0.056    29.367     8.889
     3   6 C        3.024    -0.053    29.283     8.876
     4   6 C        3.176     0.066    26.136     8.348
     5   6 C        2.955     0.008    27.841     8.654
     6   6 C        3.176     0.066    26.135     8.348
     7   6 C        3.024    -0.053    29.284     8.877
     8   6 C        3.016    -0.056    29.367     8.889
     9   6 C        3.169     0.069    26.110     8.348
    10   7 N        2.636    -0.215    25.687     7.527
    11   6 C        2.903    -0.057    29.427     8.895
    12   6 C        3.166     0.070    26.101     8.349
    13   6 C        3.013    -0.055    29.346     8.886
    14   6 C        3.024    -0.054    29.302     8.879
    15   6 C        3.155     0.066    26.237     8.376
    16   7 N        2.639    -0.213    25.641     7.521
    17   6 C        2.903    -0.062    29.536     8.911
    18   6 C        3.155     0.066    26.236     8.376
    19   6 C        3.024    -0.054    29.302     8.879
    20   6 C        3.013    -0.055    29.346     8.886
    21   6 C        3.166     0.070    26.101     8.349
    22   7 N        2.639    -0.213    25.641     7.520
    23   6 C        2.903    -0.057    29.428     8.895
    24   6 C        3.169     0.069    26.109     8.348
    25   7 N        2.636    -0.215    25.688     7.527
    26   1 H        0.926     0.031     2.577     2.510
    27   1 H        0.926     0.034     2.537     2.491
    28   1 H        0.926     0.034     2.536     2.490
    29   1 H        0.926     0.031     2.577     2.510
    30   1 H        0.926     0.048     2.346     2.395
    31   1 H        0.926     0.031     2.572     2.508
    32   1 H        0.926     0.030     2.580     2.512
    33   1 H        0.926     0.048     2.339     2.392
    34   1 H        0.926     0.030     2.579     2.511
    35   1 H        0.926     0.031     2.572     2.508
    36   1 H        0.926     0.048     2.346     2.395
    37   6 C        2.000    -0.020    31.580     9.075
    38   6 C        1.963    -0.014    31.437     9.055
    39   6 C        1.964    -0.005    31.200     9.020
    40   6 C        1.964    -0.005    31.200     9.020
    41   6 C        1.963    -0.014    31.436     9.054
    42   6 C        2.000    -0.020    31.582     9.076
    43  26 Fe       3.082     0.560     5.147     7.319
    44   6 C        3.016    -0.056    29.367     8.889
    45   6 C        3.024    -0.053    29.284     8.876
    46   6 C        3.176     0.066    26.135     8.348
    47   6 C        2.955     0.008    27.841     8.654
    48   6 C        3.176     0.066    26.134     8.348
    49   6 C        3.024    -0.053    29.284     8.876
    50   6 C        3.016    -0.056    29.367     8.889
    51   6 C        3.169     0.069    26.108     8.348
    52   7 N        2.636    -0.215    25.688     7.527
    53   6 C        2.903    -0.057    29.427     8.895
    54   6 C        3.166     0.070    26.103     8.349
    55   6 C        3.013    -0.055    29.347     8.886
    56   6 C        3.024    -0.054    29.302     8.879
    57   6 C        3.155     0.066    26.237     8.376
    58   7 N        2.639    -0.213    25.640     7.520
    59   6 C        2.903    -0.062    29.537     8.911
    60   6 C        3.155     0.066    26.237     8.376
    61   6 C        3.024    -0.054    29.302     8.879
    62   6 C        3.013    -0.055    29.346     8.886
    63   6 C        3.166     0.070    26.101     8.349
    64   7 N        2.639    -0.213    25.641     7.521
    65   6 C        2.903    -0.057    29.428     8.895
    66   6 C        3.169     0.069    26.110     8.349
    67   7 N        2.636    -0.215    25.688     7.527
    68   1 H        0.926     0.031     2.577     2.510
    69   1 H        0.926     0.034     2.536     2.490
    70   1 H        0.926     0.033     2.537     2.491
    71   1 H        0.926     0.031     2.577     2.510
    72   1 H        0.926     0.048     2.346     2.395
    73   1 H        0.926     0.031     2.572     2.508
    74   1 H        0.926     0.030     2.579     2.511
    75   1 H        0.926     0.048     2.339     2.392
    76   1 H        0.926     0.031     2.579     2.511
    77   1 H        0.926     0.031     2.572     2.508
    78   1 H        0.926     0.048     2.346     2.395

 Mol. C6AA /au·bohr⁶  :     104480.872002
 Mol. C8AA /au·bohr⁸  :    2746819.266292
 Mol. α(0) /au        :        530.095533


Wiberg/Mayer (AO) data.
largest (>0.10) Wiberg bond orders for each atom

 ---------------------------------------------------------------------------
     #   Z sym  total        # sym  WBO       # sym  WBO       # sym  WBO
 ---------------------------------------------------------------------------
     1  26 Fe   3.267 --    22 N    0.660    16 N    0.660    10 N    0.653
                            25 N    0.653
     2   6 C    3.957 --     3 C    1.645    24 C    1.172    26 H    0.972
     3   6 C    3.961 --     2 C    1.645     4 C    1.180    27 H    0.970
     4   6 C    3.921 --     5 C    1.261    25 N    1.248     3 C    1.180
     5   6 C    3.951 --     4 C    1.261     6 C    1.260    37 C    1.176
     6   6 C    3.921 --     5 C    1.260    10 N    1.248     7 C    1.180
     7   6 C    3.961 --     8 C    1.646     6 C    1.180    28 H    0.970
     8   6 C    3.957 --     7 C    1.646     9 C    1.172    29 H    0.972
     9   6 C    3.938 --    11 C    1.360    10 N    1.226     8 C    1.172
    10   7 N    3.413 --     6 C    1.248     9 C    1.226     1 Fe   0.653
    11   6 C    3.942 --     9 C    1.360    12 C    1.359    30 H    0.965
    12   6 C    3.942 --    11 C    1.359    16 N    1.235    13 C    1.165
    13   6 C    3.962 --    14 C    1.660    12 C    1.165    31 H    0.972
    14   6 C    3.960 --    13 C    1.660    15 C    1.162    32 H    0.972
    15   6 C    3.943 --    17 C    1.360    16 N    1.229    14 C    1.162
    16   7 N    3.411 --    12 C    1.235    15 C    1.229     1 Fe   0.660
    17   6 C    3.941 --    15 C    1.360    18 C    1.360    33 H    0.963
    18   6 C    3.943 --    17 C    1.360    22 N    1.229    19 C    1.162
    19   6 C    3.960 --    20 C    1.660    18 C    1.162    34 H    0.972
    20   6 C    3.962 --    19 C    1.660    21 C    1.165    35 H    0.972
    21   6 C    3.942 --    23 C    1.359    22 N    1.235    20 C    1.165
    22   7 N    3.411 --    21 C    1.235    18 C    1.229     1 Fe   0.660
    23   6 C    3.942 --    21 C    1.359    24 C    1.359    36 H    0.965
    24   6 C    3.938 --    23 C    1.359    25 N    1.226     2 C    1.172
    25   7 N    3.413 --     4 C    1.248    24 C    1.226     1 Fe   0.653
    26   1 H    0.998 --     2 C    0.972
    27   1 H    0.998 --     3 C    0.970
    28   1 H    0.998 --     7 C    0.970
    29   1 H    0.998 --     8 C    0.972
    30   1 H    0.997 --    11 C    0.965
    31   1 H    0.998 --    13 C    0.972
    32   1 H    0.998 --    14 C    0.972
    33   1 H    0.996 --    17 C    0.963
    34   1 H    0.998 --    19 C    0.972
    35   1 H    0.998 --    20 C    0.972
    36   1 H    0.997 --    23 C    0.965
    37   6 C    3.885 --    38 C    2.455     5 C    1.176    40 C    0.194
    38   6 C    3.933 --    37 C    2.455    39 C    1.325
    39   6 C    3.923 --    40 C    2.368    38 C    1.325    42 C    0.194
    40   6 C    3.923 --    39 C    2.368    41 C    1.325    37 C    0.194
    41   6 C    3.933 --    42 C    2.454    40 C    1.325
    42   6 C    3.885 --    41 C    2.454    47 C    1.176    39 C    0.194
    43  26 Fe   3.269 --    58 N    0.661    64 N    0.660    67 N    0.653
                            52 N    0.653
    44   6 C    3.957 --    45 C    1.645    66 C    1.172    68 H    0.972
    45   6 C    3.961 --    44 C    1.645    46 C    1.180    69 H    0.970
    46   6 C    3.921 --    47 C    1.261    67 N    1.248    45 C    1.180
    47   6 C    3.951 --    46 C    1.261    48 C    1.260    42 C    1.176
    48   6 C    3.921 --    47 C    1.260    52 N    1.248    49 C    1.180
    49   6 C    3.961 --    50 C    1.645    48 C    1.180    70 H    0.970
    50   6 C    3.957 --    49 C    1.645    51 C    1.173    71 H    0.972
    51   6 C    3.938 --    53 C    1.359    52 N    1.226    50 C    1.173
    52   7 N    3.413 --    48 C    1.248    51 C    1.226    43 Fe   0.653
    53   6 C    3.942 --    51 C    1.359    54 C    1.359    72 H    0.965
    54   6 C    3.942 --    53 C    1.359    58 N    1.235    55 C    1.165
    55   6 C    3.962 --    56 C    1.660    54 C    1.165    73 H    0.972
    56   6 C    3.960 --    55 C    1.660    57 C    1.162    74 H    0.972
    57   6 C    3.943 --    59 C    1.360    58 N    1.229    56 C    1.162
    58   7 N    3.411 --    54 C    1.235    57 C    1.229    43 Fe   0.661
    59   6 C    3.941 --    57 C    1.360    60 C    1.360    75 H    0.963
    60   6 C    3.943 --    59 C    1.360    64 N    1.229    61 C    1.162
    61   6 C    3.960 --    62 C    1.660    60 C    1.162    76 H    0.972
    62   6 C    3.962 --    61 C    1.660    63 C    1.165    77 H    0.972
    63   6 C    3.942 --    65 C    1.359    64 N    1.235    62 C    1.165
    64   7 N    3.411 --    63 C    1.235    60 C    1.229    43 Fe   0.660
    65   6 C    3.942 --    63 C    1.359    66 C    1.359    78 H    0.965
    66   6 C    3.938 --    65 C    1.359    67 N    1.226    44 C    1.172
    67   7 N    3.413 --    46 C    1.248    66 C    1.226    43 Fe   0.653
    68   1 H    0.998 --    44 C    0.972
    69   1 H    0.998 --    45 C    0.970
    70   1 H    0.998 --    49 C    0.970
    71   1 H    0.998 --    50 C    0.972
    72   1 H    0.997 --    53 C    0.965
    73   1 H    0.998 --    55 C    0.972
    74   1 H    0.998 --    56 C    0.972
    75   1 H    0.996 --    59 C    0.963
    76   1 H    0.998 --    61 C    0.972
    77   1 H    0.998 --    62 C    0.972
    78   1 H    0.997 --    65 C    0.965
 ---------------------------------------------------------------------------

Topologies differ in total number of bonds
Writing topology from bond orders to xtbtopo.mol

molecular dipole:
                 x           y           z       tot (Debye)
 q only:        0.002       0.006      -0.032
   full:        0.001       0.007      -0.048       0.125
molecular quadrupole (traceless):
                xx          xy          yy          xz          yz          zz
 q only:       14.029       0.343      -2.889      -1.751       0.027     -11.140
  q+dip:       38.651       0.575       4.529      -3.833       0.190     -43.180
   full:       23.791       0.482      -0.307      -3.125       0.082     -23.484


           -------------------------------------------------
          | TOTAL ENERGY             -139.368233683263 Eh   |
          | GRADIENT NORM               0.000850826616 Eh/α |
          | HOMO-LUMO GAP               0.194658284974 eV   |
           -------------------------------------------------

------------------------------------------------------------------------
 * finished run on 2021/11/21 at 01:39:59.964     
------------------------------------------------------------------------
 total:
 * wall-time:     0 d,  0 h,  0 min,  0.632 sec
 *  cpu-time:     0 d,  0 h,  0 min,  0.632 sec
 * ratio c/w:     1.000 speedup
 SCF:
 * wall-time:     0 d,  0 h,  0 min,  0.599 sec
 *  cpu-time:     0 d,  0 h,  0 min,  0.599 sec
 * ratio c/w:     1.000 speedup

