      -----------------------------------------------------------      
     |                   =====================                   |     
     |                           x T B                           |     
     |                   =====================                   |     
     |                         S. Grimme                         |     
     |          Mulliken Center for Theoretical Chemistry        |     
     |                    University of Bonn                     |     
      -----------------------------------------------------------      

   * xtb version 6.4.1 (bd6e46d) compiled by 'conda@4901f00b25ba' on 2021-06-10

   xtb is free software: you can redistribute it and/or modify it under
   the terms of the GNU Lesser General Public License as published by
   the Free Software Foundation, either version 3 of the License, or
   (at your option) any later version.
   
   xtb is distributed in the hope that it will be useful,
   but WITHOUT ANY WARRANTY; without even the implied warranty of
   MERCHANTABILITY or FITNESS FOR A PARTICULAR PURPOSE.  See the
   GNU Lesser General Public License for more details.
   
   Cite this work as:
   * C. Bannwarth, E. Caldeweyher, S. Ehlert, A. Hansen, P. Pracht,
     J. Seibert, S. Spicher, S. Grimme, WIREs Comput. Mol. Sci., 2020, 11,
     e01493. DOI: 10.1002/wcms.1493
   
   for GFN2-xTB:
   * C. Bannwarth, S. Ehlert and S. Grimme., J. Chem. Theory Comput., 2019,
     15, 1652-1671. DOI: 10.1021/acs.jctc.8b01176
   for GFN1-xTB:
   * S. Grimme, C. Bannwarth, P. Shushkov, J. Chem. Theory Comput., 2017,
     13, 1989-2009. DOI: 10.1021/acs.jctc.7b00118
   for GFN0-xTB:
   * P. Pracht, E. Caldeweyher, S. Ehlert, S. Grimme, ChemRxiv, 2019, preprint.
     DOI: 10.26434/chemrxiv.8326202.v1
   for GFN-FF:
   * S. Spicher and S. Grimme, Angew. Chem. Int. Ed., 2020, 59, 15665-15673.
     DOI: 10.1002/anie.202004239
   
   for DFT-D4:
   * E. Caldeweyher, C. Bannwarth and S. Grimme, J. Chem. Phys., 2017,
     147, 034112. DOI: 10.1063/1.4993215
   * E. Caldeweyher, S. Ehlert, A. Hansen, H. Neugebauer, S. Spicher,
     C. Bannwarth and S. Grimme, J. Chem. Phys., 2019, 150, 154122.
     DOI: 10.1063/1.5090222
   * E. Caldeweyher, J.-M. Mewes, S. Ehlert and S. Grimme, Phys. Chem. Chem. Phys.
     2020, 22, 8499-8512. DOI: 10.1039/D0CP00502A
   
   for sTDA-xTB:
   * S. Grimme and C. Bannwarth, J. Chem. Phys., 2016, 145, 054103.
     DOI: 10.1063/1.4959605
   
   in the mass-spec context:
   * V. Asgeirsson, C. Bauer and S. Grimme, Chem. Sci., 2017, 8, 4879.
     DOI: 10.1039/c7sc00601b
   * J. Koopman and S. Grimme, ACS Omega 2019, 4, 12, 15120-15133.
     DOI: 10.1021/acsomega.9b02011
   
   for metadynamics refer to:
   * S. Grimme, J. Chem. Theory Comput., 2019, 155, 2847-2862
     DOI: 10.1021/acs.jctc.9b00143
   
   for SPH calculations refer to:
   * S. Spicher and S. Grimme, J. Chem. Theory Comput., 2021, 17, 1701-1714
     DOI: 10.1021/acs.jctc.0c01306
   
   with help from (in alphabetical order)
   P. Atkinson, C. Bannwarth, F. Bohle, G. Brandenburg, E. Caldeweyher
   M. Checinski, S. Dohm, S. Ehlert, S. Ehrlich, I. Gerasimov, J. Koopman
   C. Lavigne, S. Lehtola, F. März, M. Müller, F. Musil, H. Neugebauer
   J. Pisarek, C. Plett, P. Pracht, J. Seibert, P. Shushkov, S. Spicher
   M. Stahn, M. Steiner, T. Strunk, J. Stückrath, T. Rose, and J. Unsleber
   
 * started run on 2021/11/19 at 14:59:34.017     

           -------------------------------------------------
          |                Calculation Setup                |
           -------------------------------------------------

          program call               : /home/jeff/miniconda3/bin/xtb /home/jeff/chem/final-year-proejct/_6_3_outenergy/input_structure.xyz --gfn 2 --parallel 1 --etemp 300 --chrg 0 --uhf 0 -I det_control.in
          coordinate file            : /home/jeff/chem/final-year-proejct/_6_3_outenergy/input_structure.xyz
          omp threads                :                     1
          number of atoms            :                   122
          number of electrons        :                   386
          charge                     :                     0
          spin                       :                   0.0
          first test random number   :      0.82034675862412

   ID    Z sym.   atoms
    1    6 C      1-8, 10-14, 16-20, 22, 23, 38-45, 47-51, 53-57, 59, 60,
                  75-94, 96-100, 102-106, 108, 109
    2    7 N      9, 15, 21, 24, 46, 52, 58, 61, 95, 101, 107, 110
    3    1 H      25-37, 62-74, 111-122

           -------------------------------------------------
          |                 G F N 2 - x T B                 |
           -------------------------------------------------

        Reference                      10.1021/acs.jctc.8b01176
      * Hamiltonian:
        H0-scaling (s, p, d)           1.850000    2.230000    2.230000
        zeta-weighting                 0.500000
      * Dispersion:
        s8                             2.700000
        a1                             0.520000
        a2                             5.000000
        s9                             5.000000
      * Repulsion:
        kExp                           1.500000    1.000000
        rExp                           1.000000
      * Coulomb:
        alpha                          2.000000
        third order                    shell-resolved
        anisotropic                    true
        a3                             3.000000
        a5                             4.000000
        cn-shift                       1.200000
        cn-exp                         4.000000
        max-rad                        5.000000


          ...................................................
          :                      SETUP                      :
          :.................................................:
          :  # basis functions                 374          :
          :  # atomic orbitals                 374          :
          :  # shells                          206          :
          :  # electrons                       386          :
          :  max. iterations                   250          :
          :  Hamiltonian                  GFN2-xTB          :
          :  restarted?                      false          :
          :  GBSA solvation                  false          :
          :  PC potential                    false          :
          :  electronic temp.          300.0000000     K    :
          :  accuracy                    1.0000000          :
          :  -> integral cutoff          0.2500000E+02      :
          :  -> integral neglect         0.1000000E-07      :
          :  -> SCF convergence          0.1000000E-05 Eh   :
          :  -> wf. convergence          0.1000000E-03 e    :
          :  Broyden damping             0.4000000          :
          ...................................................

 iter      E             dE          RMSdq      gap      omega  full diag
   1   -211.9763035 -0.211976E+03  0.546E+00    0.82       0.0  T
   2   -212.2717750 -0.295471E+00  0.347E+00    1.04       1.0  T
   3   -212.1947001  0.770749E-01  0.142E+00    0.90       1.0  T
   4   -212.2705185 -0.758183E-01  0.556E-01    1.03       1.0  T
   5   -212.3211771 -0.506587E-01  0.211E-01    1.03       1.0  T
   6   -212.3296277 -0.845059E-02  0.914E-02    1.03       1.0  T
   7   -212.3303541 -0.726391E-03  0.570E-02    1.04       1.0  T
   8   -212.3306738 -0.319677E-03  0.232E-02    1.03       1.0  T
   9   -212.3307215 -0.477619E-04  0.113E-02    1.03       1.0  T
  10   -212.3307253 -0.375160E-05  0.599E-03    1.03       1.5  T
  11   -212.3307301 -0.475872E-05  0.163E-03    1.03       5.6  T
  12   -212.3307303 -0.256809E-06  0.814E-04    1.03      11.1  T
  13   -212.3307304 -0.547436E-07  0.455E-04    1.03      19.9  T

   *** convergence criteria satisfied after 13 iterations ***

         #    Occupation            Energy/Eh            Energy/eV
      -------------------------------------------------------------
         1        2.0000           -0.6853025             -18.6480
       ...           ...                  ...                  ...
       187        2.0000           -0.3713973             -10.1062
       188        2.0000           -0.3702199             -10.0742
       189        2.0000           -0.3689354             -10.0392
       190        2.0000           -0.3688932             -10.0381
       191        2.0000           -0.3583536              -9.7513
       192        2.0000           -0.3545871              -9.6488
       193        2.0000           -0.3489478              -9.4954 (HOMO)
       194                         -0.3109785              -8.4622 (LUMO)
       195                         -0.3038498              -8.2682
       196                         -0.3007427              -8.1836
       197                         -0.2985679              -8.1244
       198                         -0.2976602              -8.0997
       ...                                ...                  ...
       374                          1.7154316              46.6793
      -------------------------------------------------------------
                  HL-Gap            0.0379693 Eh            1.0332 eV
             Fermi-level           -0.3299621 Eh           -8.9787 eV

 SCC (total)                   0 d,  0 h,  0 min,  0.590 sec
 SCC setup                      ...        0 min,  0.002 sec (  0.417%)
 Dispersion                     ...        0 min,  0.007 sec (  1.257%)
 classical contributions        ...        0 min,  0.001 sec (  0.128%)
 integral evaluation            ...        0 min,  0.043 sec (  7.282%)
 iterations                     ...        0 min,  0.383 sec ( 64.881%)
 molecular gradient             ...        0 min,  0.150 sec ( 25.478%)
 printout                       ...        0 min,  0.003 sec (  0.553%)

         :::::::::::::::::::::::::::::::::::::::::::::::::::::
         ::                     SUMMARY                     ::
         :::::::::::::::::::::::::::::::::::::::::::::::::::::
         :: total energy            -208.276640510810 Eh    ::
         :: gradient norm              0.000582562965 Eh/a0 ::
         :: HOMO-LUMO gap              1.033196022892 eV    ::
         ::.................................................::
         :: SCC energy              -212.330730367027 Eh    ::
         :: -> isotropic ES            0.102104707226 Eh    ::
         :: -> anisotropic ES         -0.009066682369 Eh    ::
         :: -> anisotropic XC          0.151404702879 Eh    ::
         :: -> dispersion             -0.166442829691 Eh    ::
         :: repulsion energy           4.056376302028 Eh    ::
         :: add. restraining           0.000000000000 Eh    ::
         :: total charge               0.000000000009 e     ::
         :::::::::::::::::::::::::::::::::::::::::::::::::::::

           -------------------------------------------------
          |                Property Printout                |
           -------------------------------------------------

    * Orbital Energies and Occupations

         #    Occupation            Energy/Eh            Energy/eV
      -------------------------------------------------------------
         1        2.0000           -0.6853025             -18.6480
       ...           ...                  ...                  ...
       181        2.0000           -0.3792721             -10.3205
       182        2.0000           -0.3741113             -10.1801
       183        2.0000           -0.3736247             -10.1668
       184        2.0000           -0.3724354             -10.1345
       185        2.0000           -0.3723808             -10.1330
       186        2.0000           -0.3714645             -10.1081
       187        2.0000           -0.3713973             -10.1062
       188        2.0000           -0.3702199             -10.0742
       189        2.0000           -0.3689354             -10.0392
       190        2.0000           -0.3688932             -10.0381
       191        2.0000           -0.3583536              -9.7513
       192        2.0000           -0.3545871              -9.6488
       193        2.0000           -0.3489478              -9.4954 (HOMO)
       194                         -0.3109785              -8.4622 (LUMO)
       195                         -0.3038498              -8.2682
       196                         -0.3007427              -8.1836
       197                         -0.2985679              -8.1244
       198                         -0.2976602              -8.0997
       199                         -0.2974502              -8.0940
       200                         -0.2723160              -7.4101
       201                         -0.2638075              -7.1786
       202                         -0.2620867              -7.1317
       203                         -0.2474277              -6.7329
       204                         -0.2408986              -6.5552
       ...                                ...                  ...
       374                          1.7154316              46.6793
      -------------------------------------------------------------
                  HL-Gap            0.0379693 Eh            1.0332 eV
             Fermi-level           -0.3299621 Eh           -8.9787 eV

     #   Z          covCN         q      C6AA      α(0)
     1   6 C        3.016    -0.055    29.333     8.884
     2   6 C        3.009    -0.053    29.300     8.879
     3   6 C        3.197     0.087    25.562     8.242
     4   6 C        2.952     0.011    27.763     8.642
     5   6 C        3.096     0.064    26.453     8.429
     6   6 C        3.026    -0.050    29.208     8.865
     7   6 C        3.034    -0.052    29.251     8.871
     8   6 C        3.073     0.065    26.481     8.437
     9   7 N        2.785    -0.082    22.826     7.096
    10   6 C        2.899    -0.055    29.373     8.886
    11   6 C        3.170     0.087    25.715     8.284
    12   6 C        3.012    -0.054    29.315     8.882
    13   6 C        3.009    -0.054    29.316     8.882
    14   6 C        3.174     0.086    25.706     8.281
    15   7 N        1.870    -0.321    29.176     8.007
    16   6 C        2.899    -0.057    29.410     8.892
    17   6 C        3.074     0.065    26.469     8.435
    18   6 C        3.026    -0.051    29.237     8.869
    19   6 C        3.031    -0.051    29.229     8.868
    20   6 C        3.069     0.066    26.459     8.434
    21   7 N        2.787    -0.081    22.814     7.094
    22   6 C        2.899    -0.055    29.368     8.886
    23   6 C        3.175     0.086    25.716     8.282
    24   7 N        1.870    -0.325    29.280     8.021
    25   1 H        0.926     0.019     2.750     2.593
    26   1 H        0.926     0.021     2.712     2.575
    27   1 H        0.926     0.043     2.409     2.427
    28   1 H        0.926     0.041     2.431     2.438
    29   1 H        0.860     0.214     1.037     1.595
    30   1 H        0.925     0.047     2.360     2.402
    31   1 H        0.926     0.019     2.741     2.589
    32   1 H        0.926     0.020     2.740     2.589
    33   1 H        0.926     0.046     2.368     2.407
    34   1 H        0.926     0.042     2.422     2.434
    35   1 H        0.926     0.042     2.423     2.434
    36   1 H        0.860     0.214     1.035     1.594
    37   1 H        0.925     0.047     2.356     2.400
    38   6 C        3.016    -0.055    29.335     8.884
    39   6 C        3.009    -0.053    29.297     8.879
    40   6 C        3.196     0.087    25.563     8.243
    41   6 C        2.952     0.011    27.761     8.642
    42   6 C        3.097     0.064    26.451     8.429
    43   6 C        3.026    -0.050    29.212     8.866
    44   6 C        3.034    -0.052    29.250     8.871
    45   6 C        3.073     0.064    26.483     8.438
    46   7 N        2.785    -0.081    22.819     7.095
    47   6 C        2.899    -0.055    29.366     8.885
    48   6 C        3.171     0.087    25.716     8.284
    49   6 C        3.012    -0.054    29.314     8.881
    50   6 C        3.010    -0.054    29.317     8.882
    51   6 C        3.174     0.086    25.706     8.281
    52   7 N        1.870    -0.321    29.173     8.006
    53   6 C        2.899    -0.057    29.408     8.892
    54   6 C        3.074     0.065    26.469     8.435
    55   6 C        3.026    -0.051    29.238     8.869
    56   6 C        3.031    -0.051    29.229     8.868
    57   6 C        3.068     0.066    26.460     8.435
    58   7 N        2.787    -0.081    22.813     7.094
    59   6 C        2.899    -0.055    29.366     8.885
    60   6 C        3.175     0.086    25.717     8.282
    61   7 N        1.870    -0.325    29.283     8.021
    62   1 H        0.926     0.019     2.753     2.595
    63   1 H        0.926     0.021     2.715     2.577
    64   1 H        0.926     0.043     2.405     2.425
    65   1 H        0.926     0.041     2.429     2.437
    66   1 H        0.860     0.214     1.037     1.595
    67   1 H        0.925     0.047     2.358     2.401
    68   1 H        0.926     0.020     2.740     2.589
    69   1 H        0.926     0.020     2.740     2.588
    70   1 H        0.926     0.046     2.368     2.406
    71   1 H        0.926     0.042     2.423     2.434
    72   1 H        0.926     0.042     2.423     2.434
    73   1 H        0.860     0.214     1.036     1.594
    74   1 H        0.925     0.047     2.357     2.401
    75   6 C        1.995    -0.020    31.572     9.074
    76   6 C        1.963    -0.012    31.383     9.047
    77   6 C        1.964    -0.003    31.144     9.012
    78   6 C        1.964    -0.003    31.162     9.015
    79   6 C        1.963    -0.011    31.362     9.044
    80   6 C        1.994    -0.021    31.593     9.077
    81   6 C        1.994    -0.021    31.602     9.078
    82   6 C        1.963    -0.011    31.364     9.044
    83   6 C        1.965    -0.004    31.167     9.016
    84   6 C        1.965    -0.003    31.151     9.013
    85   6 C        1.963    -0.012    31.386     9.047
    86   6 C        1.996    -0.020    31.578     9.075
    87   6 C        3.017    -0.054    29.327     8.883
    88   6 C        3.008    -0.053    29.289     8.878
    89   6 C        3.196     0.087    25.567     8.243
    90   6 C        2.952     0.012    27.751     8.640
    91   6 C        3.101     0.064    26.456     8.429
    92   6 C        3.025    -0.050    29.219     8.867
    93   6 C        3.036    -0.052    29.247     8.870
    94   6 C        3.073     0.064    26.486     8.438
    95   7 N        2.785    -0.082    22.824     7.096
    96   6 C        2.899    -0.053    29.316     8.878
    97   6 C        3.174     0.085    25.727     8.284
    98   6 C        3.017    -0.054    29.329     8.883
    99   6 C        3.009    -0.053    29.300     8.879
   100   6 C        3.197     0.087    25.559     8.241
   101   7 N        1.870    -0.324    29.261     8.018
   102   6 C        2.952     0.012    27.755     8.641
   103   6 C        3.099     0.064    26.455     8.429
   104   6 C        3.025    -0.050    29.213     8.866
   105   6 C        3.036    -0.052    29.246     8.870
   106   6 C        3.072     0.064    26.486     8.438
   107   7 N        2.786    -0.082    22.829     7.096
   108   6 C        2.899    -0.053    29.318     8.878
   109   6 C        3.173     0.086    25.728     8.285
   110   7 N        1.870    -0.324    29.267     8.019
   111   1 H        0.926     0.019     2.749     2.593
   112   1 H        0.926     0.021     2.713     2.576
   113   1 H        0.926     0.043     2.409     2.427
   114   1 H        0.926     0.041     2.430     2.438
   115   1 H        0.860     0.215     1.034     1.593
   116   1 H        0.925     0.048     2.348     2.396
   117   1 H        0.926     0.019     2.749     2.593
   118   1 H        0.926     0.021     2.713     2.576
   119   1 H        0.926     0.043     2.408     2.427
   120   1 H        0.926     0.041     2.431     2.438
   121   1 H        0.860     0.214     1.035     1.594
   122   1 H        0.925     0.048     2.349     2.397

 Mol. C6AA /au·bohr⁶  :     251729.798252
 Mol. C8AA /au·bohr⁸  :    6495900.171500
 Mol. α(0) /au        :        807.286590


Wiberg/Mayer (AO) data.
largest (>0.10) Wiberg bond orders for each atom

 ---------------------------------------------------------------------------
     #   Z sym  total        # sym  WBO       # sym  WBO       # sym  WBO
 ---------------------------------------------------------------------------
     1   6 C    3.961 --     2 C    1.717    23 C    1.115    25 H    0.973
     2   6 C    3.961 --     1 C    1.717     3 C    1.121    26 H    0.971
     3   6 C    3.917 --    24 N    1.359     4 C    1.246     2 C    1.121
     4   6 C    3.942 --     5 C    1.252     3 C    1.246    75 C    1.186
     5   6 C    3.903 --     4 C    1.252     6 C    1.236     9 N    1.224
     6   6 C    3.956 --     7 C    1.594     5 C    1.236    27 H    0.972
     7   6 C    3.949 --     6 C    1.594     8 C    1.223    28 H    0.973
     8   6 C    3.918 --    10 C    1.345     7 C    1.223     9 N    1.203
     9   7 N    3.590 --     5 C    1.224     8 C    1.203    29 H    0.900
    10   6 C    3.923 --    11 C    1.357     8 C    1.345    30 H    0.964
    11   6 C    3.939 --    10 C    1.357    15 N    1.324    12 C    1.107
    12   6 C    3.963 --    13 C    1.731    11 C    1.107    31 H    0.973
    13   6 C    3.962 --    12 C    1.731    14 C    1.109    32 H    0.973
    14   6 C    3.938 --    16 C    1.354    15 N    1.325    13 C    1.109
    15   7 N    3.003 --    14 C    1.325    11 C    1.324
    16   6 C    3.925 --    14 C    1.354    17 C    1.347    33 H    0.965
    17   6 C    3.921 --    16 C    1.347    18 C    1.215    21 N    1.210
    18   6 C    3.950 --    19 C    1.609    17 C    1.215    34 H    0.973
    19   6 C    3.953 --    18 C    1.609    20 C    1.214    35 H    0.973
    20   6 C    3.916 --    22 C    1.343    19 C    1.214    21 N    1.211
    21   7 N    3.587 --    20 C    1.211    17 C    1.210    36 H    0.900
    22   6 C    3.938 --    23 C    1.365    20 C    1.343    37 H    0.964
    23   6 C    3.925 --    22 C    1.365    24 N    1.301     1 C    1.115
    24   7 N    3.011 --     3 C    1.359    23 C    1.301
    25   1 H    0.999 --     1 C    0.973
    26   1 H    0.999 --     2 C    0.971
    27   1 H    0.998 --     6 C    0.972
    28   1 H    0.998 --     7 C    0.973
    29   1 H    0.954 --     9 N    0.900
    30   1 H    0.997 --    10 C    0.964
    31   1 H    0.999 --    12 C    0.973
    32   1 H    0.999 --    13 C    0.973
    33   1 H    0.997 --    16 C    0.965
    34   1 H    0.998 --    18 C    0.973
    35   1 H    0.998 --    19 C    0.973
    36   1 H    0.954 --    21 N    0.900
    37   1 H    0.997 --    22 C    0.964
    38   6 C    3.960 --    39 C    1.717    60 C    1.115    62 H    0.973
    39   6 C    3.961 --    38 C    1.717    40 C    1.122    63 H    0.971
    40   6 C    3.916 --    61 N    1.360    41 C    1.245    39 C    1.122
    41   6 C    3.941 --    42 C    1.248    40 C    1.245    86 C    1.190
    42   6 C    3.902 --    41 C    1.248    43 C    1.237    46 N    1.225
    43   6 C    3.956 --    44 C    1.593    42 C    1.237    64 H    0.972
    44   6 C    3.948 --    43 C    1.593    45 C    1.224    65 H    0.973
    45   6 C    3.918 --    47 C    1.345    44 C    1.224    46 N    1.202
    46   7 N    3.590 --    42 C    1.225    45 C    1.202    66 H    0.900
    47   6 C    3.922 --    48 C    1.357    45 C    1.345    67 H    0.964
    48   6 C    3.939 --    47 C    1.357    52 N    1.324    49 C    1.107
    49   6 C    3.963 --    50 C    1.731    48 C    1.107    68 H    0.973
    50   6 C    3.962 --    49 C    1.731    51 C    1.109    69 H    0.973
    51   6 C    3.938 --    53 C    1.354    52 N    1.325    50 C    1.109
    52   7 N    3.002 --    51 C    1.325    48 C    1.324
    53   6 C    3.924 --    51 C    1.354    54 C    1.347    70 H    0.965
    54   6 C    3.921 --    53 C    1.347    55 C    1.215    58 N    1.210
    55   6 C    3.949 --    56 C    1.609    54 C    1.215    71 H    0.973
    56   6 C    3.953 --    55 C    1.609    57 C    1.215    72 H    0.973
    57   6 C    3.916 --    59 C    1.343    56 C    1.215    58 N    1.211
    58   7 N    3.587 --    57 C    1.211    54 C    1.210    73 H    0.900
    59   6 C    3.937 --    60 C    1.366    57 C    1.343    74 H    0.964
    60   6 C    3.924 --    59 C    1.366    61 N    1.300    38 C    1.115
    61   7 N    3.010 --    40 C    1.360    60 C    1.300
    62   1 H    0.999 --    38 C    0.973
    63   1 H    0.999 --    39 C    0.971
    64   1 H    0.998 --    43 C    0.972
    65   1 H    0.998 --    44 C    0.973
    66   1 H    0.954 --    46 N    0.900
    67   1 H    0.997 --    47 C    0.964
    68   1 H    0.999 --    49 C    0.973
    69   1 H    0.999 --    50 C    0.973
    70   1 H    0.997 --    53 C    0.965
    71   1 H    0.998 --    55 C    0.973
    72   1 H    0.998 --    56 C    0.973
    73   1 H    0.954 --    58 N    0.900
    74   1 H    0.997 --    59 C    0.964
    75   6 C    3.880 --    76 C    2.443     4 C    1.186    78 C    0.191
    76   6 C    3.924 --    75 C    2.443    77 C    1.329
    77   6 C    3.913 --    78 C    2.358    76 C    1.329    80 C    0.191
    78   6 C    3.915 --    77 C    2.358    79 C    1.330    75 C    0.191
    79   6 C    3.920 --    80 C    2.439    78 C    1.330
    80   6 C    3.881 --    79 C    2.439    90 C    1.190    77 C    0.191
    81   6 C    3.882 --    82 C    2.435   102 C    1.195    84 C    0.191
    82   6 C    3.920 --    81 C    2.435    83 C    1.334
    83   6 C    3.916 --    84 C    2.353    82 C    1.334    86 C    0.191
    84   6 C    3.915 --    83 C    2.353    85 C    1.333    81 C    0.191
    85   6 C    3.924 --    86 C    2.439    84 C    1.333
    86   6 C    3.881 --    85 C    2.439    41 C    1.190    83 C    0.191
    87   6 C    3.961 --    88 C    1.716   109 C    1.114   111 H    0.973
    88   6 C    3.961 --    87 C    1.716    89 C    1.123   112 H    0.972
    89   6 C    3.917 --   110 N    1.359    90 C    1.246    88 C    1.123
    90   6 C    3.928 --    89 C    1.246    91 C    1.245    80 C    1.190
    91   6 C    3.903 --    90 C    1.245    92 C    1.240    95 N    1.226
    92   6 C    3.953 --    93 C    1.589    91 C    1.240   113 H    0.972
    93   6 C    3.950 --    92 C    1.589    94 C    1.227   114 H    0.973
    94   6 C    3.914 --    96 C    1.337    93 C    1.227    95 N    1.203
    95   7 N    3.586 --    91 C    1.226    94 C    1.203   115 H    0.897
    96   6 C    3.924 --    97 C    1.370    94 C    1.337   116 H    0.963
    97   6 C    3.926 --    96 C    1.370   101 N    1.296    98 C    1.115
    98   6 C    3.961 --    99 C    1.716    97 C    1.115   117 H    0.973
    99   6 C    3.961 --    98 C    1.716   100 C    1.123   118 H    0.972
   100   6 C    3.916 --   101 N    1.362   102 C    1.241    99 C    1.123
   101   7 N    3.002 --   100 C    1.362    97 C    1.296
   102   6 C    3.929 --   103 C    1.246   100 C    1.241    81 C    1.195
   103   6 C    3.903 --   102 C    1.246   104 C    1.240   107 N    1.226
   104   6 C    3.953 --   105 C    1.589   103 C    1.240   119 H    0.972
   105   6 C    3.949 --   104 C    1.589   106 C    1.227   120 H    0.973
   106   6 C    3.915 --   108 C    1.337   105 C    1.227   107 N    1.203
   107   7 N    3.586 --   103 C    1.226   106 C    1.203   121 H    0.897
   108   6 C    3.923 --   109 C    1.369   106 C    1.337   122 H    0.963
   109   6 C    3.927 --   108 C    1.369   110 N    1.298    87 C    1.114
   110   7 N    3.002 --    89 C    1.359   109 C    1.298
   111   1 H    0.999 --    87 C    0.973
   112   1 H    0.999 --    88 C    0.972
   113   1 H    0.998 --    92 C    0.972
   114   1 H    0.998 --    93 C    0.973
   115   1 H    0.954 --    95 N    0.897
   116   1 H    0.997 --    96 C    0.963
   117   1 H    0.999 --    98 C    0.973
   118   1 H    0.999 --    99 C    0.972
   119   1 H    0.998 --   104 C    0.972
   120   1 H    0.998 --   105 C    0.973
   121   1 H    0.954 --   107 N    0.897
   122   1 H    0.997 --   108 C    0.963
 ---------------------------------------------------------------------------

Topologies differ in total number of bonds
Writing topology from bond orders to xtbtopo.mol

molecular dipole:
                 x           y           z       tot (Debye)
 q only:        0.010       0.172       0.050
   full:        0.011       0.232       0.087       0.631
molecular quadrupole (traceless):
                xx          xy          yy          xz          yz          zz
 q only:       33.644     -20.845     -18.813       7.510       0.715     -14.831
  q+dip:       74.448     -12.714     -37.326      11.096      -6.281     -37.122
   full:       51.277     -11.506     -26.282       7.475      -3.200     -24.995


           -------------------------------------------------
          | TOTAL ENERGY             -208.276640510810 Eh   |
          | GRADIENT NORM               0.000582562965 Eh/α |
          | HOMO-LUMO GAP               1.033196022892 eV   |
           -------------------------------------------------

------------------------------------------------------------------------
 * finished run on 2021/11/19 at 14:59:34.661     
------------------------------------------------------------------------
 total:
 * wall-time:     0 d,  0 h,  0 min,  0.644 sec
 *  cpu-time:     0 d,  0 h,  0 min,  0.644 sec
 * ratio c/w:     1.000 speedup
 SCF:
 * wall-time:     0 d,  0 h,  0 min,  0.591 sec
 *  cpu-time:     0 d,  0 h,  0 min,  0.591 sec
 * ratio c/w:     1.000 speedup

