      -----------------------------------------------------------      
     |                   =====================                   |     
     |                           x T B                           |     
     |                   =====================                   |     
     |                         S. Grimme                         |     
     |          Mulliken Center for Theoretical Chemistry        |     
     |                    University of Bonn                     |     
      -----------------------------------------------------------      

   * xtb version 6.4.1 (bd6e46d) compiled by 'conda@4901f00b25ba' on 2021-06-10

   xtb is free software: you can redistribute it and/or modify it under
   the terms of the GNU Lesser General Public License as published by
   the Free Software Foundation, either version 3 of the License, or
   (at your option) any later version.
   
   xtb is distributed in the hope that it will be useful,
   but WITHOUT ANY WARRANTY; without even the implied warranty of
   MERCHANTABILITY or FITNESS FOR A PARTICULAR PURPOSE.  See the
   GNU Lesser General Public License for more details.
   
   Cite this work as:
   * C. Bannwarth, E. Caldeweyher, S. Ehlert, A. Hansen, P. Pracht,
     J. Seibert, S. Spicher, S. Grimme, WIREs Comput. Mol. Sci., 2020, 11,
     e01493. DOI: 10.1002/wcms.1493
   
   for GFN2-xTB:
   * C. Bannwarth, S. Ehlert and S. Grimme., J. Chem. Theory Comput., 2019,
     15, 1652-1671. DOI: 10.1021/acs.jctc.8b01176
   for GFN1-xTB:
   * S. Grimme, C. Bannwarth, P. Shushkov, J. Chem. Theory Comput., 2017,
     13, 1989-2009. DOI: 10.1021/acs.jctc.7b00118
   for GFN0-xTB:
   * P. Pracht, E. Caldeweyher, S. Ehlert, S. Grimme, ChemRxiv, 2019, preprint.
     DOI: 10.26434/chemrxiv.8326202.v1
   for GFN-FF:
   * S. Spicher and S. Grimme, Angew. Chem. Int. Ed., 2020, 59, 15665-15673.
     DOI: 10.1002/anie.202004239
   
   for DFT-D4:
   * E. Caldeweyher, C. Bannwarth and S. Grimme, J. Chem. Phys., 2017,
     147, 034112. DOI: 10.1063/1.4993215
   * E. Caldeweyher, S. Ehlert, A. Hansen, H. Neugebauer, S. Spicher,
     C. Bannwarth and S. Grimme, J. Chem. Phys., 2019, 150, 154122.
     DOI: 10.1063/1.5090222
   * E. Caldeweyher, J.-M. Mewes, S. Ehlert and S. Grimme, Phys. Chem. Chem. Phys.
     2020, 22, 8499-8512. DOI: 10.1039/D0CP00502A
   
   for sTDA-xTB:
   * S. Grimme and C. Bannwarth, J. Chem. Phys., 2016, 145, 054103.
     DOI: 10.1063/1.4959605
   
   in the mass-spec context:
   * V. Asgeirsson, C. Bauer and S. Grimme, Chem. Sci., 2017, 8, 4879.
     DOI: 10.1039/c7sc00601b
   * J. Koopman and S. Grimme, ACS Omega 2019, 4, 12, 15120-15133.
     DOI: 10.1021/acsomega.9b02011
   
   for metadynamics refer to:
   * S. Grimme, J. Chem. Theory Comput., 2019, 155, 2847-2862
     DOI: 10.1021/acs.jctc.9b00143
   
   for SPH calculations refer to:
   * S. Spicher and S. Grimme, J. Chem. Theory Comput., 2021, 17, 1701-1714
     DOI: 10.1021/acs.jctc.0c01306
   
   with help from (in alphabetical order)
   P. Atkinson, C. Bannwarth, F. Bohle, G. Brandenburg, E. Caldeweyher
   M. Checinski, S. Dohm, S. Ehlert, S. Ehrlich, I. Gerasimov, J. Koopman
   C. Lavigne, S. Lehtola, F. März, M. Müller, F. Musil, H. Neugebauer
   J. Pisarek, C. Plett, P. Pracht, J. Seibert, P. Shushkov, S. Spicher
   M. Stahn, M. Steiner, T. Strunk, J. Stückrath, T. Rose, and J. Unsleber
   
 * started run on 2021/11/20 at 15:55:58.260     

           -------------------------------------------------
          |                Calculation Setup                |
           -------------------------------------------------

          program call               : /home/jeff/miniconda3/bin/xtb /home/jeff/chem/final-year-proejct/Co+2_6_4_outenergy/input_structure.xyz --gfn 2 --parallel 1 --etemp 300 --chrg 0 --uhf 0 -I det_control.in
          coordinate file            : /home/jeff/chem/final-year-proejct/Co+2_6_4_outenergy/input_structure.xyz
          omp threads                :                     1
          number of atoms            :                   160
          number of electrons        :                   550
          charge                     :                     0
          spin                       :                   0.0
          first test random number   :      0.19834960129347

   ID    Z sym.   atoms
    1   27 Co     1, 37, 91, 126
    2    6 C      2-9, 11-15, 17-21, 23, 24, 38-45, 47-51, 53-57, 59, 60,
                  73-90, 92-99, 101-105, 107-111, 113, 114, 127-134, 136-140,
                  142-146, 148, 149
    3    7 N      10, 16, 22, 25, 46, 52, 58, 61, 100, 106, 112, 115, 135,
                  141, 147, 150
    4    1 H      26-36, 62-72, 116-125, 151-160

           -------------------------------------------------
          |                 G F N 2 - x T B                 |
           -------------------------------------------------

        Reference                      10.1021/acs.jctc.8b01176
      * Hamiltonian:
        H0-scaling (s, p, d)           1.850000    2.230000    2.230000
        zeta-weighting                 0.500000
      * Dispersion:
        s8                             2.700000
        a1                             0.520000
        a2                             5.000000
        s9                             5.000000
      * Repulsion:
        kExp                           1.500000    1.000000
        rExp                           1.000000
      * Coulomb:
        alpha                          2.000000
        third order                    shell-resolved
        anisotropic                    true
        a3                             3.000000
        a5                             4.000000
        cn-shift                       1.200000
        cn-exp                         4.000000
        max-rad                        5.000000


          ...................................................
          :                      SETUP                      :
          :.................................................:
          :  # basis functions                 538          :
          :  # atomic orbitals                 534          :
          :  # shells                          282          :
          :  # electrons                       550          :
          :  max. iterations                   250          :
          :  Hamiltonian                  GFN2-xTB          :
          :  restarted?                      false          :
          :  GBSA solvation                  false          :
          :  PC potential                    false          :
          :  electronic temp.          300.0000000     K    :
          :  accuracy                    1.0000000          :
          :  -> integral cutoff          0.2500000E+02      :
          :  -> integral neglect         0.1000000E-07      :
          :  -> SCF convergence          0.1000000E-05 Eh   :
          :  -> wf. convergence          0.1000000E-03 e    :
          :  Broyden damping             0.4000000          :
          ...................................................

 iter      E             dE          RMSdq      gap      omega  full diag
   1   -296.8738977 -0.296874E+03  0.794E+00    0.21       0.0  T
   2   -272.2975086  0.245764E+02  0.109E+01    0.04       1.0  T
   3   -286.7566760 -0.144592E+02  0.716E+00    0.05       1.0  T
   4   -253.3203128  0.334364E+02  0.721E+00    0.01       1.0  T
   5   -194.5315410  0.587888E+02  0.111E+01    0.01       1.0  T
   6   -287.3504677 -0.928189E+02  0.490E+00    0.07       1.0  T
   7   -280.7160366  0.663443E+01  0.495E+00    0.05       1.0  T
   8   -285.6014588 -0.488542E+01  0.513E+00    0.03       1.0  T
   9   -296.7552013 -0.111537E+02  0.319E+00    0.20       1.0  T
  10   -296.7689599 -0.137587E-01  0.300E+00    0.06       1.0  T
  11   -296.8877873 -0.118827E+00  0.289E+00    0.14       1.0  T
  12   -296.9683986 -0.806113E-01  0.275E+00    0.07       1.0  T
  13   -297.0352874 -0.668887E-01  0.268E+00    0.19       1.0  T
  14   -296.9328031  0.102484E+00  0.230E+00    0.04       1.0  T
  15   -296.5574788  0.375324E+00  0.264E+00    0.01       1.0  T
  16   -296.1506707  0.406808E+00  0.288E+00    0.01       1.0  T
  17   -296.1284366  0.222341E-01  0.277E+00    0.01       1.0  T
  18   -297.3610603 -0.123262E+01  0.179E+00    0.05       1.0  T
  19   -297.3526256  0.843473E-02  0.180E+00    0.05       1.0  T
  20   -296.2180842  0.113454E+01  0.269E+00    0.00       1.0  T
  21   -292.4911788  0.372691E+01  0.373E+00    0.01       1.0  T
  22   -294.4202594 -0.192908E+01  0.320E+00    0.01       1.0  T
  23   -294.8934310 -0.473172E+00  0.305E+00    0.00       1.0  T
  24   -294.1223503  0.771081E+00  0.338E+00    0.01       1.0  T
  25   -296.0376624 -0.191531E+01  0.279E+00    0.03       1.0  T
  26   -296.0321048  0.555761E-02  0.280E+00    0.03       1.0  T
  27   -292.0966352  0.393547E+01  0.496E+00    0.03       1.0  T
  28   -293.3780444 -0.128141E+01  0.450E+00    0.04       1.0  T
  29   -295.5384897 -0.216045E+01  0.333E+00    0.08       1.0  T
  30   -294.5081974  0.103029E+01  0.399E+00    0.07       1.0  T
  31   -289.3883190  0.511988E+01  0.592E+00    0.06       1.0  T
  32   -294.8449597 -0.545664E+01  0.299E+00    0.01       1.0  T
  33   -295.2506928 -0.405733E+00  0.346E+00    0.04       1.0  T
  34   -295.7846687 -0.533976E+00  0.312E+00    0.05       1.0  T
  35   -296.1730672 -0.388399E+00  0.287E+00    0.06       1.0  T
  36   -295.8807942  0.292273E+00  0.311E+00    0.07       1.0  T
  37   -295.9157564 -0.349622E-01  0.305E+00    0.07       1.0  T
  38   -296.0642719 -0.148515E+00  0.287E+00    0.06       1.0  T
  39   -296.2158154 -0.151544E+00  0.275E+00    0.05       1.0  T
  40   -296.9146830 -0.698868E+00  0.223E+00    0.02       1.0  T
  41   -295.9427500  0.971933E+00  0.303E+00    0.10       1.0  T
  42   -296.7908266 -0.848077E+00  0.232E+00    0.03       1.0  T
  43   -297.0765702 -0.285744E+00  0.200E+00    0.01       1.0  T
  44   -296.7809498  0.295620E+00  0.224E+00    0.04       1.0  T
  45   -297.4590651 -0.678115E+00  0.171E+00    0.01       1.0  T
  46   -297.3141544  0.144911E+00  0.176E+00    0.00       1.0  T
  47   -297.0419965  0.272158E+00  0.208E+00    0.02       1.0  T
  48   -297.3405906 -0.298594E+00  0.173E+00    0.00       1.0  T
  49   -297.2586881  0.819024E-01  0.179E+00    0.02       1.0  T
  50   -297.9489338 -0.690246E+00  0.814E-01    0.01       1.0  T
  51   -297.5250497  0.423884E+00  0.145E+00    0.03       1.0  T
  52   -297.8736068 -0.348557E+00  0.107E+00    0.01       1.0  T
  53   -297.9147311 -0.411244E-01  0.999E-01    0.01       1.0  T
  54   -297.9519240 -0.371929E-01  0.852E-01    0.00       1.0  T
  55   -297.6882684  0.263656E+00  0.127E+00    0.01       1.0  T
  56   -297.5609368  0.127332E+00  0.150E+00    0.00       1.0  T
  57   -297.8325290 -0.271592E+00  0.104E+00    0.00       1.0  T
  58   -297.6121394  0.220390E+00  0.138E+00    0.01       1.0  T
  59   -297.6498906 -0.377512E-01  0.133E+00    0.00       1.0  T
  60   -297.7440730 -0.941824E-01  0.118E+00    0.00       1.0  T
  61   -297.7723616 -0.282886E-01  0.112E+00    0.00       1.0  T
  62   -297.5330896  0.239272E+00  0.145E+00    0.01       1.0  T
  63   -297.6069332 -0.738436E-01  0.134E+00    0.01       1.0  T
  64   -297.7980818 -0.191149E+00  0.103E+00    0.01       1.0  T
  65   -297.8749750 -0.768932E-01  0.889E-01    0.02       1.0  T
  66   -297.9554773 -0.805023E-01  0.726E-01    0.00       1.0  T
  67   -297.6371391  0.318338E+00  0.130E+00    0.02       1.0  T
  68   -297.6000879  0.370512E-01  0.136E+00    0.01       1.0  T
  69   -297.5646282  0.354598E-01  0.140E+00    0.01       1.0  T
  70   -297.7678738 -0.203246E+00  0.110E+00    0.01       1.0  T
  71   -297.8026872 -0.348135E-01  0.102E+00    0.02       1.0  T
  72   -297.7218231  0.808642E-01  0.114E+00    0.00       1.0  T
  73   -297.8185208 -0.966977E-01  0.985E-01    0.03       1.0  T
  74   -297.6860455  0.132475E+00  0.120E+00    0.02       1.0  T
  75   -297.6555779  0.304676E-01  0.123E+00    0.03       1.0  T
  76   -297.4932255  0.162352E+00  0.145E+00    0.00       1.0  T
  77   -297.6977680 -0.204542E+00  0.118E+00    0.02       1.0  T
  78   -297.7161024 -0.183345E-01  0.115E+00    0.03       1.0  T
  79   -297.7213552 -0.525275E-02  0.114E+00    0.03       1.0  T
  80   -297.7180366  0.331856E-02  0.114E+00    0.03       1.0  T
  81   -297.7149884  0.304824E-02  0.114E+00    0.02       1.0  T
  82   -297.8021493 -0.871609E-01  0.996E-01    0.01       1.0  T
  83   -297.8085301 -0.638076E-02  0.975E-01    0.01       1.0  T
  84   -297.8147776 -0.624755E-02  0.946E-01    0.00       1.0  T
  85   -297.9338272 -0.119050E+00  0.666E-01    0.00       1.0  T
  86   -298.0043155 -0.704883E-01  0.420E-01    0.01       1.0  T
  87   -297.9152427  0.890728E-01  0.670E-01    0.02       1.0  T
  88   -297.9032438  0.119989E-01  0.695E-01    0.01       1.0  T
  89   -298.0178253 -0.114582E+00  0.309E-01    0.00       1.0  T
  90   -298.0316146 -0.137892E-01  0.231E-01    0.00       1.0  T
  91   -298.0332373 -0.162278E-02  0.206E-01    0.00       1.0  T
  92   -298.0386302 -0.539288E-02  0.151E-01    0.00       1.0  T
  93   -298.0384540  0.176172E-03  0.150E-01    0.00       1.0  T
  94   -298.0375927  0.861316E-03  0.156E-01    0.00       1.0  T
  95   -298.0381587 -0.566024E-03  0.145E-01    0.00       1.0  T
  96   -298.0414189 -0.326014E-02  0.956E-02    0.00       1.0  T
  97   -298.0428536 -0.143473E-02  0.626E-02    0.00       1.0  T
  98   -298.0433856 -0.531962E-03  0.450E-02    0.00       1.0  T
  99   -298.0436257 -0.240121E-03  0.338E-02    0.00       1.0  T
 100   -298.0436859 -0.601581E-04  0.293E-02    0.00       1.0  T
 101   -298.0437793 -0.933952E-04  0.217E-02    0.00       1.0  T
 102   -298.0438387 -0.594567E-04  0.147E-02    0.00       1.0  T
 103   -298.0438608 -0.221256E-04  0.105E-02    0.00       1.0  T
 104   -298.0438801 -0.192538E-04  0.534E-03    0.00       1.5  T
 105   -298.0438815 -0.138851E-05  0.459E-03    0.00       1.7  T
 106   -298.0438839 -0.243722E-05  0.299E-03    0.00       2.6  T
 107   -298.0438851 -0.116195E-05  0.219E-03    0.00       3.6  T
 108   -298.0438854 -0.286716E-06  0.209E-03    0.00       3.8  T
 109   -298.0438858 -0.396840E-06  0.177E-03    0.00       4.5  T
 110   -298.0438864 -0.684445E-06  0.573E-04    0.00      13.8  T
 111   -298.0438861  0.372143E-06  0.127E-03    0.00       6.2  T
 112   -298.0438865 -0.409280E-06  0.645E-04    0.00      12.3  T

   *** convergence criteria satisfied after 112 iterations ***

         #    Occupation            Energy/Eh            Energy/eV
      -------------------------------------------------------------
         1        2.0000           -0.6702750             -18.2391
       ...           ...                  ...                  ...
       269        1.8549           -0.3488043              -9.4914
       270        1.8261           -0.3486175              -9.4864
       271        1.8259           -0.3486164              -9.4863
       272        1.8193           -0.3485775              -9.4853
       273        1.8189           -0.3485757              -9.4852
       274        1.4325           -0.3472635              -9.4495
       275        1.4301           -0.3472577              -9.4494 (HOMO)
       276        1.4238           -0.3472432              -9.4490 (LUMO)
       277        1.4232           -0.3472418              -9.4489
       278                         -0.3135717              -8.5327
       279                         -0.3073854              -8.3644
       280                         -0.3001657              -8.1679
       ...                                ...                  ...
       534                          1.7151004              46.6703
      -------------------------------------------------------------
                  HL-Gap            0.0000146 Eh            0.0004 eV
             Fermi-level           -0.3463837 Eh           -9.4256 eV

 SCC (total)                   0 d,  0 h,  0 min,  8.000 sec
 SCC setup                      ...        0 min,  0.005 sec (  0.057%)
 Dispersion                     ...        0 min,  0.009 sec (  0.116%)
 classical contributions        ...        0 min,  0.001 sec (  0.013%)
 integral evaluation            ...        0 min,  0.083 sec (  1.034%)
 iterations                     ...        0 min,  7.662 sec ( 95.775%)
 molecular gradient             ...        0 min,  0.232 sec (  2.902%)
 printout                       ...        0 min,  0.008 sec (  0.103%)

         :::::::::::::::::::::::::::::::::::::::::::::::::::::
         ::                     SUMMARY                     ::
         :::::::::::::::::::::::::::::::::::::::::::::::::::::
         :: total energy            -292.577900619631 Eh    ::
         :: gradient norm              0.000884269412 Eh/a0 ::
         :: HOMO-LUMO gap              0.000396031056 eV    ::
         ::.................................................::
         :: SCC energy              -298.043886482901 Eh    ::
         :: -> isotropic ES            0.064854912704 Eh    ::
         :: -> anisotropic ES          0.032754486126 Eh    ::
         :: -> anisotropic XC          0.176690585083 Eh    ::
         :: -> dispersion             -0.253842799361 Eh    ::
         :: repulsion energy           5.469810499344 Eh    ::
         :: add. restraining           0.000000000000 Eh    ::
         :: total charge               0.000000000706 e     ::
         :::::::::::::::::::::::::::::::::::::::::::::::::::::

           -------------------------------------------------
          |                Property Printout                |
           -------------------------------------------------

    * Orbital Energies and Occupations

         #    Occupation            Energy/Eh            Energy/eV
      -------------------------------------------------------------
         1        2.0000           -0.6702750             -18.2391
       ...           ...                  ...                  ...
       263        1.8931           -0.3491138              -9.4999
       264        1.8845           -0.3490361              -9.4978
       265        1.8843           -0.3490342              -9.4977
       266        1.8722           -0.3489341              -9.4950
       267        1.8639           -0.3488697              -9.4932
       268        1.8578           -0.3488255              -9.4920
       269        1.8549           -0.3488043              -9.4914
       270        1.8261           -0.3486175              -9.4864
       271        1.8259           -0.3486164              -9.4863
       272        1.8193           -0.3485775              -9.4853
       273        1.8189           -0.3485757              -9.4852
       274        1.4325           -0.3472635              -9.4495
       275        1.4301           -0.3472577              -9.4494 (HOMO)
       276        1.4238           -0.3472432              -9.4490 (LUMO)
       277        1.4232           -0.3472418              -9.4489
       278                         -0.3135717              -8.5327
       279                         -0.3073854              -8.3644
       280                         -0.3001657              -8.1679
       281                         -0.2977624              -8.1025
       282                         -0.2977543              -8.1023
       283                         -0.2972225              -8.0878
       284                         -0.2971973              -8.0871
       285                         -0.2954293              -8.0390
       286                         -0.2749235              -7.4810
       ...                                ...                  ...
       534                          1.7151004              46.6703
      -------------------------------------------------------------
                  HL-Gap            0.0000146 Eh            0.0004 eV
             Fermi-level           -0.3463837 Eh           -9.4256 eV

     #   Z          covCN         q      C6AA      α(0)
     1  27 Co       3.054     0.104   140.877    24.317
     2   6 C        3.025    -0.053    29.288     8.877
     3   6 C        3.022    -0.051    29.251     8.872
     4   6 C        3.195     0.073    25.877     8.294
     5   6 C        2.956     0.017    27.630     8.622
     6   6 C        3.195     0.073    25.878     8.294
     7   6 C        3.022    -0.051    29.252     8.872
     8   6 C        3.025    -0.053    29.288     8.877
     9   6 C        3.181     0.072    25.984     8.321
    10   7 N        2.629    -0.131    23.860     7.255
    11   6 C        2.905    -0.050    29.239     8.866
    12   6 C        3.177     0.073    25.979     8.323
    13   6 C        3.021    -0.052    29.268     8.874
    14   6 C        3.022    -0.052    29.270     8.874
    15   6 C        3.177     0.073    25.973     8.322
    16   7 N        2.631    -0.130    23.824     7.249
    17   6 C        2.905    -0.052    29.283     8.873
    18   6 C        3.177     0.073    25.973     8.322
    19   6 C        3.022    -0.052    29.270     8.874
    20   6 C        3.021    -0.052    29.268     8.874
    21   6 C        3.177     0.073    25.979     8.323
    22   7 N        2.631    -0.130    23.824     7.249
    23   6 C        2.905    -0.050    29.240     8.866
    24   6 C        3.181     0.072    25.984     8.321
    25   7 N        2.630    -0.131    23.858     7.254
    26   1 H        0.926     0.034     2.526     2.485
    27   1 H        0.926     0.037     2.495     2.470
    28   1 H        0.926     0.037     2.495     2.470
    29   1 H        0.926     0.034     2.526     2.485
    30   1 H        0.926     0.050     2.321     2.382
    31   1 H        0.926     0.035     2.519     2.482
    32   1 H        0.926     0.035     2.521     2.483
    33   1 H        0.926     0.049     2.329     2.386
    34   1 H        0.926     0.035     2.521     2.483
    35   1 H        0.926     0.035     2.519     2.482
    36   1 H        0.926     0.050     2.321     2.382
    37  27 Co       3.054     0.103   140.878    24.318
    38   6 C        3.025    -0.053    29.288     8.877
    39   6 C        3.022    -0.051    29.251     8.872
    40   6 C        3.195     0.073    25.877     8.294
    41   6 C        2.956     0.017    27.630     8.622
    42   6 C        3.195     0.073    25.878     8.294
    43   6 C        3.022    -0.051    29.252     8.872
    44   6 C        3.025    -0.053    29.288     8.877
    45   6 C        3.181     0.072    25.984     8.321
    46   7 N        2.629    -0.131    23.859     7.254
    47   6 C        2.905    -0.050    29.240     8.866
    48   6 C        3.177     0.073    25.979     8.322
    49   6 C        3.021    -0.052    29.268     8.874
    50   6 C        3.022    -0.052    29.270     8.874
    51   6 C        3.177     0.073    25.973     8.322
    52   7 N        2.631    -0.130    23.824     7.249
    53   6 C        2.905    -0.052    29.283     8.873
    54   6 C        3.177     0.073    25.973     8.322
    55   6 C        3.022    -0.052    29.270     8.874
    56   6 C        3.021    -0.052    29.268     8.874
    57   6 C        3.177     0.073    25.979     8.323
    58   7 N        2.631    -0.130    23.824     7.249
    59   6 C        2.905    -0.050    29.240     8.866
    60   6 C        3.181     0.072    25.984     8.321
    61   7 N        2.630    -0.131    23.859     7.254
    62   1 H        0.926     0.034     2.526     2.485
    63   1 H        0.926     0.037     2.495     2.470
    64   1 H        0.926     0.037     2.495     2.470
    65   1 H        0.926     0.034     2.526     2.485
    66   1 H        0.926     0.050     2.321     2.382
    67   1 H        0.926     0.035     2.519     2.482
    68   1 H        0.926     0.035     2.520     2.483
    69   1 H        0.926     0.049     2.329     2.386
    70   1 H        0.926     0.035     2.520     2.483
    71   1 H        0.926     0.035     2.519     2.482
    72   1 H        0.926     0.050     2.321     2.382
    73   6 C        1.993    -0.020    31.572     9.074
    74   6 C        1.963    -0.010    31.343     9.041
    75   6 C        1.964    -0.002    31.129     9.010
    76   6 C        1.964    -0.002    31.135     9.011
    77   6 C        1.963    -0.010    31.337     9.040
    78   6 C        1.993    -0.020    31.578     9.075
    79   6 C        1.993    -0.020    31.573     9.074
    80   6 C        1.963    -0.010    31.337     9.040
    81   6 C        1.964    -0.002    31.130     9.010
    82   6 C        1.964    -0.002    31.130     9.010
    83   6 C        1.963    -0.010    31.337     9.040
    84   6 C        1.993    -0.020    31.573     9.074
    85   6 C        1.993    -0.020    31.576     9.075
    86   6 C        1.963    -0.010    31.336     9.040
    87   6 C        1.964    -0.002    31.134     9.011
    88   6 C        1.964    -0.002    31.129     9.010
    89   6 C        1.963    -0.010    31.342     9.041
    90   6 C        1.993    -0.020    31.571     9.074
    91  27 Co       3.048     0.103   140.889    24.319
    92   6 C        3.025    -0.053    29.286     8.877
    93   6 C        3.023    -0.052    29.253     8.872
    94   6 C        3.197     0.073    25.861     8.290
    95   6 C        2.956     0.017    27.629     8.621
    96   6 C        3.197     0.073    25.861     8.290
    97   6 C        3.023    -0.052    29.253     8.872
    98   6 C        3.025    -0.053    29.286     8.877
    99   6 C        3.182     0.072    25.978     8.319
   100   7 N        2.629    -0.132    23.874     7.257
   101   6 C        2.905    -0.048    29.188     8.859
   102   6 C        3.182     0.072    25.979     8.319
   103   6 C        3.025    -0.053    29.285     8.877
   104   6 C        3.023    -0.052    29.253     8.872
   105   6 C        3.196     0.073    25.861     8.290
   106   7 N        2.629    -0.132    23.876     7.257
   107   6 C        2.956     0.017    27.630     8.622
   108   6 C        3.197     0.073    25.859     8.290
   109   6 C        3.023    -0.052    29.254     8.872
   110   6 C        3.025    -0.053    29.285     8.877
   111   6 C        3.182     0.072    25.979     8.319
   112   7 N        2.629    -0.132    23.876     7.257
   113   6 C        2.905    -0.048    29.188     8.859
   114   6 C        3.182     0.072    25.978     8.319
   115   7 N        2.629    -0.132    23.874     7.257
   116   1 H        0.926     0.034     2.528     2.486
   117   1 H        0.926     0.036     2.499     2.472
   118   1 H        0.926     0.036     2.499     2.472
   119   1 H        0.926     0.034     2.528     2.486
   120   1 H        0.926     0.050     2.316     2.380
   121   1 H        0.926     0.034     2.528     2.486
   122   1 H        0.926     0.036     2.499     2.472
   123   1 H        0.926     0.036     2.499     2.472
   124   1 H        0.926     0.034     2.528     2.486
   125   1 H        0.926     0.050     2.316     2.380
   126  27 Co       3.048     0.103   140.890    24.319
   127   6 C        3.025    -0.053    29.285     8.877
   128   6 C        3.023    -0.052    29.253     8.872
   129   6 C        3.197     0.073    25.861     8.290
   130   6 C        2.956     0.017    27.630     8.622
   131   6 C        3.197     0.073    25.860     8.290
   132   6 C        3.023    -0.052    29.253     8.872
   133   6 C        3.025    -0.053    29.286     8.877
   134   6 C        3.182     0.072    25.978     8.319
   135   7 N        2.629    -0.132    23.875     7.257
   136   6 C        2.905    -0.048    29.188     8.859
   137   6 C        3.182     0.072    25.978     8.319
   138   6 C        3.025    -0.053    29.286     8.877
   139   6 C        3.023    -0.052    29.253     8.872
   140   6 C        3.197     0.073    25.861     8.290
   141   7 N        2.629    -0.132    23.874     7.257
   142   6 C        2.956     0.017    27.629     8.621
   143   6 C        3.197     0.073    25.861     8.290
   144   6 C        3.023    -0.051    29.252     8.872
   145   6 C        3.025    -0.053    29.286     8.877
   146   6 C        3.182     0.072    25.978     8.319
   147   7 N        2.629    -0.132    23.875     7.257
   148   6 C        2.905    -0.048    29.188     8.859
   149   6 C        3.182     0.072    25.979     8.319
   150   7 N        2.629    -0.132    23.875     7.257
   151   1 H        0.926     0.034     2.528     2.486
   152   1 H        0.926     0.036     2.499     2.472
   153   1 H        0.926     0.036     2.499     2.472
   154   1 H        0.926     0.034     2.528     2.486
   155   1 H        0.926     0.050     2.316     2.380
   156   1 H        0.926     0.034     2.528     2.486
   157   1 H        0.926     0.036     2.499     2.472
   158   1 H        0.926     0.036     2.499     2.472
   159   1 H        0.926     0.034     2.528     2.486
   160   1 H        0.926     0.050     2.316     2.380

 Mol. C6AA /au·bohr⁶  :     508214.432657
 Mol. C8AA /au·bohr⁸  :   14766841.279536
 Mol. α(0) /au        :       1169.522645


Wiberg/Mayer (AO) data.
largest (>0.10) Wiberg bond orders for each atom

 ---------------------------------------------------------------------------
     #   Z sym  total        # sym  WBO       # sym  WBO       # sym  WBO
 ---------------------------------------------------------------------------
     1  27 Co   3.326 --    16 N    0.724    22 N    0.724    25 N    0.722
                            10 N    0.722
     2   6 C    3.952 --     3 C    1.641    24 C    1.174    26 H    0.972
     3   6 C    3.956 --     2 C    1.641     4 C    1.183    27 H    0.970
     4   6 C    3.915 --    25 N    1.261     5 C    1.256     3 C    1.183
     5   6 C    3.947 --     4 C    1.256     6 C    1.256    73 C    1.181
     6   6 C    3.915 --    10 N    1.261     5 C    1.256     7 C    1.184
     7   6 C    3.956 --     8 C    1.641     6 C    1.184    28 H    0.970
     8   6 C    3.952 --     7 C    1.641     9 C    1.174    29 H    0.972
     9   6 C    3.929 --    11 C    1.359    10 N    1.227     8 C    1.174
    10   7 N    3.514 --     6 C    1.261     9 C    1.227     1 Co   0.722
    11   6 C    3.938 --     9 C    1.359    12 C    1.359    30 H    0.963
    12   6 C    3.934 --    11 C    1.359    16 N    1.239    13 C    1.166
    13   6 C    3.957 --    14 C    1.657    12 C    1.166    31 H    0.972
    14   6 C    3.954 --    13 C    1.657    15 C    1.165    32 H    0.972
    15   6 C    3.936 --    17 C    1.358    16 N    1.242    14 C    1.165
    16   7 N    3.509 --    15 C    1.242    12 C    1.239     1 Co   0.724
    17   6 C    3.935 --    15 C    1.358    18 C    1.358    33 H    0.964
    18   6 C    3.936 --    17 C    1.358    22 N    1.242    19 C    1.165
    19   6 C    3.954 --    20 C    1.657    18 C    1.165    34 H    0.972
    20   6 C    3.957 --    19 C    1.657    21 C    1.166    35 H    0.972
    21   6 C    3.934 --    23 C    1.359    22 N    1.239    20 C    1.166
    22   7 N    3.509 --    18 C    1.242    21 C    1.239     1 Co   0.724
    23   6 C    3.938 --    24 C    1.359    21 C    1.359    36 H    0.963
    24   6 C    3.929 --    23 C    1.359    25 N    1.227     2 C    1.174
    25   7 N    3.514 --     4 C    1.261    24 C    1.227     1 Co   0.722
    26   1 H    0.998 --     2 C    0.972
    27   1 H    0.998 --     3 C    0.970
    28   1 H    0.998 --     7 C    0.970
    29   1 H    0.998 --     8 C    0.972
    30   1 H    0.996 --    11 C    0.963
    31   1 H    0.998 --    13 C    0.972
    32   1 H    0.998 --    14 C    0.972
    33   1 H    0.996 --    17 C    0.964
    34   1 H    0.998 --    19 C    0.972
    35   1 H    0.998 --    20 C    0.972
    36   1 H    0.996 --    23 C    0.963
    37  27 Co   3.326 --    52 N    0.724    58 N    0.724    61 N    0.722
                            46 N    0.722
    38   6 C    3.952 --    39 C    1.641    60 C    1.174    62 H    0.972
    39   6 C    3.956 --    38 C    1.641    40 C    1.183    63 H    0.970
    40   6 C    3.915 --    61 N    1.261    41 C    1.256    39 C    1.183
    41   6 C    3.947 --    42 C    1.256    40 C    1.256    90 C    1.181
    42   6 C    3.915 --    46 N    1.261    41 C    1.256    43 C    1.183
    43   6 C    3.956 --    44 C    1.642    42 C    1.183    64 H    0.970
    44   6 C    3.952 --    43 C    1.642    45 C    1.174    65 H    0.972
    45   6 C    3.929 --    47 C    1.359    46 N    1.228    44 C    1.174
    46   7 N    3.514 --    42 C    1.261    45 C    1.228    37 Co   0.722
    47   6 C    3.938 --    45 C    1.359    48 C    1.359    66 H    0.963
    48   6 C    3.934 --    47 C    1.359    52 N    1.239    49 C    1.166
    49   6 C    3.957 --    50 C    1.657    48 C    1.166    67 H    0.972
    50   6 C    3.954 --    49 C    1.657    51 C    1.165    68 H    0.972
    51   6 C    3.936 --    53 C    1.358    52 N    1.242    50 C    1.165
    52   7 N    3.509 --    51 C    1.242    48 C    1.239    37 Co   0.724
    53   6 C    3.935 --    51 C    1.358    54 C    1.358    69 H    0.964
    54   6 C    3.936 --    53 C    1.358    58 N    1.242    55 C    1.165
    55   6 C    3.954 --    56 C    1.657    54 C    1.165    70 H    0.972
    56   6 C    3.957 --    55 C    1.657    57 C    1.166    71 H    0.972
    57   6 C    3.934 --    59 C    1.359    58 N    1.239    56 C    1.166
    58   7 N    3.509 --    54 C    1.242    57 C    1.239    37 Co   0.724
    59   6 C    3.938 --    60 C    1.359    57 C    1.359    72 H    0.963
    60   6 C    3.929 --    59 C    1.359    61 N    1.227    38 C    1.174
    61   7 N    3.514 --    40 C    1.261    60 C    1.227    37 Co   0.722
    62   1 H    0.998 --    38 C    0.972
    63   1 H    0.998 --    39 C    0.970
    64   1 H    0.998 --    43 C    0.970
    65   1 H    0.998 --    44 C    0.972
    66   1 H    0.996 --    47 C    0.963
    67   1 H    0.998 --    49 C    0.972
    68   1 H    0.998 --    50 C    0.972
    69   1 H    0.996 --    53 C    0.964
    70   1 H    0.998 --    55 C    0.972
    71   1 H    0.998 --    56 C    0.972
    72   1 H    0.996 --    59 C    0.963
    73   6 C    3.884 --    74 C    2.449     5 C    1.181    76 C    0.194
    74   6 C    3.931 --    73 C    2.449    75 C    1.328
    75   6 C    3.920 --    76 C    2.362    74 C    1.328    78 C    0.193
    76   6 C    3.922 --    75 C    2.362    77 C    1.329    73 C    0.194
    77   6 C    3.928 --    78 C    2.447    76 C    1.329
    78   6 C    3.884 --    77 C    2.447    95 C    1.184    75 C    0.193
    79   6 C    3.883 --    80 C    2.445   107 C    1.184    82 C    0.193
    80   6 C    3.928 --    79 C    2.445    81 C    1.330
    81   6 C    3.920 --    82 C    2.360    80 C    1.330    84 C    0.193
    82   6 C    3.920 --    81 C    2.360    83 C    1.330    79 C    0.193
    83   6 C    3.928 --    84 C    2.445    82 C    1.330
    84   6 C    3.883 --    83 C    2.445   130 C    1.184    81 C    0.193
    85   6 C    3.884 --    86 C    2.447   142 C    1.183    88 C    0.193
    86   6 C    3.928 --    85 C    2.447    87 C    1.329
    87   6 C    3.921 --    88 C    2.363    86 C    1.329    90 C    0.194
    88   6 C    3.920 --    87 C    2.363    89 C    1.328    85 C    0.193
    89   6 C    3.931 --    90 C    2.450    88 C    1.328
    90   6 C    3.884 --    89 C    2.450    41 C    1.181    87 C    0.194
    91  27 Co   3.303 --   100 N    0.718   115 N    0.718   106 N    0.718
                           112 N    0.718
    92   6 C    3.953 --    93 C    1.641   114 C    1.175   116 H    0.972
    93   6 C    3.955 --    92 C    1.641    94 C    1.184   117 H    0.970
    94   6 C    3.915 --   115 N    1.264    95 C    1.254    93 C    1.184
    95   6 C    3.937 --    96 C    1.254    94 C    1.254    78 C    1.184
    96   6 C    3.915 --   100 N    1.264    95 C    1.254    97 C    1.184
    97   6 C    3.955 --    98 C    1.641    96 C    1.184   118 H    0.970
    98   6 C    3.953 --    97 C    1.641    99 C    1.175   119 H    0.972
    99   6 C    3.928 --   101 C    1.359   100 N    1.226    98 C    1.175
   100   7 N    3.505 --    96 C    1.264    99 C    1.226    91 Co   0.718
   101   6 C    3.932 --   102 C    1.359    99 C    1.359   120 H    0.963
   102   6 C    3.928 --   101 C    1.359   106 N    1.226   103 C    1.175
   103   6 C    3.953 --   104 C    1.641   102 C    1.175   121 H    0.972
   104   6 C    3.955 --   103 C    1.641   105 C    1.184   122 H    0.970
   105   6 C    3.915 --   106 N    1.264   107 C    1.253   104 C    1.184
   106   7 N    3.505 --   105 C    1.264   102 C    1.226    91 Co   0.718
   107   6 C    3.937 --   105 C    1.253   108 C    1.253    79 C    1.184
   108   6 C    3.915 --   112 N    1.264   107 C    1.253   109 C    1.184
   109   6 C    3.955 --   110 C    1.641   108 C    1.184   123 H    0.970
   110   6 C    3.953 --   109 C    1.641   111 C    1.175   124 H    0.972
   111   6 C    3.928 --   113 C    1.359   112 N    1.226   110 C    1.175
   112   7 N    3.505 --   108 C    1.264   111 C    1.226    91 Co   0.718
   113   6 C    3.932 --   111 C    1.359   114 C    1.359   125 H    0.963
   114   6 C    3.928 --   113 C    1.359   115 N    1.226    92 C    1.175
   115   7 N    3.505 --    94 C    1.264   114 C    1.226    91 Co   0.718
   116   1 H    0.998 --    92 C    0.972
   117   1 H    0.998 --    93 C    0.970
   118   1 H    0.998 --    97 C    0.970
   119   1 H    0.998 --    98 C    0.972
   120   1 H    0.996 --   101 C    0.963
   121   1 H    0.998 --   103 C    0.972
   122   1 H    0.998 --   104 C    0.970
   123   1 H    0.998 --   109 C    0.970
   124   1 H    0.998 --   110 C    0.972
   125   1 H    0.996 --   113 C    0.963
   126  27 Co   3.303 --   147 N    0.718   141 N    0.718   135 N    0.718
                           150 N    0.718
   127   6 C    3.953 --   128 C    1.641   149 C    1.175   151 H    0.972
   128   6 C    3.955 --   127 C    1.641   129 C    1.184   152 H    0.970
   129   6 C    3.915 --   150 N    1.264   130 C    1.253   128 C    1.184
   130   6 C    3.937 --   129 C    1.253   131 C    1.253    84 C    1.184
   131   6 C    3.915 --   135 N    1.264   130 C    1.253   132 C    1.184
   132   6 C    3.955 --   133 C    1.641   131 C    1.184   153 H    0.970
   133   6 C    3.953 --   132 C    1.641   134 C    1.175   154 H    0.972
   134   6 C    3.928 --   136 C    1.359   135 N    1.226   133 C    1.175
   135   7 N    3.505 --   131 C    1.264   134 C    1.226   126 Co   0.718
   136   6 C    3.933 --   134 C    1.359   137 C    1.359   155 H    0.963
   137   6 C    3.928 --   136 C    1.359   141 N    1.226   138 C    1.175
   138   6 C    3.953 --   139 C    1.641   137 C    1.175   156 H    0.972
   139   6 C    3.955 --   138 C    1.641   140 C    1.184   157 H    0.970
   140   6 C    3.915 --   141 N    1.264   142 C    1.254   139 C    1.184
   141   7 N    3.505 --   140 C    1.264   137 C    1.226   126 Co   0.718
   142   6 C    3.937 --   143 C    1.254   140 C    1.254    85 C    1.183
   143   6 C    3.915 --   147 N    1.264   142 C    1.254   144 C    1.184
   144   6 C    3.955 --   145 C    1.641   143 C    1.184   158 H    0.970
   145   6 C    3.953 --   144 C    1.641   146 C    1.175   159 H    0.972
   146   6 C    3.928 --   148 C    1.359   147 N    1.226   145 C    1.175
   147   7 N    3.505 --   143 C    1.264   146 C    1.226   126 Co   0.718
   148   6 C    3.933 --   149 C    1.359   146 C    1.359   160 H    0.963
   149   6 C    3.928 --   148 C    1.359   150 N    1.226   127 C    1.175
   150   7 N    3.505 --   129 C    1.264   149 C    1.226   126 Co   0.718
   151   1 H    0.998 --   127 C    0.972
   152   1 H    0.998 --   128 C    0.970
   153   1 H    0.998 --   132 C    0.970
   154   1 H    0.998 --   133 C    0.972
   155   1 H    0.996 --   136 C    0.963
   156   1 H    0.998 --   138 C    0.972
   157   1 H    0.998 --   139 C    0.970
   158   1 H    0.998 --   144 C    0.970
   159   1 H    0.998 --   145 C    0.972
   160   1 H    0.996 --   148 C    0.963
 ---------------------------------------------------------------------------

Topologies differ in total number of bonds
Writing topology from bond orders to xtbtopo.mol

molecular dipole:
                 x           y           z       tot (Debye)
 q only:        0.009      -0.001       0.006
   full:        0.009      -0.002       0.008       0.031
molecular quadrupole (traceless):
                xx          xy          yy          xz          yz          zz
 q only:       79.564       0.212     -14.138       0.835      -0.679     -65.426
  q+dip:      140.674       0.339      -7.481       1.182      -1.668    -133.193
   full:      104.736       0.279     -14.426       1.191      -1.033     -90.310


           -------------------------------------------------
          | TOTAL ENERGY             -292.577900619631 Eh   |
          | GRADIENT NORM               0.000884269412 Eh/α |
          | HOMO-LUMO GAP               0.000396031056 eV   |
           -------------------------------------------------

------------------------------------------------------------------------
 * finished run on 2021/11/20 at 15:56:06.342     
------------------------------------------------------------------------
 total:
 * wall-time:     0 d,  0 h,  0 min,  8.082 sec
 *  cpu-time:     0 d,  0 h,  0 min,  8.082 sec
 * ratio c/w:     1.000 speedup
 SCF:
 * wall-time:     0 d,  0 h,  0 min,  8.002 sec
 *  cpu-time:     0 d,  0 h,  0 min,  8.002 sec
 * ratio c/w:     1.000 speedup

