      -----------------------------------------------------------      
     |                   =====================                   |     
     |                           x T B                           |     
     |                   =====================                   |     
     |                         S. Grimme                         |     
     |          Mulliken Center for Theoretical Chemistry        |     
     |                    University of Bonn                     |     
      -----------------------------------------------------------      

   * xtb version 6.4.1 (bd6e46d) compiled by 'conda@4901f00b25ba' on 2021-06-10

   xtb is free software: you can redistribute it and/or modify it under
   the terms of the GNU Lesser General Public License as published by
   the Free Software Foundation, either version 3 of the License, or
   (at your option) any later version.
   
   xtb is distributed in the hope that it will be useful,
   but WITHOUT ANY WARRANTY; without even the implied warranty of
   MERCHANTABILITY or FITNESS FOR A PARTICULAR PURPOSE.  See the
   GNU Lesser General Public License for more details.
   
   Cite this work as:
   * C. Bannwarth, E. Caldeweyher, S. Ehlert, A. Hansen, P. Pracht,
     J. Seibert, S. Spicher, S. Grimme, WIREs Comput. Mol. Sci., 2020, 11,
     e01493. DOI: 10.1002/wcms.1493
   
   for GFN2-xTB:
   * C. Bannwarth, S. Ehlert and S. Grimme., J. Chem. Theory Comput., 2019,
     15, 1652-1671. DOI: 10.1021/acs.jctc.8b01176
   for GFN1-xTB:
   * S. Grimme, C. Bannwarth, P. Shushkov, J. Chem. Theory Comput., 2017,
     13, 1989-2009. DOI: 10.1021/acs.jctc.7b00118
   for GFN0-xTB:
   * P. Pracht, E. Caldeweyher, S. Ehlert, S. Grimme, ChemRxiv, 2019, preprint.
     DOI: 10.26434/chemrxiv.8326202.v1
   for GFN-FF:
   * S. Spicher and S. Grimme, Angew. Chem. Int. Ed., 2020, 59, 15665-15673.
     DOI: 10.1002/anie.202004239
   
   for DFT-D4:
   * E. Caldeweyher, C. Bannwarth and S. Grimme, J. Chem. Phys., 2017,
     147, 034112. DOI: 10.1063/1.4993215
   * E. Caldeweyher, S. Ehlert, A. Hansen, H. Neugebauer, S. Spicher,
     C. Bannwarth and S. Grimme, J. Chem. Phys., 2019, 150, 154122.
     DOI: 10.1063/1.5090222
   * E. Caldeweyher, J.-M. Mewes, S. Ehlert and S. Grimme, Phys. Chem. Chem. Phys.
     2020, 22, 8499-8512. DOI: 10.1039/D0CP00502A
   
   for sTDA-xTB:
   * S. Grimme and C. Bannwarth, J. Chem. Phys., 2016, 145, 054103.
     DOI: 10.1063/1.4959605
   
   in the mass-spec context:
   * V. Asgeirsson, C. Bauer and S. Grimme, Chem. Sci., 2017, 8, 4879.
     DOI: 10.1039/c7sc00601b
   * J. Koopman and S. Grimme, ACS Omega 2019, 4, 12, 15120-15133.
     DOI: 10.1021/acsomega.9b02011
   
   for metadynamics refer to:
   * S. Grimme, J. Chem. Theory Comput., 2019, 155, 2847-2862
     DOI: 10.1021/acs.jctc.9b00143
   
   for SPH calculations refer to:
   * S. Spicher and S. Grimme, J. Chem. Theory Comput., 2021, 17, 1701-1714
     DOI: 10.1021/acs.jctc.0c01306
   
   with help from (in alphabetical order)
   P. Atkinson, C. Bannwarth, F. Bohle, G. Brandenburg, E. Caldeweyher
   M. Checinski, S. Dohm, S. Ehlert, S. Ehrlich, I. Gerasimov, J. Koopman
   C. Lavigne, S. Lehtola, F. März, M. Müller, F. Musil, H. Neugebauer
   J. Pisarek, C. Plett, P. Pracht, J. Seibert, P. Shushkov, S. Spicher
   M. Stahn, M. Steiner, T. Strunk, J. Stückrath, T. Rose, and J. Unsleber
   
 * started run on 2021/11/20 at 19:03:49.520     

           -------------------------------------------------
          |                Calculation Setup                |
           -------------------------------------------------

          program call               : /home/jeff/miniconda3/bin/xtb input_structure_1.xyz --gfn 2 --ohess normal --parallel 1 --etemp 300 --chrg 0 --uhf 0 -I det_control.in
          hostname                   : jelfscompute1
          coordinate file            : input_structure_1.xyz
          omp threads                :                     1
          number of atoms            :                   283
          number of electrons        :                   979
          charge                     :                     0
          spin                       :                   0.5
          first test random number   :      0.26424890480330

   ID    Z sym.   atoms
    1   27 Co     1, 37, 109, 144, 179, 214, 249
    2    6 C      2-9, 11-15, 17-21, 23, 24, 38-45, 47-51, 53-57, 59, 60,
                  73-108, 110-117, 119-123, 125-129, 131, 132, 145-152,
                  154-158, 160-164, 166, 167, 180-187, 189-193, 195-199, 201,
                  202, 215-222, 224-228, 230-234, 236, 237, 250-257, 259-263,
                  265-269, 271, 272
    3    7 N      10, 16, 22, 25, 46, 52, 58, 61, 118, 124, 130, 133, 153,
                  159, 165, 168, 188, 194, 200, 203, 223, 229, 235, 238, 258,
                  264, 270, 273
    4    1 H      26-36, 62-72, 134-143, 169-178, 204-213, 239-248, 274-283

molecular fragmentation (1/2 indicates fragments):
111111111111111111111111111111111111222222222222222222222222222222222222
222222222222222222222222222222222222222222222222222222222222222222222222
222222222222222222222222222222222222222222222222222222222222222222222222
2222222222222222222222222222222222222222222222222222222222222222222
# atoms in fragment 1/2:    36   247
 fragment masses (1/2) :      366.26     2624.92
CMA distance (Bohr)    : 104.694
constraining FC (au)   :  0.0500

           -------------------------------------------------
          |                 G F N 2 - x T B                 |
           -------------------------------------------------

        Reference                      10.1021/acs.jctc.8b01176
      * Hamiltonian:
        H0-scaling (s, p, d)           1.850000    2.230000    2.230000
        zeta-weighting                 0.500000
      * Dispersion:
        s8                             2.700000
        a1                             0.520000
        a2                             5.000000
        s9                             5.000000
      * Repulsion:
        kExp                           1.500000    1.000000
        rExp                           1.000000
      * Coulomb:
        alpha                          2.000000
        third order                    shell-resolved
        anisotropic                    true
        a3                             3.000000
        a5                             4.000000
        cn-shift                       1.200000
        cn-exp                         4.000000
        max-rad                        5.000000


          ...................................................
          :                      SETUP                      :
          :.................................................:
          :  # basis functions                 958          :
          :  # atomic orbitals                 951          :
          :  # shells                          501          :
          :  # electrons                       979          :
          :  max. iterations                   250          :
          :  Hamiltonian                  GFN2-xTB          :
          :  restarted?                      false          :
          :  GBSA solvation                  false          :
          :  PC potential                    false          :
          :  electronic temp.          300.0000000     K    :
          :  accuracy                    1.0000000          :
          :  -> integral cutoff          0.2500000E+02      :
          :  -> integral neglect         0.1000000E-07      :
          :  -> SCF convergence          0.1000000E-05 Eh   :
          :  -> wf. convergence          0.1000000E-03 e    :
          :  Broyden damping             0.4000000          :
          ...................................................

 iter      E             dE          RMSdq      gap      omega  full diag
   1   -524.4419412 -0.524442E+03  0.910E+00    0.00       0.0  T
   2   -463.7354597  0.607065E+02  0.129E+01    0.07       1.0  T
   3   -505.1175316 -0.413821E+02  0.780E+00    0.05       1.0  T
   4   -483.2640732  0.218535E+02  0.788E+00    0.02       1.0  T
   5   -248.3991622  0.234865E+03  0.984E+00    0.01       1.0  T
   6   -432.4881392 -0.184089E+03  0.752E+00    0.01       1.0  T
   7   -477.7754026 -0.452873E+02  0.689E+00    0.00       1.0  T
   8   -470.8555322  0.691987E+01  0.762E+00    0.03       1.0  T
   9   -516.3364343 -0.454809E+02  0.470E+00    0.01       1.0  T
  10   -510.9342311  0.540220E+01  0.460E+00    0.07       1.0  T
  11   -524.3637552 -0.134295E+02  0.392E+00    0.02       1.0  T
  12   -524.2072032  0.156552E+00  0.361E+00    0.04       1.0  T
  13   -525.5681741 -0.136097E+01  0.344E+00    0.05       1.0  T
  14   -525.6132834 -0.451093E-01  0.343E+00    0.05       1.0  T
  15   -525.6956473 -0.823639E-01  0.342E+00    0.04       1.0  T
  16   -525.5237806  0.171867E+00  0.348E+00    0.01       1.0  T
  17   -525.6525956 -0.128815E+00  0.346E+00    0.04       1.0  T
  18   -525.0294199  0.623176E+00  0.347E+00    0.08       1.0  T
  19   -525.8328082 -0.803388E+00  0.334E+00    0.02       1.0  T
  20   -525.6269921  0.205816E+00  0.323E+00    0.07       1.0  T
  21   -525.7029132 -0.759211E-01  0.313E+00    0.03       1.0  T
  22   -525.1747220  0.528191E+00  0.291E+00    0.04       1.0  T
  23   -522.9852858  0.218944E+01  0.299E+00    0.02       1.0  T
  24   -523.6734811 -0.688195E+00  0.289E+00    0.00       1.0  T
  25   -524.0628039 -0.389323E+00  0.276E+00    0.02       1.0  T
  26   -524.9844516 -0.921648E+00  0.264E+00    0.08       1.0  T
  27   -525.7093691 -0.724917E+00  0.239E+00    0.06       1.0  T
  28   -525.4736717  0.235697E+00  0.237E+00    0.00       1.0  T
  29   -524.6724156  0.801256E+00  0.233E+00    0.04       1.0  T
  30   -525.6279447 -0.955529E+00  0.222E+00    0.01       1.0  T
  31   -525.9425896 -0.314645E+00  0.211E+00    0.01       1.0  T
  32   -526.2192306 -0.276641E+00  0.196E+00    0.02       1.0  T
  33   -526.2337562 -0.145255E-01  0.194E+00    0.02       1.0  T
  34   -526.1961490  0.376072E-01  0.196E+00    0.02       1.0  T
  35   -526.3142953 -0.118146E+00  0.198E+00    0.02       1.0  T
  36   -524.3846771  0.192962E+01  0.269E+00    0.00       1.0  T
  37   -526.9399841 -0.255531E+01  0.213E+00    0.02       1.0  T
  38   -524.9897945  0.195019E+01  0.307E+00    0.01       1.0  T
  39   -527.4716304 -0.248184E+01  0.225E+00    0.02       1.0  T
  40   -527.3782052  0.934253E-01  0.230E+00    0.02       1.0  T
  41   -519.9628901  0.741532E+01  0.466E+00    0.06       1.0  T
  42   -517.7293783  0.223351E+01  0.489E+00    0.04       1.0  T
  43   -517.4709843  0.258394E+00  0.493E+00    0.01       1.0  T
  44   -517.2483044  0.222680E+00  0.497E+00    0.03       1.0  T
  45   -517.1850119  0.632925E-01  0.500E+00    0.03       1.0  T
  46   -517.5671052 -0.382093E+00  0.494E+00    0.01       1.0  T
  47   -517.6115551 -0.444499E-01  0.494E+00    0.02       1.0  T
  48   -517.6164547 -0.489960E-02  0.494E+00    0.02       1.0  T
  49   -517.6370749 -0.206202E-01  0.495E+00    0.07       1.0  T
  50   -517.7719862 -0.134911E+00  0.496E+00    0.05       1.0  T
  51   -516.8086963  0.963290E+00  0.510E+00    0.05       1.0  T
  52   -514.4512619  0.235743E+01  0.537E+00    0.09       1.0  T
  53   -514.3601803  0.910816E-01  0.538E+00    0.09       1.0  T
  54   -514.1744364  0.185744E+00  0.540E+00    0.11       1.0  T
  55   -514.1679971  0.643929E-02  0.540E+00    0.11       1.0  T
  56   -515.0873557 -0.919359E+00  0.551E+00    0.02       1.0  T
  57   -515.9214206 -0.834065E+00  0.564E+00    0.01       1.0  T
  58   -515.9146876  0.673303E-02  0.564E+00    0.01       1.0  T
  59   -516.6578267 -0.743139E+00  0.549E+00    0.01       1.0  T
  60   -516.3743005  0.283526E+00  0.554E+00    0.01       1.0  T
  61   -516.3507956  0.235050E-01  0.554E+00    0.01       1.0  T
  62   -516.3973262 -0.465306E-01  0.553E+00    0.01       1.0  T
  63   -514.1068279  0.229050E+01  0.564E+00    0.08       1.0  T
  64   -512.9999593  0.110687E+01  0.584E+00    0.05       1.0  T
  65   -513.1408831 -0.140924E+00  0.582E+00    0.06       1.0  T
  66   -513.1681594 -0.272763E-01  0.588E+00    0.05       1.0  T
  67   -512.5689566  0.599203E+00  0.635E+00    0.02       1.0  T
  68   -512.6268755 -0.579189E-01  0.633E+00    0.01       1.0  T
  69   -511.5058740  0.112100E+01  0.653E+00    0.02       1.0  T
  70   -512.3266861 -0.820812E+00  0.646E+00    0.02       1.0  T
  71   -512.5378255 -0.211139E+00  0.640E+00    0.02       1.0  T
  72   -513.0174581 -0.479633E+00  0.636E+00    0.02       1.0  T
  73   -514.5209455 -0.150349E+01  0.606E+00    0.00       1.0  T
  74   -514.2217866  0.299159E+00  0.607E+00    0.00       1.0  T
  75   -515.8843518 -0.166257E+01  0.576E+00    0.01       1.0  T
  76   -515.8725372  0.118147E-01  0.576E+00    0.01       1.0  T
  77   -515.9176634 -0.451262E-01  0.575E+00    0.01       1.0  T
  78   -516.6907714 -0.773108E+00  0.561E+00    0.02       1.0  T
  79   -520.7832976 -0.409253E+01  0.477E+00    0.02       1.0  T
  80   -519.9159740  0.867324E+00  0.496E+00    0.00       1.0  T
  81   -522.8076615 -0.289169E+01  0.440E+00    0.00       1.0  T
  82   -517.5612702  0.524639E+01  0.538E+00    0.00       1.0  T
  83   -524.6518953 -0.709063E+01  0.372E+00    0.00       1.0  T
  84   -523.8013988  0.850497E+00  0.395E+00    0.00       1.0  T
  85   -517.6697290  0.613167E+01  0.536E+00    0.00       1.0  T
  86   -520.4941726 -0.282444E+01  0.481E+00    0.01       1.0  T
  87   -520.4556253  0.385473E-01  0.475E+00    0.01       1.0  T
  88   -520.3599629  0.956623E-01  0.478E+00    0.01       1.0  T
  89   -518.8733144  0.148665E+01  0.517E+00    0.03       1.0  T
  90   -521.4515538 -0.257824E+01  0.447E+00    0.02       1.0  T
  91   -519.9440049  0.150755E+01  0.488E+00    0.01       1.0  T
  92   -519.9272932  0.167117E-01  0.487E+00    0.00       1.0  T
  93   -519.9851934 -0.579002E-01  0.487E+00    0.00       1.0  T
  94   -519.7547237  0.230470E+00  0.491E+00    0.01       1.0  T
  95   -520.7700632 -0.101534E+01  0.461E+00    0.03       1.0  T
  96   -519.9622532  0.807810E+00  0.479E+00    0.03       1.0  T
  97   -519.0228833  0.939370E+00  0.496E+00    0.01       1.0  T
  98   -519.0694137 -0.465304E-01  0.495E+00    0.01       1.0  T
  99   -519.4939046 -0.424491E+00  0.483E+00    0.02       1.0  T
 100   -518.2005487  0.129336E+01  0.495E+00    0.01       1.0  T
 101   -517.3412986  0.859250E+00  0.513E+00    0.03       1.0  T
 102   -517.3244976  0.168010E-01  0.513E+00    0.03       1.0  T
 103   -517.4646368 -0.140139E+00  0.511E+00    0.03       1.0  T
 104   -517.2343918  0.230245E+00  0.515E+00    0.03       1.0  T
 105   -517.2053751  0.290166E-01  0.515E+00    0.03       1.0  T
 106   -517.5042884 -0.298913E+00  0.508E+00    0.03       1.0  T
 107   -518.2926228 -0.788334E+00  0.472E+00    0.01       1.0  T
 108   -518.6179445 -0.325322E+00  0.479E+00    0.02       1.0  T
 109   -520.4181283 -0.180018E+01  0.440E+00    0.01       1.0  T
 110   -522.6947130 -0.227658E+01  0.378E+00    0.02       1.0  T
 111   -522.6491474  0.455656E-01  0.377E+00    0.00       1.0  T
 112   -522.6747962 -0.256488E-01  0.376E+00    0.00       1.0  T
 113   -522.5245179  0.150278E+00  0.377E+00    0.02       1.0  T
 114   -524.0053342 -0.148082E+01  0.335E+00    0.00       1.0  T
 115   -525.4474056 -0.144207E+01  0.290E+00    0.00       1.0  T
 116   -524.6425954  0.804810E+00  0.312E+00    0.01       1.0  T
 117   -525.4899599 -0.847364E+00  0.283E+00    0.02       1.0  T
 118   -525.2992839  0.190676E+00  0.289E+00    0.01       1.0  T
 119   -524.8307833  0.468501E+00  0.303E+00    0.00       1.0  T
 120   -525.4015336 -0.570750E+00  0.284E+00    0.01       1.0  T
 121   -525.1929588  0.208575E+00  0.290E+00    0.01       1.0  T
 122   -525.3176669 -0.124708E+00  0.285E+00    0.01       1.0  T
 123   -526.7209736 -0.140331E+01  0.234E+00    0.01       1.0  T
 124   -525.4261278  0.129485E+01  0.279E+00    0.00       1.0  T
 125   -523.0320618  0.239407E+01  0.354E+00    0.02       1.0  T
 126   -522.3630705  0.668991E+00  0.375E+00    0.01       1.0  T
 127   -522.4267986 -0.637281E-01  0.372E+00    0.01       1.0  T
 128   -522.3095552  0.117243E+00  0.376E+00    0.01       1.0  T
 129   -522.5572381 -0.247683E+00  0.369E+00    0.01       1.0  T
 130   -522.8300537 -0.272816E+00  0.364E+00    0.02       1.0  T
 131   -523.6234774 -0.793424E+00  0.341E+00    0.02       1.0  T
 132   -523.6871830 -0.637056E-01  0.340E+00    0.01       1.0  T
 133   -523.6275220  0.596610E-01  0.344E+00    0.02       1.0  T
 134   -523.7523854 -0.124863E+00  0.342E+00    0.02       1.0  T
 135   -523.6709047  0.814806E-01  0.345E+00    0.02       1.0  T
 136   -523.3894422  0.281463E+00  0.354E+00    0.01       1.0  T
 137   -523.2912910  0.981511E-01  0.356E+00    0.02       1.0  T
 138   -523.2977612 -0.647021E-02  0.356E+00    0.01       1.0  T
 139   -523.1213916  0.176370E+00  0.361E+00    0.02       1.0  T
 140   -523.9873479 -0.865956E+00  0.336E+00    0.02       1.0  T
 141   -524.1122380 -0.124890E+00  0.333E+00    0.02       1.0  T
 142   -522.9747364  0.113750E+01  0.364E+00    0.02       1.0  T
 143   -523.2949789 -0.320243E+00  0.355E+00    0.03       1.0  T
 144   -523.3106150 -0.156361E-01  0.355E+00    0.02       1.0  T
 145   -523.9573788 -0.646764E+00  0.336E+00    0.02       1.0  T
 146   -524.4552055 -0.497827E+00  0.320E+00    0.02       1.0  T
 147   -524.7842786 -0.329073E+00  0.308E+00    0.02       1.0  T
 148   -524.9936376 -0.209359E+00  0.301E+00    0.02       1.0  T
 149   -525.4954556 -0.501818E+00  0.280E+00    0.00       1.0  T
 150   -525.4704351  0.250205E-01  0.281E+00    0.00       1.0  T
 151   -525.2507102  0.219725E+00  0.289E+00    0.01       1.0  T
 152   -525.1786144  0.720958E-01  0.292E+00    0.01       1.0  T
 153   -525.7765761 -0.597962E+00  0.267E+00    0.01       1.0  T
 154   -525.9724414 -0.195865E+00  0.260E+00    0.00       1.0  T
 155   -526.5361935 -0.563752E+00  0.237E+00    0.00       1.0  T
 156   -527.9494248 -0.141323E+01  0.178E+00    0.01       1.0  T
 157   -527.4620897  0.487335E+00  0.200E+00    0.01       1.0  T
 158   -527.9870907 -0.525001E+00  0.174E+00    0.00       1.0  T
 159   -527.8226477  0.164443E+00  0.178E+00    0.01       1.0  T
 160   -528.2061005 -0.383453E+00  0.158E+00    0.00       1.0  T
 161   -527.9876814  0.218419E+00  0.168E+00    0.01       1.0  T
 162   -528.0054037 -0.177223E-01  0.169E+00    0.00       1.0  T
 163   -528.2631427 -0.257739E+00  0.149E+00    0.01       1.0  T
 164   -528.4050190 -0.141876E+00  0.138E+00    0.00       1.0  T
 165   -528.5084631 -0.103444E+00  0.128E+00    0.00       1.0  T
 166   -528.4956926  0.127705E-01  0.127E+00    0.00       1.0  T
 167   -528.5619016 -0.662090E-01  0.118E+00    0.00       1.0  T
 168   -528.5258736  0.360279E-01  0.120E+00    0.01       1.0  T
 169   -528.4100126  0.115861E+00  0.129E+00    0.00       1.0  T
 170   -528.3990150  0.109976E-01  0.130E+00    0.00       1.0  T
 171   -528.3082925  0.907225E-01  0.136E+00    0.01       1.0  T
 172   -528.4035188 -0.952263E-01  0.130E+00    0.01       1.0  T
 173   -528.3736368  0.298820E-01  0.133E+00    0.00       1.0  T
 174   -528.4148320 -0.411952E-01  0.130E+00    0.00       1.0  T
 175   -528.4671268 -0.522948E-01  0.126E+00    0.00       1.0  T
 176   -528.4771545 -0.100278E-01  0.124E+00    0.00       1.0  T
 177   -528.5116616 -0.345070E-01  0.120E+00    0.00       1.0  T
 178   -528.5077370  0.392455E-02  0.118E+00    0.01       1.0  T
 179   -528.4971831  0.105539E-01  0.120E+00    0.00       1.0  T
 180   -528.4552819  0.419013E-01  0.123E+00    0.00       1.0  T
 181   -528.4517873  0.349455E-02  0.123E+00    0.00       1.0  T
 182   -528.4848657 -0.330784E-01  0.120E+00    0.00       1.0  T
 183   -528.4705438  0.143220E-01  0.121E+00    0.00       1.0  T
 184   -528.5206760 -0.501322E-01  0.116E+00    0.00       1.0  T
 185   -528.5051497  0.155263E-01  0.117E+00    0.01       1.0  T
 186   -528.4768665  0.282832E-01  0.118E+00    0.00       1.0  T
 187   -528.5108090 -0.339425E-01  0.114E+00    0.00       1.0  T
 188   -528.5200201 -0.921107E-02  0.112E+00    0.00       1.0  T
 189   -528.5270739 -0.705379E-02  0.110E+00    0.00       1.0  T
 190   -528.5524582 -0.253844E-01  0.106E+00    0.01       1.0  T
 191   -528.5744559 -0.219977E-01  0.104E+00    0.00       1.0  T
 192   -528.6100343 -0.355783E-01  0.100E+00    0.00       1.0  T
 193   -528.6519558 -0.419215E-01  0.960E-01    0.00       1.0  T
 194   -528.6635404 -0.115846E-01  0.941E-01    0.00       1.0  T
 195   -528.6869821 -0.234417E-01  0.905E-01    0.00       1.0  T
 196   -528.6985858 -0.116037E-01  0.885E-01    0.00       1.0  T
 197   -528.7188266 -0.202408E-01  0.856E-01    0.01       1.0  T
 198   -528.7521863 -0.333597E-01  0.812E-01    0.00       1.0  T
 199   -528.7646811 -0.124949E-01  0.790E-01    0.00       1.0  T
 200   -528.7981697 -0.334885E-01  0.729E-01    0.01       1.0  T
 201   -528.8175683 -0.193987E-01  0.691E-01    0.01       1.0  T
 202   -528.8394471 -0.218788E-01  0.650E-01    0.01       1.0  T
 203   -528.9022951 -0.628480E-01  0.539E-01    0.00       1.0  T
 204   -528.9010131  0.128201E-02  0.542E-01    0.00       1.0  T
 205   -528.9040753 -0.306226E-02  0.537E-01    0.00       1.0  T
 206   -528.9286589 -0.245835E-01  0.489E-01    0.00       1.0  T
 207   -528.9141261  0.145328E-01  0.518E-01    0.00       1.0  T
 208   -528.9405443 -0.264182E-01  0.464E-01    0.00       1.0  T
 209   -528.9308146  0.972967E-02  0.483E-01    0.00       1.0  T
 210   -528.9373194 -0.650471E-02  0.466E-01    0.00       1.0  T
 211   -528.9404270 -0.310768E-02  0.458E-01    0.00       1.0  T
 212   -528.9359210  0.450604E-02  0.464E-01    0.00       1.0  T
 213   -528.9717031 -0.357821E-01  0.374E-01    0.00       1.0  T
 214   -528.9824155 -0.107124E-01  0.340E-01    0.00       1.0  T
 215   -528.9668567  0.155588E-01  0.382E-01    0.00       1.0  T
 216   -528.9956571 -0.288004E-01  0.294E-01    0.00       1.0  T
 217   -529.0003647 -0.470756E-02  0.271E-01    0.00       1.0  T
 218   -529.0013522 -0.987576E-03  0.263E-01    0.00       1.0  T
 219   -529.0116869 -0.103346E-01  0.217E-01    0.00       1.0  T
 220   -529.0161907 -0.450384E-02  0.184E-01    0.00       1.0  T
 221   -529.0157230  0.467700E-03  0.182E-01    0.00       1.0  T
 222   -529.0142788  0.144417E-02  0.188E-01    0.00       1.0  T
 223   -529.0134965  0.782376E-03  0.187E-01    0.00       1.0  T
 224   -529.0135781 -0.816752E-04  0.184E-01    0.00       1.0  T
 225   -529.0136966 -0.118456E-03  0.179E-01    0.00       1.0  T
 226   -529.0141164 -0.419788E-03  0.175E-01    0.00       1.0  T
 227   -529.0154331 -0.131669E-02  0.167E-01    0.00       1.0  T
 228   -529.0176707 -0.223766E-02  0.150E-01    0.00       1.0  T
 229   -529.0211279 -0.345720E-02  0.115E-01    0.00       1.0  T
 230   -529.0229781 -0.185021E-02  0.971E-02    0.00       1.0  T
 231   -529.0237202 -0.742080E-03  0.851E-02    0.00       1.0  T
 232   -529.0251900 -0.146982E-02  0.628E-02    0.00       1.0  T
 233   -529.0256331 -0.443046E-03  0.534E-02    0.00       1.0  T
 234   -529.0261150 -0.481951E-03  0.452E-02    0.00       1.0  T
 235   -529.0261854 -0.703243E-04  0.424E-02    0.00       1.0  T
 236   -529.0258725  0.312863E-03  0.496E-02    0.00       1.0  T
 237   -529.0263886 -0.516082E-03  0.352E-02    0.00       1.0  T
 238   -529.0264810 -0.923882E-04  0.319E-02    0.00       1.0  T
 239   -529.0265616 -0.806145E-04  0.285E-02    0.00       1.0  T
 240   -529.0266196 -0.580220E-04  0.254E-02    0.00       1.0  T
 241   -529.0266040  0.156292E-04  0.254E-02    0.00       1.0  T
 242   -529.0266950 -0.910054E-04  0.205E-02    0.00       1.0  T
 243   -529.0267556 -0.605889E-04  0.166E-02    0.00       1.0  T
 244   -529.0267982 -0.425952E-04  0.132E-02    0.00       1.0  T
 245   -529.0268208 -0.226567E-04  0.108E-02    0.00       1.0  T
 246   -529.0268425 -0.216897E-04  0.799E-03    0.00       1.0  T
 247   -529.0268453 -0.276419E-05  0.748E-03    0.00       1.0  T
 248   -529.0268453  0.193970E-07  0.682E-03    0.00       1.0  T
 249   -529.0268435  0.175558E-05  0.671E-03    0.00       1.0  T
 250   -529.0268493 -0.578962E-05  0.532E-03    0.00       1.1  T

   *** convergence criteria cannot be satisfied within 250 iterations ***

         #    Occupation            Energy/Eh            Energy/eV
      -------------------------------------------------------------
         1        2.0000           -0.6852264             -18.6460
       ...           ...                  ...                  ...
       484        1.7094           -0.3468968              -9.4395
       485        1.6999           -0.3468608              -9.4386
       486        1.6834           -0.3468004              -9.4369
       487        1.5886           -0.3464950              -9.4286
       488        1.5812           -0.3464735              -9.4280
       489        1.4129           -0.3460429              -9.4163
       490        1.4072           -0.3460298              -9.4159 (HOMO)
       491        1.4019           -0.3460178              -9.4156 (LUMO)
       492        1.3611           -0.3459264              -9.4131
       493        1.2819           -0.3457571              -9.4085
       494        0.0005           -0.3373251              -9.1791
       495        0.0004           -0.3370444              -9.1714
       ...           ...                  ...                  ...
       951                          2.2644225              61.6181
      -------------------------------------------------------------
                  HL-Gap            0.0000120 Eh            0.0003 eV
             Fermi-level           -0.3452021 Eh           -9.3934 eV

 SCC (total)                   0 d,  0 h,  1 min, 12.162 sec
 SCC setup                      ...        0 min,  0.015 sec (  0.020%)
 Dispersion                     ...        0 min,  0.030 sec (  0.041%)
 classical contributions        ...        0 min,  0.002 sec (  0.003%)
 integral evaluation            ...        0 min,  0.229 sec (  0.318%)
 iterations                     ...        1 min, 11.349 sec ( 98.873%)
 molecular gradient             ...        0 min,  0.499 sec (  0.691%)
 printout                       ...        0 min,  0.038 sec (  0.053%)

########################################################################
[ERROR] Program stopped due to fatal error
-3- Single point calculation terminated
-2- xtb_calculator_singlepoint: Electronic structure method terminated
-1- scf: Self consistent charge iterator did not converge
########################################################################
