 Entering Gaussian System
 *********************************************
 Gaussian 98:
 frequency output generated by the xtb code
 *********************************************
                         Standard orientation:
 --------------------------------------------------------------------
  Center     Atomic     Atomic              Coordinates (Angstroms)
  Number     Number      Type              X           Y           Z
 --------------------------------------------------------------------
    1         26             0       16.850792   -0.003592   -0.014988
    2          6             0       19.313379   -3.252208    1.031105
    3          6             0       20.314415   -2.375004    0.785139
    4          6             0       19.689885   -1.157951    0.366089
    5          6             0       20.379172   -0.004264   -0.017634
    6          6             0       19.689192    1.147724   -0.405493
    7          6             0       20.313218    2.360919   -0.836330
    8          6             0       19.311755    3.234461   -1.093304
    9          6             0       18.081640    2.548047   -0.822359
   10          7             0       18.332971    1.265192   -0.412030
   11          6             0       16.846879    3.152426   -0.957322
   12          6             0       15.613220    2.573440   -0.735147
   13          6             0       14.377833    3.289119   -0.896369
   14          6             0       13.381138    2.416623   -0.626116
   15          6             0       14.010587    1.169435   -0.301483
   16          7             0       15.369192    1.280136   -0.364149
   17          6             0       13.340405    0.004095    0.013341
   18          6             0       14.010502   -1.165315    0.312737
   19          6             0       13.380859   -2.412221    0.638341
   20          6             0       14.377929   -3.292394    0.880849
   21          6             0       15.613741   -2.580773    0.705123
   22          7             0       15.369478   -1.283001    0.350248
   23          6             0       16.847934   -3.166499    0.905443
   24          6             0       18.082932   -2.562912    0.768998
   25          7             0       18.333710   -1.275993    0.371559
   26          1             0       19.381813   -4.270726    1.361415
   27          1             0       21.373126   -2.514285    0.881450
   28          1             0       21.371837    2.500280   -0.933766
   29          1             0       19.379713    4.249059   -1.435445
   30          1             0       16.847716    4.186808   -1.270900
   31          1             0       14.306998    4.321632   -1.180100
   32          1             0       12.320771    2.579396   -0.641059
   33          1             0       12.261479    0.006755    0.023287
   34          1             0       12.320120   -2.569738    0.671534
   35          1             0       14.307167   -4.327308    1.155785
   36          1             0       16.848868   -4.204607    1.206529
   37         26             0       39.000999    0.043563   -0.012162
   38          6             0       36.537477    3.229273    1.214099
   39          6             0       35.536410    2.373347    0.902171
   40          6             0       36.162264    1.179521    0.422227
   41          6             0       35.473569    0.047459   -0.021388
   42          6             0       36.162117   -1.084080   -0.466587
   43          6             0       35.536208   -2.273732   -0.956892
   44          6             0       36.537095   -3.130330   -1.267539
   45          6             0       37.768326   -2.456766   -0.969984
   46          7             0       37.518247   -1.199379   -0.486802
   47          6             0       39.003466   -3.046118   -1.156922
   48          6             0       40.237525   -2.475971   -0.914636
   49          6             0       41.473182   -3.173245   -1.141264
   50          6             0       42.470159   -2.318583   -0.819930
   51          6             0       41.840586   -1.101179   -0.397364
   52          7             0       40.481598   -1.211290   -0.455669
   53          6             0       42.510891    0.036299    0.006288
   54          6             0       41.841175    1.176694    0.402675
   55          6             0       42.471407    2.391314    0.832263
   56          6             0       41.474701    3.250623    1.141829
   57          6             0       40.238560    2.558991    0.900927
   58          7             0       40.482174    1.292887    0.445621
   59          6             0       39.004376    3.135316    1.127330
   60          6             0       37.768803    2.550568    0.929053
   61          7             0       37.518527    1.291849    0.449396
   62          1             0       36.468530    4.226766    1.603267
   63          1             0       34.476879    2.512432    0.990627
   64          1             0       34.476884   -2.409176   -1.053519
   65          1             0       36.468107   -4.125268   -1.663165
   66          1             0       39.002920   -4.058944   -1.534382
   67          1             0       41.543876   -4.182202   -1.499894
   68          1             0       43.530833   -2.475337   -0.858323
   69          1             0       43.589839    0.034018    0.011965
   70          1             0       43.532274    2.543177    0.882990
   71          1             0       41.545829    4.259192    1.501486
   72          1             0       39.004058    4.149018    1.502453
   73          6             0       21.780493   -0.003045   -0.015352
   74          6             0       22.993271   -0.008510   -0.014826
   75          6             0       32.859711    0.039778   -0.013800
   76          6             0       34.072302    0.046005   -0.018902
   77         26             0       27.926664    0.014853   -0.000096
   78          6             0       25.482120   -3.406483   -0.149368
   79          6             0       24.475685   -2.501312   -0.161499
   80          6             0       25.091435   -1.212865   -0.073539
   81          6             0       24.394182   -0.002939   -0.010158
   82          6             0       25.078709    1.214025    0.060235
   83          6             0       24.449463    2.495629    0.151846
   84          6             0       25.446892    3.410810    0.153586
   85          6             0       26.679254    2.681970    0.068596
   86          7             0       26.433583    1.334603    0.027241
   87          6             0       27.910426    3.304548    0.008303
   88          6             0       29.147981    2.695581   -0.057764
   89          6             0       30.373129    3.436927   -0.140306
   90          6             0       31.379323    2.531438   -0.149813
   91          6             0       30.762346    1.243139   -0.066296
   92          7             0       29.406666    1.350372   -0.027276
   93          6             0       31.458889    0.032821   -0.007218
   94          6             0       30.775343   -1.184545    0.059536
   95          6             0       31.405523   -2.466068    0.148673
   96          6             0       30.408236   -3.381479    0.151390
   97          6             0       29.175415   -2.652968    0.068163
   98          7             0       29.420595   -1.305576    0.027650
   99          6             0       27.943846   -3.274587    0.006859
  100          6             0       26.706683   -2.664795   -0.061838
  101          7             0       26.447297   -1.319673   -0.030939
  102          1             0       25.420770   -4.476653   -0.195785
  103          1             0       23.418782   -2.667460   -0.232032
  104          1             0       23.390572    2.650851    0.216336
  105          1             0       25.374448    4.479929    0.207446
  106          1             0       27.904561    4.385467    0.012428
  107          1             0       30.435190    4.507114   -0.185318
  108          1             0       32.436685    2.697197   -0.215322
  109          1             0       32.464801   -2.620894    0.210706
  110          1             0       30.481244   -4.450617    0.204384
  111          1             0       27.948707   -4.355526    0.010985
 --------------------------------------------------------------------
     1 basis functions        1 primitive gaussians
     1 alpha electrons        1 beta electrons

 Harmonic frequencies (cm**-1), IR intensities (km*mol⁻¹),
 Raman scattering activities (A**4/amu), Raman depolarization ratios,
 reduced masses (AMU), force constants (mDyne/A) and normal coordinates:
                      1                      2                      3
                        a                      a                      a 
 Frequencies --     3.2523                 6.6145                 7.8137
 Red. masses --    16.6160                14.7205                11.2983
 Frc consts  --     0.0000                 0.0000                 0.0000
 IR Inten    --     0.8385                 2.0834                22.0473
 Raman Activ --     0.0000                 0.0000                 0.0000
 Depolar     --     0.0000                 0.0000                 0.0000
 Atom AN      X      Y      Z        X      Y      Z        X      Y      Z
   1  26    -0.00   0.01   0.14    -0.00  -0.11   0.01    -0.00  -0.01   0.02
   2   6     0.03   0.01   0.01     0.08   0.02   0.05     0.01  -0.06  -0.18
   3   6     0.02   0.01  -0.02     0.06   0.05   0.05     0.01  -0.04  -0.14
   4   6     0.01   0.00  -0.01     0.03   0.03   0.04     0.00  -0.02  -0.07
   5   6    -0.00   0.00  -0.03     0.00   0.04   0.03    -0.00   0.00  -0.01
   6   6    -0.01  -0.00  -0.02    -0.03   0.03   0.03    -0.00   0.02   0.05
   7   6    -0.02  -0.00  -0.05    -0.06   0.04   0.04    -0.01   0.04   0.10
   8   6    -0.03  -0.01  -0.03    -0.08   0.02   0.04    -0.01   0.06   0.16
   9   6    -0.02  -0.00   0.01    -0.06  -0.02   0.03    -0.01   0.04   0.14
  10   7    -0.01  -0.00   0.01    -0.03  -0.01   0.02    -0.01   0.02   0.07
  11   6    -0.03  -0.00   0.04    -0.08  -0.05   0.01    -0.01   0.05   0.19
  12   6    -0.02  -0.00   0.08    -0.06  -0.09  -0.01    -0.01   0.04   0.17
  13   6    -0.02  -0.00   0.11    -0.08  -0.13  -0.03    -0.01   0.05   0.23
  14   6    -0.02   0.00   0.15    -0.06  -0.16  -0.05    -0.01   0.03   0.19
  15   6    -0.01   0.00   0.14    -0.03  -0.14  -0.04    -0.00   0.01   0.10
  16   7    -0.01   0.00   0.11    -0.04  -0.11  -0.02    -0.00   0.02   0.10
  17   6     0.00   0.01   0.17    -0.00  -0.16  -0.06     0.00  -0.01   0.03
  18   6     0.01   0.01   0.16     0.03  -0.14  -0.04     0.00  -0.03  -0.05
  19   6     0.02   0.01   0.19     0.06  -0.15  -0.04     0.01  -0.05  -0.12
  20   6     0.02   0.01   0.16     0.08  -0.12  -0.02     0.01  -0.06  -0.18
  21   6     0.02   0.01   0.12     0.06  -0.09   0.00     0.01  -0.05  -0.14
  22   7     0.01   0.01   0.13     0.03  -0.10  -0.01     0.00  -0.03  -0.07
  23   6     0.02   0.01   0.08     0.08  -0.05   0.03     0.01  -0.06  -0.18
  24   6     0.02   0.01   0.04     0.06  -0.01   0.04     0.01  -0.04  -0.14
  25   7     0.01   0.00   0.03     0.03  -0.01   0.03     0.00  -0.02  -0.08
  26   1     0.01   0.00   0.00     0.03   0.01   0.02     0.00  -0.02  -0.07
  27   1     0.01   0.00  -0.01     0.02   0.02   0.02     0.00  -0.01  -0.04
  28   1    -0.01  -0.00  -0.02    -0.02   0.02   0.02    -0.00   0.01   0.03
  29   1    -0.01  -0.00  -0.01    -0.03   0.01   0.01    -0.00   0.02   0.06
  30   1    -0.01  -0.00   0.01    -0.03  -0.01   0.01    -0.00   0.02   0.07
  31   1    -0.01  -0.00   0.03    -0.03  -0.04  -0.01    -0.00   0.02   0.09
  32   1    -0.00   0.00   0.05    -0.02  -0.05  -0.02    -0.00   0.01   0.06
  33   1     0.00   0.00   0.06    -0.00  -0.06  -0.02     0.00  -0.00   0.01
  34   1     0.01   0.00   0.06     0.02  -0.05  -0.02     0.00  -0.02  -0.04
  35   1     0.01   0.00   0.05     0.03  -0.04  -0.00     0.00  -0.02  -0.07
  36   1     0.01   0.00   0.03     0.03  -0.01   0.01     0.00  -0.02  -0.07
  37  26     0.00  -0.00   0.14    -0.00  -0.12  -0.00     0.00  -0.01   0.02
  38   6    -0.03  -0.01   0.03     0.08   0.02  -0.04     0.01   0.06  -0.16
  39   6    -0.02  -0.01  -0.00     0.06   0.05  -0.04     0.00   0.05  -0.10
  40   6    -0.01  -0.01   0.01     0.03   0.03  -0.03     0.00   0.02  -0.04
  41   6     0.00  -0.00  -0.02     0.00   0.05  -0.03     0.00  -0.00   0.01
  42   6     0.01  -0.00  -0.01    -0.03   0.03  -0.03    -0.00  -0.02   0.07
  43   6     0.02   0.00  -0.03    -0.06   0.05  -0.05    -0.00  -0.04   0.12
  44   6     0.03   0.01  -0.02    -0.08   0.03  -0.05    -0.00  -0.06   0.17
  45   6     0.02   0.01   0.01    -0.06  -0.01  -0.03    -0.00  -0.05   0.14
  46   7     0.01   0.00   0.02    -0.03  -0.01  -0.03    -0.00  -0.03   0.08
  47   6     0.03   0.01   0.04    -0.08  -0.05  -0.02    -0.00  -0.07   0.18
  48   6     0.02   0.01   0.07    -0.06  -0.09   0.00    -0.00  -0.06   0.15
  49   6     0.03   0.01   0.10    -0.08  -0.12   0.02    -0.00  -0.07   0.20
  50   6     0.02   0.01   0.13    -0.06  -0.16   0.05    -0.00  -0.06   0.15
  51   6     0.01   0.00   0.13    -0.03  -0.14   0.05    -0.00  -0.03   0.08
  52   7     0.01   0.00   0.10    -0.03  -0.11   0.02    -0.00  -0.03   0.09
  53   6    -0.00  -0.00   0.15    -0.00  -0.16   0.06    -0.00  -0.01   0.01
  54   6    -0.01  -0.00   0.15     0.03  -0.14   0.05     0.00   0.02  -0.06
  55   6    -0.02  -0.01   0.17     0.06  -0.16   0.06     0.00   0.04  -0.14
  56   6    -0.03  -0.01   0.15     0.08  -0.13   0.04     0.00   0.06  -0.19
  57   6    -0.02  -0.01   0.11     0.06  -0.09   0.02     0.00   0.05  -0.14
  58   7    -0.01  -0.00   0.12     0.03  -0.11   0.03     0.00   0.02  -0.07
  59   6    -0.03  -0.01   0.09     0.08  -0.05  -0.01     0.00   0.06  -0.17
  60   6    -0.02  -0.01   0.05     0.06  -0.01  -0.02     0.00   0.05  -0.13
  61   7    -0.01  -0.01   0.04     0.03  -0.01  -0.02     0.00   0.02  -0.06
  62   1    -0.01  -0.00   0.01     0.03   0.01  -0.01     0.00   0.02  -0.06
  63   1    -0.01  -0.00  -0.01     0.02   0.02  -0.01     0.00   0.01  -0.03
  64   1     0.01   0.00  -0.02    -0.02   0.02  -0.02    -0.00  -0.01   0.04
  65   1     0.01   0.00  -0.01    -0.03   0.01  -0.02    -0.00  -0.02   0.06
  66   1     0.01   0.00   0.01    -0.03  -0.01  -0.01    -0.00  -0.02   0.07
  67   1     0.01   0.00   0.03    -0.03  -0.04   0.00    -0.00  -0.03   0.07
  68   1     0.01   0.00   0.05    -0.02  -0.06   0.02    -0.00  -0.02   0.05
  69   1    -0.00  -0.00   0.05    -0.00  -0.06   0.02    -0.00  -0.00   0.00
  70   1    -0.01  -0.00   0.06     0.02  -0.06   0.02     0.00   0.01  -0.04
  71   1    -0.01  -0.00   0.05     0.03  -0.04   0.01     0.00   0.02  -0.07
  72   1    -0.01  -0.00   0.03     0.03  -0.01  -0.00     0.00   0.02  -0.07
  73   6    -0.00   0.00  -0.07     0.00   0.07   0.03    -0.00   0.00  -0.02
  74   6    -0.00   0.00  -0.09     0.00   0.09   0.02    -0.00   0.01  -0.02
  75   6     0.00  -0.01  -0.07     0.00   0.09  -0.02     0.00   0.00   0.01
  76   6     0.00  -0.01  -0.05     0.00   0.08  -0.03     0.00   0.00   0.01
  77  26    -0.00  -0.00  -0.27     0.00   0.21  -0.01     0.00   0.01  -0.03
  78   6    -0.01   0.00  -0.13     0.00   0.10  -0.00     0.00   0.01  -0.05
  79   6    -0.00   0.00  -0.12     0.00   0.10   0.00     0.00   0.01  -0.05
  80   6    -0.00   0.00  -0.11     0.00   0.10   0.00     0.00   0.01  -0.04
  81   6    -0.00   0.00  -0.11     0.00   0.10   0.01    -0.00   0.01  -0.02
  82   6     0.00   0.00  -0.12    -0.00   0.10  -0.00     0.00   0.01  -0.01
  83   6     0.00   0.00  -0.13    -0.00   0.10  -0.00     0.00   0.01  -0.00
  84   6     0.00   0.00  -0.14    -0.00   0.10  -0.01     0.00   0.00  -0.01
  85   6     0.00   0.00  -0.14    -0.00   0.10  -0.01     0.00   0.00  -0.02
  86   7     0.00   0.00  -0.14    -0.00   0.10  -0.00     0.00   0.01  -0.02
  87   6     0.00  -0.00  -0.14    -0.00   0.10  -0.01     0.00   0.00  -0.03
  88   6     0.00  -0.00  -0.13    -0.00   0.10  -0.01     0.00   0.00  -0.03
  89   6     0.01  -0.01  -0.12    -0.00   0.10  -0.00     0.00   0.00  -0.04
  90   6     0.00  -0.01  -0.10    -0.00   0.10  -0.01     0.00   0.00  -0.04
  91   6     0.00  -0.01  -0.10    -0.00   0.10  -0.01     0.00   0.00  -0.02
  92   7     0.00  -0.00  -0.13    -0.00   0.11  -0.01     0.00   0.00  -0.02
  93   6     0.00  -0.01  -0.09     0.00   0.10  -0.01     0.00   0.00   0.00
  94   6    -0.00  -0.01  -0.10     0.00   0.10  -0.01    -0.00   0.00   0.02
  95   6    -0.00  -0.01  -0.11     0.00   0.10  -0.01    -0.00   0.01   0.04
  96   6    -0.01  -0.01  -0.12     0.00   0.10  -0.01    -0.00   0.01   0.03
  97   6    -0.00  -0.00  -0.13     0.00   0.10  -0.01    -0.00   0.01   0.01
  98   7    -0.00  -0.00  -0.13     0.00   0.11  -0.01    -0.00   0.01   0.00
  99   6    -0.00  -0.00  -0.14     0.00   0.10  -0.01    -0.00   0.01  -0.01
 100   6    -0.00   0.00  -0.13     0.00   0.10  -0.00     0.00   0.01  -0.03
 101   7    -0.00   0.00  -0.13     0.00   0.10  -0.00    -0.00   0.01  -0.03
 102   1    -0.00   0.00  -0.04     0.00   0.03  -0.00     0.00   0.00  -0.02
 103   1    -0.00   0.00  -0.03     0.00   0.03   0.00     0.00   0.00  -0.02
 104   1     0.00   0.00  -0.04    -0.00   0.03  -0.00     0.00   0.00   0.00
 105   1     0.00   0.00  -0.04    -0.00   0.03  -0.00     0.00   0.00  -0.00
 106   1     0.00  -0.00  -0.04    -0.00   0.03  -0.00     0.00   0.00  -0.01
 107   1     0.00  -0.00  -0.04    -0.00   0.03  -0.00     0.00   0.00  -0.02
 108   1     0.00  -0.00  -0.03    -0.00   0.03  -0.00     0.00   0.00  -0.01
 109   1    -0.00  -0.00  -0.03     0.00   0.03  -0.00    -0.00   0.00   0.02
 110   1    -0.00  -0.00  -0.04     0.00   0.03  -0.00    -0.00   0.00   0.01
 111   1    -0.00  -0.00  -0.04     0.00   0.03  -0.00    -0.00   0.00  -0.00
                      4                      5                      6
                        a                      a                      a 
 Frequencies --    11.4413                12.1205                15.4319
 Red. masses --    11.8340                11.7499                11.2094
 Frc consts  --     0.0000                 0.0000                 0.0000
 IR Inten    --     0.0475                12.6700                84.9875
 Raman Activ --     0.0000                 0.0000                 0.0000
 Depolar     --     0.0000                 0.0000                 0.0000
 Atom AN      X      Y      Z        X      Y      Z        X      Y      Z
   1  26    -0.00   0.04   0.05     0.00  -0.00  -0.02     0.00   0.00   0.01
   2   6    -0.01   0.05   0.15    -0.08  -0.08  -0.06     0.00   0.02   0.07
   3   6    -0.01   0.05   0.17    -0.06  -0.09  -0.04     0.00   0.01   0.04
   4   6    -0.01   0.04   0.13    -0.03  -0.07  -0.02     0.00   0.01   0.02
   5   6    -0.00   0.04   0.15     0.00  -0.09  -0.01     0.00   0.00   0.01
   6   6     0.00   0.04   0.14     0.03  -0.07  -0.02     0.00  -0.00  -0.01
   7   6     0.01   0.06   0.19     0.06  -0.09  -0.03     0.00  -0.01  -0.02
   8   6     0.01   0.06   0.18     0.08  -0.07  -0.04     0.00  -0.02  -0.05
   9   6     0.01   0.04   0.12     0.06  -0.04  -0.03     0.00  -0.02  -0.06
  10   7     0.00   0.04   0.11     0.03  -0.04  -0.02     0.00  -0.01  -0.03
  11   6     0.01   0.03   0.08     0.08  -0.01  -0.03     0.00  -0.03  -0.10
  12   6     0.00   0.01  -0.00     0.06   0.03  -0.00     0.00  -0.03  -0.10
  13   6     0.00  -0.01  -0.07     0.08   0.06   0.01    -0.00  -0.04  -0.14
  14   6    -0.00  -0.03  -0.16     0.06   0.10   0.04    -0.00  -0.03  -0.12
  15   6    -0.00  -0.02  -0.14     0.03   0.08   0.04     0.00  -0.02  -0.06
  16   7     0.00  -0.00  -0.05     0.03   0.04   0.01     0.00  -0.01  -0.05
  17   6    -0.00  -0.04  -0.20     0.00   0.10   0.05     0.00  -0.00  -0.01
  18   6    -0.00  -0.03  -0.16    -0.03   0.08   0.03     0.00   0.01   0.05
  19   6    -0.00  -0.04  -0.19    -0.06   0.09   0.03     0.00   0.03   0.11
  20   6    -0.00  -0.02  -0.12    -0.08   0.06  -0.00     0.00   0.04   0.14
  21   6    -0.01   0.00  -0.04    -0.06   0.03  -0.02     0.00   0.03   0.10
  22   7    -0.00  -0.01  -0.07    -0.03   0.04   0.00     0.00   0.01   0.05
  23   6    -0.01   0.02   0.04    -0.07  -0.01  -0.04     0.00   0.03   0.11
  24   6    -0.01   0.03   0.09    -0.06  -0.04  -0.04     0.00   0.02   0.07
  25   7    -0.00   0.04   0.10    -0.03  -0.05  -0.03     0.00   0.01   0.04
  26   1    -0.00   0.02   0.05    -0.03  -0.02  -0.02     0.00   0.01   0.03
  27   1    -0.00   0.02   0.06    -0.02  -0.04  -0.01     0.00   0.00   0.01
  28   1     0.00   0.02   0.06     0.02  -0.03  -0.01     0.00  -0.00  -0.00
  29   1     0.01   0.02   0.06     0.03  -0.02  -0.02     0.00  -0.01  -0.02
  30   1     0.00   0.01   0.03     0.03  -0.00  -0.01     0.00  -0.01  -0.04
  31   1     0.00  -0.00  -0.02     0.03   0.02   0.00    -0.00  -0.01  -0.05
  32   1    -0.00  -0.01  -0.07     0.02   0.04   0.02    -0.00  -0.01  -0.04
  33   1    -0.00  -0.02  -0.08     0.00   0.04   0.02     0.00  -0.00  -0.00
  34   1    -0.00  -0.02  -0.08    -0.02   0.04   0.01     0.00   0.01   0.03
  35   1    -0.00  -0.00  -0.03    -0.03   0.02  -0.00     0.00   0.01   0.05
  36   1    -0.00   0.01   0.02    -0.03  -0.00  -0.02     0.00   0.01   0.04
  37  26     0.00   0.02   0.00    -0.00   0.03  -0.05     0.00   0.00   0.00
  38   6    -0.07  -0.02  -0.08     0.03   0.09  -0.16     0.00   0.03  -0.08
  39   6    -0.05  -0.04  -0.09     0.02   0.10  -0.16     0.00   0.02  -0.04
  40   6    -0.03  -0.03  -0.07     0.01   0.08  -0.12    -0.00   0.01  -0.02
  41   6     0.00  -0.04  -0.08    -0.00   0.09  -0.12    -0.00  -0.00  -0.00
  42   6     0.03  -0.03  -0.06    -0.01   0.08  -0.11     0.00  -0.01   0.02
  43   6     0.05  -0.04  -0.08    -0.02   0.10  -0.15     0.00  -0.01   0.03
  44   6     0.07  -0.03  -0.06    -0.03   0.09  -0.15     0.00  -0.02   0.06
  45   6     0.06  -0.01  -0.03    -0.03   0.06  -0.10     0.00  -0.02   0.07
  46   7     0.03  -0.01  -0.04    -0.01   0.06  -0.09     0.00  -0.01   0.04
  47   6     0.07   0.01   0.00    -0.03   0.03  -0.06     0.00  -0.04   0.11
  48   6     0.06   0.02   0.04    -0.03  -0.01   0.02     0.00  -0.04   0.11
  49   6     0.07   0.04   0.08    -0.04  -0.05   0.09     0.00  -0.05   0.16
  50   6     0.05   0.05   0.11    -0.03  -0.09   0.17     0.00  -0.04   0.13
  51   6     0.02   0.04   0.09    -0.02  -0.08   0.14     0.00  -0.02   0.07
  52   7     0.03   0.03   0.05    -0.02  -0.03   0.06     0.00  -0.02   0.06
  53   6    -0.00   0.05   0.11    -0.00  -0.10   0.19     0.00  -0.00   0.01
  54   6    -0.03   0.04   0.08     0.01  -0.07   0.14     0.00   0.02  -0.05
  55   6    -0.05   0.05   0.09     0.02  -0.09   0.16    -0.00   0.04  -0.11
  56   6    -0.07   0.04   0.06     0.03  -0.05   0.08    -0.00   0.06  -0.15
  57   6    -0.06   0.03   0.02     0.03  -0.01   0.01    -0.00   0.04  -0.11
  58   7    -0.03   0.03   0.04     0.01  -0.03   0.05     0.00   0.02  -0.05
  59   6    -0.07   0.02  -0.02     0.03   0.03  -0.07    -0.00   0.04  -0.12
  60   6    -0.06  -0.00  -0.04     0.02   0.06  -0.11    -0.00   0.03  -0.08
  61   7    -0.03  -0.01  -0.05     0.01   0.06  -0.10    -0.00   0.01  -0.04
  62   1    -0.03  -0.01  -0.02     0.01   0.03  -0.05    -0.00   0.01  -0.03
  63   1    -0.02  -0.01  -0.03     0.01   0.04  -0.06     0.00   0.00  -0.01
  64   1     0.02  -0.02  -0.03    -0.01   0.04  -0.05     0.00  -0.00   0.01
  65   1     0.03  -0.01  -0.02    -0.01   0.03  -0.05     0.00  -0.01   0.02
  66   1     0.03   0.00   0.00    -0.01   0.01  -0.02     0.00  -0.01   0.04
  67   1     0.03   0.01   0.02    -0.01  -0.01   0.02     0.00  -0.02   0.06
  68   1     0.02   0.02   0.04    -0.01  -0.04   0.07     0.00  -0.01   0.04
  69   1    -0.00   0.02   0.04    -0.00  -0.04   0.08     0.00  -0.00   0.01
  70   1    -0.02   0.02   0.04     0.01  -0.04   0.07    -0.00   0.01  -0.04
  71   1    -0.03   0.01   0.02     0.01  -0.01   0.02    -0.00   0.02  -0.06
  72   1    -0.03   0.01  -0.01     0.01   0.01  -0.03    -0.00   0.02  -0.04
  73   6    -0.00   0.04   0.15     0.00  -0.10   0.01     0.00   0.00   0.00
  74   6    -0.00   0.03   0.14     0.00  -0.10   0.04     0.00   0.00   0.00
  75   6     0.00  -0.06  -0.12    -0.00   0.08  -0.09    -0.00  -0.00  -0.00
  76   6     0.00  -0.06  -0.11    -0.00   0.09  -0.11    -0.00  -0.00  -0.00
  77  26     0.00  -0.05  -0.05     0.00  -0.02   0.07    -0.00  -0.00  -0.01
  78   6    -0.04   0.00   0.06     0.07  -0.06   0.09    -0.00   0.01  -0.23
  79   6    -0.03   0.01   0.10     0.05  -0.08   0.08    -0.00   0.01  -0.17
  80   6    -0.01   0.01   0.08     0.02  -0.07   0.06    -0.00   0.00  -0.08
  81   6    -0.00   0.01   0.10     0.00  -0.08   0.05     0.00   0.00   0.00
  82   6     0.01   0.01   0.08    -0.02  -0.07   0.06    -0.00  -0.00   0.08
  83   6     0.03   0.01   0.10    -0.05  -0.08   0.08    -0.00  -0.01   0.16
  84   6     0.04   0.00   0.05    -0.07  -0.06   0.09    -0.00  -0.01   0.22
  85   6     0.03  -0.01   0.01    -0.05  -0.04   0.07    -0.00  -0.01   0.18
  86   7     0.02  -0.01   0.03    -0.03  -0.04   0.06    -0.00  -0.00   0.09
  87   6     0.03  -0.02  -0.05    -0.06  -0.01   0.06    -0.00  -0.00   0.22
  88   6     0.02  -0.03  -0.09    -0.05   0.01   0.02    -0.00   0.00   0.17
  89   6     0.03  -0.05  -0.13    -0.07   0.04  -0.00    -0.00   0.01   0.21
  90   6     0.02  -0.06  -0.14    -0.05   0.06  -0.04    -0.00   0.01   0.15
  91   6     0.01  -0.05  -0.11    -0.03   0.05  -0.03    -0.00   0.00   0.07
  92   7     0.01  -0.04  -0.08    -0.03   0.02   0.00    -0.00  -0.00   0.09
  93   6     0.00  -0.06  -0.11    -0.00   0.06  -0.06    -0.00  -0.00  -0.00
  94   6    -0.01  -0.05  -0.10     0.03   0.05  -0.03    -0.00  -0.01  -0.08
  95   6    -0.02  -0.06  -0.13     0.05   0.06  -0.04    -0.00  -0.01  -0.16
  96   6    -0.03  -0.05  -0.11     0.07   0.04   0.00    -0.00  -0.01  -0.22
  97   6    -0.02  -0.03  -0.07     0.05   0.01   0.03    -0.00  -0.01  -0.18
  98   7    -0.01  -0.04  -0.08     0.03   0.02   0.00    -0.00  -0.00  -0.10
  99   6    -0.03  -0.02  -0.03     0.07  -0.01   0.06    -0.00  -0.00  -0.23
 100   6    -0.03  -0.01   0.02     0.05  -0.04   0.07    -0.00   0.00  -0.18
 101   7    -0.02  -0.01   0.03     0.03  -0.04   0.06    -0.00   0.00  -0.10
 102   1    -0.01   0.00   0.02     0.03  -0.02   0.03    -0.00   0.00  -0.09
 103   1    -0.01   0.01   0.04     0.01  -0.03   0.03    -0.00   0.00  -0.05
 104   1     0.01   0.01   0.04    -0.01  -0.03   0.03    -0.00  -0.00   0.05
 105   1     0.02   0.00   0.01    -0.02  -0.02   0.03    -0.00  -0.00   0.09
 106   1     0.01  -0.01  -0.02    -0.03  -0.00   0.02     0.00  -0.00   0.08
 107   1     0.01  -0.01  -0.04    -0.03   0.01   0.00    -0.00   0.00   0.08
 108   1     0.01  -0.02  -0.05    -0.02   0.02  -0.02    -0.00   0.00   0.04
 109   1    -0.01  -0.02  -0.04     0.02   0.02  -0.02    -0.00  -0.00  -0.05
 110   1    -0.01  -0.01  -0.03     0.03   0.01   0.00    -0.00  -0.00  -0.08
 111   1    -0.01  -0.01  -0.01     0.03  -0.00   0.02    -0.00  -0.00  -0.09
                      7                      8                      9
                        a                      a                      a 
 Frequencies --    23.9618                30.2484                31.2376
 Red. masses --    13.1843                12.7002                10.9334
 Frc consts  --     0.0000                 0.0000                 0.0000
 IR Inten    --     2.3213                12.3187                97.5207
 Raman Activ --     0.0000                 0.0000                 0.0000
 Depolar     --     0.0000                 0.0000                 0.0000
 Atom AN      X      Y      Z        X      Y      Z        X      Y      Z
   1  26     0.00   0.01  -0.08     0.00  -0.06  -0.07    -0.01  -0.00  -0.00
   2   6     0.08   0.04  -0.12    -0.02  -0.07  -0.13    -0.01   0.05   0.15
   3   6     0.06   0.07  -0.11    -0.01  -0.05  -0.04    -0.01   0.05   0.15
   4   6     0.03   0.06  -0.08    -0.01  -0.03   0.00    -0.01   0.02   0.07
   5   6     0.00   0.08  -0.08    -0.00  -0.02   0.06    -0.00  -0.00   0.00
   6   6    -0.03   0.06  -0.08     0.01  -0.03   0.02    -0.01  -0.03  -0.07
   7   6    -0.06   0.07  -0.10     0.01  -0.04  -0.01    -0.01  -0.05  -0.15
   8   6    -0.08   0.04  -0.12     0.02  -0.06  -0.10    -0.01  -0.05  -0.15
   9   6    -0.07   0.02  -0.10     0.01  -0.06  -0.11    -0.01  -0.03  -0.07
  10   7    -0.03   0.03  -0.08     0.01  -0.04  -0.04    -0.01  -0.01  -0.04
  11   6    -0.08  -0.01  -0.08     0.01  -0.06  -0.14    -0.00  -0.00  -0.00
  12   6    -0.06  -0.03  -0.02     0.01  -0.03  -0.08    -0.00   0.02   0.07
  13   6    -0.08  -0.04   0.03     0.02  -0.02  -0.04     0.00   0.04   0.15
  14   6    -0.06  -0.05   0.10     0.02   0.02   0.08     0.00   0.04   0.16
  15   6    -0.03  -0.04   0.09     0.01   0.02   0.09    -0.00   0.02   0.08
  16   7    -0.03  -0.02   0.02     0.01  -0.01   0.00    -0.00   0.01   0.04
  17   6     0.00  -0.04   0.13     0.00   0.05   0.16    -0.00   0.00   0.01
  18   6     0.03  -0.03   0.09    -0.01   0.03   0.11    -0.00  -0.02  -0.07
  19   6     0.06  -0.05   0.11    -0.01   0.03   0.10    -0.00  -0.04  -0.15
  20   6     0.08  -0.04   0.04    -0.02  -0.01  -0.01    -0.00  -0.04  -0.15
  21   6     0.06  -0.02  -0.02    -0.01  -0.03  -0.07    -0.00  -0.02  -0.07
  22   7     0.03  -0.02   0.02    -0.01  -0.01   0.01    -0.00  -0.01  -0.04
  23   6     0.08  -0.01  -0.08    -0.02  -0.06  -0.15    -0.00  -0.00  -0.01
  24   6     0.07   0.02  -0.10    -0.01  -0.06  -0.12    -0.01   0.02   0.06
  25   7     0.03   0.03  -0.08    -0.01  -0.04  -0.05    -0.01   0.01   0.03
  26   1     0.03   0.01  -0.04    -0.01  -0.03  -0.06    -0.00   0.02   0.05
  27   1     0.02   0.03  -0.03    -0.00  -0.02  -0.00    -0.00   0.02   0.06
  28   1    -0.02   0.03  -0.03     0.01  -0.01   0.01    -0.00  -0.02  -0.06
  29   1    -0.03   0.01  -0.04     0.01  -0.02  -0.04    -0.00  -0.02  -0.06
  30   1    -0.03  -0.01  -0.03     0.01  -0.02  -0.06    -0.00  -0.00  -0.00
  31   1    -0.03  -0.01   0.00     0.01  -0.01  -0.03     0.00   0.02   0.06
  32   1    -0.02  -0.02   0.04     0.01   0.01   0.04     0.00   0.02   0.06
  33   1     0.00  -0.01   0.06     0.00   0.02   0.07    -0.00   0.00   0.00
  34   1     0.02  -0.02   0.05    -0.00   0.02   0.05    -0.00  -0.02  -0.06
  35   1     0.03  -0.01   0.01    -0.01  -0.01  -0.02    -0.00  -0.02  -0.06
  36   1     0.03  -0.00  -0.03    -0.01  -0.02  -0.06    -0.00  -0.00  -0.00
  37  26    -0.00  -0.01  -0.08    -0.00  -0.07   0.07     0.01  -0.00   0.00
  38   6    -0.08  -0.04  -0.12    -0.02  -0.08   0.11     0.01  -0.07   0.18
  39   6    -0.06  -0.07  -0.11    -0.02  -0.05   0.03     0.01  -0.07   0.18
  40   6    -0.03  -0.06  -0.09    -0.01  -0.03  -0.00     0.00  -0.03   0.08
  41   6    -0.00  -0.08  -0.08    -0.00  -0.02  -0.05     0.00  -0.00  -0.00
  42   6     0.03  -0.06  -0.08     0.01  -0.03  -0.00     0.01   0.03  -0.08
  43   6     0.06  -0.07  -0.11     0.02  -0.05   0.03     0.01   0.07  -0.18
  44   6     0.08  -0.04  -0.12     0.02  -0.08   0.11     0.01   0.07  -0.17
  45   6     0.06  -0.01  -0.10     0.01  -0.07   0.11     0.01   0.03  -0.08
  46   7     0.03  -0.03  -0.08     0.01  -0.05   0.05     0.01   0.02  -0.04
  47   6     0.08   0.01  -0.08     0.02  -0.07   0.14     0.00  -0.00   0.01
  48   6     0.06   0.02  -0.02     0.02  -0.04   0.07     0.00  -0.03   0.08
  49   6     0.08   0.04   0.03     0.02  -0.02   0.03     0.00  -0.06   0.17
  50   6     0.06   0.04   0.10     0.02   0.03  -0.08     0.00  -0.06   0.17
  51   6     0.03   0.03   0.09     0.01   0.03  -0.09     0.00  -0.03   0.08
  52   7     0.03   0.02   0.02     0.01  -0.01  -0.00     0.00  -0.02   0.05
  53   6    -0.00   0.03   0.13     0.00   0.06  -0.15     0.00   0.00  -0.00
  54   6    -0.03   0.02   0.09    -0.01   0.03  -0.10     0.00   0.03  -0.08
  55   6    -0.06   0.04   0.11    -0.02   0.04  -0.09     0.00   0.06  -0.18
  56   6    -0.08   0.04   0.03    -0.02  -0.01   0.02     0.00   0.06  -0.17
  57   6    -0.06   0.02  -0.02    -0.02  -0.03   0.06     0.00   0.03  -0.08
  58   7    -0.03   0.02   0.02    -0.01  -0.01  -0.01     0.00   0.02  -0.05
  59   6    -0.08   0.01  -0.08    -0.02  -0.07   0.13     0.00  -0.00   0.00
  60   6    -0.06  -0.01  -0.10    -0.02  -0.07   0.11     0.00  -0.03   0.08
  61   7    -0.03  -0.03  -0.08    -0.01  -0.05   0.05     0.00  -0.02   0.04
  62   1    -0.03  -0.01  -0.04    -0.01  -0.03   0.05     0.00  -0.03   0.07
  63   1    -0.02  -0.03  -0.03    -0.01  -0.01  -0.00     0.00  -0.03   0.07
  64   1     0.02  -0.03  -0.03     0.01  -0.01  -0.00     0.00   0.03  -0.07
  65   1     0.03  -0.01  -0.04     0.01  -0.03   0.05     0.00   0.03  -0.06
  66   1     0.03   0.01  -0.03     0.01  -0.03   0.06     0.00  -0.00   0.00
  67   1     0.03   0.01   0.00     0.01  -0.01   0.02     0.00  -0.02   0.07
  68   1     0.02   0.01   0.05     0.01   0.02  -0.04    -0.00  -0.02   0.06
  69   1    -0.00   0.01   0.06     0.00   0.03  -0.06     0.00   0.00  -0.00
  70   1    -0.02   0.01   0.05    -0.00   0.02  -0.04     0.00   0.02  -0.07
  71   1    -0.03   0.01   0.01    -0.01  -0.01   0.02     0.00   0.02  -0.06
  72   1    -0.03   0.01  -0.03    -0.01  -0.03   0.05     0.00  -0.00   0.00
  73   6    -0.00   0.11  -0.07    -0.00   0.00   0.12    -0.00   0.00   0.00
  74   6    -0.00   0.10  -0.05    -0.00   0.04   0.15    -0.00   0.00   0.01
  75   6    -0.00  -0.10  -0.05    -0.00   0.04  -0.14     0.00   0.00  -0.01
  76   6    -0.00  -0.10  -0.07    -0.00   0.00  -0.11     0.00  -0.00  -0.01
  77  26    -0.00   0.00   0.16    -0.00   0.11  -0.00     0.00   0.00   0.00
  78   6    -0.07   0.05   0.08    -0.01   0.05   0.11    -0.01  -0.01   0.18
  79   6    -0.05   0.07   0.02    -0.00   0.05   0.15    -0.01  -0.01   0.18
  80   6    -0.02   0.06   0.02    -0.00   0.05   0.12    -0.01  -0.00   0.09
  81   6    -0.00   0.08  -0.01    -0.00   0.05   0.15    -0.00   0.00   0.00
  82   6     0.02   0.06   0.02     0.00   0.05   0.13    -0.00   0.01  -0.08
  83   6     0.05   0.07   0.02     0.01   0.05   0.17    -0.01   0.01  -0.17
  84   6     0.07   0.05   0.08     0.01   0.05   0.13    -0.01   0.01  -0.17
  85   6     0.05   0.03   0.10     0.00   0.05   0.07    -0.00   0.01  -0.08
  86   7     0.03   0.04   0.07    -0.00   0.05   0.08    -0.00   0.00  -0.04
  87   6     0.07   0.00   0.13    -0.00   0.05  -0.00     0.00   0.00  -0.00
  88   6     0.05  -0.02   0.11    -0.00   0.05  -0.07     0.01   0.00   0.08
  89   6     0.07  -0.05   0.09    -0.01   0.05  -0.13     0.01   0.01   0.17
  90   6     0.05  -0.07   0.03    -0.01   0.05  -0.17     0.01   0.01   0.17
  91   6     0.02  -0.06   0.02    -0.00   0.05  -0.13     0.01   0.01   0.07
  92   7     0.03  -0.03   0.07    -0.00   0.05  -0.08     0.00   0.00   0.04
  93   6     0.00  -0.07  -0.01    -0.00   0.05  -0.14     0.00   0.00  -0.01
  94   6    -0.02  -0.06   0.02     0.00   0.05  -0.12     0.00  -0.00  -0.08
  95   6    -0.05  -0.07   0.02     0.01   0.05  -0.15     0.01  -0.01  -0.18
  96   6    -0.07  -0.05   0.08     0.01   0.05  -0.12     0.01  -0.01  -0.17
  97   6    -0.05  -0.02   0.10     0.00   0.05  -0.07     0.00  -0.00  -0.08
  98   7    -0.03  -0.03   0.07     0.00   0.05  -0.08     0.00  -0.00  -0.05
  99   6    -0.07   0.00   0.13     0.00   0.05  -0.01    -0.00   0.00   0.00
 100   6    -0.05   0.03   0.10    -0.00   0.05   0.06    -0.01  -0.00   0.08
 101   7    -0.03   0.04   0.07     0.00   0.05   0.07    -0.00   0.00   0.05
 102   1    -0.03   0.02   0.03    -0.00   0.01   0.03    -0.00  -0.00   0.07
 103   1    -0.01   0.03  -0.00    -0.00   0.01   0.06    -0.00  -0.00   0.07
 104   1     0.01   0.03  -0.01     0.00   0.01   0.06    -0.00   0.00  -0.06
 105   1     0.03   0.02   0.03     0.00   0.01   0.04    -0.00   0.00  -0.06
 106   1     0.03   0.00   0.05    -0.00   0.01  -0.00     0.00   0.00  -0.00
 107   1     0.03  -0.01   0.03    -0.00   0.01  -0.04     0.00   0.00   0.06
 108   1     0.01  -0.03  -0.00    -0.00   0.01  -0.06     0.00   0.00   0.06
 109   1    -0.01  -0.03  -0.00     0.00   0.01  -0.06     0.00  -0.00  -0.07
 110   1    -0.03  -0.01   0.03     0.00   0.01  -0.04     0.00  -0.00  -0.07
 111   1    -0.03   0.00   0.05     0.00   0.01  -0.00    -0.00   0.00   0.00
                     10                     11                     12
                        a                      a                      a 
 Frequencies --    34.8653                39.5170                41.5158
 Red. masses --    10.9652                11.4795                11.4004
 Frc consts  --     0.0000                 0.0000                 0.0000
 IR Inten    --   152.1261                 4.3450                21.7393
 Raman Activ --     0.0000                 0.0000                 0.0000
 Depolar     --     0.0000                 0.0000                 0.0000
 Atom AN      X      Y      Z        X      Y      Z        X      Y      Z
   1  26     0.01  -0.00  -0.00     0.07   0.00  -0.00     0.00  -0.03  -0.03
   2   6    -0.00   0.07   0.23     0.04   0.05   0.13    -0.02  -0.04  -0.05
   3   6    -0.00   0.07   0.22     0.03   0.04   0.11    -0.02  -0.01   0.07
   4   6    -0.00   0.03   0.10     0.03   0.02   0.05    -0.01   0.00   0.10
   5   6    -0.00  -0.00   0.00     0.02   0.00  -0.01    -0.00   0.02   0.16
   6   6     0.00  -0.04  -0.10     0.03  -0.02  -0.06     0.01  -0.00   0.09
   7   6    -0.00  -0.08  -0.22     0.03  -0.04  -0.12     0.02  -0.02   0.05
   8   6    -0.00  -0.08  -0.23     0.03  -0.04  -0.13     0.02  -0.05  -0.08
   9   6     0.00  -0.04  -0.12     0.03  -0.02  -0.07     0.01  -0.05  -0.10
  10   7     0.00  -0.02  -0.06     0.03  -0.01  -0.04     0.01  -0.02   0.00
  11   6     0.01  -0.01  -0.03     0.03  -0.00  -0.02     0.02  -0.06  -0.16
  12   6     0.01   0.02   0.08     0.03   0.01   0.04     0.01  -0.03  -0.10
  13   6     0.01   0.05   0.19     0.04   0.03   0.09     0.02  -0.02  -0.07
  14   6     0.01   0.06   0.20     0.04   0.02   0.10     0.02   0.03   0.05
  15   6     0.01   0.03   0.10     0.04   0.01   0.04     0.01   0.03   0.09
  16   7     0.01   0.01   0.05     0.04   0.01   0.02     0.01  -0.00  -0.00
  17   6     0.01   0.00   0.01     0.04  -0.00  -0.01     0.00   0.05   0.15
  18   6     0.01  -0.02  -0.09     0.04  -0.02  -0.05    -0.01   0.03   0.08
  19   6     0.01  -0.05  -0.19     0.04  -0.03  -0.10    -0.01   0.02   0.04
  20   6     0.01  -0.05  -0.19     0.04  -0.02  -0.08    -0.02  -0.02  -0.08
  21   6     0.01  -0.02  -0.08     0.04  -0.01  -0.03    -0.01  -0.03  -0.10
  22   7     0.01  -0.01  -0.05     0.04  -0.01  -0.02    -0.01  -0.00  -0.00
  23   6     0.00   0.00   0.02     0.04   0.01   0.04    -0.02  -0.06  -0.16
  24   6     0.00   0.03   0.11     0.03   0.02   0.08    -0.01  -0.04  -0.08
  25   7     0.00   0.02   0.06     0.03   0.01   0.04    -0.01  -0.02   0.01
  26   1    -0.00   0.03   0.09     0.01   0.02   0.05    -0.01  -0.02  -0.03
  27   1    -0.00   0.03   0.08     0.01   0.02   0.04    -0.01  -0.00   0.04
  28   1    -0.00  -0.03  -0.08     0.01  -0.01  -0.04     0.01  -0.00   0.03
  29   1    -0.00  -0.03  -0.09     0.01  -0.01  -0.05     0.01  -0.02  -0.04
  30   1     0.00  -0.00  -0.01     0.01  -0.00  -0.01     0.01  -0.02  -0.07
  31   1     0.00   0.02   0.07     0.01   0.01   0.04     0.01  -0.01  -0.04
  32   1     0.00   0.02   0.08     0.01   0.01   0.04     0.01   0.01   0.03
  33   1     0.00   0.00   0.00     0.01  -0.00  -0.00     0.00   0.02   0.06
  34   1     0.00  -0.02  -0.07     0.01  -0.01  -0.04    -0.00   0.01   0.03
  35   1     0.00  -0.02  -0.07     0.01  -0.01  -0.03    -0.01  -0.01  -0.04
  36   1     0.00   0.00   0.01     0.01   0.00   0.01    -0.01  -0.02  -0.07
  37  26     0.00  -0.00   0.00    -0.07  -0.00  -0.00    -0.00   0.05  -0.02
  38   6    -0.00   0.07  -0.20    -0.04  -0.06   0.14     0.03   0.06  -0.05
  39   6    -0.00   0.07  -0.19    -0.03  -0.05   0.12     0.03   0.03   0.07
  40   6    -0.00   0.03  -0.09    -0.03  -0.02   0.05     0.01   0.01   0.10
  41   6    -0.00  -0.00  -0.00    -0.02  -0.00  -0.01    -0.00  -0.00   0.15
  42   6    -0.00  -0.04   0.09    -0.03   0.02  -0.06    -0.01   0.01   0.09
  43   6    -0.00  -0.08   0.19    -0.03   0.05  -0.13    -0.03   0.04   0.05
  44   6     0.00  -0.08   0.21    -0.03   0.05  -0.14    -0.03   0.07  -0.07
  45   6     0.00  -0.04   0.11    -0.03   0.02  -0.07    -0.02   0.06  -0.09
  46   7     0.00  -0.02   0.06    -0.03   0.01  -0.04    -0.01   0.03   0.01
  47   6     0.00  -0.01   0.03    -0.03   0.00  -0.02    -0.03   0.07  -0.15
  48   6     0.01   0.02  -0.06    -0.03  -0.02   0.03    -0.03   0.04  -0.09
  49   6     0.01   0.06  -0.16    -0.03  -0.03   0.09    -0.03   0.02  -0.07
  50   6     0.01   0.06  -0.17    -0.04  -0.03   0.10    -0.03  -0.03   0.04
  51   6     0.00   0.03  -0.08    -0.04  -0.02   0.04    -0.01  -0.04   0.07
  52   7     0.00   0.01  -0.04    -0.04  -0.01   0.02    -0.01   0.00  -0.00
  53   6     0.00   0.00  -0.01    -0.04   0.00  -0.01    -0.00  -0.07   0.13
  54   6     0.00  -0.03   0.07    -0.04   0.02  -0.05     0.01  -0.04   0.07
  55   6     0.00  -0.06   0.16    -0.04   0.04  -0.10     0.02  -0.03   0.04
  56   6     0.00  -0.06   0.16    -0.04   0.03  -0.09     0.03   0.02  -0.07
  57   6     0.00  -0.03   0.07    -0.04   0.01  -0.03     0.03   0.04  -0.09
  58   7     0.00  -0.01   0.04    -0.04   0.01  -0.02     0.01   0.00  -0.00
  59   6    -0.00   0.00  -0.02    -0.04  -0.01   0.04     0.03   0.07  -0.14
  60   6    -0.00   0.03  -0.10    -0.03  -0.03   0.08     0.02   0.06  -0.07
  61   7    -0.00   0.02  -0.05    -0.03  -0.01   0.04     0.01   0.03   0.01
  62   1    -0.00   0.03  -0.07    -0.01  -0.02   0.05     0.01   0.02  -0.03
  63   1    -0.00   0.03  -0.07    -0.01  -0.02   0.04     0.01   0.01   0.04
  64   1    -0.00  -0.03   0.07    -0.01   0.02  -0.04    -0.01   0.01   0.03
  65   1     0.00  -0.03   0.08    -0.01   0.02  -0.05    -0.01   0.03  -0.04
  66   1     0.00  -0.00   0.01    -0.01   0.00  -0.01    -0.01   0.03  -0.06
  67   1     0.00   0.02  -0.06    -0.01  -0.01   0.04    -0.01   0.01  -0.04
  68   1     0.00   0.02  -0.07    -0.01  -0.01   0.04    -0.01  -0.02   0.03
  69   1     0.00   0.00  -0.00    -0.01   0.00  -0.00    -0.00  -0.03   0.06
  70   1     0.00  -0.02   0.06    -0.01   0.01  -0.04     0.01  -0.02   0.03
  71   1    -0.00  -0.02   0.06    -0.01   0.01  -0.03     0.01   0.01  -0.04
  72   1    -0.00   0.00  -0.01    -0.01  -0.00   0.02     0.01   0.03  -0.06
  73   6    -0.00  -0.00   0.00     0.02  -0.00  -0.01    -0.00   0.03   0.21
  74   6    -0.00   0.00   0.01     0.02  -0.00  -0.01    -0.00   0.06   0.20
  75   6    -0.00   0.00  -0.01    -0.02   0.00  -0.01     0.00  -0.07   0.20
  76   6    -0.00  -0.00  -0.01    -0.02   0.00  -0.01     0.00  -0.02   0.20
  77  26    -0.01   0.01  -0.00    -0.00   0.00   0.01    -0.00  -0.01  -0.03
  78   6    -0.01   0.00  -0.03     0.01   0.01  -0.22    -0.06   0.04  -0.10
  79   6    -0.01   0.01  -0.01     0.02   0.01  -0.23    -0.05   0.06   0.02
  80   6    -0.00   0.00  -0.00     0.02   0.00  -0.11    -0.02   0.04   0.07
  81   6    -0.00   0.00   0.00     0.02  -0.00  -0.01    -0.00   0.05   0.14
  82   6    -0.00   0.00   0.01     0.01  -0.01   0.10     0.02   0.04   0.08
  83   6    -0.01   0.00   0.02     0.01  -0.02   0.23     0.05   0.06   0.05
  84   6    -0.01   0.00   0.04     0.01  -0.01   0.23     0.06   0.04  -0.08
  85   6    -0.01   0.00   0.04     0.01  -0.00   0.11     0.04   0.02  -0.10
  86   7    -0.00   0.00   0.02     0.01   0.00   0.06     0.02   0.02  -0.00
  87   6    -0.00   0.00   0.05    -0.00   0.01   0.01     0.05  -0.01  -0.17
  88   6    -0.01   0.00   0.04    -0.01   0.00  -0.10     0.04  -0.03  -0.11
  89   6    -0.01   0.01   0.05    -0.01  -0.01  -0.23     0.06  -0.05  -0.10
  90   6    -0.01   0.01   0.03    -0.02  -0.01  -0.23     0.04  -0.07   0.02
  91   6    -0.00   0.00   0.01    -0.02  -0.00  -0.11     0.02  -0.06   0.07
  92   7    -0.01   0.00   0.02    -0.01   0.00  -0.06     0.02  -0.03  -0.01
  93   6    -0.00   0.00  -0.01    -0.02   0.00  -0.01     0.00  -0.06   0.14
  94   6    -0.00   0.00  -0.02    -0.01   0.01   0.10    -0.02  -0.05   0.09
  95   6    -0.01   0.00  -0.04    -0.01   0.02   0.23    -0.05  -0.07   0.05
  96   6    -0.01   0.00  -0.06    -0.01   0.01   0.24    -0.06  -0.05  -0.07
  97   6    -0.01   0.00  -0.05    -0.01   0.00   0.12    -0.04  -0.03  -0.09
  98   7    -0.01   0.00  -0.03    -0.01   0.00   0.06    -0.02  -0.03   0.00
  99   6    -0.01   0.00  -0.05     0.00  -0.01   0.02    -0.05  -0.01  -0.17
 100   6    -0.01   0.00  -0.04     0.01  -0.00  -0.10    -0.04   0.02  -0.11
 101   7    -0.00   0.00  -0.02     0.01  -0.00  -0.06    -0.02   0.02  -0.01
 102   1    -0.00   0.00  -0.01     0.00   0.00  -0.08    -0.02   0.01  -0.05
 103   1    -0.00   0.00  -0.00     0.01   0.01  -0.09    -0.02   0.02   0.02
 104   1    -0.00  -0.00   0.00     0.00  -0.01   0.08     0.01   0.02   0.03
 105   1    -0.00   0.00   0.02     0.00  -0.00   0.09     0.02   0.01  -0.04
 106   1    -0.00   0.00   0.02    -0.00   0.00   0.00     0.02  -0.00  -0.07
 107   1    -0.00   0.00   0.02    -0.00  -0.00  -0.09     0.02  -0.02  -0.05
 108   1    -0.00   0.00   0.01    -0.01  -0.01  -0.09     0.01  -0.03   0.02
 109   1    -0.00  -0.00  -0.01    -0.00   0.01   0.08    -0.01  -0.03   0.03
 110   1    -0.00  -0.00  -0.02    -0.00   0.00   0.09    -0.02  -0.02  -0.04
 111   1    -0.00   0.00  -0.02     0.00  -0.00   0.01    -0.02  -0.00  -0.07
                     13                     14                     15
                        a                      a                      a 
 Frequencies --    50.2425                56.6928                65.0730
 Red. masses --    14.4737                17.8844                11.8828
 Frc consts  --     0.0000                 0.0000                 0.0000
 IR Inten    --    37.3191                21.6127                 8.8157
 Raman Activ --     0.0000                 0.0000                 0.0000
 Depolar     --     0.0000                 0.0000                 0.0000
 Atom AN      X      Y      Z        X      Y      Z        X      Y      Z
   1  26     0.01   0.10  -0.05     0.26  -0.00   0.00     0.00  -0.08  -0.06
   2   6     0.10   0.11  -0.03     0.12  -0.02  -0.03    -0.03  -0.05   0.01
   3   6     0.07   0.15  -0.03     0.11  -0.01  -0.02    -0.02  -0.09  -0.11
   4   6     0.03   0.13  -0.03     0.10  -0.01  -0.00    -0.00  -0.10  -0.14
   5   6     0.00   0.14  -0.03     0.08  -0.00   0.01     0.00  -0.11  -0.18
   6   6    -0.02   0.13  -0.03     0.10   0.01   0.02     0.01  -0.10  -0.14
   7   6    -0.06   0.14  -0.03     0.12   0.01   0.03     0.02  -0.09  -0.11
   8   6    -0.09   0.11  -0.04     0.13   0.02   0.03     0.03  -0.04   0.01
   9   6    -0.07   0.07  -0.04     0.12   0.02   0.02     0.03  -0.02   0.05
  10   7    -0.03   0.09  -0.04     0.11   0.02   0.01     0.01  -0.06  -0.06
  11   6    -0.09   0.03  -0.04     0.12   0.02   0.00     0.04   0.03   0.17
  12   6    -0.07   0.00  -0.02     0.13   0.01  -0.01     0.03   0.03   0.13
  13   6    -0.09  -0.03   0.00     0.12  -0.00  -0.03     0.04   0.05   0.15
  14   6    -0.07  -0.05   0.03     0.13  -0.01  -0.03     0.03   0.01  -0.00
  15   6    -0.03  -0.03   0.03     0.14  -0.00  -0.01     0.01  -0.02  -0.09
  16   7    -0.04   0.00   0.00     0.15   0.01  -0.01     0.02  -0.01  -0.01
  17   6     0.00  -0.05   0.05     0.14   0.00   0.00     0.00  -0.03  -0.17
  18   6     0.04  -0.03   0.03     0.13   0.00   0.01    -0.01  -0.02  -0.09
  19   6     0.07  -0.05   0.03     0.12   0.01   0.03    -0.03   0.01  -0.00
  20   6     0.10  -0.03  -0.00     0.12   0.00   0.02    -0.04   0.04   0.15
  21   6     0.08   0.00  -0.02     0.12  -0.01   0.01    -0.03   0.02   0.13
  22   7     0.04   0.00  -0.00     0.14  -0.01   0.01    -0.01  -0.01  -0.01
  23   6     0.10   0.03  -0.04     0.12  -0.03  -0.01    -0.03   0.02   0.17
  24   6     0.08   0.07  -0.04     0.11  -0.03  -0.02    -0.02  -0.02   0.05
  25   7     0.04   0.09  -0.03     0.11  -0.02  -0.00    -0.01  -0.06  -0.06
  26   1     0.04   0.03  -0.01     0.04  -0.01  -0.01    -0.01  -0.01   0.02
  27   1     0.02   0.05  -0.01     0.03   0.00  -0.01    -0.00  -0.04  -0.05
  28   1    -0.02   0.05  -0.01     0.03  -0.00   0.01     0.01  -0.04  -0.05
  29   1    -0.04   0.03  -0.01     0.04   0.01   0.01     0.01  -0.01   0.02
  30   1    -0.04   0.01  -0.01     0.03   0.01   0.00     0.02   0.02   0.08
  31   1    -0.04  -0.01  -0.00     0.03  -0.00  -0.01     0.02   0.02   0.08
  32   1    -0.02  -0.02   0.02     0.04  -0.00  -0.01     0.01   0.00  -0.01
  33   1     0.00  -0.02   0.02     0.04   0.00   0.00     0.00  -0.01  -0.07
  34   1     0.02  -0.02   0.02     0.04   0.01   0.01    -0.01   0.00  -0.01
  35   1     0.04  -0.01  -0.00     0.03   0.00   0.01    -0.01   0.02   0.08
  36   1     0.04   0.01  -0.01     0.03  -0.01  -0.00    -0.01   0.02   0.08
  37  26    -0.01   0.09   0.05    -0.26  -0.00  -0.00    -0.00   0.02   0.06
  38   6     0.08   0.10   0.04    -0.13   0.02  -0.03     0.03   0.04   0.01
  39   6     0.06   0.14   0.02    -0.11   0.00  -0.02     0.02   0.03   0.09
  40   6     0.02   0.12   0.02    -0.10   0.01  -0.01     0.01   0.01   0.10
  41   6    -0.00   0.14   0.02    -0.08  -0.00  -0.00    -0.00   0.01   0.13
  42   6    -0.03   0.12   0.02    -0.10  -0.01   0.01    -0.01   0.01   0.10
  43   6    -0.06   0.13   0.03    -0.11  -0.01   0.02    -0.03   0.03   0.09
  44   6    -0.09   0.10   0.05    -0.12  -0.02   0.03    -0.04   0.04   0.01
  45   6    -0.07   0.06   0.05    -0.12  -0.03   0.01    -0.03   0.04  -0.01
  46   7    -0.03   0.08   0.03    -0.11  -0.02   0.00    -0.01   0.02   0.06
  47   6    -0.09   0.02   0.05    -0.12  -0.03   0.00    -0.03   0.05  -0.08
  48   6    -0.07  -0.00   0.03    -0.12  -0.01  -0.01    -0.03   0.03  -0.07
  49   6    -0.09  -0.03   0.01    -0.12   0.00  -0.02    -0.04   0.02  -0.09
  50   6    -0.07  -0.04  -0.04    -0.13   0.01  -0.02    -0.03  -0.02  -0.01
  51   6    -0.03  -0.02  -0.04    -0.14   0.00  -0.01    -0.02  -0.03   0.04
  52   7    -0.04   0.00  -0.00    -0.15  -0.01  -0.01    -0.02  -0.00   0.01
  53   6    -0.00  -0.03  -0.06    -0.14   0.00  -0.00    -0.00  -0.05   0.08
  54   6     0.03  -0.02  -0.04    -0.14  -0.00   0.01     0.01  -0.03   0.04
  55   6     0.06  -0.04  -0.03    -0.13  -0.01   0.02     0.02  -0.02  -0.01
  56   6     0.09  -0.03   0.01    -0.12  -0.00   0.02     0.03   0.02  -0.09
  57   6     0.07  -0.00   0.03    -0.13   0.01   0.01     0.03   0.03  -0.07
  58   7     0.03   0.00   0.00    -0.15   0.01   0.01     0.01  -0.00   0.01
  59   6     0.08   0.03   0.05    -0.12   0.02  -0.00     0.03   0.05  -0.09
  60   6     0.06   0.07   0.04    -0.12   0.02  -0.01     0.02   0.04  -0.01
  61   7     0.03   0.08   0.03    -0.11   0.02  -0.01     0.01   0.02   0.05
  62   1     0.03   0.03   0.01    -0.04   0.01  -0.01     0.01   0.02  -0.01
  63   1     0.02   0.05   0.00    -0.03  -0.00  -0.01     0.01   0.01   0.04
  64   1    -0.02   0.05   0.01    -0.03   0.00   0.01    -0.01   0.01   0.04
  65   1    -0.03   0.03   0.02    -0.04  -0.01   0.01    -0.01   0.02  -0.01
  66   1    -0.03   0.00   0.02    -0.03  -0.01   0.00    -0.01   0.02  -0.04
  67   1    -0.04  -0.01   0.01    -0.03   0.00  -0.01    -0.01   0.01  -0.04
  68   1    -0.02  -0.02  -0.02    -0.04   0.01  -0.01    -0.01  -0.01  -0.00
  69   1    -0.00  -0.02  -0.03    -0.04   0.00  -0.00    -0.00  -0.02   0.03
  70   1     0.02  -0.02  -0.02    -0.04  -0.01   0.01     0.01  -0.01   0.00
  71   1     0.03  -0.01   0.01    -0.03  -0.00   0.01     0.01   0.01  -0.04
  72   1     0.03   0.01   0.02    -0.03   0.01  -0.00     0.01   0.02  -0.04
  73   6     0.00   0.12  -0.03     0.07  -0.00   0.01     0.00  -0.08  -0.15
  74   6     0.00  -0.04   0.02     0.07   0.00   0.00     0.00   0.08  -0.06
  75   6    -0.00  -0.03  -0.04    -0.07  -0.00   0.00    -0.00  -0.06  -0.00
  76   6    -0.00   0.12   0.01    -0.07  -0.00   0.00    -0.00   0.00   0.10
  77  26    -0.00  -0.21  -0.00     0.00   0.00  -0.00    -0.00   0.04   0.01
  78   6    -0.00  -0.09   0.10    -0.00  -0.01   0.06    -0.08   0.07   0.14
  79   6    -0.00  -0.10   0.10     0.01   0.00   0.06    -0.05   0.10   0.10
  80   6    -0.01  -0.09   0.06     0.04  -0.01   0.03    -0.02   0.09   0.05
  81   6     0.00  -0.09   0.05     0.06   0.00   0.00     0.00   0.10   0.01
  82   6     0.01  -0.09   0.06     0.04   0.01  -0.03     0.02   0.09   0.04
  83   6     0.00  -0.10   0.09     0.01   0.00  -0.07     0.05   0.10   0.10
  84   6     0.00  -0.09   0.09    -0.00   0.02  -0.08     0.08   0.07   0.14
  85   6     0.00  -0.09   0.05     0.01   0.04  -0.04     0.06   0.05   0.09
  86   7     0.01  -0.10   0.04     0.03   0.03  -0.02     0.03   0.06   0.05
  87   6    -0.01  -0.09   0.01     0.00   0.05  -0.01     0.07   0.02   0.03
  88   6    -0.01  -0.09  -0.04    -0.01   0.03   0.03     0.05  -0.01  -0.05
  89   6    -0.01  -0.08  -0.09     0.01   0.02   0.07     0.07  -0.04  -0.12
  90   6    -0.01  -0.08  -0.10    -0.01   0.00   0.07     0.05  -0.07  -0.13
  91   6    -0.01  -0.08  -0.07    -0.04   0.01   0.04     0.02  -0.05  -0.08
  92   7    -0.01  -0.09  -0.05    -0.03   0.03   0.02     0.03  -0.02  -0.05
  93   6    -0.00  -0.08  -0.06    -0.06   0.00   0.00    -0.00  -0.06  -0.06
  94   6     0.01  -0.08  -0.07    -0.04  -0.01  -0.03    -0.02  -0.05  -0.08
  95   6     0.01  -0.08  -0.10    -0.01   0.00  -0.06    -0.05  -0.07  -0.13
  96   6     0.01  -0.08  -0.09     0.00  -0.02  -0.07    -0.07  -0.04  -0.12
  97   6     0.01  -0.09  -0.05    -0.01  -0.03  -0.03    -0.06  -0.01  -0.05
  98   7     0.01  -0.09  -0.05    -0.03  -0.03  -0.02    -0.03  -0.02  -0.05
  99   6     0.01  -0.09   0.01    -0.00  -0.04  -0.00    -0.07   0.01   0.03
 100   6    -0.00  -0.09   0.06     0.01  -0.03   0.03    -0.06   0.04   0.09
 101   7    -0.00  -0.10   0.05     0.03  -0.03   0.02    -0.03   0.06   0.05
 102   1    -0.00  -0.03   0.04    -0.01  -0.00   0.02    -0.03   0.02   0.05
 103   1    -0.00  -0.03   0.03     0.00   0.01   0.02    -0.02   0.04   0.03
 104   1     0.00  -0.03   0.03     0.00  -0.00  -0.03     0.02   0.04   0.03
 105   1     0.00  -0.03   0.03    -0.01   0.01  -0.03     0.03   0.02   0.05
 106   1    -0.00  -0.02   0.00     0.00   0.01  -0.00     0.03   0.00   0.01
 107   1    -0.00  -0.02  -0.03     0.01   0.00   0.03     0.03  -0.01  -0.04
 108   1    -0.00  -0.02  -0.04    -0.00  -0.00   0.03     0.01  -0.03  -0.05
 109   1     0.00  -0.02  -0.04    -0.00   0.00  -0.02    -0.01  -0.03  -0.05
 110   1     0.01  -0.02  -0.03     0.01  -0.00  -0.03    -0.03  -0.01  -0.04
 111   1     0.00  -0.03   0.00    -0.00  -0.01  -0.00    -0.03   0.00   0.01
                     16                     17                     18
                        a                      a                      a 
 Frequencies --    66.1372                79.4862                93.1732
 Red. masses --    12.0155                16.1210                30.2033
 Frc consts  --     0.0000                 0.0000                 0.0000
 IR Inten    --     0.5771                 3.9693                13.2744
 Raman Activ --     0.0000                 0.0000                 0.0000
 Depolar     --     0.0000                 0.0000                 0.0000
 Atom AN      X      Y      Z        X      Y      Z        X      Y      Z
   1  26     0.00   0.06  -0.04     0.00   0.02   0.12    -0.00  -0.12  -0.41
   2   6     0.05   0.06  -0.01    -0.01  -0.01   0.02    -0.01   0.05   0.14
   3   6     0.04   0.07  -0.04    -0.01  -0.00   0.08    -0.01   0.05   0.13
   4   6     0.01   0.06  -0.05    -0.00   0.01   0.10    -0.00   0.00  -0.01
   5   6     0.00   0.06  -0.06     0.00   0.00   0.09    -0.00   0.00  -0.00
   6   6    -0.01   0.06  -0.05     0.00   0.01   0.10     0.00   0.00  -0.01
   7   6    -0.03   0.07  -0.05     0.01  -0.00   0.08     0.01   0.05   0.13
   8   6    -0.05   0.06  -0.02     0.02  -0.02   0.02     0.01   0.05   0.14
   9   6    -0.04   0.05  -0.01     0.01  -0.01  -0.00     0.00   0.00  -0.00
  10   7    -0.01   0.05  -0.03     0.00   0.01   0.07     0.00  -0.02  -0.09
  11   6    -0.05   0.03   0.02     0.01  -0.04  -0.10     0.00   0.00   0.01
  12   6    -0.04   0.01   0.02     0.01  -0.02  -0.09     0.00  -0.00  -0.01
  13   6    -0.05  -0.00   0.03     0.01  -0.03  -0.14     0.01   0.03   0.13
  14   6    -0.04  -0.03   0.01     0.01   0.00  -0.03     0.01   0.03   0.13
  15   6    -0.02  -0.02  -0.01     0.01   0.02   0.06     0.00  -0.00   0.00
  16   7    -0.02   0.00  -0.00     0.01   0.01   0.03     0.00  -0.03  -0.09
  17   6     0.00  -0.04  -0.02     0.00   0.04   0.11     0.00   0.00   0.02
  18   6     0.02  -0.02  -0.01    -0.00   0.02   0.06    -0.00  -0.00   0.00
  19   6     0.04  -0.03   0.01    -0.01   0.00  -0.03    -0.00   0.03   0.13
  20   6     0.05  -0.00   0.03    -0.01  -0.03  -0.14    -0.00   0.03   0.13
  21   6     0.04   0.01   0.02    -0.01  -0.02  -0.09    -0.00  -0.01  -0.01
  22   7     0.02   0.00  -0.00    -0.00   0.01   0.03    -0.00  -0.03  -0.09
  23   6     0.05   0.03   0.02    -0.01  -0.03  -0.10    -0.00   0.00   0.01
  24   6     0.04   0.05  -0.01    -0.01  -0.01  -0.00    -0.00   0.00   0.00
  25   7     0.02   0.05  -0.03    -0.00   0.01   0.07    -0.00  -0.03  -0.09
  26   1     0.02   0.02  -0.00    -0.01  -0.01  -0.00    -0.00   0.02   0.07
  27   1     0.01   0.03  -0.02    -0.00   0.00   0.03    -0.00   0.02   0.06
  28   1    -0.01   0.02  -0.02     0.00   0.00   0.03     0.00   0.02   0.06
  29   1    -0.02   0.02  -0.00     0.01  -0.01  -0.00     0.00   0.02   0.07
  30   1    -0.02   0.01   0.01     0.00  -0.02  -0.05     0.00   0.01   0.03
  31   1    -0.02   0.00   0.02     0.00  -0.02  -0.07     0.00   0.02   0.06
  32   1    -0.01  -0.01   0.00     0.00   0.00  -0.01     0.00   0.02   0.07
  33   1     0.00  -0.02  -0.01     0.00   0.02   0.04     0.00   0.01   0.03
  34   1     0.01  -0.01   0.00    -0.00   0.00  -0.01    -0.00   0.02   0.07
  35   1     0.02  -0.00   0.02    -0.00  -0.02  -0.07    -0.00   0.02   0.06
  36   1     0.02   0.01   0.01    -0.00  -0.02  -0.05    -0.00   0.01   0.03
  37  26    -0.00  -0.10   0.04     0.00  -0.02   0.12     0.00   0.13  -0.37
  38   6    -0.05  -0.07  -0.02     0.02   0.01   0.02     0.00  -0.05   0.12
  39   6    -0.03  -0.13   0.09     0.01  -0.00   0.09     0.00  -0.05   0.12
  40   6    -0.01  -0.12   0.11     0.00  -0.01   0.10     0.00  -0.00  -0.01
  41   6    -0.00  -0.14   0.14    -0.00  -0.01   0.10     0.00  -0.00  -0.01
  42   6     0.01  -0.12   0.11    -0.00  -0.01   0.10    -0.00  -0.00  -0.01
  43   6     0.03  -0.12   0.08    -0.01  -0.00   0.08    -0.00  -0.05   0.12
  44   6     0.05  -0.06  -0.02    -0.02   0.02   0.02    -0.00  -0.05   0.12
  45   6     0.04  -0.03  -0.05    -0.01   0.02   0.00    -0.00  -0.00   0.00
  46   7     0.02  -0.08   0.04    -0.00  -0.01   0.07     0.00   0.03  -0.08
  47   6     0.05   0.02  -0.15    -0.01   0.04  -0.10     0.00  -0.00   0.01
  48   6     0.04   0.03  -0.11    -0.01   0.03  -0.09     0.00   0.00  -0.01
  49   6     0.06   0.06  -0.13    -0.01   0.04  -0.14    -0.00  -0.04   0.11
  50   6     0.04   0.02   0.00    -0.01   0.00  -0.03    -0.00  -0.04   0.12
  51   6     0.02  -0.01   0.08    -0.01  -0.03   0.06    -0.00   0.00   0.00
  52   7     0.02  -0.01   0.01    -0.01  -0.01   0.03     0.00   0.03  -0.08
  53   6    -0.00  -0.03   0.15    -0.00  -0.05   0.11     0.00  -0.00   0.02
  54   6    -0.02  -0.01   0.08     0.01  -0.03   0.06     0.00   0.00   0.00
  55   6    -0.04   0.02   0.01     0.01  -0.00  -0.03     0.00  -0.04   0.12
  56   6    -0.06   0.06  -0.13     0.02   0.04  -0.14     0.00  -0.04   0.11
  57   6    -0.04   0.03  -0.11     0.01   0.03  -0.09     0.00   0.00  -0.01
  58   7    -0.02  -0.01   0.01     0.01  -0.01   0.03     0.00   0.03  -0.08
  59   6    -0.05   0.02  -0.15     0.01   0.04  -0.10     0.00  -0.00   0.01
  60   6    -0.04  -0.04  -0.05     0.01   0.02  -0.00     0.00  -0.00  -0.00
  61   7    -0.02  -0.08   0.04     0.00  -0.01   0.07     0.00   0.03  -0.08
  62   1    -0.02  -0.01  -0.02     0.01   0.01  -0.00     0.00  -0.03   0.06
  63   1    -0.01  -0.05   0.04     0.00  -0.00   0.03     0.00  -0.02   0.06
  64   1     0.01  -0.05   0.04    -0.00  -0.00   0.03    -0.00  -0.02   0.06
  65   1     0.02  -0.01  -0.02    -0.01   0.01  -0.00    -0.00  -0.03   0.06
  66   1     0.02   0.02  -0.07    -0.01   0.02  -0.05     0.00  -0.01   0.02
  67   1     0.02   0.03  -0.07    -0.01   0.02  -0.07    -0.00  -0.02   0.06
  68   1     0.01   0.01   0.01    -0.00  -0.00  -0.01    -0.00  -0.02   0.06
  69   1    -0.00  -0.01   0.06    -0.00  -0.02   0.04    -0.00  -0.01   0.03
  70   1    -0.01   0.01   0.01     0.00  -0.00  -0.01     0.00  -0.02   0.06
  71   1    -0.02   0.03  -0.07     0.01   0.02  -0.07     0.00  -0.02   0.06
  72   1    -0.02   0.02  -0.07     0.01   0.02  -0.05    -0.00  -0.01   0.02
  73   6     0.00   0.04  -0.04     0.00  -0.01   0.01    -0.00   0.01   0.04
  74   6     0.00  -0.10   0.04     0.00   0.00  -0.14    -0.00  -0.00   0.04
  75   6    -0.00   0.11   0.08    -0.00  -0.00  -0.14     0.00   0.00   0.04
  76   6    -0.00  -0.10   0.12    -0.00   0.01   0.01     0.00  -0.01   0.03
  77  26    -0.00   0.03  -0.01    -0.00   0.00  -0.29    -0.00   0.00  -0.32
  78   6     0.11  -0.07   0.06    -0.01  -0.01   0.15    -0.01  -0.01   0.10
  79   6     0.07  -0.11   0.10    -0.00  -0.00  -0.02    -0.01  -0.01   0.10
  80   6     0.03  -0.09   0.08    -0.00   0.00  -0.15    -0.00  -0.01  -0.00
  81   6    -0.00  -0.11   0.07     0.00   0.01  -0.20    -0.00  -0.01   0.00
  82   6    -0.03  -0.09   0.07     0.00   0.00  -0.15     0.00  -0.01  -0.00
  83   6    -0.07  -0.11   0.10     0.00  -0.00  -0.02     0.01  -0.01   0.10
  84   6    -0.11  -0.07   0.06     0.01  -0.01   0.15     0.00  -0.01   0.10
  85   6    -0.08  -0.03   0.01     0.01  -0.01   0.09     0.00  -0.01  -0.01
  86   7    -0.04  -0.04   0.03     0.00   0.00  -0.11     0.00  -0.00  -0.07
  87   6    -0.11   0.01  -0.06     0.01  -0.00   0.20    -0.00  -0.00   0.00
  88   6    -0.09   0.05  -0.07     0.01   0.00   0.09     0.00   0.01  -0.01
  89   6    -0.11   0.10  -0.09     0.01   0.01   0.15     0.00   0.01   0.10
  90   6    -0.08   0.13  -0.04     0.00   0.00  -0.02     0.01   0.01   0.11
  91   6    -0.03   0.11   0.00     0.00  -0.00  -0.15     0.00   0.01  -0.00
  92   7    -0.04   0.07  -0.03     0.00  -0.00  -0.11     0.00   0.00  -0.07
  93   6    -0.00   0.13   0.03    -0.00  -0.01  -0.20     0.00   0.01   0.00
  94   6     0.03   0.11  -0.00    -0.00  -0.00  -0.15    -0.00   0.01  -0.00
  95   6     0.08   0.13  -0.04    -0.01   0.01  -0.02    -0.01   0.01   0.11
  96   6     0.11   0.10  -0.10    -0.01   0.01   0.15    -0.01   0.01   0.10
  97   6     0.09   0.05  -0.07    -0.01   0.01   0.09    -0.00   0.01  -0.01
  98   7     0.04   0.07  -0.03    -0.00  -0.00  -0.11    -0.00   0.00  -0.07
  99   6     0.11   0.01  -0.06    -0.01   0.00   0.20    -0.00   0.00   0.00
 100   6     0.08  -0.03   0.01    -0.01  -0.00   0.09    -0.00  -0.00  -0.01
 101   7     0.04  -0.04   0.04    -0.00   0.00  -0.10    -0.00  -0.00  -0.07
 102   1     0.04  -0.02   0.02    -0.00  -0.00   0.09    -0.00  -0.00   0.05
 103   1     0.02  -0.04   0.04    -0.00  -0.00  -0.01    -0.00  -0.01   0.05
 104   1    -0.02  -0.04   0.04     0.00  -0.00  -0.01     0.00  -0.01   0.05
 105   1    -0.04  -0.02   0.02     0.00  -0.01   0.09     0.00  -0.00   0.05
 106   1    -0.04   0.00  -0.03     0.00  -0.00   0.11    -0.00  -0.00   0.02
 107   1    -0.04   0.03  -0.04     0.00   0.00   0.09     0.00   0.00   0.05
 108   1    -0.02   0.05  -0.01     0.00   0.00  -0.01     0.00   0.01   0.05
 109   1     0.02   0.05  -0.01    -0.00   0.00  -0.01    -0.00   0.01   0.05
 110   1     0.04   0.03  -0.04    -0.00   0.01   0.09    -0.00   0.00   0.05
 111   1     0.04   0.00  -0.03    -0.01   0.00   0.11     0.00   0.00   0.02
                     19                     20                     21
                        a                      a                      a 
 Frequencies --    94.3792               100.2342               109.1150
 Red. masses --    29.3238                24.3911                17.8647
 Frc consts  --     0.0000                 0.0000                 0.0000
 IR Inten    --     0.2570                10.2807               154.2339
 Raman Activ --     0.0000                 0.0000                 0.0000
 Depolar     --     0.0000                 0.0000                 0.0000
 Atom AN      X      Y      Z        X      Y      Z        X      Y      Z
   1  26    -0.00  -0.13  -0.42     0.00   0.06   0.17     0.16   0.00   0.01
   2   6    -0.01   0.05   0.16     0.01  -0.03  -0.13     0.08  -0.03   0.00
   3   6    -0.01   0.05   0.16     0.01  -0.03  -0.13     0.05   0.01   0.01
   4   6    -0.00   0.00   0.01     0.00   0.00  -0.03     0.00  -0.01   0.01
   5   6    -0.00  -0.00   0.01     0.00   0.01  -0.01    -0.04  -0.00  -0.00
   6   6     0.00   0.00   0.01    -0.00   0.00  -0.03     0.00   0.01  -0.01
   7   6     0.01   0.05   0.16    -0.01  -0.03  -0.13     0.05  -0.01  -0.01
   8   6     0.01   0.05   0.16    -0.01  -0.03  -0.13     0.08   0.03   0.00
   9   6     0.01   0.00   0.01    -0.01  -0.00  -0.03     0.06   0.06   0.00
  10   7     0.00  -0.03  -0.09    -0.00   0.02   0.02     0.02   0.05  -0.01
  11   6     0.01   0.00   0.00    -0.01   0.01   0.03     0.07   0.07  -0.00
  12   6     0.01  -0.01  -0.02    -0.01   0.02   0.06     0.09   0.04  -0.01
  13   6     0.01   0.03   0.11    -0.01   0.00   0.03     0.07   0.01  -0.02
  14   6     0.01   0.04   0.14    -0.01  -0.02  -0.05     0.09  -0.01  -0.02
  15   6     0.01   0.00   0.01    -0.00  -0.02  -0.04     0.12   0.00  -0.01
  16   7     0.00  -0.03  -0.10    -0.00   0.01   0.03     0.13   0.04  -0.01
  17   6     0.00   0.01   0.04    -0.00  -0.04  -0.10     0.13   0.00   0.00
  18   6    -0.00   0.00   0.01     0.00  -0.02  -0.05     0.12  -0.00   0.01
  19   6    -0.01   0.04   0.14     0.01  -0.02  -0.05     0.09   0.01   0.01
  20   6    -0.01   0.03   0.12     0.01   0.00   0.03     0.07  -0.01   0.01
  21   6    -0.00  -0.01  -0.02     0.01   0.02   0.06     0.09  -0.04   0.00
  22   7    -0.00  -0.03  -0.10     0.00   0.01   0.03     0.13  -0.03   0.01
  23   6    -0.00  -0.00   0.00     0.01   0.01   0.04     0.07  -0.07   0.00
  24   6    -0.00   0.00   0.00     0.01   0.00  -0.02     0.06  -0.06   0.00
  25   7    -0.00  -0.03  -0.09     0.00   0.02   0.02     0.02  -0.05   0.01
  26   1    -0.00   0.02   0.08     0.01  -0.02  -0.06     0.03  -0.01  -0.00
  27   1    -0.00   0.02   0.08     0.00  -0.01  -0.06     0.02   0.01   0.00
  28   1     0.00   0.02   0.07    -0.00  -0.01  -0.06     0.02  -0.01  -0.00
  29   1     0.00   0.03   0.08    -0.01  -0.02  -0.06     0.03   0.01   0.00
  30   1     0.00   0.01   0.02    -0.00   0.00   0.01     0.02   0.02   0.00
  31   1     0.00   0.02   0.06    -0.00   0.00   0.02     0.02   0.00  -0.01
  32   1     0.00   0.02   0.07    -0.00  -0.01  -0.03     0.03  -0.01  -0.01
  33   1     0.00   0.01   0.04    -0.00  -0.02  -0.05     0.04   0.00   0.00
  34   1    -0.00   0.02   0.07     0.00  -0.01  -0.03     0.03   0.01   0.00
  35   1    -0.00   0.02   0.06     0.00   0.00   0.02     0.01  -0.00   0.00
  36   1    -0.00   0.01   0.02     0.00   0.00   0.01     0.02  -0.02  -0.00
  37  26    -0.00  -0.16   0.44    -0.00  -0.07   0.17     0.16   0.00  -0.01
  38   6    -0.00   0.06  -0.16    -0.01   0.04  -0.13     0.08  -0.02  -0.01
  39   6    -0.00   0.06  -0.16    -0.01   0.04  -0.14     0.05   0.01  -0.01
  40   6    -0.00   0.00  -0.01    -0.00  -0.00  -0.03     0.00  -0.01  -0.01
  41   6    -0.00   0.00  -0.01    -0.00  -0.01  -0.01    -0.04  -0.00   0.00
  42   6     0.00   0.00  -0.01     0.00  -0.00  -0.03     0.00   0.01   0.01
  43   6     0.01   0.06  -0.16     0.01   0.04  -0.13     0.05  -0.01   0.00
  44   6     0.01   0.07  -0.16     0.01   0.04  -0.14     0.08   0.03  -0.00
  45   6     0.00   0.00  -0.01     0.01   0.00  -0.03     0.06   0.06   0.01
  46   7     0.00  -0.03   0.09     0.00  -0.02   0.02     0.02   0.05   0.01
  47   6     0.00   0.00  -0.00     0.01  -0.02   0.03     0.07   0.07   0.01
  48   6     0.00  -0.01   0.02     0.01  -0.02   0.06     0.09   0.04   0.01
  49   6     0.01   0.04  -0.12     0.01  -0.00   0.03     0.07   0.01   0.02
  50   6     0.01   0.05  -0.14     0.01   0.03  -0.05     0.09  -0.01   0.02
  51   6     0.00   0.00  -0.01     0.00   0.02  -0.04     0.12   0.01   0.01
  52   7     0.00  -0.04   0.10     0.00  -0.01   0.03     0.13   0.03   0.01
  53   6     0.00   0.02  -0.04    -0.00   0.04  -0.10     0.13   0.00  -0.01
  54   6    -0.00   0.00  -0.01    -0.00   0.02  -0.04     0.12  -0.00  -0.01
  55   6    -0.00   0.05  -0.14    -0.01   0.03  -0.05     0.09   0.01  -0.01
  56   6    -0.00   0.04  -0.12    -0.01  -0.00   0.03     0.07  -0.02  -0.00
  57   6    -0.00  -0.01   0.02    -0.01  -0.02   0.06     0.09  -0.04  -0.00
  58   7    -0.00  -0.04   0.10    -0.00  -0.01   0.03     0.13  -0.03  -0.01
  59   6    -0.00  -0.00  -0.00    -0.01  -0.02   0.04     0.07  -0.07  -0.01
  60   6    -0.00   0.00  -0.00    -0.01   0.00  -0.02     0.06  -0.06  -0.01
  61   7    -0.00  -0.04   0.09    -0.00  -0.02   0.02     0.02  -0.05  -0.01
  62   1    -0.00   0.03  -0.08    -0.00   0.02  -0.06     0.03  -0.01  -0.00
  63   1    -0.00   0.03  -0.08    -0.00   0.02  -0.06     0.02   0.01  -0.00
  64   1     0.00   0.03  -0.08     0.00   0.02  -0.06     0.02  -0.01   0.00
  65   1     0.00   0.03  -0.08     0.00   0.02  -0.06     0.03   0.01  -0.00
  66   1     0.00   0.01  -0.02     0.00  -0.00   0.01     0.02   0.02   0.00
  67   1     0.00   0.02  -0.06     0.00  -0.00   0.01     0.01   0.00   0.01
  68   1     0.00   0.03  -0.07     0.00   0.01  -0.03     0.03  -0.01   0.01
  69   1     0.00   0.01  -0.04     0.00   0.02  -0.05     0.04   0.00  -0.00
  70   1    -0.00   0.03  -0.07    -0.00   0.01  -0.03     0.03   0.01  -0.00
  71   1    -0.00   0.02  -0.06    -0.00  -0.00   0.01     0.01  -0.00   0.00
  72   1    -0.00   0.01  -0.02    -0.00  -0.00   0.01     0.02  -0.02   0.00
  73   6    -0.00   0.01   0.04     0.00   0.02   0.03    -0.06  -0.00  -0.00
  74   6    -0.00  -0.00   0.02     0.00   0.01   0.11    -0.07  -0.00  -0.01
  75   6    -0.00  -0.00  -0.03     0.00  -0.01   0.11    -0.07  -0.00   0.01
  76   6    -0.00   0.01  -0.04     0.00  -0.02   0.03    -0.06  -0.00   0.01
  77  26    -0.00  -0.01   0.02     0.00   0.00  -0.49    -0.29   0.00   0.00
  78   6    -0.00  -0.00  -0.04    -0.02  -0.00   0.14    -0.15  -0.01   0.00
  79   6    -0.00  -0.00  -0.03    -0.02  -0.00   0.21    -0.13   0.00  -0.04
  80   6    -0.00  -0.00  -0.01    -0.01   0.00   0.06    -0.11  -0.01  -0.02
  81   6    -0.00  -0.00   0.01     0.00   0.01   0.09    -0.09   0.00  -0.00
  82   6    -0.00  -0.00  -0.01     0.01   0.00   0.06    -0.12   0.01   0.02
  83   6    -0.00  -0.00  -0.03     0.02  -0.00   0.21    -0.13  -0.00   0.04
  84   6    -0.00  -0.00  -0.04     0.02  -0.00   0.14    -0.14   0.01   0.01
  85   6    -0.00  -0.00  -0.02     0.01   0.00  -0.04    -0.14   0.02  -0.03
  86   7    -0.00  -0.00  -0.01     0.00   0.00  -0.09    -0.13   0.02  -0.01
  87   6    -0.00  -0.00  -0.00     0.01   0.00  -0.06    -0.13   0.00  -0.05
  88   6    -0.00  -0.00   0.02     0.01  -0.00  -0.04    -0.14  -0.02  -0.03
  89   6    -0.00  -0.00   0.03     0.02   0.00   0.14    -0.14  -0.01  -0.00
  90   6    -0.00  -0.00   0.02     0.02   0.00   0.21    -0.13   0.00   0.04
  91   6    -0.00  -0.00   0.01     0.01  -0.00   0.06    -0.12  -0.01   0.02
  92   7    -0.00  -0.00   0.01     0.00  -0.00  -0.09    -0.13  -0.02  -0.01
  93   6    -0.00  -0.00  -0.01     0.00  -0.01   0.09    -0.09  -0.00   0.00
  94   6    -0.00  -0.00   0.00    -0.01  -0.00   0.06    -0.12   0.01  -0.02
  95   6    -0.00  -0.00   0.02    -0.02   0.00   0.21    -0.14  -0.00  -0.04
  96   6    -0.00  -0.00   0.03    -0.02   0.00   0.14    -0.15   0.01  -0.01
  97   6    -0.00  -0.00   0.02    -0.01  -0.00  -0.04    -0.14   0.02   0.02
  98   7    -0.00  -0.00   0.01    -0.00  -0.00  -0.09    -0.14   0.02   0.01
  99   6    -0.00  -0.00   0.00    -0.01  -0.00  -0.06    -0.13  -0.00   0.05
 100   6    -0.00  -0.00  -0.02    -0.01   0.00  -0.04    -0.14  -0.02   0.03
 101   7    -0.00  -0.00  -0.00    -0.00   0.00  -0.09    -0.13  -0.02   0.01
 102   1     0.00   0.00  -0.02    -0.01  -0.00   0.06    -0.04  -0.00   0.00
 103   1    -0.00   0.00  -0.01    -0.01  -0.00   0.10    -0.04   0.00  -0.02
 104   1    -0.00   0.00  -0.01     0.01  -0.00   0.10    -0.04  -0.00   0.02
 105   1    -0.00   0.00  -0.02     0.01  -0.00   0.06    -0.04   0.00   0.00
 106   1    -0.00  -0.00  -0.00     0.00   0.00  -0.01    -0.03   0.00  -0.02
 107   1    -0.00  -0.00   0.01     0.01   0.00   0.06    -0.04  -0.00  -0.00
 108   1    -0.00  -0.00   0.00     0.01   0.00   0.10    -0.04   0.00   0.02
 109   1    -0.00  -0.00   0.00    -0.01   0.00   0.10    -0.04  -0.00  -0.02
 110   1    -0.00  -0.00   0.01    -0.01   0.00   0.06    -0.04   0.00  -0.00
 111   1    -0.00  -0.00   0.00    -0.00  -0.00  -0.01    -0.03   0.00   0.02
                     22                     23                     24
                        a                      a                      a 
 Frequencies --   114.4784               125.6441               127.9563
 Red. masses --    11.0375                10.5560                10.5467
 Frc consts  --     0.0000                 0.0000                 0.0000
 IR Inten    --     0.2249              2308.9123               195.2357
 Raman Activ --     0.0000                 0.0000                 0.0000
 Depolar     --     0.0000                 0.0000                 0.0000
 Atom AN      X      Y      Z        X      Y      Z        X      Y      Z
   1  26    -0.00  -0.01   0.02     0.01   0.00  -0.00     0.00  -0.00   0.00
   2   6    -0.02   0.04   0.16     0.00   0.01   0.02     0.00  -0.01  -0.03
   3   6    -0.01   0.01   0.08    -0.00   0.05   0.16     0.01  -0.07  -0.21
   4   6    -0.00  -0.03  -0.04    -0.00   0.02   0.07     0.00  -0.04  -0.10
   5   6     0.00  -0.05  -0.12    -0.00  -0.00  -0.00     0.00  -0.00  -0.01
   6   6     0.00  -0.03  -0.04     0.00  -0.02  -0.07     0.00   0.03   0.09
   7   6     0.01   0.01   0.08    -0.00  -0.05  -0.15     0.01   0.07   0.21
   8   6     0.01   0.04   0.16     0.00  -0.01  -0.02     0.00   0.02   0.05
   9   6     0.01   0.01   0.06     0.01   0.03   0.09    -0.00  -0.03  -0.12
  10   7     0.00  -0.02  -0.02     0.00   0.02   0.04    -0.00  -0.02  -0.06
  11   6     0.01  -0.02  -0.03     0.01   0.06   0.18    -0.01  -0.07  -0.23
  12   6     0.00  -0.03  -0.08     0.01   0.03   0.09    -0.00  -0.04  -0.12
  13   6     0.00  -0.04  -0.16     0.00  -0.00  -0.03     0.00   0.00   0.02
  14   6     0.00  -0.00  -0.03    -0.00  -0.04  -0.16     0.01   0.05   0.20
  15   6     0.00   0.03   0.09     0.00  -0.02  -0.08     0.01   0.03   0.11
  16   7    -0.00   0.01   0.04     0.00   0.02   0.03     0.00  -0.01  -0.04
  17   6    -0.00   0.05   0.18     0.01  -0.00   0.00     0.01   0.00   0.01
  18   6    -0.01   0.03   0.09     0.00   0.02   0.08     0.00  -0.02  -0.09
  19   6    -0.01  -0.00  -0.03     0.00   0.04   0.16     0.00  -0.05  -0.21
  20   6    -0.01  -0.04  -0.16     0.00   0.00   0.03     0.00  -0.01  -0.04
  21   6    -0.01  -0.02  -0.08     0.00  -0.03  -0.09     0.00   0.03   0.12
  22   7    -0.01   0.01   0.04     0.00  -0.01  -0.03     0.00   0.01   0.05
  23   6    -0.01  -0.01  -0.03     0.01  -0.06  -0.18    -0.00   0.07   0.24
  24   6    -0.01   0.01   0.06     0.00  -0.03  -0.09    -0.00   0.03   0.13
  25   7    -0.00  -0.02  -0.02     0.00  -0.02  -0.04    -0.00   0.01   0.05
  26   1    -0.01   0.02   0.07     0.00   0.00   0.01     0.00  -0.00  -0.01
  27   1    -0.00   0.00   0.03    -0.00   0.03   0.08     0.00  -0.03  -0.11
  28   1     0.00   0.01   0.03    -0.00  -0.03  -0.08     0.00   0.04   0.11
  29   1     0.00   0.02   0.07     0.00  -0.00  -0.01     0.00   0.01   0.02
  30   1     0.00  -0.01  -0.01     0.00   0.02   0.07    -0.00  -0.03  -0.09
  31   1     0.00  -0.02  -0.08    -0.00  -0.00  -0.01     0.00   0.00   0.00
  32   1     0.00   0.00  -0.01    -0.00  -0.02  -0.08     0.00   0.03   0.11
  33   1    -0.00   0.02   0.07     0.00  -0.00   0.00     0.00   0.00   0.00
  34   1    -0.00   0.00  -0.01     0.00   0.02   0.08     0.00  -0.03  -0.11
  35   1    -0.00  -0.02  -0.08     0.00   0.00   0.01     0.00  -0.00  -0.01
  36   1    -0.00  -0.00  -0.01     0.00  -0.02  -0.07    -0.00   0.03   0.09
  37  26    -0.00  -0.01  -0.02     0.01   0.00   0.00    -0.00   0.00   0.00
  38   6    -0.01   0.04  -0.15     0.00   0.01  -0.02    -0.00   0.01  -0.03
  39   6    -0.01   0.01  -0.07    -0.00   0.05  -0.14    -0.01   0.08  -0.20
  40   6    -0.00  -0.03   0.04     0.00   0.02  -0.07    -0.00   0.04  -0.10
  41   6     0.00  -0.06   0.11    -0.00   0.00  -0.00    -0.00   0.00  -0.01
  42   6     0.00  -0.03   0.03     0.00  -0.02   0.07    -0.00  -0.04   0.09
  43   6     0.01   0.01  -0.07    -0.00  -0.05   0.14    -0.01  -0.08   0.20
  44   6     0.01   0.04  -0.15     0.00  -0.01   0.02    -0.00  -0.02   0.05
  45   6     0.01   0.01  -0.06     0.00   0.04  -0.09     0.00   0.04  -0.11
  46   7     0.00  -0.02   0.02     0.00   0.02  -0.04    -0.00   0.02  -0.06
  47   6     0.01  -0.02   0.02     0.01   0.06  -0.16     0.00   0.08  -0.23
  48   6     0.00  -0.03   0.08     0.00   0.03  -0.08     0.00   0.04  -0.12
  49   6     0.01  -0.05   0.15     0.00  -0.01   0.02    -0.00  -0.01   0.02
  50   6     0.00  -0.00   0.03     0.00  -0.05   0.14    -0.00  -0.07   0.20
  51   6     0.00   0.03  -0.09     0.00  -0.02   0.07    -0.00  -0.04   0.10
  52   7     0.00   0.01  -0.04     0.00   0.02  -0.03    -0.00   0.01  -0.04
  53   6    -0.00   0.06  -0.16     0.01  -0.00   0.00    -0.00  -0.00   0.01
  54   6    -0.01   0.03  -0.08     0.00   0.02  -0.07    -0.00   0.03  -0.09
  55   6    -0.01  -0.00   0.03     0.00   0.05  -0.14    -0.00   0.07  -0.20
  56   6    -0.01  -0.05   0.15     0.00   0.01  -0.03    -0.00   0.02  -0.04
  57   6    -0.01  -0.03   0.08     0.00  -0.03   0.08     0.00  -0.04   0.11
  58   7    -0.01   0.01  -0.04     0.00  -0.02   0.03    -0.00  -0.02   0.05
  59   6    -0.01  -0.01   0.02     0.00  -0.06   0.16     0.00  -0.08   0.23
  60   6    -0.01   0.01  -0.06     0.00  -0.04   0.09     0.00  -0.04   0.12
  61   7    -0.00  -0.02   0.02     0.00  -0.02   0.04    -0.00  -0.02   0.05
  62   1    -0.01   0.02  -0.07     0.00   0.00  -0.01    -0.00   0.00  -0.01
  63   1    -0.00   0.00  -0.03    -0.00   0.03  -0.07    -0.00   0.04  -0.10
  64   1     0.00   0.01  -0.03    -0.00  -0.03   0.07    -0.00  -0.04   0.10
  65   1     0.00   0.02  -0.07     0.00  -0.00   0.01    -0.00  -0.01   0.02
  66   1     0.00  -0.01   0.01     0.00   0.02  -0.06     0.00   0.03  -0.09
  67   1     0.00  -0.03   0.08    -0.00  -0.00   0.01    -0.00  -0.00   0.00
  68   1     0.00   0.00   0.01    -0.00  -0.03   0.07    -0.00  -0.04   0.10
  69   1    -0.00   0.03  -0.06     0.00  -0.00   0.00    -0.00  -0.00   0.00
[...]
  95   6     0.01  -0.00   0.00     0.18  -0.02   0.01    -0.08   0.01  -0.00
  96   6    -0.00  -0.00   0.00     0.00  -0.10   0.00    -0.00   0.05  -0.00
  97   6    -0.00   0.00  -0.00    -0.00  -0.00  -0.00     0.00   0.00   0.00
  98   7    -0.00   0.00  -0.00    -0.00   0.00  -0.00     0.00  -0.00   0.00
  99   6     0.00   0.00  -0.00     0.00  -0.00   0.00    -0.00   0.00  -0.00
 100   6     0.00   0.00  -0.00    -0.00   0.00  -0.00     0.00  -0.00   0.00
 101   7     0.00   0.00   0.00    -0.00  -0.00  -0.00     0.00  -0.00   0.00
 102   1     0.00   0.00   0.00    -0.00  -0.02  -0.00    -0.00  -0.00  -0.00
 103   1     0.03   0.00   0.00    -0.06  -0.01  -0.00     0.01   0.00   0.00
 104   1     0.02  -0.00  -0.00     0.03  -0.00  -0.00     0.05  -0.01  -0.00
 105   1    -0.00  -0.00  -0.00     0.00  -0.01  -0.00     0.00  -0.01  -0.00
 106   1     0.00   0.00   0.00    -0.00   0.00   0.00    -0.00   0.01   0.00
 107   1    -0.00  -0.00   0.00     0.01   0.13  -0.01     0.02   0.29  -0.01
 108   1    -0.03  -0.00   0.00     0.26   0.04  -0.01     0.58   0.09  -0.03
 109   1    -0.03   0.00  -0.00    -0.60   0.09  -0.03     0.28  -0.04   0.02
 110   1    -0.00   0.00  -0.00    -0.02   0.31  -0.02     0.01  -0.14   0.01
 111   1     0.00  -0.00   0.00     0.00   0.01   0.00    -0.00  -0.00   0.00
                    322                    323                    324
                        a                      a                      a 
 Frequencies --  3168.8162              3168.9211              3169.2247
 Red. masses --     1.9506                 1.9541                 1.9526
 Frc consts  --     0.0000                 0.0000                 0.0000
 IR Inten    --    70.6506                62.0809               167.0925
 Raman Activ --     0.0000                 0.0000                 0.0000
 Depolar     --     0.0000                 0.0000                 0.0000
 Atom AN      X      Y      Z        X      Y      Z        X      Y      Z
   1  26    -0.00   0.00  -0.00     0.00   0.00  -0.00    -0.00  -0.00   0.00
   2   6    -0.00  -0.06   0.02     0.00  -0.01   0.00     0.00   0.01  -0.00
   3   6     0.12  -0.01   0.01     0.03  -0.00   0.00    -0.02   0.00  -0.00
   4   6     0.00   0.00  -0.00     0.00   0.00  -0.00    -0.00  -0.00   0.00
   5   6     0.00  -0.00   0.00     0.00  -0.00   0.00     0.00   0.00  -0.00
   6   6    -0.00   0.00  -0.00    -0.00   0.00  -0.00     0.00  -0.00   0.00
   7   6    -0.08  -0.01   0.01    -0.01  -0.00   0.00     0.10   0.01  -0.01
   8   6     0.00  -0.04   0.01     0.00  -0.01   0.00    -0.00   0.05  -0.02
   9   6     0.00  -0.00  -0.00     0.00  -0.00  -0.00    -0.00   0.00  -0.00
  10   7     0.00   0.00  -0.00     0.00   0.00  -0.00    -0.00  -0.00   0.00
  11   6    -0.00  -0.00   0.00    -0.00   0.00  -0.00     0.00   0.00  -0.00
  12   6     0.00   0.00  -0.00     0.00   0.00  -0.00     0.00   0.00  -0.00
  13   6     0.00  -0.00   0.00     0.00   0.00  -0.00    -0.00   0.00  -0.00
  14   6     0.00  -0.00  -0.00    -0.00   0.00  -0.00    -0.01   0.00  -0.00
  15   6     0.00   0.00  -0.00    -0.00  -0.00   0.00    -0.00  -0.00   0.00
  16   7    -0.00   0.00  -0.00    -0.00   0.00  -0.00    -0.00   0.00  -0.00
  17   6    -0.00  -0.00   0.00    -0.00  -0.00   0.00    -0.00   0.00   0.00
  18   6    -0.00   0.00  -0.00    -0.00   0.00  -0.00    -0.00   0.00  -0.00
  19   6    -0.00  -0.00   0.00    -0.00  -0.00   0.00    -0.00  -0.00   0.00
  20   6    -0.00  -0.00   0.00    -0.00  -0.00   0.00    -0.00  -0.00   0.00
  21   6     0.00   0.00  -0.00     0.00  -0.00  -0.00     0.00  -0.00   0.00
  22   7     0.00   0.00  -0.00    -0.00  -0.00   0.00    -0.00  -0.00   0.00
  23   6     0.00  -0.00   0.00     0.00  -0.00   0.00    -0.00  -0.00   0.00
  24   6    -0.00  -0.00   0.00    -0.00  -0.00   0.00     0.00  -0.00   0.00
  25   7    -0.00   0.00  -0.00    -0.00   0.00  -0.00     0.00  -0.00   0.00
  26   1    -0.01   0.18  -0.06    -0.00   0.04  -0.01     0.00  -0.03   0.01
  27   1    -0.39   0.05  -0.03    -0.09   0.01  -0.01     0.08  -0.01   0.01
  28   1     0.28   0.04  -0.02     0.05   0.01  -0.00    -0.34  -0.05   0.03
  29   1     0.01   0.13  -0.04     0.00   0.02  -0.01    -0.01  -0.16   0.05
  30   1    -0.00   0.00  -0.00    -0.00  -0.00   0.00     0.00  -0.00   0.00
  31   1    -0.00   0.00  -0.00     0.00  -0.00   0.00     0.00  -0.01   0.00
  32   1    -0.00   0.00  -0.00     0.01  -0.00   0.00     0.02  -0.00   0.00
  33   1     0.00   0.00  -0.00     0.00  -0.00  -0.00     0.00  -0.00  -0.00
  34   1     0.01   0.00  -0.00     0.01   0.00  -0.00     0.01   0.00  -0.00
  35   1     0.00   0.01  -0.00     0.00   0.01  -0.00     0.00   0.00  -0.00
  36   1     0.00   0.00  -0.00     0.00   0.00  -0.00    -0.00   0.00  -0.00
  37  26    -0.00   0.00   0.00    -0.00  -0.00  -0.00    -0.00   0.00   0.00
  38   6    -0.00  -0.03  -0.01     0.00   0.03   0.01    -0.00  -0.06  -0.03
  39   6     0.06  -0.01  -0.00    -0.05   0.01   0.00     0.14  -0.01  -0.01
  40   6     0.00   0.00   0.00    -0.00  -0.00  -0.00     0.00   0.00   0.00
  41   6     0.00  -0.00  -0.00     0.00   0.00   0.00     0.00  -0.00  -0.00
  42   6    -0.00   0.00   0.00     0.00  -0.01  -0.00     0.00  -0.00  -0.00
  43   6    -0.05  -0.00  -0.00     0.18   0.02   0.01     0.04   0.00   0.00
  44   6     0.00  -0.02  -0.01    -0.00   0.09   0.03    -0.00   0.02   0.01
  45   6     0.00  -0.00  -0.00    -0.00   0.00  -0.00    -0.00   0.00  -0.00
  46   7     0.00   0.00   0.00    -0.00  -0.00  -0.00    -0.00  -0.00  -0.00
  47   6    -0.00  -0.00  -0.00     0.00   0.00   0.00     0.00  -0.00  -0.00
  48   6    -0.00  -0.00  -0.00    -0.00  -0.00  -0.00    -0.00  -0.00  -0.00
  49   6     0.00  -0.00  -0.00    -0.00   0.00   0.00     0.00  -0.00  -0.00
  50   6     0.00  -0.00  -0.00    -0.00  -0.00  -0.00     0.00  -0.00  -0.00
  51   6     0.00   0.00   0.00    -0.00  -0.00  -0.00     0.00   0.00   0.00
  52   7    -0.00   0.00   0.00     0.00  -0.00  -0.00    -0.00  -0.00  -0.00
  53   6     0.00  -0.00  -0.00     0.00   0.00   0.00     0.00  -0.00   0.00
  54   6    -0.00  -0.00  -0.00     0.00  -0.00  -0.00     0.00  -0.00  -0.00
  55   6     0.00   0.00   0.00     0.00   0.00   0.00     0.00   0.00   0.00
  56   6     0.00   0.00   0.00     0.00   0.00   0.00     0.00   0.00   0.00
  57   6    -0.00   0.00   0.00    -0.00   0.00   0.00    -0.00   0.00   0.00
  58   7     0.00   0.00   0.00    -0.00  -0.00  -0.00     0.00   0.00   0.00
  59   6     0.00  -0.00  -0.00    -0.00   0.00   0.00     0.00  -0.00  -0.00
  60   6    -0.00  -0.00  -0.00     0.00   0.00   0.00    -0.00  -0.00   0.00
  61   7    -0.00   0.00   0.00     0.00  -0.00  -0.00    -0.00   0.00   0.00
  62   1    -0.01   0.08   0.03     0.01  -0.08  -0.03    -0.01   0.20   0.08
  63   1    -0.19   0.02   0.02     0.18  -0.02  -0.01    -0.47   0.06   0.04
  64   1     0.15   0.02   0.01    -0.61  -0.08  -0.05    -0.14  -0.02  -0.01
  65   1     0.00   0.07   0.03    -0.02  -0.26  -0.10    -0.00  -0.06  -0.02
  66   1    -0.00   0.00   0.00     0.00  -0.00  -0.00     0.00   0.00   0.00
  67   1    -0.00   0.01   0.00     0.00  -0.00  -0.00    -0.00   0.01   0.00
  68   1    -0.01   0.00   0.00     0.00  -0.00  -0.00    -0.01   0.00   0.00
  69   1    -0.00   0.00   0.00    -0.00  -0.00  -0.00    -0.00   0.00  -0.00
  70   1    -0.00  -0.00  -0.00    -0.01  -0.00  -0.00    -0.01  -0.00  -0.00
  71   1    -0.00  -0.00  -0.00    -0.00  -0.01  -0.00    -0.00  -0.01  -0.00
  72   1     0.00   0.00   0.00    -0.00  -0.00  -0.00     0.00   0.00   0.00
  73   6    -0.00   0.00   0.00    -0.00   0.00   0.00    -0.00   0.00  -0.00
  74   6     0.00   0.00  -0.00     0.00   0.00  -0.00     0.00  -0.00   0.00
  75   6    -0.00   0.00   0.00     0.00  -0.00  -0.00     0.00   0.00   0.00
  76   6     0.00  -0.00  -0.00     0.00   0.00   0.00     0.00  -0.00  -0.00
  77  26     0.00   0.00   0.00    -0.00   0.00   0.00    -0.00  -0.00   0.00
  78   6     0.00  -0.09  -0.00     0.00  -0.03  -0.00     0.00  -0.02  -0.00
  79   6    -0.18  -0.02  -0.01    -0.06  -0.01  -0.00    -0.05  -0.01  -0.00
  80   6    -0.00   0.01   0.00    -0.00   0.00   0.00    -0.00   0.00   0.00
  81   6    -0.00  -0.00  -0.00    -0.00  -0.00  -0.00    -0.00   0.00   0.00
  82   6     0.00   0.00   0.00    -0.00  -0.00  -0.00    -0.00  -0.00  -0.00
  83   6     0.07  -0.01  -0.00    -0.01   0.00   0.00    -0.11   0.01   0.01
  84   6     0.00  -0.04  -0.00     0.00   0.00   0.00    -0.00   0.05   0.00
  85   6    -0.00  -0.00   0.00     0.00  -0.00  -0.00     0.00   0.00  -0.00
  86   7    -0.00   0.00   0.00     0.00  -0.00  -0.00     0.00  -0.00  -0.00
  87   6     0.00  -0.00  -0.00    -0.00  -0.00   0.00     0.00   0.00   0.00
  88   6    -0.00   0.00   0.00     0.00  -0.00  -0.00    -0.00   0.00   0.00
  89   6    -0.00   0.02  -0.00     0.00  -0.03   0.00    -0.00   0.07  -0.00
  90   6     0.03   0.00  -0.00    -0.06  -0.01   0.00     0.14   0.02  -0.01
  91   6     0.00  -0.00   0.00    -0.00   0.00  -0.00     0.00  -0.00   0.00
  92   7    -0.00  -0.00   0.00     0.00   0.00  -0.00    -0.00  -0.00   0.00
  93   6     0.00   0.00  -0.00     0.00  -0.00   0.00     0.00   0.00  -0.00
  94   6    -0.00  -0.00   0.00     0.00   0.00  -0.00     0.00   0.00  -0.00
  95   6    -0.02   0.00  -0.00     0.15  -0.02   0.01     0.04  -0.00   0.00
  96   6     0.00   0.01  -0.00     0.00  -0.08   0.00    -0.00  -0.02   0.00
  97   6     0.00   0.00   0.00    -0.00  -0.00  -0.00    -0.00   0.00  -0.00
  98   7    -0.00  -0.00   0.00    -0.00   0.00  -0.00    -0.00   0.00  -0.00
  99   6    -0.00  -0.00  -0.00     0.00  -0.00   0.00    -0.00  -0.00  -0.00
 100   6     0.00  -0.00   0.00     0.00   0.00   0.00     0.00   0.00   0.00
 101   7     0.00   0.00   0.00     0.00   0.00   0.00     0.00   0.00   0.00
 102   1     0.02   0.29   0.01     0.01   0.10   0.00     0.00   0.07   0.00
 103   1     0.61   0.09   0.04     0.21   0.03   0.01     0.17   0.03   0.01
 104   1    -0.24   0.03   0.01     0.03  -0.00  -0.00     0.35  -0.05  -0.02
 105   1    -0.01   0.11   0.01     0.00  -0.01  -0.00     0.01  -0.16  -0.01
 106   1     0.00   0.00  -0.00    -0.00   0.00   0.00     0.00  -0.01  -0.00
 107   1    -0.00  -0.05   0.00     0.00   0.09  -0.00    -0.01  -0.21   0.01
 108   1    -0.11  -0.02   0.01     0.18   0.03  -0.01    -0.45  -0.07   0.03
 109   1     0.05  -0.01   0.00    -0.50   0.07  -0.03    -0.12   0.02  -0.01
 110   1     0.00  -0.02   0.00    -0.02   0.23  -0.01    -0.00   0.05  -0.00
 111   1    -0.00   0.01  -0.00     0.00   0.01  -0.00    -0.00   0.00   0.00
                    325                    326                    327
                        a                      a                      a 
 Frequencies --  3169.3394              3170.0436              3170.4747
 Red. masses --     1.9514                 1.9509                 1.9509
 Frc consts  --     0.0000                 0.0000                 0.0000
 IR Inten    --   107.7288                40.4181               235.8976
 Raman Activ --     0.0000                 0.0000                 0.0000
 Depolar     --     0.0000                 0.0000                 0.0000
 Atom AN      X      Y      Z        X      Y      Z        X      Y      Z
   1  26    -0.00  -0.00   0.00     0.00  -0.00   0.00    -0.00  -0.00   0.00
   2   6    -0.00  -0.03   0.01     0.00   0.09  -0.03    -0.00  -0.04   0.01
   3   6     0.07  -0.01   0.01    -0.20   0.02  -0.02     0.09  -0.01   0.01
   4   6     0.00   0.00  -0.00    -0.00  -0.01   0.00     0.00   0.00  -0.00
   5   6     0.00   0.00  -0.00    -0.00   0.00  -0.00     0.00   0.00  -0.00
   6   6     0.00  -0.01   0.00     0.00  -0.00   0.00     0.00  -0.00   0.00
   7   6     0.16   0.02  -0.01     0.05   0.01  -0.00     0.15   0.02  -0.01
   8   6    -0.00   0.08  -0.03    -0.00   0.02  -0.01    -0.00   0.07  -0.02
   9   6    -0.00   0.00   0.00    -0.00   0.00   0.00    -0.00   0.00   0.00
  10   7    -0.00  -0.00   0.00    -0.00  -0.00   0.00    -0.00  -0.00   0.00
  11   6     0.00   0.00  -0.00     0.00   0.00  -0.00     0.00   0.00  -0.00
  12   6    -0.00  -0.00   0.00    -0.00   0.00   0.00    -0.00  -0.00   0.00
  13   6    -0.00   0.00  -0.00    -0.00   0.00  -0.00    -0.00  -0.00   0.00
  14   6    -0.00   0.00   0.00    -0.00   0.00   0.00     0.00  -0.00   0.00
  15   6    -0.00  -0.00   0.00    -0.00  -0.00   0.00     0.00   0.00   0.00
  16   7     0.00  -0.00   0.00     0.00  -0.00   0.00    -0.00  -0.00   0.00
  17   6     0.00   0.00  -0.00    -0.00   0.00  -0.00     0.00   0.00  -0.00
  18   6     0.00   0.00  -0.00     0.00  -0.00   0.00     0.00  -0.00  -0.00
  19   6     0.00   0.00  -0.00     0.00   0.00  -0.00     0.00   0.00  -0.00
  20   6    -0.00  -0.00   0.00     0.00   0.00  -0.00    -0.00   0.00  -0.00
  21   6    -0.00   0.00  -0.00     0.00  -0.00   0.00    -0.00   0.00  -0.00
  22   7     0.00   0.00  -0.00    -0.00  -0.00   0.00    -0.00   0.00  -0.00
  23   6     0.00  -0.00   0.00    -0.00   0.00  -0.00     0.00  -0.00   0.00
  24   6    -0.00  -0.00  -0.00     0.00   0.00   0.00    -0.00  -0.00  -0.00
  25   7    -0.00   0.00  -0.00     0.00  -0.00   0.00    -0.00   0.00  -0.00
  26   1    -0.01   0.10  -0.03     0.02  -0.27   0.09    -0.01   0.12  -0.04
  27   1    -0.22   0.03  -0.02     0.66  -0.09   0.06    -0.29   0.04  -0.03
  28   1    -0.52  -0.07   0.05    -0.17  -0.02   0.02    -0.49  -0.06   0.04
  29   1    -0.01  -0.23   0.08    -0.00  -0.07   0.02    -0.01  -0.20   0.07
  30   1     0.00  -0.00   0.00     0.00  -0.00   0.00     0.00  -0.00   0.00
  31   1     0.00  -0.01   0.00     0.00  -0.00   0.00    -0.00   0.00  -0.00
  32   1     0.00  -0.00   0.00     0.00  -0.00   0.00    -0.00   0.00  -0.00
  33   1    -0.00  -0.00   0.00     0.00  -0.00   0.00    -0.00   0.00   0.00
  34   1    -0.00  -0.00   0.00    -0.01  -0.00   0.00    -0.01  -0.00   0.00
  35   1     0.00   0.00  -0.00    -0.00  -0.01   0.00    -0.00  -0.00   0.00
  36   1     0.00   0.00  -0.00    -0.00  -0.01   0.00     0.00   0.00  -0.00
  37  26     0.00  -0.00  -0.00     0.00  -0.00   0.00    -0.00   0.00  -0.00
  38   6     0.00   0.05   0.02     0.00   0.01   0.00    -0.00  -0.01  -0.00
  39   6    -0.11   0.01   0.01    -0.01   0.00   0.00     0.03  -0.00  -0.00
  40   6    -0.00  -0.00  -0.00    -0.00  -0.00  -0.00     0.00   0.00   0.00
  41   6    -0.00   0.00   0.00    -0.00   0.00   0.00     0.00  -0.00  -0.00
  42   6    -0.00   0.00   0.00    -0.00   0.00   0.00     0.00  -0.00  -0.00
  43   6    -0.06  -0.01  -0.00    -0.01  -0.00  -0.00     0.02   0.00   0.00
  44   6     0.00  -0.03  -0.01     0.00  -0.00  -0.00    -0.00   0.01   0.00
  45   6     0.00  -0.00   0.00     0.00  -0.00  -0.00    -0.00   0.00   0.00
  46   7     0.00   0.00   0.00     0.00   0.00   0.00    -0.00  -0.00  -0.00
  47   6    -0.00  -0.00  -0.00    -0.00  -0.00  -0.00     0.00   0.00   0.00
  48   6    -0.00   0.00   0.00     0.00  -0.00   0.00     0.00   0.00   0.00
  49   6     0.00  -0.00  -0.00     0.00   0.00   0.00    -0.00   0.00   0.00
  50   6     0.00  -0.00  -0.00    -0.00   0.00   0.00    -0.00   0.00   0.00
  51   6    -0.00   0.00   0.00     0.00  -0.00  -0.00    -0.00  -0.00  -0.00
  52   7    -0.00   0.00   0.00     0.00  -0.00  -0.00    -0.00   0.00   0.00
  53   6    -0.00   0.00   0.00     0.00  -0.00  -0.00    -0.00  -0.00  -0.00
  54   6     0.00  -0.00  -0.00     0.00   0.00   0.00    -0.00   0.00   0.00
  55   6     0.00   0.00   0.00    -0.00  -0.00  -0.00    -0.00  -0.00  -0.00
  56   6     0.00   0.00   0.00     0.00  -0.00  -0.00    -0.00  -0.00  -0.00
  57   6    -0.00  -0.00  -0.00     0.00   0.00  -0.00     0.00  -0.00   0.00
  58   7    -0.00  -0.00  -0.00     0.00   0.00   0.00    -0.00  -0.00  -0.00
  59   6    -0.00   0.00   0.00    -0.00   0.00   0.00     0.00  -0.00  -0.00
  60   6     0.00   0.00   0.00     0.00   0.00   0.00    -0.00  -0.00  -0.00
  61   7     0.00  -0.00  -0.00     0.00  -0.00  -0.00    -0.00   0.00   0.00
  62   1     0.01  -0.16  -0.06     0.00  -0.02  -0.01    -0.00   0.04   0.01
  63   1     0.36  -0.05  -0.03     0.04  -0.01  -0.00    -0.09   0.01   0.01
  64   1     0.20   0.03   0.02     0.02   0.00   0.00    -0.08  -0.01  -0.01
  65   1     0.01   0.09   0.03     0.00   0.01   0.00    -0.00  -0.03  -0.01
  66   1    -0.00   0.00   0.00    -0.00   0.00   0.00     0.00  -0.00  -0.00
  67   1    -0.00   0.00   0.00     0.00  -0.00  -0.00     0.00  -0.01  -0.00
  68   1    -0.00   0.00   0.00     0.00  -0.00  -0.00     0.00  -0.00  -0.00
  69   1     0.00  -0.00  -0.00    -0.00   0.00   0.00     0.00  -0.00   0.00
  70   1    -0.01  -0.00  -0.00     0.00   0.00   0.00     0.01   0.00   0.00
  71   1    -0.00  -0.01  -0.00     0.00   0.00   0.00     0.00   0.01   0.00
  72   1    -0.00  -0.00  -0.00    -0.00  -0.00  -0.00     0.00   0.00   0.00
  73   6    -0.00   0.00  -0.00     0.00   0.00  -0.00     0.00   0.00  -0.00
  74   6     0.00  -0.00   0.00    -0.00  -0.00   0.00     0.00  -0.00   0.00
  75   6    -0.00  -0.00  -0.00    -0.00  -0.00   0.00     0.00   0.00  -0.00
  76   6    -0.00   0.00   0.00    -0.00   0.00  -0.00     0.00   0.00  -0.00
  77  26     0.00   0.00  -0.00     0.00   0.00  -0.00    -0.00   0.00   0.00
  78   6     0.00  -0.05  -0.00     0.00  -0.06  -0.00    -0.00   0.03   0.00
  79   6    -0.09  -0.01  -0.01    -0.12  -0.02  -0.01     0.07   0.01   0.00
  80   6    -0.00   0.00   0.00    -0.00   0.00   0.00     0.00  -0.00  -0.00
  81   6    -0.00  -0.00   0.00     0.00  -0.00  -0.00     0.00  -0.00  -0.00
  82   6    -0.00  -0.00  -0.00     0.00   0.00   0.00     0.00   0.01   0.00
  83   6    -0.09   0.01   0.01     0.11  -0.01  -0.01     0.18  -0.02  -0.01
  84   6    -0.00   0.05   0.00    -0.00  -0.05  -0.00    -0.00  -0.08  -0.00
  85   6     0.00   0.00  -0.00    -0.00  -0.00   0.00    -0.00  -0.00   0.00
  86   7     0.00  -0.00  -0.00    -0.00   0.00   0.00    -0.00   0.00   0.00
  87   6    -0.00   0.00   0.00     0.00  -0.00  -0.00     0.00  -0.00  -0.00
  88   6     0.00  -0.00  -0.00     0.00   0.00  -0.00    -0.00   0.00   0.00
  89   6     0.00  -0.03   0.00     0.00  -0.01   0.00    -0.00   0.01  -0.00
  90   6    -0.07  -0.01   0.00    -0.02  -0.00   0.00     0.02   0.00  -0.00
  91   6    -0.00   0.00  -0.00    -0.00   0.00  -0.00     0.00  -0.00   0.00
  92   7     0.00   0.00  -0.00     0.00   0.00  -0.00    -0.00   0.00   0.00
  93   6    -0.00  -0.00   0.00    -0.00  -0.00   0.00     0.00  -0.00   0.00
  94   6    -0.00  -0.00   0.00    -0.00  -0.00   0.00     0.00   0.00  -0.00
  95   6    -0.03   0.00  -0.00    -0.01   0.00  -0.00     0.03  -0.00   0.00
  96   6     0.00   0.01  -0.00     0.00   0.00  -0.00     0.00  -0.01   0.00
  97   6     0.00   0.00   0.00     0.00   0.00   0.00    -0.00  -0.00  -0.00
  98   7     0.00  -0.00   0.00     0.00   0.00   0.00    -0.00   0.00  -0.00
  99   6    -0.00  -0.00  -0.00    -0.00  -0.00  -0.00     0.00  -0.00   0.00
 100   6     0.00  -0.00   0.00     0.00  -0.00   0.00    -0.00   0.00  -0.00
 101   7     0.00   0.00   0.00     0.00   0.00   0.00    -0.00  -0.00  -0.00
 102   1     0.01   0.14   0.01     0.01   0.17   0.01    -0.00  -0.09  -0.00
 103   1     0.30   0.05   0.02     0.39   0.06   0.03    -0.22  -0.03  -0.01
 104   1     0.29  -0.04  -0.02    -0.35   0.05   0.02    -0.60   0.09   0.04
 105   1     0.01  -0.14  -0.01    -0.01   0.15   0.01    -0.02   0.25   0.01
 106   1    -0.00  -0.00   0.00     0.00   0.00   0.00     0.00   0.00  -0.00
 107   1     0.01   0.10  -0.00     0.00   0.04  -0.00    -0.00  -0.04   0.00
 108   1     0.24   0.04  -0.01     0.07   0.01  -0.00    -0.08  -0.01   0.01
 109   1     0.11  -0.02   0.01     0.02  -0.00   0.00    -0.08   0.01  -0.00
 110   1     0.00  -0.04   0.00     0.00  -0.01   0.00    -0.00   0.04  -0.00
 111   1    -0.00   0.00  -0.00    -0.00   0.00  -0.00     0.00   0.00   0.00
