111
 energy: -197.059919020649 gnorm: 0.610678764532 xtb: 6.4.1 (bd6e46d)
Fe       15.83846300000000    0.03559800000000   -0.00993100000000
C        18.16745400000000   -3.11119500000000    1.31275700000000
C        19.08356100000000   -2.16698800000000    1.26247500000000
C        18.67238100000000   -1.11308400000000    0.34118300000000
C        19.29125200000000    0.01126200000000   -0.00522600000000
C        18.58721000000000    1.23121100000000   -0.36933200000000
C        18.91532000000000    2.19126500000000   -1.21680500000000
C        17.88054000000000    3.20755100000000   -1.23370300000000
C        16.94427200000000    2.83108900000000   -0.38681100000000
N        17.34626300000000    1.59807800000000    0.17700600000000
C        15.68319800000000    3.47608800000000   -0.00766000000000
C        14.58798100000000    2.84130600000000    0.34310000000000
C        13.51435500000000    3.15926200000000    1.31212900000000
C        12.67679200000000    2.16250800000000    1.23496200000000
C        13.11509000000000    1.15882500000000    0.25451000000000
N        14.22002800000000    1.59767800000000   -0.22978200000000
C        12.50425500000000   -0.09444600000000   -0.15903800000000
C        13.16841600000000   -1.19895300000000   -0.41346200000000
C        12.79456700000000   -2.26189400000000   -1.37099000000000
C        13.74331400000000   -3.15565000000000   -1.28197000000000
C        14.72903800000000   -2.71820000000000   -0.29909300000000
N        14.37599200000000   -1.57239500000000    0.19770500000000
C        15.95992600000000   -3.37427100000000    0.14662900000000
C        17.08296700000000   -2.72840900000000    0.41375000000000
N        17.41156700000000   -1.48096800000000   -0.18465400000000
H        18.22771500000000   -4.02097600000000    1.93030400000000
H        19.99988800000000   -2.20693700000000    1.84052400000000
H        19.84268500000000    2.20806100000000   -1.81794900000000
H        17.89743900000000    4.11223900000000   -1.84632500000000
H        15.63547500000000    4.57089100000000   -0.01143700000000
H        13.46153400000000    4.03798700000000    1.93712100000000
H        11.76516200000000    2.12683800000000    1.85228600000000
H        11.40600500000000   -0.09153500000000   -0.25830800000000
H        11.92571100000000   -2.31435900000000   -2.01994000000000
H        13.74046800000000   -4.07195800000000   -1.88073000000000
H        15.92444400000000   -4.47007200000000    0.25855300000000
Fe       40.00276500000000   -0.01177800000000   -0.01436400000000
C        37.67377400000000    2.83501400000000    1.86914000000000
C        36.75766600000000    1.91652400000000    1.64456700000000
C        37.16884600000001    1.05182800000000    0.54375300000000
C        36.54997500000001    0.01126200000000   -0.00522600000000
C        37.25401800000000   -1.11996200000000   -0.58932900000000
C        36.92590700000001   -1.90613400000000   -1.60019600000000
C        37.96068700000000   -2.90164300000000   -1.80533600000000
C        38.89695500000000   -2.68882700000000   -0.90330600000000
N        38.49496500000000   -1.58181500000000   -0.12053500000000
C        40.15802900000000   -3.39296800000000   -0.65039300000000
C        41.25324700000001   -2.83427500000000   -0.18796000000000
C        42.32687200000000   -3.32648100000000    0.70526200000000
C        43.16443500000000   -2.33271400000000    0.81434700000000
C        42.72613700000000   -1.16456500000000    0.03711200000000
N        41.62119900000000   -1.50595700000000   -0.52018700000000
C        43.33697200000000    0.14367000000000   -0.13675700000000
C        42.67281200000000    1.27620400000000   -0.18186400000000
C        43.04666000000001    2.49832900000000   -0.92557900000000
C        42.09791300000000    3.36005700000000   -0.67230000000000
C        41.11218900000000    2.74786200000000    0.21236300000000
N        41.46523500000000    1.52978300000000    0.48797300000000
C        39.88130100000001    3.30985600000000    0.77205800000000
C        38.75826000000000    2.62565200000000    0.91472500000000
N        38.42966000000000    1.51087700000000    0.09529100000000
H        37.61351200000000    3.61443800000000    2.64474400000000
H        35.84133900000000    1.84854400000000    2.21999200000000
H        35.99854200000000   -1.81111700000000   -2.19402100000000
H        37.94378800000000   -3.67697800000000   -2.57515600000000
H        40.20575200000000   -4.46806600000000   -0.85720600000000
H        42.37969400000000   -4.30589700000000    1.15638900000000
H        44.07606500000000   -2.41218600000000    1.42757300000000
H        44.43522300000000    0.15922600000000   -0.23484500000000
H        43.91551600000000    2.67027300000000   -1.55353100000000
H        42.10075900000000    4.37153800000000   -1.09067800000000
H        39.91678400000000    4.36587300000000    1.08532700000000
C        21.90570000000000    0.01126200000000   -0.00522600000000
C        23.12190500000001    0.01126200000000   -0.00522600000000
C        32.71932200000000    0.01126200000000   -0.00522600000000
C        33.93552700000000    0.01126200000000   -0.00522600000000
Fe       27.95211000000000    0.02406400000000    0.00825900000000
C        25.67229900000000   -3.23738300000000   -0.90140700000000
C        24.71609000000000   -2.33803300000000   -1.00343300000000
C        25.10846400000000   -1.17572800000000   -0.20091700000000
C        24.47334700000000   -0.02445600000000    0.01134900000000
C        25.15880400000000    1.25014400000000    0.23757800000000
C        24.82351400000000    2.32874400000000    0.94181900000000
C        25.84805500000000    3.34806100000000    0.85123700000000
C        26.79865300000000    2.85113600000000    0.07787200000000
N        26.42165800000000    1.53453100000000   -0.33827100000000
C        28.04579200000000    3.46283800000000   -0.33899300000000
C        29.14734400000000    2.79558000000000   -0.67076500000000
C        30.14089000000000    3.04756500000000   -1.70493500000000
C        31.03477300000000    2.08670600000000   -1.60345100000000
C        30.65507500000000    1.17482200000000   -0.49947400000000
N        29.56016000000000    1.62414100000000    0.00789300000000
C        31.31228200000000   -0.02445600000000    0.01134900000000
C        30.68887100000000   -1.09363800000000    0.47286600000000
C        31.06758300000000   -2.02575300000000    1.54834100000000
C        30.12691500000000   -2.93989900000000    1.63420700000000
C        29.11861300000000   -2.64412000000000    0.63678000000000
N        29.45638800000000   -1.59074300000000   -0.01251500000000
C        27.86622000000000   -3.35112700000000    0.30558700000000
C        26.75234400000000   -2.75443100000000   -0.04175400000000
N        26.37023100000000   -1.47167400000000    0.37592800000000
H        25.67264300000000   -4.22845700000000   -1.39264100000000
H        23.80755500000000   -2.45972700000000   -1.58458100000000
H        23.89866200000000    2.44709500000000    1.51874400000000
H        25.87535000000000    4.33722500000000    1.30788700000000
H        28.13173200000000    4.56021500000000   -0.40101600000000
H        30.17356300000001    3.85378100000000   -2.43175900000000
H        31.92783500000001    1.97373800000000   -2.23722500000000
H        31.98233400000001   -1.95134700000000    2.15851100000000
H        30.14596100000000   -3.75350700000000    2.34247500000000
H        27.90470500000000   -4.45108700000000    0.36462300000000
111
 energy: -197.243220350827 gnorm: 0.319738282201 xtb: 6.4.1 (bd6e46d)
Fe       15.85332011514912    0.03235937534048   -0.00948741507871
C        18.17119134171310   -3.12162635336609    1.30162976745363
C        19.10471182944178   -2.16854102452811    1.25679913814412
C        18.67456595018224   -1.11527793813275    0.34879586317507
C        19.28053279485059    0.03827245379501   -0.00060278109316
C        18.57533814777459    1.22926256527719   -0.36220163929277
C        18.93150731175406    2.22419985002602   -1.23732957939346
C        17.91667999882008    3.21078689386627   -1.24899526379022
C        16.94024141546307    2.80243110962052   -0.38165321337687
N        17.31978076835177    1.57121533727093    0.17713366455066
C        15.70767195172076    3.47119270667058   -0.00684774891112
C        14.57747060883763    2.82305001778257    0.34435272402463
C        13.51153730538825    3.16877533283533    1.29016050862308
C        12.64403625441604    2.15600498152458    1.23805372838679
C        13.10838134885121    1.15959445370554    0.27631906215631
N        14.26066130732714    1.57116126901554   -0.20213209953683
C        12.48976278794694   -0.06872963178726   -0.15032866993093
C        13.17133971023621   -1.20147535316421   -0.42075194680377
C        12.78432316170037   -2.26499065023987   -1.35295689821672
C        13.75017699385015   -3.18329769088491   -1.27785646132527
C        14.73993224165790   -2.73068709751511   -0.31150610131515
N        14.39060095530824   -1.54605183530355    0.16300223870109
C        15.94067405883138   -3.38088412571662    0.13658971728376
C        17.08964307710975   -2.71077213547905    0.41895375180200
N        17.40466158145835   -1.47087337800026   -0.14535015589418
H        18.21607006477680   -4.01509574480238    1.91931802943188
H        20.00897142385168   -2.19423317538215    1.83742256614778
H        19.84227650043197    2.22231179546761   -1.82232605282404
H        17.90887464873456    4.10873607210018   -1.84933908022920
H        15.66078965177272    4.56319068651730   -0.00133994233177
H        13.47132405186555    4.03661292789808    1.92712122475010
H        11.75581339437006    2.11419000140630    1.85216934664738
H        11.40644002179889   -0.07794134912448   -0.26598484925368
H        11.92731911649375   -2.30166551636185   -2.00864240166622
H        13.75576847897691   -4.08047816298943   -1.87665149840787
H        15.91738333895705   -4.46485669309485    0.25819897251647
Fe       39.98791371023719   -0.00865579229795   -0.01335827583337
C        37.67007509542753    2.84733948704779    1.86015136615511
C        36.73661880298338    1.91908708803569    1.63930021649899
C        37.16697439803348    1.05253343381685    0.55180129490822
C        36.56165459089328   -0.01650928791855   -0.00502019576725
C        37.26619914042260   -1.11934170092197   -0.58188996546501
C        36.90981844686191   -1.93466923538180   -1.62643151016284
C        37.92451758424549   -2.90196037861294   -1.82096676040647
C        38.90104101501853   -2.66162061239804   -0.89291997005720
N        38.52161286110183   -1.55560914383586   -0.11533099412806
C        40.13357308556546   -3.38832983527897   -0.64871645025859
C        41.26375776584096   -2.81655562389128   -0.18335477731850
C        42.32968543901210   -3.33173968187252    0.68192028090037
C        43.19720283296618   -2.32690010680166    0.81855986898341
C        42.73284051449522   -1.16935075712052    0.05837794658127
N        41.58055591409163   -1.48504576098349   -0.48813745210351
C        43.35145252985271    0.11677333129647   -0.13296756874010
C        42.66986596826871    1.28003979257990   -0.18857476934641
C        43.05689740534984    2.49802117161909   -0.90730299227267
C        42.09104023287871    3.38646010943373   -0.66315520995355
C        41.10129719678689    2.76243809848885    0.20246399410977
N        41.45064030589150    1.51035581067267    0.44900840378091
C        39.90055502184669    3.31824687669352    0.76341694219856
C        38.75161079666179    2.60738583038848    0.91655629754304
N        38.43678293672490    1.49363790411917    0.13204881500366
H        37.62515762436950    3.61071607360930    2.63285264504537
H        35.83230842991605    1.83665125300448    2.21455874381974
H        35.99899943014323   -1.82428336765755   -2.20096054257842
H        37.93234073266573   -3.67295973975714   -2.57750013218053
H        40.18044962986160   -4.46238721209188   -0.84589501841076
H        42.36991196266839   -4.30269367476735    1.14680657615184
H        44.08541794846548   -2.39973516979213    1.42978989137141
H        44.43478016817065    0.14728864469599   -0.24490659243742
H        43.91390860791405    2.65570243553471   -1.54479525138837
H        42.08545833872869    4.37915809153426   -1.08510010433178
H        39.92383794809142    4.36083530510245    1.08400398754691
C        21.86208140916626    0.01035141258318   -0.00616138036442
C        23.08534187478321    0.02353252806177   -0.00909039027949
C        32.75253221364708    0.02148252387561    0.00041855447263
C        33.97304350676444    0.01124771024859   -0.00563716079399
Fe       27.94105731822786    0.02706658267232    0.00368993795416
C        25.67063286098459   -3.25950259119684   -0.89117996212622
C        24.70717309444384   -2.33964494446284   -0.99101126908560
C        25.13092727651815   -1.18678646517926   -0.20698176023913
C        24.47906829836816   -0.00033874807970    0.00639638718459
C        25.18827030450852    1.25474860795234    0.23644575844961
C        24.81093939901962    2.35986740837062    0.95549894407894
C        25.81842015262908    3.35035610775599    0.85976822715811
C        26.80912694574707    2.82651459960135    0.07613049194597
N        26.44988988204213    1.51686629573621   -0.32211680698902
C        28.02790065825166    3.45862834494464   -0.34184022324625
C        29.15767770139944    2.78043467172330   -0.67166758445925
C        30.15335226664583    3.05636652132639   -1.68726157674318
C        31.06217478746551    2.07399088012815   -1.60262553849069
C        30.66154823490184    1.16961771018528   -0.52200452305365
N        29.52366979786266    1.59777868901259   -0.01658188916247
C        31.33376929391864   -0.00468651280993    0.00044856225489
C        30.68087483220315   -1.10257025080370    0.48147171088779
C        31.08315346649051   -2.02743131609861    1.53482446778693
C        30.12431584764643   -2.95999451850204    1.63250745155010
C        29.10727420620682   -2.65001519662857    0.64955575182226
N        29.43828504632134   -1.54845121828514    0.00635632425315
C        27.88858000138553   -3.35794738031212    0.31706295809080
C        26.73997391424506   -2.74100487216780   -0.05086558436783
N        26.38650029812258   -1.45474032442346    0.33514734774514
H        25.67953178911711   -4.22608356725199   -1.38762000528958
H        23.80739255634714   -2.44564801153166   -1.57777015142330
H        23.89553084328989    2.45498402698879    1.52132378555210
H        25.85820018285303    4.33046346600297    1.31181639915525
H        28.10500351674046    4.55018146311130   -0.41050050252143
H        30.16416024902127    3.85195333425355   -2.41933682744256
H        31.93230350471532    1.96388317423086   -2.23412373523046
H        31.97697107504947   -1.94447579219053    2.14658437995601
H        30.13554566269461   -3.76301341021249    2.34329759839978
H        27.91472760763143   -4.44741256916779    0.36052159002956
111
 energy: -197.348587112080 gnorm: 0.121177421286 xtb: 6.4.1 (bd6e46d)
Fe       15.86694970519536    0.03243280268784   -0.00548579378853
C        18.17235164543870   -3.12594178623621    1.28852856720319
C        19.12398595079554   -2.16893688314757    1.24850406957703
C        18.67410592447815   -1.11506580977066    0.36107624219542
C        19.26892179289146    0.06259705655370   -0.00579989363422
C        18.56839626861011    1.22133233740801   -0.35993829359714
C        18.94457008421341    2.25751906019369   -1.24717123475745
C        17.95522842492427    3.20909814711723   -1.24959762175275
C        16.93671796461753    2.76939480021703   -0.37358395577342
N        17.29591783289703    1.53939578402646    0.15229430374523
C        15.73679945689755    3.45495409120183   -0.00525548193423
C        14.57960777651097    2.79215194173316    0.35595157017813
C        13.51660801207923    3.16951689191611    1.26244754981144
C        12.61611502568096    2.15445537718138    1.22814336889330
C        13.10351433073260    1.15704145659264    0.30036040941979
N        14.31032907504980    1.53729792609059   -0.15703775863749
C        12.48444996270637   -0.04484032310360   -0.13993289996729
C        13.18297598635624   -1.19665629889653   -0.43863235995246
C        12.78130434557253   -2.26441848643867   -1.33206586011472
C        13.75157838437277   -3.20692200631032   -1.26391455324223
C        14.75205156587089   -2.73794604477810   -0.32618320556127
N        14.41131773544779   -1.50605280897481    0.11122366419249
C        15.92430643079870   -3.37731382060243    0.12522000969984
C        17.09140003509103   -2.68318051189239    0.43015350385162
N        17.39338284447866   -1.45489873466460   -0.09615716890399
H        18.20328166371592   -4.00987031079677    1.90187064081925
H        20.02300645467021   -2.18099493002524    1.82762955742049
H        19.84366172108953    2.23534825057877   -1.82265127288034
H        17.91572492049628    4.10313411040595   -1.84360785698985
H        15.68771769283954    4.54392409989682   -0.00062712082703
H        13.48154958367740    4.03196551427842    1.90717607591690
H        11.74516954216153    2.10207362261595    1.84343459028036
H        11.41079631047042   -0.06922332434930   -0.26331085519324
H        11.93014540079007   -2.28907411005711   -1.99040917633535
H        13.77011713117411   -4.09123189183341   -1.86489293228624
H        15.91847978592801   -4.45395136913557    0.24934592979549
Fe       39.97425937834102   -0.00951961590651   -0.00943399025208
C        37.66900041288758    2.85398704907623    1.84809969027778
C        36.71757270005756    1.92084901907043    1.63115886323154
C        37.16794623700995    1.05026384075193    0.56344944046542
C        36.57437193018916   -0.03858731345542   -0.01642705425880
C        37.27351955237557   -1.11183996920074   -0.57852244358151
C        36.89694498243814   -1.96559777129190   -1.64239487769296
C        37.88604847261146   -2.90026420992832   -1.82125444412479
C        38.90465081319679   -2.63080901603869   -0.87882518397986
N        38.54565212672232   -1.51988620962302   -0.13384753233490
C        40.10449784118459   -3.37276241827973   -0.64414524993942
C        41.26163565669613   -2.78836224289072   -0.16621068759359
C        42.32461953530455   -3.32731857956267    0.65455891342259
C        43.22512901243596   -2.32351865478287    0.80911619141725
C        42.73773966560400   -1.17129560438649    0.08247340944610
N        41.53089942736433   -1.46014535324705   -0.43754476950149
C        43.35678099829009    0.09136612206904   -0.12719238657850
C        42.65824188154880    1.27862158669088   -0.20706533055022
C        43.05991850976220    2.49357150995663   -0.88690633523659
C        42.08965239694769    3.40709360552113   -0.64508606409112
C        41.08921435493833    2.77234484636006    0.18940217319703
N        41.42992360271479    1.48065790952805    0.39067834339573
C        39.91705772622740    3.31699210512323    0.75165143630289
C        38.75001666242510    2.57836964451508    0.92251381453979
N        38.44852250957716    1.46916125710060    0.17740233556278
H        37.63791607922666    3.60883547508531    2.61471304581596
H        35.81837712929591    1.82540948269907    2.20228884397412
H        35.99777969576660   -1.83701771790685   -2.20370927557703
H        37.92553225581310   -3.66857556359246   -2.57082307575342
H        40.15358188929100   -4.44365261149129   -0.84165454039816
H        42.35968776102250   -4.29441897145440    1.12807696081818
H        44.09607135421213   -2.38619590969017    1.42345032625776
H        44.43043536493772    0.13823134978568   -0.24388402227328
H        43.91108369551709    2.63993670104688   -1.52923780451290
H        42.07111249844287    4.38754335918867   -1.07156994311056
H        39.92281301905902    4.35188212850936    1.07329233849206
C        21.82224995186174    0.01949927994576   -0.00201531699603
C        23.04686087612611    0.03699822618646   -0.00780363226228
C        32.79310067664032    0.02036116839314    0.00324126907423
C        34.01663791312648    0.00061366525862    0.00044709367969
Fe       27.93567320573246    0.03001351746767   -0.00366809094983
C        25.67342809748353   -3.27442007685639   -0.87841730229734
C        24.70181235723279   -2.33559856145011   -0.97515301039670
C        25.15029869181455   -1.18785729082490   -0.21804687888454
C        24.47771971934162    0.02616932014788    0.00485340608055
C        25.21473882186348    1.25201187858634    0.23537810345623
C        24.79966793535462    2.39060952115336    0.95830497136515
C        25.78622416243517    3.34599305143124    0.85758475101217
C        26.82052206106084    2.79641097032890    0.07443022557708
N        26.47729956821032    1.49349415692716   -0.28004910392023
C        28.00659378757599    3.44351484806709   -0.34427888396626
C        29.15975412003965    2.75006101569914   -0.68032589913610
C        30.16145362958317    3.05641373719126   -1.66544547072332
C        31.08822822415220    2.06294871079392   -1.58958151211102
C        30.67319384784005    1.15813183332539   -0.54462320270513
N        29.48249451793042    1.56052500895420   -0.05460789141721
C        31.36001832985652    0.01287788638685   -0.01029921148704
C        30.67123116495640   -1.10061248784874    0.49693379576614
C        31.09260952519624   -2.02443557455468    1.51690237360700
C        30.12443922495909   -2.97590893442924    1.61857664488012
C        29.09523979594891   -2.64785718472278    0.66251767353010
N        29.42108812727271   -1.48984992222859    0.04011541879852
C        27.91000317195141   -3.35089794051831    0.32784105703142
C        26.73658590574395   -2.72067198496066   -0.06881944612910
N        26.40327258266534   -1.43339579131460    0.28074008475264
H        25.68641907741441   -4.22492856135099   -1.37470823137903
H        23.80598582306935   -2.42907522201773   -1.56247441868308
H        23.89079791774600    2.46018421595088    1.51843099438489
H        25.84156249590660    4.32000156945546    1.30932499802334
H        28.07562355493231    4.52984467523537   -0.41195387595448
H        30.15438699958905    3.84924921207216   -2.39673068305883
H        31.94040334090949    1.95485275441964   -2.22458477114815
H        31.97233274405323   -1.94006210820086    2.12864753984470
H        30.12421688022053   -3.77266219697955    2.33446132169999
H        27.91853727404771   -4.43424746415114    0.36411823889457
111
 energy: -197.408028900848 gnorm: 0.080385744336 xtb: 6.4.1 (bd6e46d)
Fe       15.88093307922953    0.03358895760120    0.00760359171178
C        18.17859385526976   -3.12403515613827    1.27644507665883
C        19.14201239136217   -2.16922053266249    1.24068677030874
C        18.67846890588017   -1.10422258753198    0.38443190053582
C        19.27441055811146    0.07678743529874   -0.00068297985371
C        18.57557987061073    1.21118415022101   -0.36785217089118
C        18.96631104884727    2.27901086772828   -1.24771779474426
C        17.98431455012319    3.21194048616192   -1.24331878133043
C        16.94043582223366    2.74075171180173   -0.37354361732546
N        17.28375978178859    1.50250421325246    0.10820312502494
C        15.76486656159498    3.42718215088822    0.00157746439636
C        14.60037053957208    2.75586948851995    0.38025078145572
C        13.52081423644805    3.16607166416096    1.23998270309911
C        12.59899740225619    2.15918159712462    1.21057877726328
C        13.10871993273240    1.14346815887331    0.32760092121913
N        14.35738809922269    1.49389124860628   -0.09500627986686
C        12.48842572723599   -0.03241024919565   -0.13297318973065
C        13.19933737153937   -1.18427220040923   -0.46432068716137
C        12.78003105041094   -2.26742294974754   -1.31604947023800
C        13.74670359789118   -3.22287386227083   -1.24611598714232
C        14.76708546435411   -2.72991875885938   -0.35011585465142
N        14.44186841759326   -1.46313410884320    0.04606626468106
C        15.92219621355049   -3.36269428938739    0.11679921779143
C        17.09189686569955   -2.65664856092301    0.44639131687442
N        17.38558264101715   -1.42305854924005   -0.04290051769613
H        18.19427660852718   -4.01222348728901    1.87910014993272
H        20.04735592923059   -2.17281285345238    1.80998751162893
H        19.86544580757096    2.25185287584819   -1.82182293213252
H        17.92385277474987    4.10840240854896   -1.83133388789268
H        15.72116339434166    4.51380003497703   -0.00497256202525
H        13.48815016529915    4.03371298061322    1.87557500303246
H        11.72472777323236    2.09716172243127    1.82281917479786
H        11.41500106245968   -0.06147485991132   -0.25191053160822
H        11.92426365221519   -2.28330331398085   -1.96540722369248
H        13.77927044002579   -4.11188812847064   -1.84099189327052
H        15.92612564938762   -4.43916865214122    0.23213425012970
Fe       39.96046148778026   -0.01288053293478    0.00310524033601
C        37.66286303215507    2.85450801747835    1.83592056214289
C        36.69974575933831    1.92265944092559    1.62376161065758
C        37.16375659083391    1.03505003070766    0.58500451787615
C        36.56901163220066   -0.05411808583982   -0.01253573535249
C        37.26654138096293   -1.10065377246231   -0.58410825080298
C        36.87537490555878   -1.98653629102125   -1.64687834936589
C        37.85708583677393   -2.90429191231703   -1.81569835886313
C        38.90110978089974   -2.60285051257644   -0.87361289709210
N        38.55829627038999   -1.47551587125532   -0.17053861113870
C        40.07657711271268   -3.34691833429056   -0.63233244662993
C        41.24095247627380   -2.75731417171719   -0.13561505052699
C        42.32046442513136   -3.31979417571816    0.63315353563394
C        43.24225752650096   -2.32489870483675    0.79102434982302
C        42.73251609530490   -1.16302832101497    0.11179899246184
N        41.48382884566962   -1.42904248971328   -0.36848820779877
C        43.35279689173126    0.07786822094582   -0.12266280543029
C        42.64190437946060    1.27123296600319   -0.23460305352110
C        43.06123136193104    2.49355166784265   -0.87063715792615
C        42.09458263618078    3.41947890182180   -0.62467973382889
C        41.07424833539597    2.76895510741672    0.16438495140896
N        41.39944812074911    1.45066027022370    0.31877093951099
C        39.91927869624350    3.30431302667323    0.74063975261778
C        38.74961826103942    2.54944621761407    0.93352763433980
N        38.45623518100312    1.42812720110025    0.22384888908192
H        37.64699636488692    3.61551404847779    2.59280696560169
H        35.79421402218235    1.82071952175466    2.18354374697329
H        35.97610803777363   -1.85330965352749   -2.20576186110626
H        37.91738964557362   -3.67614488466397   -2.55975550423402
H        40.12026089469158   -4.41342543747859   -0.84029881494221
H        42.35312527629745   -4.29028177024495    1.09675504516551
H        44.11652913776622   -2.37752245218838    1.40413625684489
H        44.42622364618723    0.12849965717228   -0.23412836199696
H        43.91699241518302    2.62960636475005   -1.50578030311026
H        42.06199174436964    4.40340911995616   -1.04430741335856
H        39.91529177984547    4.34066956632028    1.05364718283362
C        21.78040979085067    0.03241206492031   -0.00287706606436
C        23.00693205285451    0.05129907480332   -0.00619387633697
C        32.84294178717172    0.01407078600434   -0.00410583746903
C        34.06898596822271   -0.00776505151170   -0.00345451693365
Fe       27.93831474186932    0.03257893904305   -0.01635812814120
C        25.67231787025285   -3.27560655294318   -0.86465304115911
C        24.69409030772461   -2.33171583606674   -0.95936666523178
C        25.15249978332503   -1.17361609423816   -0.23851329660129
C        24.45943137234779    0.04624010909834    0.00042382026147
C        25.21607312497002    1.24310975414822    0.24228129802500
C        24.78098564396132    2.40828684049228    0.95399079329136
C        25.76165158482810    3.34389262265060    0.85045986587486
C        26.82548681595580    2.76678481335318    0.08409353275605
N        26.49342437315190    1.46014867971348   -0.22182944120269
C        27.99025847389966    3.41078417523306   -0.34696301739506
C        29.15129602511918    2.70685479549993   -0.69702749385797
C        30.16964984504934    3.04822334451373   -1.64604160061959
C        31.11351079918408    2.06034805219289   -1.57270986345140
C        30.69063636636515    1.13607996314270   -0.56551589310121
N        29.45466554997425    1.50691881362092   -0.10440479486504
C        31.39724459752328    0.02181717998070   -0.01627643761556
C        30.67566806412360   -1.08546339759232    0.51429900206922
C        31.10302456268112   -2.02627831757329    1.50193957626265
C        30.13077374469383   -2.98346598775427    1.60044104799686
C        29.08721060466768   -2.62441382422065    0.67934965282940
N        29.41007125743973   -1.42674088411050    0.08630685046743
C        27.92228085605593   -3.32771226546704    0.33066116474755
C        26.74256752264484   -2.69650228837790   -0.09319898591731
N        26.42194086531373   -1.39932851226804    0.21602253968546
H        25.68953159614591   -4.22892871213912   -1.35307576588773
H        23.79446432977120   -2.41710084465030   -1.53804431534240
H        23.87014666203977    2.46799746558928    1.51023082549779
H        25.82250388571788    4.31789797076373    1.29892220707921
H        28.04378677709554    4.49551506986517   -0.41107085980370
H        30.14958893434486    3.85103194044946   -2.36343341716628
H        31.96455513528107    1.95369771275328   -2.20978534750401
H        31.98210291938178   -1.94411750413634    2.10872079713823
H        30.11675486196047   -3.78691071247536    2.31181161761573