      -----------------------------------------------------------      
     |                   =====================                   |     
     |                           x T B                           |     
     |                   =====================                   |     
     |                         S. Grimme                         |     
     |          Mulliken Center for Theoretical Chemistry        |     
     |                    University of Bonn                     |     
      -----------------------------------------------------------      

   * xtb version 6.4.1 (bd6e46d) compiled by 'conda@4901f00b25ba' on 2021-06-10

   xtb is free software: you can redistribute it and/or modify it under
   the terms of the GNU Lesser General Public License as published by
   the Free Software Foundation, either version 3 of the License, or
   (at your option) any later version.
   
   xtb is distributed in the hope that it will be useful,
   but WITHOUT ANY WARRANTY; without even the implied warranty of
   MERCHANTABILITY or FITNESS FOR A PARTICULAR PURPOSE.  See the
   GNU Lesser General Public License for more details.
   
   Cite this work as:
   * C. Bannwarth, E. Caldeweyher, S. Ehlert, A. Hansen, P. Pracht,
     J. Seibert, S. Spicher, S. Grimme, WIREs Comput. Mol. Sci., 2020, 11,
     e01493. DOI: 10.1002/wcms.1493
   
   for GFN2-xTB:
   * C. Bannwarth, S. Ehlert and S. Grimme., J. Chem. Theory Comput., 2019,
     15, 1652-1671. DOI: 10.1021/acs.jctc.8b01176
   for GFN1-xTB:
   * S. Grimme, C. Bannwarth, P. Shushkov, J. Chem. Theory Comput., 2017,
     13, 1989-2009. DOI: 10.1021/acs.jctc.7b00118
   for GFN0-xTB:
   * P. Pracht, E. Caldeweyher, S. Ehlert, S. Grimme, ChemRxiv, 2019, preprint.
     DOI: 10.26434/chemrxiv.8326202.v1
   for GFN-FF:
   * S. Spicher and S. Grimme, Angew. Chem. Int. Ed., 2020, 59, 15665-15673.
     DOI: 10.1002/anie.202004239
   
   for DFT-D4:
   * E. Caldeweyher, C. Bannwarth and S. Grimme, J. Chem. Phys., 2017,
     147, 034112. DOI: 10.1063/1.4993215
   * E. Caldeweyher, S. Ehlert, A. Hansen, H. Neugebauer, S. Spicher,
     C. Bannwarth and S. Grimme, J. Chem. Phys., 2019, 150, 154122.
     DOI: 10.1063/1.5090222
   * E. Caldeweyher, J.-M. Mewes, S. Ehlert and S. Grimme, Phys. Chem. Chem. Phys.
     2020, 22, 8499-8512. DOI: 10.1039/D0CP00502A
   
   for sTDA-xTB:
   * S. Grimme and C. Bannwarth, J. Chem. Phys., 2016, 145, 054103.
     DOI: 10.1063/1.4959605
   
   in the mass-spec context:
   * V. Asgeirsson, C. Bauer and S. Grimme, Chem. Sci., 2017, 8, 4879.
     DOI: 10.1039/c7sc00601b
   * J. Koopman and S. Grimme, ACS Omega 2019, 4, 12, 15120-15133.
     DOI: 10.1021/acsomega.9b02011
   
   for metadynamics refer to:
   * S. Grimme, J. Chem. Theory Comput., 2019, 155, 2847-2862
     DOI: 10.1021/acs.jctc.9b00143
   
   for SPH calculations refer to:
   * S. Spicher and S. Grimme, J. Chem. Theory Comput., 2021, 17, 1701-1714
     DOI: 10.1021/acs.jctc.0c01306
   
   with help from (in alphabetical order)
   P. Atkinson, C. Bannwarth, F. Bohle, G. Brandenburg, E. Caldeweyher
   M. Checinski, S. Dohm, S. Ehlert, S. Ehrlich, I. Gerasimov, J. Koopman
   C. Lavigne, S. Lehtola, F. März, M. Müller, F. Musil, H. Neugebauer
   J. Pisarek, C. Plett, P. Pracht, J. Seibert, P. Shushkov, S. Spicher
   M. Stahn, M. Steiner, T. Strunk, J. Stückrath, T. Rose, and J. Unsleber
   
 * started run on 2021/11/21 at 21:12:38.312     

           -------------------------------------------------
          |                Calculation Setup                |
           -------------------------------------------------

          program call               : /home/jeff/miniconda3/bin/xtb /home/jeff/chem/final-year-proejct/Fe+2_6_5_outenergy/input_structure.xyz --gfn 2 --parallel 1 --etemp 300 --chrg 0 --uhf 0 -I det_control.in
          coordinate file            : /home/jeff/chem/final-year-proejct/Fe+2_6_5_outenergy/input_structure.xyz
          omp threads                :                     1
          number of atoms            :                   201
          number of electrons        :                   688
          charge                     :                     0
          spin                       :                   0.0
          first test random number   :      0.96756366717796

   ID    Z sym.   atoms
    1   26 Fe     1, 37, 97, 132, 167
    2    6 C      2-9, 11-15, 17-21, 23, 24, 38-45, 47-51, 53-57, 59, 60,
                  73-96, 98-105, 107-111, 113-117, 119, 120, 133-140,
                  142-146, 148-152, 154, 155, 168-175, 177-181, 183-187, 189,
                  190
    3    7 N      10, 16, 22, 25, 46, 52, 58, 61, 106, 112, 118, 121, 141,
                  147, 153, 156, 176, 182, 188, 191
    4    1 H      26-36, 62-72, 122-131, 157-166, 192-201

           -------------------------------------------------
          |                 G F N 2 - x T B                 |
           -------------------------------------------------

        Reference                      10.1021/acs.jctc.8b01176
      * Hamiltonian:
        H0-scaling (s, p, d)           1.850000    2.230000    2.230000
        zeta-weighting                 0.500000
      * Dispersion:
        s8                             2.700000
        a1                             0.520000
        a2                             5.000000
        s9                             5.000000
      * Repulsion:
        kExp                           1.500000    1.000000
        rExp                           1.000000
      * Coulomb:
        alpha                          2.000000
        third order                    shell-resolved
        anisotropic                    true
        a3                             3.000000
        a5                             4.000000
        cn-shift                       1.200000
        cn-exp                         4.000000
        max-rad                        5.000000


          ...................................................
          :                      SETUP                      :
          :.................................................:
          :  # basis functions                 678          :
          :  # atomic orbitals                 673          :
          :  # shells                          355          :
          :  # electrons                       688          :
          :  max. iterations                   250          :
          :  Hamiltonian                  GFN2-xTB          :
          :  restarted?                      false          :
          :  GBSA solvation                  false          :
          :  PC potential                    false          :
          :  electronic temp.          300.0000000     K    :
          :  accuracy                    1.0000000          :
          :  -> integral cutoff          0.2500000E+02      :
          :  -> integral neglect         0.1000000E-07      :
          :  -> SCF convergence          0.1000000E-05 Eh   :
          :  -> wf. convergence          0.1000000E-03 e    :
          :  Broyden damping             0.4000000          :
          ...................................................

 iter      E             dE          RMSdq      gap      omega  full diag
   1   -371.3341439 -0.371334E+03  0.853E+00    0.01       0.0  T
   2   -353.2587722  0.180754E+02  0.916E+00    0.01       1.0  T
   3   -338.7116465  0.145471E+02  0.932E+00    0.08       1.0  T
   4   -327.8183155  0.108933E+02  0.802E+00    0.01       1.0  T
   5   -296.2232473  0.315951E+02  0.892E+00    0.03       1.0  T
   6   -340.0055326 -0.437823E+02  0.795E+00    0.07       1.0  T
   7   -354.1296042 -0.141241E+02  0.695E+00    0.27       1.0  T
   8   -341.3687487  0.127609E+02  0.630E+00    0.13       1.0  T
   9   -346.4954905 -0.512674E+01  0.687E+00    0.05       1.0  T
  10   -362.8150084 -0.163195E+02  0.492E+00    0.08       1.0  T
  11   -364.1246268 -0.130962E+01  0.584E+00    0.18       1.0  T
  12   -363.3412033  0.783423E+00  0.599E+00    0.12       1.0  T
  13   -369.6414099 -0.630021E+01  0.352E+00    0.09       1.0  T
  14   -369.6104539  0.309559E-01  0.332E+00    0.05       1.0  T
  15   -366.5772167  0.303324E+01  0.458E+00    0.03       1.0  T
  16   -362.4119665  0.416525E+01  0.554E+00    0.01       1.0  T
  17   -362.8924156 -0.480449E+00  0.538E+00    0.09       1.0  T
  18   -362.7326527  0.159763E+00  0.545E+00    0.22       1.0  T
  19   -362.4933694  0.239283E+00  0.535E+00    0.10       1.0  T
  20   -367.7555017 -0.526213E+01  0.376E+00    0.01       1.0  T
  21   -368.9004541 -0.114495E+01  0.343E+00    0.01       1.0  T
  22   -367.8794537  0.102100E+01  0.382E+00    0.03       1.0  T
  23   -370.5624085 -0.268295E+01  0.276E+00    0.10       1.0  T
  24   -370.3527486  0.209660E+00  0.267E+00    0.05       1.0  T
  25   -372.5718011 -0.221905E+01  0.297E+00    0.08       1.0  T
  26   -372.3452214  0.226580E+00  0.266E+00    0.03       1.0  T
  27   -371.2531457  0.109208E+01  0.336E+00    0.05       1.0  T
  28   -370.7253473  0.527798E+00  0.360E+00    0.05       1.0  T
  29   -369.1896164  0.153573E+01  0.435E+00    0.02       1.0  T
  30   -369.2643091 -0.746926E-01  0.449E+00    0.04       1.0  T
  31   -369.2600845  0.422455E-02  0.448E+00    0.05       1.0  T
  32   -369.1506546  0.109430E+00  0.465E+00    0.06       1.0  T
  33   -369.1749307 -0.242761E-01  0.456E+00    0.07       1.0  T
  34   -371.1999855 -0.202505E+01  0.320E+00    0.09       1.0  T
  35   -370.6932290  0.506757E+00  0.345E+00    0.04       1.0  T
  36   -370.4094442  0.283785E+00  0.342E+00    0.02       1.0  T
  37   -370.7028600 -0.293416E+00  0.302E+00    0.05       1.0  T
  38   -371.0907121 -0.387852E+00  0.272E+00    0.01       1.0  T
  39   -370.1206925  0.970020E+00  0.355E+00    0.08       1.0  T
  40   -369.9249404  0.195752E+00  0.368E+00    0.10       1.0  T
  41   -369.8772913  0.476491E-01  0.369E+00    0.10       1.0  T
  42   -369.8224332  0.548582E-01  0.375E+00    0.11       1.0  T
  43   -369.6247740  0.197659E+00  0.392E+00    0.11       1.0  T
  44   -369.8347154 -0.209941E+00  0.376E+00    0.11       1.0  T
  45   -370.1193928 -0.284677E+00  0.354E+00    0.07       1.0  T
  46   -370.0673978  0.519949E-01  0.364E+00    0.10       1.0  T
  47   -371.4001950 -0.133280E+01  0.253E+00    0.03       1.0  T
  48   -371.0707859  0.329409E+00  0.262E+00    0.04       1.0  T
  49   -371.1084336 -0.376477E-01  0.260E+00    0.03       1.0  T
  50   -371.2260910 -0.117657E+00  0.243E+00    0.04       1.0  T
  51   -370.2834857  0.942605E+00  0.340E+00    0.04       1.0  T
  52   -371.0414067 -0.757921E+00  0.296E+00    0.01       1.0  T
  53   -371.7942617 -0.752855E+00  0.225E+00    0.03       1.0  T
  54   -371.7938310  0.430673E-03  0.225E+00    0.03       1.0  T
  55   -372.6256548 -0.831824E+00  0.204E+00    0.04       1.0  T
  56   -371.7728803  0.852775E+00  0.250E+00    0.10       1.0  T
  57   -371.6472203  0.125660E+00  0.264E+00    0.12       1.0  T
  58   -371.6486417 -0.142138E-02  0.264E+00    0.12       1.0  T
  59   -371.8953250 -0.246683E+00  0.207E+00    0.03       1.0  T
  60   -372.3170520 -0.421727E+00  0.175E+00    0.02       1.0  T
  61   -372.5652431 -0.248191E+00  0.155E+00    0.03       1.0  T
  62   -372.5909306 -0.256876E-01  0.144E+00    0.02       1.0  T
  63   -372.7936228 -0.202692E+00  0.102E+00    0.07       1.0  T
  64   -372.8120835 -0.184607E-01  0.801E-01    0.10       1.0  T
  65   -372.5891429  0.222941E+00  0.108E+00    0.02       1.0  T
  66   -372.6641427 -0.749998E-01  0.930E-01    0.03       1.0  T
  67   -372.7894106 -0.125268E+00  0.698E-01    0.09       1.0  T
  68   -372.7544339  0.349767E-01  0.661E-01    0.06       1.0  T
  69   -372.7996432 -0.452093E-01  0.592E-01    0.08       1.0  T
  70   -372.6876063  0.112037E+00  0.771E-01    0.04       1.0  T
  71   -372.7100633 -0.224570E-01  0.708E-01    0.04       1.0  T
  72   -372.7328165 -0.227531E-01  0.647E-01    0.05       1.0  T
  73   -372.7824831 -0.496666E-01  0.521E-01    0.07       1.0  T
  74   -372.7979281 -0.154450E-01  0.488E-01    0.08       1.0  T
  75   -372.8201808 -0.222527E-01  0.444E-01    0.09       1.0  T
  76   -372.8309900 -0.108092E-01  0.444E-01    0.10       1.0  T
  77   -372.8330076 -0.201768E-02  0.419E-01    0.11       1.0  T
  78   -372.8472587 -0.142511E-01  0.362E-01    0.13       1.0  T
  79   -372.8491784 -0.191969E-02  0.344E-01    0.14       1.0  T
  80   -372.8506821 -0.150364E-02  0.301E-01    0.15       1.0  T
  81   -372.8517753 -0.109320E-02  0.265E-01    0.15       1.0  T
  82   -372.8523806 -0.605362E-03  0.205E-01    0.15       1.0  T
  83   -372.8527186 -0.337936E-03  0.180E-01    0.15       1.0  T
  84   -372.8536701 -0.951532E-03  0.168E-01    0.15       1.0  T
  85   -372.8554042 -0.173415E-02  0.143E-01    0.16       1.0  T
  86   -372.8567125 -0.130825E-02  0.124E-01    0.17       1.0  T
  87   -372.8573778 -0.665263E-03  0.119E-01    0.18       1.0  T
  88   -372.8576930 -0.315207E-03  0.113E-01    0.18       1.0  T
  89   -372.8581376 -0.444661E-03  0.103E-01    0.19       1.0  T
  90   -372.8586382 -0.500533E-03  0.830E-02    0.20       1.0  T
  91   -372.8589150 -0.276823E-03  0.656E-02    0.21       1.0  T
  92   -372.8590564 -0.141400E-03  0.533E-02    0.21       1.0  T
  93   -372.8591533 -0.969222E-04  0.414E-02    0.22       1.0  T
  94   -372.8592106 -0.572899E-04  0.338E-02    0.22       1.0  T
  95   -372.8592604 -0.498467E-04  0.267E-02    0.22       1.0  T
  96   -372.8592833 -0.228985E-04  0.247E-02    0.23       1.0  T
  97   -372.8593037 -0.203248E-04  0.236E-02    0.23       1.0  T
  98   -372.8593246 -0.208918E-04  0.212E-02    0.23       1.0  T
  99   -372.8593456 -0.210871E-04  0.170E-02    0.23       1.0  T
 100   -372.8593558 -0.101444E-04  0.122E-02    0.23       1.0  T
 101   -372.8593614 -0.563275E-05  0.959E-03    0.24       1.0  T
 102   -372.8593646 -0.314067E-05  0.803E-03    0.24       1.0  T
 103   -372.8593672 -0.260109E-05  0.670E-03    0.24       1.1  T
 104   -372.8593695 -0.235092E-05  0.520E-03    0.24       1.4  T
 105   -372.8593714 -0.184214E-05  0.371E-03    0.24       1.9  T
 106   -372.8593722 -0.849943E-06  0.268E-03    0.24       2.6  T
 107   -372.8593724 -0.204774E-06  0.260E-03    0.24       2.7  T
 108   -372.8593726 -0.187200E-06  0.218E-03    0.24       3.2  T
 109   -372.8593727 -0.934567E-07  0.185E-03    0.24       3.8  T
 110   -372.8593727 -0.580992E-07  0.102E-03    0.24       6.9  T
 111   -372.8593728 -0.205601E-07  0.575E-04    0.24      12.3  T
 112   -372.8593728 -0.767659E-08  0.421E-04    0.24      16.8  T

   *** convergence criteria satisfied after 112 iterations ***

         #    Occupation            Energy/Eh            Energy/eV
      -------------------------------------------------------------
         1        2.0000           -0.6687960             -18.1989
       ...           ...                  ...                  ...
       338        2.0000           -0.3385166              -9.2115
       339        2.0000           -0.3385143              -9.2114
       340        1.9893           -0.3313677              -9.0170
       341        1.9888           -0.3313188              -9.0156
       342        1.9887           -0.3313174              -9.0156
       343        1.9782           -0.3306844              -8.9984
       344        1.9782           -0.3306824              -8.9983 (HOMO)
       345        0.0161           -0.3218249              -8.7573 (LUMO)
       346        0.0160           -0.3218213              -8.7572
       347        0.0158           -0.3218087              -8.7569
       348        0.0145           -0.3217301              -8.7547
       349        0.0145           -0.3217245              -8.7546
       ...           ...                  ...                  ...
       673                          1.7183344              46.7583
      -------------------------------------------------------------
                  HL-Gap            0.0088574 Eh            0.2410 eV
             Fermi-level           -0.3264012 Eh           -8.8818 eV

 SCC (total)                   0 d,  0 h,  0 min, 14.055 sec
 SCC setup                      ...        0 min,  0.007 sec (  0.053%)
 Dispersion                     ...        0 min,  0.015 sec (  0.110%)
 classical contributions        ...        0 min,  0.002 sec (  0.011%)
 integral evaluation            ...        0 min,  0.122 sec (  0.867%)
 iterations                     ...        0 min, 13.571 sec ( 96.554%)
 molecular gradient             ...        0 min,  0.323 sec (  2.296%)
 printout                       ...        0 min,  0.015 sec (  0.109%)

         :::::::::::::::::::::::::::::::::::::::::::::::::::::
         ::                     SUMMARY                     ::
         :::::::::::::::::::::::::::::::::::::::::::::::::::::
         :: total energy            -365.964413487908 Eh    ::
         :: gradient norm              0.000562209638 Eh/a0 ::
         :: HOMO-LUMO gap              0.241023372345 eV    ::
         ::.................................................::
         :: SCC energy              -372.859372774358 Eh    ::
         :: -> isotropic ES           -0.036840203485 Eh    ::
         :: -> anisotropic ES          0.051439528680 Eh    ::
         :: -> anisotropic XC          0.237727516312 Eh    ::
         :: -> dispersion             -0.283169825688 Eh    ::
         :: repulsion energy           6.899541839753 Eh    ::
         :: add. restraining           0.000000000000 Eh    ::
         :: total charge              -0.000000000199 e     ::
         :::::::::::::::::::::::::::::::::::::::::::::::::::::

           -------------------------------------------------
          |                Property Printout                |
           -------------------------------------------------

    * Orbital Energies and Occupations

         #    Occupation            Energy/Eh            Energy/eV
      -------------------------------------------------------------
         1        2.0000           -0.6687960             -18.1989
       ...           ...                  ...                  ...
       332        2.0000           -0.3400336              -9.2528
       333        2.0000           -0.3399360              -9.2501
       334        2.0000           -0.3399350              -9.2501
       335        2.0000           -0.3388914              -9.2217
       336        2.0000           -0.3388624              -9.2209
       337        2.0000           -0.3388611              -9.2209
       338        2.0000           -0.3385166              -9.2115
       339        2.0000           -0.3385143              -9.2114
       340        1.9893           -0.3313677              -9.0170
       341        1.9888           -0.3313188              -9.0156
       342        1.9887           -0.3313174              -9.0156
       343        1.9782           -0.3306844              -8.9984
       344        1.9782           -0.3306824              -8.9983 (HOMO)
       345        0.0161           -0.3218249              -8.7573 (LUMO)
       346        0.0160           -0.3218213              -8.7572
       347        0.0158           -0.3218087              -8.7569
       348        0.0145           -0.3217301              -8.7547
       349        0.0145           -0.3217245              -8.7546
       350                         -0.3098956              -8.4327
       351                         -0.3054187              -8.3109
       352                         -0.2995650              -8.1516
       353                         -0.2936339              -7.9902
       354                         -0.2918886              -7.9427
       355                         -0.2918571              -7.9418
       ...                                ...                  ...
       673                          1.7183344              46.7583
      -------------------------------------------------------------
                  HL-Gap            0.0088574 Eh            0.2410 eV
             Fermi-level           -0.3264012 Eh           -8.8818 eV

     #   Z          covCN         q      C6AA      α(0)
     1  26 Fe       3.083     0.562     5.146     7.318
     2   6 C        3.027    -0.054    29.314     8.881
     3   6 C        3.013    -0.054    29.328     8.883
     4   6 C        3.184     0.070    25.995     8.320
     5   6 C        2.955     0.010    27.793     8.647
     6   6 C        3.184     0.070    25.997     8.321
     7   6 C        3.013    -0.054    29.326     8.883
     8   6 C        3.027    -0.054    29.314     8.881
     9   6 C        3.159     0.064    26.255     8.377
    10   7 N        2.636    -0.214    25.678     7.526
    11   6 C        2.903    -0.060    29.496     8.905
    12   6 C        3.155     0.066    26.246     8.377
    13   6 C        3.023    -0.053    29.297     8.879
    14   6 C        3.013    -0.055    29.346     8.886
    15   6 C        3.166     0.071    26.090     8.347
    16   7 N        2.638    -0.213    25.638     7.520
    17   6 C        2.903    -0.059    29.464     8.900
    18   6 C        3.166     0.071    26.090     8.347
    19   6 C        3.013    -0.055    29.346     8.886
    20   6 C        3.023    -0.053    29.297     8.879
    21   6 C        3.155     0.066    26.245     8.377
    22   7 N        2.638    -0.213    25.639     7.520
    23   6 C        2.903    -0.060    29.496     8.905
    24   6 C        3.159     0.064    26.255     8.377
    25   7 N        2.637    -0.214    25.676     7.526
    26   1 H        0.926     0.031     2.579     2.511
    27   1 H        0.926     0.033     2.543     2.494
    28   1 H        0.926     0.033     2.544     2.494
    29   1 H        0.926     0.031     2.579     2.511
    30   1 H        0.926     0.050     2.325     2.384
    31   1 H        0.926     0.031     2.573     2.508
    32   1 H        0.926     0.031     2.568     2.506
    33   1 H        0.926     0.048     2.350     2.397
    34   1 H        0.926     0.031     2.568     2.506
    35   1 H        0.926     0.031     2.573     2.508
    36   1 H        0.926     0.050     2.325     2.384
    37  26 Fe       3.083     0.562     5.146     7.318
    38   6 C        3.027    -0.054    29.314     8.881
    39   6 C        3.013    -0.054    29.328     8.883
    40   6 C        3.184     0.070    25.995     8.321
    41   6 C        2.955     0.010    27.793     8.647
    42   6 C        3.184     0.070    25.997     8.321
    43   6 C        3.013    -0.054    29.326     8.883
    44   6 C        3.027    -0.054    29.314     8.881
    45   6 C        3.159     0.064    26.255     8.377
    46   7 N        2.636    -0.214    25.678     7.526
    47   6 C        2.903    -0.060    29.497     8.905
    48   6 C        3.155     0.066    26.246     8.377
    49   6 C        3.023    -0.053    29.297     8.879
    50   6 C        3.013    -0.055    29.346     8.886
    51   6 C        3.166     0.071    26.091     8.347
    52   7 N        2.638    -0.213    25.638     7.520
    53   6 C        2.903    -0.059    29.464     8.900
    54   6 C        3.166     0.071    26.090     8.347
    55   6 C        3.013    -0.055    29.346     8.886
    56   6 C        3.023    -0.053    29.297     8.879
    57   6 C        3.155     0.066    26.245     8.377
    58   7 N        2.638    -0.213    25.639     7.520
    59   6 C        2.903    -0.060    29.496     8.905
    60   6 C        3.159     0.064    26.254     8.377
    61   7 N        2.637    -0.214    25.676     7.526
    62   1 H        0.926     0.031     2.578     2.511
    63   1 H        0.926     0.033     2.543     2.494
    64   1 H        0.926     0.033     2.544     2.494
    65   1 H        0.926     0.031     2.579     2.511
    66   1 H        0.926     0.050     2.325     2.385
    67   1 H        0.926     0.031     2.573     2.508
    68   1 H        0.926     0.031     2.568     2.506
    69   1 H        0.926     0.048     2.350     2.397
    70   1 H        0.926     0.031     2.568     2.506
    71   1 H        0.926     0.031     2.573     2.508
    72   1 H        0.926     0.050     2.325     2.384
    73   6 C        1.990    -0.021    31.602     9.078
    74   6 C        1.963    -0.012    31.384     9.047
    75   6 C        1.964    -0.003    31.163     9.015
    76   6 C        1.964    -0.004    31.170     9.016
    77   6 C        1.963    -0.012    31.377     9.046
    78   6 C        1.990    -0.021    31.609     9.080
    79   6 C        1.990    -0.021    31.604     9.079
    80   6 C        1.963    -0.012    31.378     9.046
    81   6 C        1.964    -0.004    31.164     9.015
    82   6 C        1.964    -0.004    31.164     9.015
    83   6 C        1.963    -0.012    31.377     9.046
    84   6 C        1.990    -0.021    31.605     9.079
    85   6 C        1.990    -0.021    31.605     9.079
    86   6 C        1.963    -0.012    31.377     9.046
    87   6 C        1.964    -0.004    31.164     9.015
    88   6 C        1.964    -0.004    31.163     9.015
    89   6 C        1.963    -0.012    31.378     9.046
    90   6 C        1.990    -0.021    31.604     9.079
    91   6 C        1.990    -0.021    31.608     9.079
    92   6 C        1.963    -0.012    31.377     9.046
    93   6 C        1.964    -0.004    31.169     9.016
    94   6 C        1.964    -0.003    31.162     9.015
    95   6 C        1.963    -0.012    31.384     9.047
    96   6 C        1.990    -0.021    31.601     9.078
    97  26 Fe       3.077     0.564     5.145     7.317
    98   6 C        3.027    -0.054    29.311     8.881
    99   6 C        3.014    -0.054    29.328     8.883
   100   6 C        3.185     0.071    25.984     8.318
   101   6 C        2.955     0.010    27.792     8.647
   102   6 C        3.185     0.071    25.983     8.318
   103   6 C        3.014    -0.054    29.327     8.883
   104   6 C        3.027    -0.054    29.312     8.881
   105   6 C        3.160     0.064    26.255     8.376
   106   7 N        2.636    -0.215    25.703     7.530
   107   6 C        2.903    -0.058    29.451     8.898
   108   6 C        3.160     0.064    26.256     8.376
   109   6 C        3.027    -0.054    29.311     8.881
   110   6 C        3.014    -0.054    29.328     8.883
   111   6 C        3.185     0.071    25.983     8.318
   112   7 N        2.636    -0.215    25.703     7.530
   113   6 C        2.955     0.010    27.794     8.647
   114   6 C        3.184     0.071    25.984     8.319
   115   6 C        3.014    -0.054    29.328     8.883
   116   6 C        3.027    -0.054    29.311     8.881
   117   6 C        3.160     0.064    26.256     8.377
   118   7 N        2.635    -0.215    25.703     7.530
   119   6 C        2.903    -0.058    29.451     8.898
   120   6 C        3.160     0.064    26.256     8.377
   121   7 N        2.636    -0.215    25.702     7.529
   122   1 H        0.926     0.030     2.579     2.511
   123   1 H        0.926     0.033     2.546     2.495
   124   1 H        0.926     0.033     2.546     2.495
   125   1 H        0.926     0.030     2.579     2.512
   126   1 H        0.926     0.050     2.318     2.381
   127   1 H        0.926     0.030     2.579     2.511
   128   1 H        0.926     0.033     2.546     2.495
   129   1 H        0.926     0.033     2.546     2.495
   130   1 H        0.926     0.030     2.579     2.511
   131   1 H        0.926     0.050     2.318     2.381
   132  26 Fe       3.077     0.564     5.145     7.317
   133   6 C        3.027    -0.054    29.311     8.880
   134   6 C        3.014    -0.054    29.328     8.883
   135   6 C        3.185     0.071    25.983     8.318
   136   6 C        2.955     0.010    27.793     8.647
   137   6 C        3.185     0.071    25.983     8.318
   138   6 C        3.014    -0.054    29.327     8.883
   139   6 C        3.027    -0.054    29.311     8.880
   140   6 C        3.160     0.064    26.256     8.377
   141   7 N        2.636    -0.215    25.703     7.530
   142   6 C        2.903    -0.058    29.450     8.898
   143   6 C        3.160     0.064    26.256     8.376
   144   6 C        3.027    -0.054    29.311     8.880
   145   6 C        3.014    -0.054    29.328     8.883
   146   6 C        3.185     0.071    25.982     8.318
   147   7 N        2.636    -0.215    25.703     7.530
   148   6 C        2.955     0.010    27.793     8.647
   149   6 C        3.185     0.071    25.983     8.318
   150   6 C        3.014    -0.054    29.328     8.883
   151   6 C        3.027    -0.054    29.311     8.880
   152   6 C        3.160     0.064    26.256     8.377
   153   7 N        2.636    -0.215    25.703     7.530
   154   6 C        2.903    -0.058    29.450     8.898
   155   6 C        3.160     0.064    26.256     8.377
   156   7 N        2.636    -0.215    25.703     7.530
   157   1 H        0.926     0.031     2.579     2.511
   158   1 H        0.926     0.033     2.545     2.495
   159   1 H        0.926     0.033     2.546     2.495
   160   1 H        0.926     0.031     2.579     2.511
   161   1 H        0.926     0.050     2.317     2.381
   162   1 H        0.926     0.031     2.579     2.511
   163   1 H        0.926     0.033     2.545     2.495
   164   1 H        0.926     0.033     2.546     2.495
   165   1 H        0.926     0.031     2.579     2.511
   166   1 H        0.926     0.050     2.317     2.381
   167  26 Fe       3.077     0.564     5.145     7.317
   168   6 C        3.027    -0.054    29.311     8.881
   169   6 C        3.014    -0.054    29.329     8.884
   170   6 C        3.185     0.071    25.983     8.318
   171   6 C        2.955     0.010    27.794     8.647
   172   6 C        3.184     0.071    25.984     8.319
   173   6 C        3.014    -0.054    29.328     8.883
   174   6 C        3.027    -0.054    29.311     8.881
   175   6 C        3.160     0.064    26.256     8.377
   176   7 N        2.635    -0.215    25.704     7.530
   177   6 C        2.903    -0.058    29.452     8.898
   178   6 C        3.160     0.064    26.255     8.376
   179   6 C        3.027    -0.054    29.311     8.881
   180   6 C        3.014    -0.054    29.327     8.883
   181   6 C        3.185     0.071    25.984     8.319
   182   7 N        2.636    -0.215    25.703     7.530
   183   6 C        2.955     0.010    27.792     8.647
   184   6 C        3.185     0.071    25.983     8.318
   185   6 C        3.014    -0.054    29.328     8.883
   186   6 C        3.027    -0.054    29.311     8.881
   187   6 C        3.160     0.064    26.255     8.376
   188   7 N        2.636    -0.215    25.703     7.530
   189   6 C        2.903    -0.058    29.451     8.898
   190   6 C        3.160     0.064    26.256     8.376
   191   7 N        2.636    -0.215    25.703     7.530
   192   1 H        0.926     0.031     2.579     2.511
   193   1 H        0.926     0.033     2.545     2.495
   194   1 H        0.926     0.033     2.546     2.495
   195   1 H        0.926     0.030     2.579     2.511
   196   1 H        0.926     0.050     2.318     2.381
   197   1 H        0.926     0.030     2.579     2.511
   198   1 H        0.926     0.033     2.546     2.495
   199   1 H        0.926     0.033     2.546     2.495
   200   1 H        0.926     0.030     2.579     2.511
   201   1 H        0.926     0.050     2.318     2.381

 Mol. C6AA /au·bohr⁶  :     728034.037221
 Mol. C8AA /au·bohr⁸  :   19316993.037611
 Mol. α(0) /au        :       1398.313790


Wiberg/Mayer (AO) data.
largest (>0.10) Wiberg bond orders for each atom

 ---------------------------------------------------------------------------
     #   Z sym  total        # sym  WBO       # sym  WBO       # sym  WBO
 ---------------------------------------------------------------------------
     1  26 Fe   3.278 --    16 N    0.660    22 N    0.660    25 N    0.657
                            10 N    0.657
     2   6 C    3.957 --     3 C    1.644    24 C    1.171    26 H    0.972
     3   6 C    3.962 --     2 C    1.644     4 C    1.183    27 H    0.971
     4   6 C    3.921 --    25 N    1.257     5 C    1.255     3 C    1.183
     5   6 C    3.951 --     6 C    1.255     4 C    1.255    73 C    1.186
     6   6 C    3.921 --    10 N    1.257     5 C    1.255     7 C    1.183
     7   6 C    3.962 --     8 C    1.644     6 C    1.183    28 H    0.971
     8   6 C    3.957 --     7 C    1.644     9 C    1.171    29 H    0.972
     9   6 C    3.937 --    11 C    1.361    10 N    1.216     8 C    1.171
    10   7 N    3.416 --     6 C    1.257     9 C    1.216     1 Fe   0.657
    11   6 C    3.943 --     9 C    1.361    12 C    1.361    30 H    0.963
    12   6 C    3.942 --    11 C    1.361    16 N    1.227    13 C    1.163
    13   6 C    3.962 --    14 C    1.660    12 C    1.163    31 H    0.972
    14   6 C    3.960 --    13 C    1.660    15 C    1.164    32 H    0.972
    15   6 C    3.944 --    17 C    1.358    16 N    1.239    14 C    1.164
    16   7 N    3.412 --    15 C    1.239    12 C    1.227     1 Fe   0.660
    17   6 C    3.939 --    15 C    1.358    18 C    1.358    33 H    0.965
    18   6 C    3.944 --    17 C    1.358    22 N    1.239    19 C    1.164
    19   6 C    3.960 --    20 C    1.660    18 C    1.164    34 H    0.972
    20   6 C    3.962 --    19 C    1.660    21 C    1.163    35 H    0.972
    21   6 C    3.942 --    23 C    1.361    22 N    1.227    20 C    1.163
    22   7 N    3.412 --    18 C    1.239    21 C    1.227     1 Fe   0.660
    23   6 C    3.943 --    24 C    1.361    21 C    1.361    36 H    0.963
    24   6 C    3.937 --    23 C    1.361    25 N    1.216     2 C    1.171
    25   7 N    3.416 --     4 C    1.257    24 C    1.216     1 Fe   0.657
    26   1 H    0.998 --     2 C    0.972
    27   1 H    0.998 --     3 C    0.971
    28   1 H    0.998 --     7 C    0.971
    29   1 H    0.998 --     8 C    0.972
    30   1 H    0.996 --    11 C    0.963
    31   1 H    0.998 --    13 C    0.972
    32   1 H    0.998 --    14 C    0.972
    33   1 H    0.997 --    17 C    0.965
    34   1 H    0.998 --    19 C    0.972
    35   1 H    0.998 --    20 C    0.972
    36   1 H    0.996 --    23 C    0.963
    37  26 Fe   3.279 --    52 N    0.660    58 N    0.660    61 N    0.657
                            46 N    0.657
    38   6 C    3.957 --    39 C    1.644    60 C    1.171    62 H    0.972
    39   6 C    3.962 --    38 C    1.644    40 C    1.182    63 H    0.971
    40   6 C    3.921 --    61 N    1.257    41 C    1.255    39 C    1.182
    41   6 C    3.951 --    42 C    1.256    40 C    1.255    96 C    1.185
    42   6 C    3.921 --    46 N    1.257    41 C    1.256    43 C    1.182
    43   6 C    3.962 --    44 C    1.644    42 C    1.182    64 H    0.971
    44   6 C    3.957 --    43 C    1.644    45 C    1.171    65 H    0.972
    45   6 C    3.937 --    47 C    1.361    46 N    1.216    44 C    1.171
    46   7 N    3.416 --    42 C    1.257    45 C    1.216    37 Fe   0.657
    47   6 C    3.943 --    45 C    1.361    48 C    1.361    66 H    0.963
    48   6 C    3.942 --    47 C    1.361    52 N    1.227    49 C    1.163
    49   6 C    3.962 --    50 C    1.660    48 C    1.163    67 H    0.972
    50   6 C    3.960 --    49 C    1.660    51 C    1.164    68 H    0.972
    51   6 C    3.944 --    53 C    1.358    52 N    1.239    50 C    1.164
    52   7 N    3.412 --    51 C    1.239    48 C    1.227    37 Fe   0.660
    53   6 C    3.939 --    51 C    1.358    54 C    1.358    69 H    0.965
    54   6 C    3.944 --    53 C    1.358    58 N    1.239    55 C    1.164
    55   6 C    3.960 --    56 C    1.660    54 C    1.164    70 H    0.972
    56   6 C    3.962 --    55 C    1.660    57 C    1.163    71 H    0.972
    57   6 C    3.942 --    59 C    1.361    58 N    1.227    56 C    1.163
    58   7 N    3.412 --    54 C    1.239    57 C    1.227    37 Fe   0.660
    59   6 C    3.943 --    60 C    1.361    57 C    1.361    72 H    0.963
    60   6 C    3.937 --    59 C    1.361    61 N    1.216    38 C    1.171
    61   7 N    3.416 --    40 C    1.257    60 C    1.216    37 Fe   0.657
    62   1 H    0.998 --    38 C    0.972
    63   1 H    0.998 --    39 C    0.971
    64   1 H    0.998 --    43 C    0.971
    65   1 H    0.998 --    44 C    0.972
    66   1 H    0.996 --    47 C    0.963
    67   1 H    0.998 --    49 C    0.972
    68   1 H    0.998 --    50 C    0.972
    69   1 H    0.997 --    53 C    0.965
    70   1 H    0.998 --    55 C    0.972
    71   1 H    0.998 --    56 C    0.972
    72   1 H    0.996 --    59 C    0.963
    73   6 C    3.884 --    74 C    2.448     5 C    1.186    76 C    0.193
    74   6 C    3.930 --    73 C    2.448    75 C    1.329
    75   6 C    3.920 --    76 C    2.362    74 C    1.329    78 C    0.193
    76   6 C    3.921 --    75 C    2.362    77 C    1.330    73 C    0.193
    77   6 C    3.927 --    78 C    2.445    76 C    1.330
    78   6 C    3.885 --    77 C    2.445   101 C    1.188    75 C    0.193
    79   6 C    3.884 --    80 C    2.443   113 C    1.189    82 C    0.193
    80   6 C    3.927 --    79 C    2.443    81 C    1.331
    81   6 C    3.920 --    82 C    2.359    80 C    1.331    84 C    0.193
    82   6 C    3.920 --    81 C    2.359    83 C    1.331    79 C    0.193
    83   6 C    3.927 --    84 C    2.443    82 C    1.331
    84   6 C    3.884 --    83 C    2.443   136 C    1.189    81 C    0.193
    85   6 C    3.884 --    86 C    2.443   148 C    1.189    88 C    0.193
    86   6 C    3.927 --    85 C    2.443    87 C    1.331
    87   6 C    3.920 --    88 C    2.359    86 C    1.331    90 C    0.193
    88   6 C    3.920 --    87 C    2.359    89 C    1.331    85 C    0.193
    89   6 C    3.927 --    90 C    2.444    88 C    1.331
    90   6 C    3.884 --    89 C    2.444   171 C    1.189    87 C    0.193
    91   6 C    3.885 --    92 C    2.445   183 C    1.188    94 C    0.193
    92   6 C    3.927 --    91 C    2.445    93 C    1.329
    93   6 C    3.921 --    94 C    2.362    92 C    1.329    96 C    0.193
    94   6 C    3.920 --    93 C    2.362    95 C    1.328    91 C    0.193
    95   6 C    3.930 --    96 C    2.448    94 C    1.328
    96   6 C    3.884 --    95 C    2.448    41 C    1.185    93 C    0.193
    97  26 Fe   3.245 --   121 N    0.652   106 N    0.652   112 N    0.652
                           118 N    0.652
    98   6 C    3.957 --    99 C    1.643   120 C    1.172   122 H    0.972
    99   6 C    3.961 --    98 C    1.643   100 C    1.183   123 H    0.971
   100   6 C    3.922 --   121 N    1.260   101 C    1.252    99 C    1.183
   101   6 C    3.942 --   102 C    1.252   100 C    1.252    78 C    1.188
   102   6 C    3.922 --   106 N    1.260   101 C    1.252   103 C    1.183
   103   6 C    3.961 --   104 C    1.643   102 C    1.183   124 H    0.971
   104   6 C    3.957 --   103 C    1.643   105 C    1.172   125 H    0.972
   105   6 C    3.936 --   107 C    1.361   106 N    1.215   104 C    1.172
   106   7 N    3.407 --   102 C    1.260   105 C    1.215    97 Fe   0.652
   107   6 C    3.937 --   108 C    1.361   105 C    1.361   126 H    0.963
   108   6 C    3.936 --   107 C    1.361   112 N    1.215   109 C    1.172
   109   6 C    3.957 --   110 C    1.643   108 C    1.172   127 H    0.972
   110   6 C    3.961 --   109 C    1.643   111 C    1.183   128 H    0.971
   111   6 C    3.921 --   112 N    1.260   113 C    1.252   110 C    1.183
   112   7 N    3.407 --   111 C    1.260   108 C    1.215    97 Fe   0.652
   113   6 C    3.941 --   114 C    1.252   111 C    1.252    79 C    1.189
   114   6 C    3.921 --   118 N    1.260   113 C    1.252   115 C    1.183
   115   6 C    3.961 --   116 C    1.643   114 C    1.183   129 H    0.971
   116   6 C    3.957 --   115 C    1.643   117 C    1.172   130 H    0.972
   117   6 C    3.936 --   119 C    1.361   118 N    1.215   116 C    1.172
   118   7 N    3.407 --   114 C    1.260   117 C    1.215    97 Fe   0.652
   119   6 C    3.937 --   117 C    1.361   120 C    1.361   131 H    0.963
   120   6 C    3.936 --   119 C    1.361   121 N    1.215    98 C    1.172
   121   7 N    3.407 --   100 C    1.260   120 C    1.215    97 Fe   0.652
   122   1 H    0.998 --    98 C    0.972
   123   1 H    0.998 --    99 C    0.971
   124   1 H    0.998 --   103 C    0.971
   125   1 H    0.998 --   104 C    0.972
   126   1 H    0.996 --   107 C    0.963
   127   1 H    0.998 --   109 C    0.972
   128   1 H    0.998 --   110 C    0.971
   129   1 H    0.998 --   115 C    0.971
   130   1 H    0.998 --   116 C    0.972
   131   1 H    0.996 --   119 C    0.963
   132  26 Fe   3.246 --   147 N    0.652   156 N    0.652   141 N    0.652
                           153 N    0.652
   133   6 C    3.957 --   134 C    1.643   155 C    1.172   157 H    0.972
   134   6 C    3.961 --   133 C    1.643   135 C    1.183   158 H    0.971
   135   6 C    3.921 --   156 N    1.260   136 C    1.252   134 C    1.183
   136   6 C    3.941 --   137 C    1.252   135 C    1.252    84 C    1.189
   137   6 C    3.921 --   141 N    1.260   136 C    1.252   138 C    1.183
   138   6 C    3.961 --   139 C    1.643   137 C    1.183   159 H    0.971
   139   6 C    3.957 --   138 C    1.643   140 C    1.172   160 H    0.972
   140   6 C    3.936 --   142 C    1.361   141 N    1.215   139 C    1.172
   141   7 N    3.407 --   137 C    1.260   140 C    1.215   132 Fe   0.652
   142   6 C    3.936 --   143 C    1.361   140 C    1.361   161 H    0.963
   143   6 C    3.936 --   142 C    1.361   147 N    1.215   144 C    1.172
   144   6 C    3.957 --   145 C    1.643   143 C    1.172   162 H    0.972
   145   6 C    3.961 --   144 C    1.643   146 C    1.183   163 H    0.971
   146   6 C    3.921 --   147 N    1.260   148 C    1.252   145 C    1.183
   147   7 N    3.407 --   146 C    1.260   143 C    1.215   132 Fe   0.652
   148   6 C    3.941 --   146 C    1.252   149 C    1.252    85 C    1.189
   149   6 C    3.921 --   153 N    1.260   148 C    1.252   150 C    1.183
   150   6 C    3.961 --   151 C    1.643   149 C    1.183   164 H    0.971
   151   6 C    3.957 --   150 C    1.643   152 C    1.172   165 H    0.972
   152   6 C    3.936 --   154 C    1.361   153 N    1.215   151 C    1.172
   153   7 N    3.407 --   149 C    1.260   152 C    1.215   132 Fe   0.652
   154   6 C    3.936 --   155 C    1.361   152 C    1.361   166 H    0.963
   155   6 C    3.936 --   154 C    1.361   156 N    1.215   133 C    1.172
   156   7 N    3.407 --   135 C    1.260   155 C    1.215   132 Fe   0.652
   157   1 H    0.998 --   133 C    0.972
   158   1 H    0.998 --   134 C    0.971
   159   1 H    0.998 --   138 C    0.971
   160   1 H    0.998 --   139 C    0.972
   161   1 H    0.996 --   142 C    0.963
   162   1 H    0.998 --   144 C    0.972
   163   1 H    0.998 --   145 C    0.971
   164   1 H    0.998 --   150 C    0.971
   165   1 H    0.998 --   151 C    0.972
   166   1 H    0.996 --   154 C    0.963
   167  26 Fe   3.245 --   182 N    0.652   188 N    0.652   191 N    0.652
                           176 N    0.652
   168   6 C    3.957 --   169 C    1.643   190 C    1.172   192 H    0.972
   169   6 C    3.961 --   168 C    1.643   170 C    1.183   193 H    0.971
   170   6 C    3.921 --   191 N    1.260   171 C    1.252   169 C    1.183
   171   6 C    3.942 --   172 C    1.252   170 C    1.252    90 C    1.189
   172   6 C    3.921 --   176 N    1.260   171 C    1.252   173 C    1.183
   173   6 C    3.961 --   174 C    1.643   172 C    1.183   194 H    0.971
   174   6 C    3.957 --   173 C    1.643   175 C    1.172   195 H    0.972
   175   6 C    3.936 --   177 C    1.361   176 N    1.215   174 C    1.172
   176   7 N    3.407 --   172 C    1.260   175 C    1.215   167 Fe   0.652
   177   6 C    3.937 --   175 C    1.361   178 C    1.361   196 H    0.963
   178   6 C    3.936 --   177 C    1.361   182 N    1.215   179 C    1.172
   179   6 C    3.957 --   180 C    1.643   178 C    1.172   197 H    0.972
   180   6 C    3.961 --   179 C    1.643   181 C    1.183   198 H    0.971
   181   6 C    3.922 --   182 N    1.260   183 C    1.253   180 C    1.183
   182   7 N    3.407 --   181 C    1.260   178 C    1.215   167 Fe   0.652
   183   6 C    3.942 --   181 C    1.253   184 C    1.253    91 C    1.188
   184   6 C    3.922 --   188 N    1.260   183 C    1.253   185 C    1.183
   185   6 C    3.961 --   186 C    1.643   184 C    1.183   199 H    0.971
   186   6 C    3.957 --   185 C    1.643   187 C    1.172   200 H    0.972
   187   6 C    3.936 --   189 C    1.361   188 N    1.215   186 C    1.172
   188   7 N    3.407 --   184 C    1.260   187 C    1.215   167 Fe   0.652
   189   6 C    3.937 --   190 C    1.361   187 C    1.361   201 H    0.963
   190   6 C    3.936 --   189 C    1.361   191 N    1.215   168 C    1.172
   191   7 N    3.407 --   170 C    1.260   190 C    1.215   167 Fe   0.652
   192   1 H    0.998 --   168 C    0.972
   193   1 H    0.998 --   169 C    0.971
   194   1 H    0.998 --   173 C    0.971
   195   1 H    0.998 --   174 C    0.972
   196   1 H    0.996 --   177 C    0.963
   197   1 H    0.998 --   179 C    0.972
   198   1 H    0.998 --   180 C    0.971
   199   1 H    0.998 --   185 C    0.971
   200   1 H    0.998 --   186 C    0.972
   201   1 H    0.996 --   189 C    0.963
 ---------------------------------------------------------------------------

Topologies differ in total number of bonds
Writing topology from bond orders to xtbtopo.mol

molecular dipole:
                 x           y           z       tot (Debye)
 q only:        0.002      -0.002      -0.003
   full:        0.002      -0.002      -0.005       0.014
molecular quadrupole (traceless):
                xx          xy          yy          xz          yz          zz
 q only:      106.199       0.524     -41.585      -0.258      -0.827     -64.614
  q+dip:      186.042       0.740     -33.530      -0.433      -4.146    -152.512
   full:      141.139       0.737     -41.609      -0.410      -2.073     -99.530


           -------------------------------------------------
          | TOTAL ENERGY             -365.964413487908 Eh   |
          | GRADIENT NORM               0.000562209638 Eh/α |
          | HOMO-LUMO GAP               0.241023372345 eV   |
           -------------------------------------------------

------------------------------------------------------------------------
 * finished run on 2021/11/21 at 21:12:52.477     
------------------------------------------------------------------------
 total:
 * wall-time:     0 d,  0 h,  0 min, 14.165 sec
 *  cpu-time:     0 d,  0 h,  0 min, 14.165 sec
 * ratio c/w:     1.000 speedup
 SCF:
 * wall-time:     0 d,  0 h,  0 min, 14.058 sec
 *  cpu-time:     0 d,  0 h,  0 min, 14.058 sec
 * ratio c/w:     1.000 speedup

