      -----------------------------------------------------------      
     |                   =====================                   |     
     |                           x T B                           |     
     |                   =====================                   |     
     |                         S. Grimme                         |     
     |          Mulliken Center for Theoretical Chemistry        |     
     |                    University of Bonn                     |     
      -----------------------------------------------------------      

   * xtb version 6.4.1 (bd6e46d) compiled by 'conda@4901f00b25ba' on 2021-06-10

   xtb is free software: you can redistribute it and/or modify it under
   the terms of the GNU Lesser General Public License as published by
   the Free Software Foundation, either version 3 of the License, or
   (at your option) any later version.
   
   xtb is distributed in the hope that it will be useful,
   but WITHOUT ANY WARRANTY; without even the implied warranty of
   MERCHANTABILITY or FITNESS FOR A PARTICULAR PURPOSE.  See the
   GNU Lesser General Public License for more details.
   
   Cite this work as:
   * C. Bannwarth, E. Caldeweyher, S. Ehlert, A. Hansen, P. Pracht,
     J. Seibert, S. Spicher, S. Grimme, WIREs Comput. Mol. Sci., 2020, 11,
     e01493. DOI: 10.1002/wcms.1493
   
   for GFN2-xTB:
   * C. Bannwarth, S. Ehlert and S. Grimme., J. Chem. Theory Comput., 2019,
     15, 1652-1671. DOI: 10.1021/acs.jctc.8b01176
   for GFN1-xTB:
   * S. Grimme, C. Bannwarth, P. Shushkov, J. Chem. Theory Comput., 2017,
     13, 1989-2009. DOI: 10.1021/acs.jctc.7b00118
   for GFN0-xTB:
   * P. Pracht, E. Caldeweyher, S. Ehlert, S. Grimme, ChemRxiv, 2019, preprint.
     DOI: 10.26434/chemrxiv.8326202.v1
   for GFN-FF:
   * S. Spicher and S. Grimme, Angew. Chem. Int. Ed., 2020, 59, 15665-15673.
     DOI: 10.1002/anie.202004239
   
   for DFT-D4:
   * E. Caldeweyher, C. Bannwarth and S. Grimme, J. Chem. Phys., 2017,
     147, 034112. DOI: 10.1063/1.4993215
   * E. Caldeweyher, S. Ehlert, A. Hansen, H. Neugebauer, S. Spicher,
     C. Bannwarth and S. Grimme, J. Chem. Phys., 2019, 150, 154122.
     DOI: 10.1063/1.5090222
   * E. Caldeweyher, J.-M. Mewes, S. Ehlert and S. Grimme, Phys. Chem. Chem. Phys.
     2020, 22, 8499-8512. DOI: 10.1039/D0CP00502A
   
   for sTDA-xTB:
   * S. Grimme and C. Bannwarth, J. Chem. Phys., 2016, 145, 054103.
     DOI: 10.1063/1.4959605
   
   in the mass-spec context:
   * V. Asgeirsson, C. Bauer and S. Grimme, Chem. Sci., 2017, 8, 4879.
     DOI: 10.1039/c7sc00601b
   * J. Koopman and S. Grimme, ACS Omega 2019, 4, 12, 15120-15133.
     DOI: 10.1021/acsomega.9b02011
   
   for metadynamics refer to:
   * S. Grimme, J. Chem. Theory Comput., 2019, 155, 2847-2862
     DOI: 10.1021/acs.jctc.9b00143
   
   for SPH calculations refer to:
   * S. Spicher and S. Grimme, J. Chem. Theory Comput., 2021, 17, 1701-1714
     DOI: 10.1021/acs.jctc.0c01306
   
   with help from (in alphabetical order)
   P. Atkinson, C. Bannwarth, F. Bohle, G. Brandenburg, E. Caldeweyher
   M. Checinski, S. Dohm, S. Ehlert, S. Ehrlich, I. Gerasimov, J. Koopman
   C. Lavigne, S. Lehtola, F. März, M. Müller, F. Musil, H. Neugebauer
   J. Pisarek, C. Plett, P. Pracht, J. Seibert, P. Shushkov, S. Spicher
   M. Stahn, M. Steiner, T. Strunk, J. Stückrath, T. Rose, and J. Unsleber
   
 * started run on 2021/11/20 at 00:36:51.910     

           -------------------------------------------------
          |                Calculation Setup                |
           -------------------------------------------------

          program call               : /home/jeff/miniconda3/bin/xtb input_structure_1.xyz --gfn 2 --ohess normal --parallel 1 --etemp 300 --chrg 0 --uhf 0 -I det_control.in
          hostname                   : jelfscompute1
          coordinate file            : input_structure_1.xyz
          omp threads                :                     1
          number of atoms            :                   232
          number of electrons        :                   790
          charge                     :                     0
          spin                       :                   0.0
          first test random number   :      0.97759357795637

   ID    Z sym.   atoms
    1   26 Fe     1, 37, 93, 128, 163, 198
    2    6 C      2-9, 11-15, 17-21, 23, 24, 38-45, 47-51, 53-57, 59, 60,
                  73-92, 94-101, 103-107, 109-113, 115, 116, 129-136,
                  138-142, 144-148, 150, 151, 164-171, 173-177, 179-183, 185,
                  186, 199-206, 208-212, 214-218, 220, 221
    3    7 N      10, 16, 22, 25, 46, 52, 58, 61, 102, 108, 114, 117, 137,
                  143, 149, 152, 172, 178, 184, 187, 207, 213, 219, 222
    4    1 H      26-36, 62-72, 118-127, 153-162, 188-197, 223-232

molecular fragmentation (1/2 indicates fragments):
111111111111111111111111111111111111222222222222222222222222222222222222
222222222222222222222222222222222222222222222222222222222222222222222222
222222222222222222222222222222222222222222222222222222222222222222222222
2222222222222222
# atoms in fragment 1/2:    36   196
 fragment masses (1/2) :      363.17     2052.05
CMA distance (Bohr)    :  77.803
constraining FC (au)   :  0.0500

           -------------------------------------------------
          |                 G F N 2 - x T B                 |
           -------------------------------------------------

        Reference                      10.1021/acs.jctc.8b01176
      * Hamiltonian:
        H0-scaling (s, p, d)           1.850000    2.230000    2.230000
        zeta-weighting                 0.500000
      * Dispersion:
        s8                             2.700000
        a1                             0.520000
        a2                             5.000000
        s9                             5.000000
      * Repulsion:
        kExp                           1.500000    1.000000
        rExp                           1.000000
      * Coulomb:
        alpha                          2.000000
        third order                    shell-resolved
        anisotropic                    true
        a3                             3.000000
        a5                             4.000000
        cn-shift                       1.200000
        cn-exp                         4.000000
        max-rad                        5.000000


          ...................................................
          :                      SETUP                      :
          :.................................................:
          :  # basis functions                 778          :
          :  # atomic orbitals                 772          :
          :  # shells                          408          :
          :  # electrons                       790          :
          :  max. iterations                   250          :
          :  Hamiltonian                  GFN2-xTB          :
          :  restarted?                      false          :
          :  GBSA solvation                  false          :
          :  PC potential                    false          :
          :  electronic temp.          300.0000000     K    :
          :  accuracy                    1.0000000          :
          :  -> integral cutoff          0.2500000E+02      :
          :  -> integral neglect         0.1000000E-07      :
          :  -> SCF convergence          0.1000000E-05 Eh   :
          :  -> wf. convergence          0.1000000E-03 e    :
          :  Broyden damping             0.4000000          :
          ...................................................

 iter      E             dE          RMSdq      gap      omega  full diag
   1   -421.1446853 -0.421145E+03  0.857E+00    0.17       0.0  T
   2   -394.8727135  0.262720E+02  0.118E+01    0.06       1.0  T
   3   -398.6184486 -0.374574E+01  0.814E+00    0.03       1.0  T
   4   -325.6815940  0.729369E+02  0.908E+00    0.03       1.0  T
   5   -329.0434055 -0.336181E+01  0.107E+01    0.04       1.0  T
   6   -403.6020808 -0.745587E+02  0.681E+00    0.01       1.0  T
   7   -406.9186087 -0.331653E+01  0.604E+00    0.01       1.0  T
   8   -406.5775020  0.341107E+00  0.560E+00    0.10       1.0  T
   9   -421.2254447 -0.146479E+02  0.470E+00    0.04       1.0  T
  10   -422.2741635 -0.104872E+01  0.473E+00    0.06       1.0  T
  11   -422.3870861 -0.112923E+00  0.475E+00    0.03       1.0  T
  12   -421.1739327  0.121315E+01  0.494E+00    0.05       1.0  T
  13   -421.4674834 -0.293551E+00  0.496E+00    0.01       1.0  T
  14   -418.7490569  0.271843E+01  0.491E+00    0.02       1.0  T
  15   -412.9391327  0.580992E+01  0.579E+00    0.12       1.0  T
  16   -420.3163992 -0.737727E+01  0.457E+00    0.01       1.0  T
  17   -418.2914604  0.202494E+01  0.498E+00    0.03       1.0  T
  18   -411.9776539  0.631381E+01  0.600E+00    0.00       1.0  T
  19   -410.8583693  0.111928E+01  0.636E+00    0.03       1.0  T
  20   -409.5203777  0.133799E+01  0.557E+00    0.00       1.0  T
  21   -414.2452533 -0.472488E+01  0.658E+00    0.08       1.0  T
  22   -419.7228850 -0.547763E+01  0.569E+00    0.01       1.0  T
  23   -420.5302521 -0.807367E+00  0.535E+00    0.01       1.0  T
  24   -417.6071390  0.292311E+01  0.619E+00    0.03       1.0  T
  25   -415.5683606  0.203878E+01  0.616E+00    0.02       1.0  T
  26   -415.7836263 -0.215266E+00  0.608E+00    0.09       1.0  T
  27   -415.7263049  0.573213E-01  0.600E+00    0.05       1.0  T
  28   -413.4012042  0.232510E+01  0.633E+00    0.09       1.0  T
  29   -413.4271754 -0.259713E-01  0.638E+00    0.15       1.0  T
  30   -416.3986501 -0.297147E+01  0.647E+00    0.12       1.0  T
  31   -413.5127747  0.288588E+01  0.662E+00    0.08       1.0  T
  32   -415.6918650 -0.217909E+01  0.681E+00    0.01       1.0  T
  33   -415.6435901  0.482749E-01  0.681E+00    0.01       1.0  T
  34   -415.0852759  0.558314E+00  0.713E+00    0.03       1.0  T
  35   -414.9858352  0.994407E-01  0.715E+00    0.03       1.0  T
  36   -414.7225731  0.263262E+00  0.725E+00    0.02       1.0  T
  37   -414.7886587 -0.660856E-01  0.723E+00    0.02       1.0  T
  38   -415.0339137 -0.245255E+00  0.768E+00    0.03       1.0  T
  39   -414.2158297  0.818084E+00  0.766E+00    0.04       1.0  T
  40   -414.4545474 -0.238718E+00  0.760E+00    0.03       1.0  T
  41   -414.6748470 -0.220300E+00  0.745E+00    0.03       1.0  T
  42   -414.5387268  0.136120E+00  0.737E+00    0.03       1.0  T
  43   -416.5504328 -0.201171E+01  0.792E+00    0.05       1.0  T
  44   -415.3118484  0.123858E+01  0.779E+00    0.02       1.0  T
  45   -416.0782988 -0.766450E+00  0.777E+00    0.01       1.0  T
  46   -415.1039194  0.974379E+00  0.772E+00    0.03       1.0  T
  47   -415.9181030 -0.814184E+00  0.758E+00    0.03       1.0  T
  48   -416.9840296 -0.106593E+01  0.736E+00    0.00       1.0  T
  49   -417.2814220 -0.297392E+00  0.739E+00    0.01       1.0  T
  50   -416.2807183  0.100070E+01  0.744E+00    0.02       1.0  T
  51   -416.0940165  0.186702E+00  0.744E+00    0.01       1.0  T
  52   -416.1990609 -0.105044E+00  0.760E+00    0.02       1.0  T
  53   -416.2239420 -0.248812E-01  0.760E+00    0.02       1.0  T
  54   -415.2298670  0.994075E+00  0.771E+00    0.03       1.0  T
  55   -414.7931352  0.436732E+00  0.774E+00    0.04       1.0  T
  56   -414.6082042  0.184931E+00  0.777E+00    0.04       1.0  T
  57   -414.8641958 -0.255992E+00  0.777E+00    0.03       1.0  T
  58   -414.9007640 -0.365682E-01  0.776E+00    0.03       1.0  T
  59   -414.9464067 -0.456427E-01  0.781E+00    0.01       1.0  T
  60   -415.0328860 -0.864794E-01  0.781E+00    0.02       1.0  T
  61   -415.0909016 -0.580156E-01  0.778E+00    0.02       1.0  T
  62   -415.1376928 -0.467912E-01  0.780E+00    0.02       1.0  T
  63   -415.1364066  0.128619E-02  0.779E+00    0.02       1.0  T
  64   -414.5850292  0.551377E+00  0.765E+00    0.04       1.0  T
  65   -414.8201209 -0.235092E+00  0.753E+00    0.04       1.0  T
  66   -414.9916562 -0.171535E+00  0.732E+00    0.03       1.0  T
  67   -417.3549468 -0.236329E+01  0.665E+00    0.00       1.0  T
  68   -420.9160355 -0.356109E+01  0.571E+00    0.01       1.0  T
  69   -420.5708871  0.345148E+00  0.583E+00    0.00       1.0  T
  70   -420.6328300 -0.619429E-01  0.587E+00    0.01       1.0  T
  71   -420.5440414  0.887886E-01  0.589E+00    0.00       1.0  T
  72   -418.9950832  0.154896E+01  0.569E+00    0.00       1.0  T
  73   -420.8773142 -0.188223E+01  0.583E+00    0.00       1.0  T
  74   -421.7202182 -0.842904E+00  0.578E+00    0.03       1.0  T
  75   -422.5591092 -0.838891E+00  0.558E+00    0.00       1.0  T
  76   -420.9539189  0.160519E+01  0.608E+00    0.02       1.0  T
  77   -421.4302054 -0.476287E+00  0.609E+00    0.01       1.0  T
  78   -421.0163936  0.413812E+00  0.629E+00    0.02       1.0  T
  79   -421.0245178 -0.812418E-02  0.633E+00    0.02       1.0  T
  80   -422.6468746 -0.162236E+01  0.596E+00    0.04       1.0  T
  81   -423.1484559 -0.501581E+00  0.596E+00    0.03       1.0  T
  82   -422.1736069  0.974849E+00  0.614E+00    0.03       1.0  T
  83   -424.6851173 -0.251151E+01  0.590E+00    0.00       1.0  T
  84   -424.6517303  0.333870E-01  0.589E+00    0.00       1.0  T
  85   -425.9324843 -0.128075E+01  0.561E+00    0.01       1.0  T
  86   -425.3438276  0.588657E+00  0.542E+00    0.01       1.0  T
  87   -425.3859590 -0.421314E-01  0.537E+00    0.02       1.0  T
  88   -425.4658836 -0.799246E-01  0.519E+00    0.01       1.0  T
  89   -425.3070577  0.158826E+00  0.523E+00    0.02       1.0  T
  90   -424.8202615  0.486796E+00  0.473E+00    0.02       1.0  T
  91   -424.4174732  0.402788E+00  0.468E+00    0.00       1.0  T
  92   -425.6124921 -0.119502E+01  0.403E+00    0.01       1.0  T
  93   -425.6880043 -0.755123E-01  0.415E+00    0.01       1.0  T
  94   -423.8593609  0.182864E+01  0.333E+00    0.01       1.0  T
  95   -422.4311173  0.142824E+01  0.366E+00    0.01       1.0  T
  96   -422.5492852 -0.118168E+00  0.365E+00    0.01       1.0  T
  97   -422.6012816 -0.519964E-01  0.366E+00    0.01       1.0  T
  98   -422.6578355 -0.565539E-01  0.359E+00    0.01       1.0  T
  99   -422.8991295 -0.241294E+00  0.339E+00    0.00       1.0  T
 100   -423.1336732 -0.234544E+00  0.318E+00    0.01       1.0  T
 101   -422.5481123  0.585561E+00  0.352E+00    0.01       1.0  T
 102   -424.2556040 -0.170749E+01  0.368E+00    0.01       1.0  T
 103   -424.3793755 -0.123771E+00  0.345E+00    0.01       1.0  T
 104   -422.7252899  0.165409E+01  0.311E+00    0.02       1.0  T
 105   -422.9590505 -0.233761E+00  0.303E+00    0.02       1.0  T
 106   -421.3852232  0.157383E+01  0.423E+00    0.03       1.0  T
 107   -423.5200384 -0.213482E+01  0.333E+00    0.01       1.0  T
 108   -422.7966803  0.723358E+00  0.352E+00    0.00       1.0  T
 109   -423.5429617 -0.746281E+00  0.283E+00    0.00       1.0  T
 110   -423.8072336 -0.264272E+00  0.259E+00    0.01       1.0  T
 111   -424.3800591 -0.572825E+00  0.229E+00    0.01       1.0  T
 112   -425.8550469 -0.147499E+01  0.181E+00    0.02       1.0  T
 113   -425.8228296  0.322174E-01  0.165E+00    0.01       1.0  T
 114   -426.0564710 -0.233641E+00  0.145E+00    0.00       1.0  T
 115   -424.9658625  0.109061E+01  0.205E+00    0.01       1.0  T
 116   -425.4740313 -0.508169E+00  0.153E+00    0.00       1.0  T
 117   -425.3522616  0.121770E+00  0.168E+00    0.01       1.0  T
 118   -425.3146429  0.376187E-01  0.209E+00    0.00       1.0  T
 119   -424.9576724  0.356970E+00  0.216E+00    0.01       1.0  T
 120   -425.0929049 -0.135232E+00  0.242E+00    0.01       1.0  T
 121   -425.0965915 -0.368666E-02  0.237E+00    0.01       1.0  T
 122   -425.2772226 -0.180631E+00  0.229E+00    0.01       1.0  T
 123   -425.8533360 -0.576113E+00  0.181E+00    0.01       1.0  T
 124   -425.5744035  0.278933E+00  0.190E+00    0.00       1.0  T
 125   -426.2934267 -0.719023E+00  0.122E+00    0.00       1.0  T
 126   -426.0892882  0.204138E+00  0.146E+00    0.00       1.0  T
 127   -425.8228105  0.266478E+00  0.176E+00    0.00       1.0  T
 128   -426.2169513 -0.394141E+00  0.131E+00    0.00       1.0  T
 129   -425.8484399  0.368511E+00  0.175E+00    0.00       1.0  T
 130   -426.2367454 -0.388306E+00  0.124E+00    0.00       1.0  T
 131   -426.2792325 -0.424871E-01  0.124E+00    0.00       1.0  T
 132   -426.3653664 -0.861340E-01  0.115E+00    0.00       1.0  T
 133   -426.2396173  0.125749E+00  0.128E+00    0.00       1.0  T
 134   -426.3591790 -0.119562E+00  0.115E+00    0.00       1.0  T
 135   -426.4947961 -0.135617E+00  0.866E-01    0.00       1.0  T
 136   -426.3742249  0.120571E+00  0.979E-01    0.00       1.0  T
 137   -426.5247150 -0.150490E+00  0.729E-01    0.00       1.0  T
 138   -426.5244914  0.223554E-03  0.616E-01    0.00       1.0  T
 139   -426.5315119 -0.702050E-02  0.571E-01    0.00       1.0  T
 140   -426.5477122 -0.162003E-01  0.458E-01    0.00       1.0  T
 141   -426.4997380  0.479742E-01  0.541E-01    0.01       1.0  T
 142   -426.5499781 -0.502401E-01  0.381E-01    0.00       1.0  T
 143   -426.5613853 -0.114072E-01  0.266E-01    0.00       1.0  T
 144   -426.5647397 -0.335442E-02  0.255E-01    0.00       1.0  T
 145   -426.5647921 -0.523930E-04  0.218E-01    0.00       1.0  T
 146   -426.5632769  0.151520E-02  0.210E-01    0.00       1.0  T
 147   -426.5679695 -0.469268E-02  0.131E-01    0.00       1.0  T
 148   -426.5649378  0.303179E-02  0.134E-01    0.00       1.0  T
 149   -426.5673688 -0.243106E-02  0.959E-02    0.00       1.0  T
 150   -426.5657119  0.165694E-02  0.125E-01    0.00       1.0  T
 151   -426.5665060 -0.794151E-03  0.118E-01    0.00       1.0  T
 152   -426.5669717 -0.465697E-03  0.117E-01    0.00       1.0  T
 153   -426.5688603 -0.188857E-02  0.783E-02    0.00       1.0  T
 154   -426.5694292 -0.568868E-03  0.621E-02    0.00       1.0  T
 155   -426.5692384  0.190727E-03  0.641E-02    0.00       1.0  T
 156   -426.5696846 -0.446203E-03  0.452E-02    0.00       1.0  T
 157   -426.5696244  0.602744E-04  0.433E-02    0.00       1.0  T
 158   -426.5697617 -0.137291E-03  0.376E-02    0.00       1.0  T
 159   -426.5698511 -0.894259E-04  0.288E-02    0.00       1.0  T
 160   -426.5697962  0.549173E-04  0.301E-02    0.00       1.0  T
 161   -426.5699459 -0.149764E-03  0.219E-02    0.00       1.0  T
 162   -426.5699974 -0.514835E-04  0.179E-02    0.00       1.0  T
 163   -426.5700014 -0.397381E-05  0.172E-02    0.00       1.0  T
 164   -426.5699921  0.924834E-05  0.162E-02    0.00       1.0  T
 165   -426.5699889  0.321573E-05  0.161E-02    0.00       1.0  T
 166   -426.5700280 -0.391164E-04  0.139E-02    0.00       1.0  T
 167   -426.5700299 -0.189363E-05  0.130E-02    0.00       1.0  T
 168   -426.5700383 -0.834314E-05  0.984E-03    0.00       1.0  T
 169   -426.5700420 -0.368879E-05  0.788E-03    0.00       1.0  T
 170   -426.5700458 -0.381609E-05  0.647E-03    0.00       1.0  T
 171   -426.5700513 -0.547494E-05  0.476E-03    0.00       1.4  T
 172   -426.5700523 -0.109690E-05  0.369E-03    0.00       1.8  T
 173   -426.5700558 -0.348692E-05  0.192E-03    0.00       3.4  T
 174   -426.5700556  0.192286E-06  0.164E-03    0.00       4.0  T
 175   -426.5700562 -0.597999E-06  0.118E-03    0.00       5.5  T
 176   -426.5700560  0.204057E-06  0.148E-03    0.00       4.4  T
 177   -426.5700563 -0.243823E-06  0.909E-04    0.00       7.2  T
 178   -426.5700564 -0.978145E-07  0.726E-04    0.00       9.0  T

   *** convergence criteria satisfied after 178 iterations ***

         #    Occupation            Energy/Eh            Energy/eV
      -------------------------------------------------------------
         1        2.0000           -0.6802585             -18.5108
       ...           ...                  ...                  ...
       389        1.8775           -0.3369951              -9.1701
       390        1.4759           -0.3353854              -9.1263
       391        1.4636           -0.3353554              -9.1255
       392        1.1322           -0.3346544              -9.1064
       393        1.1199           -0.3346308              -9.1058
       394        1.0832           -0.3345602              -9.1038
       395        1.0293           -0.3344574              -9.1010 (HOMO)
       396        0.9629           -0.3343313              -9.0976 (LUMO)
       397        0.9567           -0.3343194              -9.0973
       398        0.9450           -0.3342972              -9.0967
       399        0.9134           -0.3342368              -9.0950
       400        0.8697           -0.3341528              -9.0928
       ...           ...                  ...                  ...
       772                          1.6188773              44.0519
      -------------------------------------------------------------
                  HL-Gap            0.0001262 Eh            0.0034 eV
             Fermi-level           -0.3344018 Eh           -9.0995 eV

 SCC (total)                   0 d,  0 h,  0 min, 30.200 sec
 SCC setup                      ...        0 min,  0.012 sec (  0.040%)
 Dispersion                     ...        0 min,  0.021 sec (  0.069%)
 classical contributions        ...        0 min,  0.002 sec (  0.006%)
 integral evaluation            ...        0 min,  0.164 sec (  0.542%)
 iterations                     ...        0 min, 29.584 sec ( 97.957%)
 molecular gradient             ...        0 min,  0.397 sec (  1.314%)
 printout                       ...        0 min,  0.021 sec (  0.070%)

         :::::::::::::::::::::::::::::::::::::::::::::::::::::
         ::                     SUMMARY                     ::
         :::::::::::::::::::::::::::::::::::::::::::::::::::::
         :: total energy            -418.781632165043 Eh    ::
         :: gradient norm              0.923645157685 Eh/a0 ::
         :: HOMO-LUMO gap              0.003432797171 eV    ::
         ::.................................................::
         :: SCC energy              -426.570056379102 Eh    ::
         :: -> isotropic ES            0.020969797582 Eh    ::
         :: -> anisotropic ES          0.053928434869 Eh    ::
         :: -> anisotropic XC          0.281769396135 Eh    ::
         :: -> dispersion             -0.318907716614 Eh    ::
         :: repulsion energy           7.788157655881 Eh    ::
         :: add. restraining           0.000000000000 Eh    ::
         :: total charge               0.000000000010 e     ::
         :::::::::::::::::::::::::::::::::::::::::::::::::::::

      ----------------------------------------------------------- 
     |                   =====================                   |
     |                        A N C O P T                        |
     |                   =====================                   |
     |               Approximate Normal Coordinate               |
     |                Rational Function Optimizer                |
      ----------------------------------------------------------- 

          ...................................................
          :                      SETUP                      :
          :.................................................:
          :   optimization level            normal          :
          :   max. optcycles                   696          :
          :   ANC micro-cycles                  20          :
          :   degrees of freedom               690          :
          :.................................................:
          :   RF solver                   davidson          :
          :   write xtbopt.log                true          :
          :   linear?                        false          :
          :   energy convergence         0.5000000E-05 Eh   :
          :   grad. convergence          0.1000000E-02 Eh/α :
          :   maximium RF displ.         1.0000000          :
          :   Hlow (freq-cutoff)         0.1000000E-01      :
          :   Hmax (freq-cutoff)         5.0000000          :
          :   S6 in model hess.         20.0000000          :
          ...................................................

generating ANC from model Hessian ...
Using Lindh-Hessian (1995)
 Shifting diagonal of input Hessian by    1.0124436971473865E-002
 Lowest  eigenvalues of input Hessian
    0.010000    0.010039    0.010094    0.010097    0.010097    0.010097
    0.010098    0.010104    0.010108    0.010110    0.010111    0.010114
    0.010116    0.010117    0.010120    0.010120    0.010123    0.000000
 Highest eigenvalues
    2.576440    2.785520    2.844620    2.909723    2.909723    2.909725


........................................................................
.............................. CYCLE    1 ..............................
........................................................................
   1   -426.5700564 -0.426570E+03  0.700E-04    0.00       0.0  T
   2   -426.5671232  0.293316E-02  0.872E-02    0.00       1.0  T
   3   -426.5699992 -0.287596E-02  0.115E-02    0.00       1.0  T
   4   -426.5694715  0.527644E-03  0.374E-02    0.00       1.0  T
   5   -426.5697817 -0.310155E-03  0.263E-02    0.00       1.0  T
   6   -426.5699139 -0.132240E-03  0.191E-02    0.00       1.0  T
   7   -426.5699142 -0.275862E-06  0.191E-02    0.00       1.0  T
   8   -426.5696676  0.246568E-03  0.322E-02    0.00       1.0  T
   9   -426.5698273 -0.159688E-03  0.243E-02    0.00       1.0  T
  10   -426.5700262 -0.198864E-03  0.847E-03    0.00       1.0  T
  11   -426.5699520  0.741532E-04  0.161E-02    0.00       1.0  T
  12   -426.5700366 -0.845410E-04  0.733E-03    0.00       1.0  T
  13   -426.5700506 -0.140395E-04  0.413E-03    0.00       1.6  T
  14   -426.5700562 -0.562846E-05  0.963E-04    0.00       6.8  T
  15   -426.5700557  0.563739E-06  0.160E-03    0.00       4.1  T
  16   -426.5700565 -0.790012E-06  0.331E-04    0.00      19.8  T
  17   -426.5700565 -0.392630E-07  0.135E-04    0.00      48.7  T
     SCC iter.                  ...        0 min,  2.805 sec
     gradient                   ...        0 min,  0.398 sec
 * total energy  :  -418.7816323 Eh     change       -0.1350489E-06 Eh
   gradient norm :     0.9236440 Eh/α   predicted     0.0000000E+00 (-100.00%)
   displ. norm   :     0.5662420 α      lambda       -0.4444440E+00
   maximum displ.:     0.1319209 α      in ANC's #673, #238, #492, ...

........................................................................
.............................. CYCLE    2 ..............................
........................................................................
   1   -426.5158248 -0.426516E+03  0.548E-01    0.00       0.0  T
   2   -420.3391881  0.617664E+01  0.356E+00    0.02       1.0  T
   3   -418.5211220  0.181807E+01  0.490E+00    0.02       1.0  T
   4   -410.2223400  0.829878E+01  0.674E+00    0.13       1.0  T
   5   -419.5985855 -0.937625E+01  0.482E+00    0.03       1.0  T
   6   -417.8807273  0.171786E+01  0.491E+00    0.03       1.0  T
   7   -417.4987111  0.382016E+00  0.496E+00    0.02       1.0  T
   8   -417.8320849 -0.333374E+00  0.519E+00    0.06       1.0  T
   9   -422.2679493 -0.443586E+01  0.336E+00    0.03       1.0  T
  10   -419.0169553  0.325099E+01  0.501E+00    0.05       1.0  T
  11   -423.1410445 -0.412409E+01  0.324E+00    0.02       1.0  T
  12   -422.3222089  0.818836E+00  0.352E+00    0.02       1.0  T
  13   -425.4204797 -0.309827E+01  0.177E+00    0.00       1.0  T
  14   -424.8737094  0.546770E+00  0.215E+00    0.00       1.0  T
  15   -425.5882167 -0.714507E+00  0.163E+00    0.00       1.0  T
  16   -425.4722191  0.115998E+00  0.173E+00    0.01       1.0  T
  17   -424.5759265  0.896293E+00  0.239E+00    0.04       1.0  T
  18   -424.4111975  0.164729E+00  0.246E+00    0.00       1.0  T
  19   -424.6861120 -0.274914E+00  0.232E+00    0.03       1.0  T
  20   -424.0763679  0.609744E+00  0.246E+00    0.01       1.0  T
  21   -425.2845552 -0.120819E+01  0.180E+00    0.02       1.0  T
  22   -425.8152035 -0.530648E+00  0.134E+00    0.00       1.0  T
  23   -426.0911932 -0.275990E+00  0.137E+00    0.01       1.0  T
  24   -425.7978145  0.293379E+00  0.157E+00    0.01       1.0  T
  25   -425.9548035 -0.156989E+00  0.146E+00    0.00       1.0  T
  26   -426.1128211 -0.158018E+00  0.128E+00    0.00       1.0  T
  27   -426.4815542 -0.368733E+00  0.595E-01    0.00       1.0  T
  28   -426.4122018  0.693524E-01  0.644E-01    0.00       1.0  T
  29   -425.8928664  0.519335E+00  0.132E+00    0.01       1.0  T
  30   -426.4671633 -0.574297E+00  0.508E-01    0.00       1.0  T
  31   -426.5168426 -0.496793E-01  0.314E-01    0.00       1.0  T
  32   -426.5028396  0.140030E-01  0.353E-01    0.00       1.0  T
  33   -426.4889644  0.138752E-01  0.395E-01    0.00       1.0  T
  34   -426.5394101 -0.504457E-01  0.208E-01    0.00       1.0  T
  35   -426.5438831 -0.447302E-02  0.146E-01    0.00       1.0  T
  36   -426.5462301 -0.234702E-02  0.137E-01    0.00       1.0  T
  37   -426.5497954 -0.356532E-02  0.901E-02    0.00       1.0  T
  38   -426.5512922 -0.149674E-02  0.627E-02    0.00       1.0  T
  39   -426.5513132 -0.209618E-04  0.581E-02    0.00       1.0  T
  40   -426.5523117 -0.998522E-03  0.203E-02    0.00       1.0  T
  41   -426.5522354  0.762955E-04  0.246E-02    0.00       1.0  T
  42   -426.5520150  0.220396E-03  0.328E-02    0.00       1.0  T
  43   -426.5522187 -0.203730E-03  0.252E-02    0.00       1.0  T
  44   -426.5523624 -0.143648E-03  0.132E-02    0.00       1.0  T
  45   -426.5523991 -0.367347E-04  0.638E-03    0.00       1.0  T
  46   -426.5523924  0.665580E-05  0.719E-03    0.00       1.0  T
  47   -426.5523822  0.102407E-04  0.850E-03    0.00       1.0  T
  48   -426.5523882 -0.596567E-05  0.754E-03    0.00       1.0  T
  49   -426.5523884 -0.219148E-06  0.739E-03    0.00       1.0  T
  50   -426.5524039 -0.155203E-04  0.346E-03    0.00       1.9  T
  51   -426.5524063 -0.240386E-05  0.195E-03    0.00       3.4  T
  52   -426.5524063 -0.363469E-07  0.182E-03    0.00       3.6  T
  53   -426.5524071 -0.782759E-06  0.104E-03    0.00       6.3  T
  54   -426.5524074 -0.266104E-06  0.587E-04    0.00      11.2  T
  55   -426.5524074  0.347620E-07  0.609E-04    0.00      10.8  T
     SCC iter.                  ...        0 min,  8.960 sec
     gradient                   ...        0 min,  0.396 sec
 * total energy  :  -419.1325237 Eh     change       -0.3508914E+00 Eh
   gradient norm :     0.5202461 Eh/α   predicted    -0.2935061E+00 ( -16.35%)
   displ. norm   :     0.6399679 α      lambda       -0.2772363E+00
   maximum displ.:     0.1750683 α      in ANC's #238, #235, #237, ...

........................................................................
.............................. CYCLE    3 ..............................
........................................................................
   1   -426.5535452 -0.426554E+03  0.105E+00    0.01       0.0  T
   2   -415.9372971  0.106162E+02  0.461E+00    0.05       1.0  T
   3   -410.6267794  0.531052E+01  0.671E+00    0.09       1.0  T
   4   -420.4901362 -0.986336E+01  0.440E+00    0.01       1.0  T
   5   -414.8965620  0.559357E+01  0.562E+00    0.00       1.0  T
   6   -419.0362884 -0.413973E+01  0.501E+00    0.01       1.0  T
   7   -417.7772730  0.125902E+01  0.530E+00    0.10       1.0  T
   8   -416.9676622  0.809611E+00  0.523E+00    0.09       1.0  T
   9   -422.6924352 -0.572477E+01  0.345E+00    0.02       1.0  T
  10   -419.8756851  0.281675E+01  0.456E+00    0.04       1.0  T
  11   -424.3979825 -0.452230E+01  0.274E+00    0.02       1.0  T
  12   -420.5299889  0.386799E+01  0.442E+00    0.00       1.0  T
  13   -421.3104814 -0.780492E+00  0.418E+00    0.03       1.0  T
  14   -419.0866833  0.222380E+01  0.463E+00    0.01       1.0  T
  15   -423.3081023 -0.422142E+01  0.310E+00    0.03       1.0  T
  16   -424.8493253 -0.154122E+01  0.220E+00    0.03       1.0  T
  17   -424.4484185  0.400907E+00  0.250E+00    0.00       1.0  T
  18   -423.5997439  0.848675E+00  0.282E+00    0.01       1.0  T
  19   -423.3732852  0.226459E+00  0.314E+00    0.03       1.0  T
  20   -424.6280456 -0.125476E+01  0.260E+00    0.01       1.0  T
  21   -424.2083358  0.419710E+00  0.281E+00    0.01       1.0  T
  22   -424.0749978  0.133338E+00  0.288E+00    0.01       1.0  T
  23   -423.7250868  0.349911E+00  0.301E+00    0.00       1.0  T
  24   -423.7499513 -0.248645E-01  0.270E+00    0.01       1.0  T
  25   -424.9127092 -0.116276E+01  0.235E+00    0.01       1.0  T
  26   -424.4440312  0.468678E+00  0.260E+00    0.02       1.0  T
  27   -425.0201441 -0.576113E+00  0.227E+00    0.01       1.0  T
  28   -425.6526916 -0.632547E+00  0.174E+00    0.01       1.0  T
  29   -425.8048075 -0.152116E+00  0.160E+00    0.00       1.0  T
  30   -425.5005933  0.304214E+00  0.179E+00    0.00       1.0  T
  31   -425.8436013 -0.343008E+00  0.153E+00    0.00       1.0  T
  32   -426.0491141 -0.205513E+00  0.127E+00    0.00       1.0  T
  33   -426.2268077 -0.177694E+00  0.111E+00    0.00       1.0  T
  34   -426.3033270 -0.765192E-01  0.958E-01    0.00       1.0  T
  35   -426.3935267 -0.901997E-01  0.840E-01    0.00       1.0  T
  36   -426.1561829  0.237344E+00  0.108E+00    0.00       1.0  T
  37   -426.1982498 -0.420669E-01  0.102E+00    0.00       1.0  T
  38   -426.5322996 -0.334050E+00  0.439E-01    0.00       1.0  T
  39   -426.3343817  0.197918E+00  0.828E-01    0.00       1.0  T
  40   -426.5014338 -0.167052E+00  0.509E-01    0.00       1.0  T
  41   -426.5580976 -0.566638E-01  0.404E-01    0.00       1.0  T
  42   -426.5536222  0.447539E-02  0.375E-01    0.00       1.0  T
  43   -426.5904116 -0.367894E-01  0.181E-01    0.00       1.0  T
  44   -426.5800818  0.103298E-01  0.218E-01    0.00       1.0  T
  45   -426.5925465 -0.124647E-01  0.138E-01    0.00       1.0  T
  46   -426.5942068 -0.166023E-02  0.105E-01    0.00       1.0  T
  47   -426.5970274 -0.282063E-02  0.810E-02    0.00       1.0  T
  48   -426.5945151  0.251230E-02  0.998E-02    0.00       1.0  T
  49   -426.5974962 -0.298106E-02  0.617E-02    0.00       1.0  T
  50   -426.5954642  0.203192E-02  0.915E-02    0.00       1.0  T
  51   -426.5970224 -0.155815E-02  0.622E-02    0.00       1.0  T
  52   -426.5971085 -0.861374E-04  0.605E-02    0.00       1.0  T
  53   -426.5974065 -0.297988E-03  0.468E-02    0.00       1.0  T
  54   -426.5978403 -0.433789E-03  0.338E-02    0.00       1.0  T
  55   -426.5979149 -0.745449E-04  0.281E-02    0.00       1.0  T
  56   -426.5980927 -0.177818E-03  0.143E-02    0.00       1.0  T
  57   -426.5980391  0.536024E-04  0.184E-02    0.00       1.0  T
  58   -426.5981185 -0.794067E-04  0.997E-03    0.00       1.0  T
  59   -426.5981076  0.109153E-04  0.107E-02    0.00       1.0  T
  60   -426.5981284 -0.208654E-04  0.619E-03    0.00       1.1  T
  61   -426.5981339 -0.550451E-05  0.353E-03    0.00       1.9  T
  62   -426.5981356 -0.170727E-05  0.255E-03    0.00       2.6  T
  63   -426.5981367 -0.104440E-05  0.186E-03    0.00       3.5  T
  64   -426.5981361  0.575845E-06  0.240E-03    0.00       2.7  T
  65   -426.5981374 -0.129441E-05  0.856E-04    0.00       7.7  T
  66   -426.5981375 -0.805069E-07  0.742E-04    0.00       8.8  T
  67   -426.5981375 -0.557051E-07  0.489E-04    0.00      13.4  T
     SCC iter.                  ...        0 min, 10.931 sec
     gradient                   ...        0 min,  0.397 sec
 * total energy  :  -419.3360493 Eh     change       -0.2035255E+00 Eh
   gradient norm :     0.2184774 Eh/α   predicted    -0.1953905E+00 (  -4.00%)
   displ. norm   :     0.7265798 α      lambda       -0.1309686E+00
   maximum displ.:     0.2325405 α      in ANC's #238, #237, #230, ...

........................................................................
.............................. CYCLE    4 ..............................
........................................................................
   1   -426.6379838 -0.426638E+03  0.172E+00    0.03       0.0  T
   2   -414.1187694  0.125192E+02  0.530E+00    0.12       1.0  T
   3   -402.0152693  0.121035E+02  0.761E+00    0.00       1.0  T
   4   -411.2437148 -0.922845E+01  0.716E+00    0.09       1.0  T
   5   -418.8342704 -0.759056E+01  0.555E+00    0.04       1.0  T
   6   -417.4248097  0.140946E+01  0.513E+00    0.01       1.0  T
   7   -417.2380550  0.186755E+00  0.548E+00    0.02       1.0  T
   8   -418.7804142 -0.154236E+01  0.498E+00    0.02       1.0  T
   9   -419.1724643 -0.392050E+00  0.506E+00    0.01       1.0  T
  10   -423.4504587 -0.427799E+01  0.358E+00    0.01       1.0  T
  11   -419.2826176  0.416784E+01  0.481E+00    0.03       1.0  T
  12   -422.2979281 -0.301531E+01  0.378E+00    0.01       1.0  T
  13   -422.0953465  0.202582E+00  0.395E+00    0.02       1.0  T
  14   -423.1709334 -0.107559E+01  0.350E+00    0.06       1.0  T
  15   -423.6478296 -0.476896E+00  0.327E+00    0.02       1.0  T
  16   -423.7306252 -0.827955E-01  0.328E+00    0.01       1.0  T
  17   -422.6483613  0.108226E+01  0.377E+00    0.02       1.0  T
  18   -423.8281030 -0.117974E+01  0.316E+00    0.00       1.0  T
  19   -423.1176814  0.710422E+00  0.345E+00    0.00       1.0  T
  20   -423.8778430 -0.760162E+00  0.287E+00    0.01       1.0  T
  21   -424.2062190 -0.328376E+00  0.270E+00    0.00       1.0  T
  22   -424.6373188 -0.431100E+00  0.267E+00    0.01       1.0  T
  23   -424.7385751 -0.101256E+00  0.260E+00    0.01       1.0  T
  24   -424.1263000  0.612275E+00  0.283E+00    0.03       1.0  T
  25   -424.5801168 -0.453817E+00  0.261E+00    0.01       1.0  T
  26   -425.5184631 -0.938346E+00  0.177E+00    0.00       1.0  T
  27   -426.0362338 -0.517771E+00  0.139E+00    0.01       1.0  T
  28   -426.2949214 -0.258688E+00  0.118E+00    0.01       1.0  T
  29   -426.5724804 -0.277559E+00  0.667E-01    0.00       1.0  T
  30   -426.5735721 -0.109168E-02  0.698E-01    0.00       1.0  T
  31   -425.9284684  0.645104E+00  0.149E+00    0.01       1.0  T
  32   -426.4984081 -0.569940E+00  0.804E-01    0.01       1.0  T
  33   -426.3901833  0.108225E+00  0.110E+00    0.00       1.0  T
  34   -426.3725176  0.176657E-01  0.108E+00    0.00       1.0  T
  35   -426.4205576 -0.480400E-01  0.103E+00    0.00       1.0  T
  36   -426.5493851 -0.128828E+00  0.724E-01    0.01       1.0  T
  37   -426.5892773 -0.398921E-01  0.573E-01    0.00       1.0  T
  38   -426.5612816  0.279957E-01  0.708E-01    0.01       1.0  T
  39   -426.6141307 -0.528491E-01  0.556E-01    0.00       1.0  T
  40   -426.6672500 -0.531194E-01  0.393E-01    0.01       1.0  T
  41   -426.6482953  0.189548E-01  0.410E-01    0.00       1.0  T
  42   -426.6736909 -0.253956E-01  0.248E-01    0.00       1.0  T
  43   -426.6898737 -0.161829E-01  0.121E-01    0.00       1.0  T
  44   -426.6869826  0.289118E-02  0.149E-01    0.01       1.0  T
  45   -426.6878077 -0.825107E-03  0.138E-01    0.00       1.0  T
  46   -426.6903471 -0.253947E-02  0.108E-01    0.01       1.0  T
  47   -426.6900165  0.330669E-03  0.119E-01    0.01       1.0  T
  48   -426.6922865 -0.227004E-02  0.834E-02    0.01       1.0  T
  49   -426.6940556 -0.176912E-02  0.485E-02    0.01       1.0  T
  50   -426.6930656  0.989998E-03  0.661E-02    0.01       1.0  T
  51   -426.6940378 -0.972189E-03  0.467E-02    0.01       1.0  T
  52   -426.6940986 -0.608024E-04  0.420E-02    0.01       1.0  T
  53   -426.6944636 -0.364996E-03  0.280E-02    0.01       1.0  T
  54   -426.6945000 -0.363699E-04  0.252E-02    0.01       1.0  T
  55   -426.6945985 -0.985389E-04  0.181E-02    0.01       1.0  T
  56   -426.6946380 -0.394836E-04  0.125E-02    0.01       1.0  T
  57   -426.6946585 -0.205153E-04  0.962E-03    0.01       1.0  T
  58   -426.6946602 -0.161975E-05  0.783E-03    0.01       1.0  T
  59   -426.6946719 -0.117446E-04  0.529E-03    0.01       1.2  T
  60   -426.6946769 -0.494897E-05  0.346E-03    0.01       1.9  T
  61   -426.6946731  0.379635E-05  0.423E-03    0.01       1.6  T
  62   -426.6946792 -0.610900E-05  0.172E-03    0.01       3.8  T
  63   -426.6946801 -0.903928E-06  0.895E-04    0.01       7.3  T
  64   -426.6946801 -0.656684E-07  0.586E-04    0.01      11.2  T
     SCC iter.                  ...        0 min, 10.560 sec
     gradient                   ...        0 min,  0.396 sec
 * total energy  :  -419.4425259 Eh     change       -0.1064767E+00 Eh
   gradient norm :     0.1241195 Eh/α   predicted    -0.1000547E+00 (  -6.03%)
   displ. norm   :     0.8103981 α      lambda       -0.9298272E-01
   maximum displ.:     0.2500125 α      in ANC's #122, #238, #230, ...

........................................................................
.............................. CYCLE    5 ..............................
........................................................................
   1   -426.7140915 -0.426714E+03  0.208E+00    0.05       0.0  T
   2   -415.1942077  0.115199E+02  0.647E+00    0.01       1.0  T
   3   -408.3531347  0.684107E+01  0.718E+00    0.07       1.0  T
   4   -412.2939859 -0.394085E+01  0.693E+00    0.04       1.0  T
   5   -412.9330835 -0.639098E+00  0.648E+00    0.04       1.0  T
   6   -417.2030828 -0.427000E+01  0.538E+00    0.09       1.0  T
   7   -417.7966640 -0.593581E+00  0.552E+00    0.13       1.0  T
   8   -421.4457876 -0.364912E+01  0.415E+00    0.02       1.0  T
   9   -418.2939848  0.315180E+01  0.522E+00    0.02       1.0  T
  10   -424.2301879 -0.593620E+01  0.293E+00    0.03       1.0  T
  11   -424.4419990 -0.211811E+00  0.272E+00    0.01       1.0  T
  12   -424.1547319  0.287267E+00  0.285E+00    0.04       1.0  T
  13   -424.5225644 -0.367832E+00  0.254E+00    0.05       1.0  T
  14   -423.8008355  0.721729E+00  0.305E+00    0.00       1.0  T
  15   -424.4574170 -0.656582E+00  0.282E+00    0.02       1.0  T
  16   -425.3091467 -0.851730E+00  0.223E+00    0.01       1.0  T
  17   -424.2979470  0.101120E+01  0.264E+00    0.03       1.0  T
  18   -424.4704333 -0.172486E+00  0.268E+00    0.04       1.0  T
  19   -424.5700319 -0.995986E-01  0.255E+00    0.02       1.0  T
  20   -426.0186669 -0.144864E+01  0.143E+00    0.00       1.0  T
  21   -426.0456507 -0.269838E-01  0.146E+00    0.01       1.0  T
  22   -425.8065655  0.239085E+00  0.156E+00    0.01       1.0  T
  23   -426.0233617 -0.216796E+00  0.158E+00    0.02       1.0  T
  24   -425.7222741  0.301088E+00  0.182E+00    0.00       1.0  T
  25   -425.2852940  0.436980E+00  0.228E+00    0.00       1.0  T
  26   -425.4447668 -0.159473E+00  0.195E+00    0.00       1.0  T
  27   -425.8910658 -0.446299E+00  0.150E+00    0.01       1.0  T
  28   -426.1007253 -0.209659E+00  0.134E+00    0.00       1.0  T
  29   -426.1581993 -0.574740E-01  0.119E+00    0.01       1.0  T
  30   -426.6896409 -0.531442E+00  0.682E-01    0.01       1.0  T
  31   -426.7041480 -0.145071E-01  0.665E-01    0.02       1.0  T
  32   -426.6726229  0.315251E-01  0.606E-01    0.00       1.0  T
  33   -426.6481979  0.244251E-01  0.625E-01    0.01       1.0  T
  34   -426.7028923 -0.546944E-01  0.482E-01    0.01       1.0  T
  35   -426.6908766  0.120156E-01  0.505E-01    0.01       1.0  T
  36   -426.7158901 -0.250135E-01  0.439E-01    0.01       1.0  T
  37   -426.7265998 -0.107097E-01  0.366E-01    0.01       1.0  T
  38   -426.7687670 -0.421672E-01  0.249E-01    0.01       1.0  T
  39   -426.7772964 -0.852945E-02  0.185E-01    0.01       1.0  T
  40   -426.7795629 -0.226643E-02  0.190E-01    0.01       1.0  T
  41   -426.7807141 -0.115123E-02  0.155E-01    0.01       1.0  T
  42   -426.7856706 -0.495647E-02  0.836E-02    0.02       1.0  T
  43   -426.7855941  0.764700E-04  0.772E-02    0.02       1.0  T
  44   -426.7865399 -0.945773E-03  0.463E-02    0.02       1.0  T
  45   -426.7868502 -0.310344E-03  0.330E-02    0.02       1.0  T
  46   -426.7868186  0.315846E-04  0.311E-02    0.02       1.0  T
  47   -426.7867346  0.839986E-04  0.331E-02    0.02       1.0  T
  48   -426.7870503 -0.315699E-03  0.144E-02    0.02       1.0  T
  49   -426.7870996 -0.492574E-04  0.105E-02    0.02       1.0  T
  50   -426.7870867  0.129237E-04  0.997E-03    0.02       1.0  T
  51   -426.7870989 -0.121847E-04  0.616E-03    0.02       1.1  T
  52   -426.7871028 -0.399100E-05  0.522E-03    0.02       1.3  T
  53   -426.7871101 -0.726744E-05  0.292E-03    0.02       2.3  T
  54   -426.7871114 -0.127169E-05  0.262E-03    0.02       2.5  T
  55   -426.7871130 -0.163811E-05  0.926E-04    0.02       7.1  T
  56   -426.7871129  0.150340E-06  0.115E-03    0.02       5.7  T
  57   -426.7871131 -0.266368E-06  0.570E-04    0.02      11.5  T
  58   -426.7871132 -0.117064E-07  0.454E-04    0.02      14.5  T
     SCC iter.                  ...        0 min,  9.559 sec
     gradient                   ...        0 min,  0.397 sec
 * total energy  :  -419.5239516 Eh     change       -0.8142561E-01 Eh
   gradient norm :     0.1046089 Eh/α   predicted    -0.7702534E-01 (  -5.40%)
   displ. norm   :     0.8594105 α      lambda       -0.7750952E-01
   maximum displ.:     0.3115090 α      in ANC's #122, #238, #230, ...

........................................................................
.............................. CYCLE    6 ..............................
........................................................................
   1   -426.7887122 -0.426789E+03  0.210E+00    0.08       0.0  T
   2   -416.1230071  0.106657E+02  0.683E+00    0.04       1.0  T
   3   -409.2389668  0.688404E+01  0.695E+00    0.00       1.0  T
   4   -416.0873995 -0.684843E+01  0.634E+00    0.15       1.0  T
   5   -419.3814512 -0.329405E+01  0.443E+00    0.01       1.0  T
   6   -419.4608262 -0.793750E-01  0.506E+00    0.00       1.0  T
   7   -419.9636624 -0.502836E+00  0.468E+00    0.01       1.0  T
   8   -417.4647716  0.249889E+01  0.540E+00    0.10       1.0  T
   9   -419.6670812 -0.220231E+01  0.487E+00    0.02       1.0  T
  10   -421.3910062 -0.172393E+01  0.428E+00    0.01       1.0  T
  11   -422.9841788 -0.159317E+01  0.354E+00    0.01       1.0  T
  12   -422.9347553  0.494235E-01  0.346E+00    0.00       1.0  T
  13   -424.7541616 -0.181941E+01  0.274E+00    0.00       1.0  T
  14   -424.7810274 -0.268657E-01  0.260E+00    0.05       1.0  T
  15   -425.1951555 -0.414128E+00  0.237E+00    0.01       1.0  T
  16   -425.1678100  0.273454E-01  0.254E+00    0.02       1.0  T
  17   -424.1233922  0.104442E+01  0.308E+00    0.01       1.0  T
  18   -424.7865371 -0.663145E+00  0.302E+00    0.00       1.0  T
  19   -425.3361799 -0.549643E+00  0.265E+00    0.00       1.0  T
  20   -424.6999565  0.636223E+00  0.305E+00    0.07       1.0  T
  21   -425.2880619 -0.588105E+00  0.272E+00    0.03       1.0  T
  22   -424.8322608  0.455801E+00  0.283E+00    0.03       1.0  T
  23   -425.3153730 -0.483112E+00  0.268E+00    0.02       1.0  T
  24   -425.3180232 -0.265017E-02  0.268E+00    0.02       1.0  T
  25   -425.3185605 -0.537300E-03  0.268E+00    0.02       1.0  T
  26   -424.8574995  0.461061E+00  0.300E+00    0.01       1.0  T
  27   -424.4347237  0.422776E+00  0.317E+00    0.00       1.0  T
  28   -424.6601407 -0.225417E+00  0.333E+00    0.02       1.0  T
  29   -424.4379885  0.222152E+00  0.339E+00    0.01       1.0  T
  30   -424.3881513  0.498372E-01  0.334E+00    0.01       1.0  T
  31   -424.7512592 -0.363108E+00  0.340E+00    0.01       1.0  T
  32   -424.3584875  0.392772E+00  0.356E+00    0.00       1.0  T
  33   -424.9394657 -0.580978E+00  0.333E+00    0.03       1.0  T
  34   -423.7631400  0.117633E+01  0.361E+00    0.02       1.0  T
  35   -425.0612723 -0.129813E+01  0.355E+00    0.01       1.0  T
  36   -425.4087721 -0.347500E+00  0.311E+00    0.00       1.0  T
  37   -425.2717497  0.137022E+00  0.279E+00    0.01       1.0  T
  38   -425.5351840 -0.263434E+00  0.273E+00    0.01       1.0  T
  39   -425.7686391 -0.233455E+00  0.272E+00    0.02       1.0  T
  40   -425.7851694 -0.165302E-01  0.271E+00    0.01       1.0  T
  41   -425.7772674  0.790202E-02  0.269E+00    0.01       1.0  T
  42   -425.7505339  0.267335E-01  0.263E+00    0.01       1.0  T
  43   -425.7232295  0.273043E-01  0.254E+00    0.01       1.0  T
  44   -425.7238748 -0.645290E-03  0.258E+00    0.01       1.0  T
  45   -425.7871127 -0.632379E-01  0.251E+00    0.00       1.0  T
  46   -425.9866391 -0.199526E+00  0.239E+00    0.01       1.0  T
  47   -425.8274088  0.159230E+00  0.225E+00    0.00       1.0  T
  48   -425.7304637  0.969451E-01  0.219E+00    0.01       1.0  T
  49   -426.0029554 -0.272492E+00  0.202E+00    0.00       1.0  T
  50   -425.8636512  0.139304E+00  0.195E+00    0.01       1.0  T
  51   -425.5756241  0.288027E+00  0.200E+00    0.00       1.0  T
  52   -425.8639143 -0.288290E+00  0.172E+00    0.02       1.0  T
  53   -426.2418469 -0.377933E+00  0.131E+00    0.00       1.0  T
  54   -426.3052863 -0.634395E-01  0.172E+00    0.00       1.0  T
  55   -426.1769704  0.128316E+00  0.160E+00    0.01       1.0  T
  56   -426.4691730 -0.292203E+00  0.132E+00    0.01       1.0  T
  57   -426.6194454 -0.150272E+00  0.902E-01    0.01       1.0  T
  58   -426.6776310 -0.581856E-01  0.878E-01    0.00       1.0  T
  59   -426.7864752 -0.108844E+00  0.617E-01    0.02       1.0  T
  60   -426.7873531 -0.877882E-03  0.602E-01    0.03       1.0  T
  61   -426.8454016 -0.580485E-01  0.442E-01    0.03       1.0  T
  62   -426.8632977 -0.178961E-01  0.354E-01    0.02       1.0  T
  63   -426.8254670  0.378306E-01  0.494E-01    0.02       1.0  T
  64   -426.8583470 -0.328800E-01  0.327E-01    0.03       1.0  T
  65   -426.8329859  0.253611E-01  0.427E-01    0.02       1.0  T
  66   -426.8613604 -0.283745E-01  0.285E-01    0.03       1.0  T
  67   -426.8590041  0.235630E-02  0.271E-01    0.03       1.0  T
  68   -426.8702577 -0.112536E-01  0.172E-01    0.03       1.0  T
  69   -426.8725498 -0.229204E-02  0.156E-01    0.03       1.0  T
  70   -426.8738044 -0.125466E-02  0.868E-02    0.03       1.0  T
  71   -426.8740185 -0.214024E-03  0.843E-02    0.03       1.0  T
  72   -426.8744984 -0.479934E-03  0.689E-02    0.03       1.0  T
  73   -426.8746692 -0.170837E-03  0.564E-02    0.03       1.0  T
  74   -426.8743761  0.293173E-03  0.589E-02    0.03       1.0  T
  75   -426.8745725 -0.196415E-03  0.507E-02    0.03       1.0  T
  76   -426.8745752 -0.277112E-05  0.471E-02    0.03       1.0  T
  77   -426.8749459 -0.370664E-03  0.262E-02    0.03       1.0  T
  78   -426.8750015 -0.555572E-04  0.205E-02    0.03       1.0  T
  79   -426.8749941  0.732887E-05  0.193E-02    0.03       1.0  T
  80   -426.8749922  0.198116E-05  0.182E-02    0.03       1.0  T
  81   -426.8750342 -0.420718E-04  0.121E-02    0.03       1.0  T
  82   -426.8750436 -0.933287E-05  0.780E-03    0.03       1.0  T
  83   -426.8750450 -0.146237E-05  0.568E-03    0.03       1.2  T
  84   -426.8750419  0.314292E-05  0.502E-03    0.03       1.3  T
  85   -426.8750417  0.159506E-06  0.429E-03    0.03       1.5  T
  86   -426.8750441 -0.237305E-05  0.294E-03    0.03       2.2  T
  87   -426.8750451 -0.100746E-05  0.203E-03    0.03       3.2  T
  88   -426.8750456 -0.503768E-06  0.135E-03    0.03       4.9  T
  89   -426.8750457 -0.984221E-07  0.930E-04    0.03       7.1  T
  90   -426.8750459 -0.159035E-06  0.581E-04    0.03      11.3  T
     SCC iter.                  ...        0 min, 14.869 sec
     gradient                   ...        0 min,  0.397 sec
 * total energy  :  -419.5936172 Eh     change       -0.6966561E-01 Eh
   gradient norm :     0.0902172 Eh/α   predicted    -0.6737985E-01 (  -3.28%)
   displ. norm   :     0.8789542 α      lambda       -0.6557081E-01
   maximum displ.:     0.3559601 α      in ANC's #122, #124, #238, ...

........................................................................
.............................. CYCLE    7 ..............................
........................................................................
   1   -426.8739185 -0.426874E+03  0.186E+00    0.09       0.0  T
   2   -418.3524190  0.852150E+01  0.586E+00    0.01       1.0  T
   3   -408.1821591  0.101703E+02  0.730E+00    0.03       1.0  T
   4   -416.0555676 -0.787341E+01  0.625E+00    0.16       1.0  T
   5   -420.0150767 -0.395951E+01  0.450E+00    0.00       1.0  T
   6   -421.5026997 -0.148762E+01  0.453E+00    0.00       1.0  T
   7   -422.0027231 -0.500023E+00  0.425E+00    0.04       1.0  T
   8   -424.3221177 -0.231939E+01  0.316E+00    0.06       1.0  T
   9   -424.2324184  0.896992E-01  0.338E+00    0.01       1.0  T
  10   -425.1419157 -0.909497E+00  0.269E+00    0.01       1.0  T
  11   -425.3684359 -0.226520E+00  0.252E+00    0.02       1.0  T
  12   -425.3591901  0.924585E-02  0.246E+00    0.00       1.0  T
  13   -425.6166299 -0.257440E+00  0.240E+00    0.02       1.0  T
  14   -425.5291249  0.875050E-01  0.235E+00    0.01       1.0  T
  15   -423.6648798  0.186425E+01  0.357E+00    0.08       1.0  T
  16   -424.8211491 -0.115627E+01  0.261E+00    0.01       1.0  T
  17   -425.6259643 -0.804815E+00  0.229E+00    0.01       1.0  T
  18   -425.2487369  0.377227E+00  0.236E+00    0.02       1.0  T
  19   -424.9751244  0.273613E+00  0.249E+00    0.03       1.0  T
  20   -425.5327660 -0.557642E+00  0.223E+00    0.05       1.0  T
  21   -425.0937351  0.439031E+00  0.217E+00    0.02       1.0  T
  22   -424.1093677  0.984367E+00  0.316E+00    0.05       1.0  T
  23   -423.8685546  0.240813E+00  0.314E+00    0.02       1.0  T
  24   -424.9576142 -0.108906E+01  0.253E+00    0.03       1.0  T
  25   -425.0881642 -0.130550E+00  0.252E+00    0.01       1.0  T
  26   -424.6587495  0.429415E+00  0.294E+00    0.01       1.0  T
  27   -425.8599472 -0.120120E+01  0.216E+00    0.02       1.0  T
  28   -426.0182623 -0.158315E+00  0.180E+00    0.00       1.0  T
  29   -426.1248289 -0.106567E+00  0.187E+00    0.01       1.0  T
  30   -426.2984961 -0.173667E+00  0.165E+00    0.00       1.0  T
  31   -426.2626976  0.357985E-01  0.171E+00    0.03       1.0  T
  32   -426.6299949 -0.367297E+00  0.133E+00    0.00       1.0  T
  33   -426.6664141 -0.364193E-01  0.132E+00    0.01       1.0  T
  34   -426.6273703  0.390439E-01  0.113E+00    0.01       1.0  T
  35   -426.5530981  0.742722E-01  0.133E+00    0.00       1.0  T
  36   -426.5850596 -0.319615E-01  0.108E+00    0.00       1.0  T
  37   -426.4882701  0.967895E-01  0.123E+00    0.00       1.0  T
  38   -426.7086496 -0.220379E+00  0.887E-01    0.01       1.0  T
  39   -426.8719489 -0.163299E+00  0.571E-01    0.03       1.0  T
  40   -426.8816197 -0.967089E-02  0.579E-01    0.03       1.0  T
  41   -426.8904096 -0.878987E-02  0.499E-01    0.02       1.0  T
  42   -426.9485307 -0.581211E-01  0.298E-01    0.03       1.0  T
  43   -426.9524407 -0.391004E-02  0.251E-01    0.04       1.0  T
  44   -426.9562070 -0.376627E-02  0.169E-01    0.04       1.0  T
  45   -426.9555518  0.655157E-03  0.149E-01    0.04       1.0  T
  46   -426.9536999  0.185191E-02  0.145E-01    0.04       1.0  T
  47   -426.9570709 -0.337094E-02  0.121E-01    0.04       1.0  T
  48   -426.9571396 -0.687554E-04  0.113E-01    0.04       1.0  T
  49   -426.9589843 -0.184466E-02  0.889E-02    0.04       1.0  T
  50   -426.9593536 -0.369351E-03  0.784E-02    0.04       1.0  T
  51   -426.9598247 -0.471081E-03  0.557E-02    0.04       1.0  T
  52   -426.9602887 -0.463931E-03  0.449E-02    0.04       1.0  T
  53   -426.9602086  0.800716E-04  0.379E-02    0.04       1.0  T
  54   -426.9602849 -0.763321E-04  0.358E-02    0.04       1.0  T
  55   -426.9606729 -0.387988E-03  0.247E-02    0.04       1.0  T
  56   -426.9606102  0.626567E-04  0.216E-02    0.04       1.0  T
  57   -426.9606384 -0.281989E-04  0.202E-02    0.04       1.0  T
  58   -426.9606695 -0.310914E-04  0.169E-02    0.04       1.0  T
  59   -426.9606532  0.163222E-04  0.143E-02    0.04       1.0  T
  60   -426.9606686 -0.154184E-04  0.129E-02    0.04       1.0  T
  61   -426.9606752 -0.656796E-05  0.115E-02    0.04       1.0  T
  62   -426.9606823 -0.707331E-05  0.104E-02    0.04       1.0  T
  63   -426.9606937 -0.114483E-04  0.895E-03    0.04       1.0  T
  64   -426.9607078 -0.140503E-04  0.528E-03    0.04       1.2  T
  65   -426.9607102 -0.240664E-05  0.381E-03    0.04       1.7  T
  66   -426.9607124 -0.221288E-05  0.266E-03    0.04       2.5  T
  67   -426.9607118  0.635652E-06  0.216E-03    0.04       3.0  T
  68   -426.9607125 -0.775112E-06  0.176E-03    0.04       3.7  T
  69   -426.9607128 -0.255139E-06  0.983E-04    0.04       6.7  T
  70   -426.9607129 -0.790594E-07  0.746E-04    0.04       8.8  T
     SCC iter.                  ...        0 min, 11.543 sec
     gradient                   ...        0 min,  0.397 sec
 * total energy  :  -419.6527267 Eh     change       -0.5910955E-01 Eh
   gradient norm :     0.0725784 Eh/α   predicted    -0.5811412E-01 (  -1.68%)
   displ. norm   :     0.8808477 α      lambda       -0.5394239E-01
   maximum displ.:     0.3853464 α      in ANC's #122, #124, #123, ...

........................................................................
.............................. CYCLE    8 ..............................
........................................................................
   1   -426.9705643 -0.426971E+03  0.144E+00    0.11       0.0  T
   2   -419.1106348  0.785993E+01  0.614E+00    0.02       1.0  T
   3   -410.8172045  0.829343E+01  0.738E+00    0.04       1.0  T
   4   -416.2463935 -0.542919E+01  0.652E+00    0.00       1.0  T
   5   -423.9619584 -0.771556E+01  0.375E+00    0.01       1.0  T
   6   -423.3190779  0.642881E+00  0.415E+00    0.08       1.0  T
   7   -423.8500077 -0.530930E+00  0.377E+00    0.07       1.0  T
   8   -424.3693866 -0.519379E+00  0.345E+00    0.03       1.0  T
   9   -424.1451341  0.224252E+00  0.352E+00    0.01       1.0  T
  10   -423.5722825  0.572852E+00  0.364E+00    0.02       1.0  T
  11   -424.1561916 -0.583909E+00  0.343E+00    0.03       1.0  T
  12   -424.1523697  0.382186E-02  0.343E+00    0.03       1.0  T
  13   -424.5096656 -0.357296E+00  0.333E+00    0.01       1.0  T
  14   -424.6493671 -0.139701E+00  0.317E+00    0.02       1.0  T
  15   -424.4813301  0.168037E+00  0.257E+00    0.00       1.0  T
  16   -419.4999297  0.498140E+01  0.546E+00    0.16       1.0  T
  17   -422.6771453 -0.317722E+01  0.437E+00    0.08       1.0  T
  18   -422.8395846 -0.162439E+00  0.418E+00    0.06       1.0  T
  19   -423.0031202 -0.163536E+00  0.406E+00    0.06       1.0  T
  20   -423.0221117 -0.189915E-01  0.395E+00    0.01       1.0  T
  21   -423.5028531 -0.480741E+00  0.396E+00    0.05       1.0  T
  22   -424.0625824 -0.559729E+00  0.363E+00    0.02       1.0  T
  23   -423.6134569  0.449126E+00  0.380E+00    0.04       1.0  T
  24   -423.1357240  0.477733E+00  0.363E+00    0.02       1.0  T
  25   -424.5781623 -0.144244E+01  0.298E+00    0.01       1.0  T
  26   -424.9817451 -0.403583E+00  0.342E+00    0.05       1.0  T
  27   -426.3097782 -0.132803E+01  0.310E+00    0.03       1.0  T
  28   -426.4613515 -0.151573E+00  0.310E+00    0.02       1.0  T
  29   -426.7899446 -0.328593E+00  0.288E+00    0.08       1.0  T
  30   -426.8485853 -0.586407E-01  0.272E+00    0.09       1.0  T
  31   -426.7581349  0.904504E-01  0.229E+00    0.05       1.0  T
  32   -426.2921741  0.465961E+00  0.187E+00    0.04       1.0  T
  33   -426.6966818 -0.404508E+00  0.112E+00    0.02       1.0  T
  34   -426.5437933  0.152889E+00  0.177E+00    0.03       1.0  T
  35   -426.8493682 -0.305575E+00  0.165E+00    0.05       1.0  T
  36   -426.9760436 -0.126675E+00  0.120E+00    0.06       1.0  T
  37   -426.9034679  0.725756E-01  0.682E-01    0.02       1.0  T
  38   -427.0038590 -0.100391E+00  0.896E-01    0.07       1.0  T
  39   -426.9882495  0.156095E-01  0.587E-01    0.05       1.0  T
  40   -427.0237194 -0.354699E-01  0.551E-01    0.05       1.0  T
  41   -427.0225591  0.116028E-02  0.573E-01    0.06       1.0  T
  42   -427.0233962 -0.837062E-03  0.576E-01    0.06       1.0  T
  43   -427.0084508  0.149453E-01  0.341E-01    0.04       1.0  T
  44   -427.0084400  0.108067E-04  0.415E-01    0.05       1.0  T
  45   -427.0179815 -0.954146E-02  0.353E-01    0.04       1.0  T
  46   -427.0178421  0.139353E-03  0.300E-01    0.04       1.0  T
  47   -427.0215768 -0.373463E-02  0.301E-01    0.04       1.0  T
  48   -427.0327855 -0.112088E-01  0.279E-01    0.05       1.0  T
  49   -427.0308639  0.192167E-02  0.242E-01    0.05       1.0  T
  50   -427.0343176 -0.345372E-02  0.223E-01    0.05       1.0  T
  51   -427.0372398 -0.292226E-02  0.222E-01    0.05       1.0  T
  52   -427.0383107 -0.107089E-02  0.173E-01    0.06       1.0  T
  53   -427.0389813 -0.670555E-03  0.153E-01    0.06       1.0  T
  54   -427.0390024 -0.210870E-04  0.131E-01    0.06       1.0  T
  55   -427.0382907  0.711640E-03  0.104E-01    0.05       1.0  T
  56   -427.0386281 -0.337327E-03  0.910E-02    0.06       1.0  T
  57   -427.0392086 -0.580568E-03  0.787E-02    0.06       1.0  T
  58   -427.0391575  0.510894E-04  0.695E-02    0.06       1.0  T
  59   -427.0392667 -0.109186E-03  0.591E-02    0.06       1.0  T
  60   -427.0394817 -0.214950E-03  0.461E-02    0.06       1.0  T
  61   -427.0395758 -0.941693E-04  0.343E-02    0.06       1.0  T
  62   -427.0396827 -0.106820E-03  0.269E-02    0.06       1.0  T
  63   -427.0396846 -0.193736E-05  0.221E-02    0.06       1.0  T
  64   -427.0396855 -0.867423E-06  0.199E-02    0.06       1.0  T
  65   -427.0397198 -0.343407E-04  0.163E-02    0.06       1.0  T
  66   -427.0397237 -0.392640E-05  0.133E-02    0.06       1.0  T
  67   -427.0397289 -0.513489E-05  0.965E-03    0.06       1.0  T
  68   -427.0397340 -0.512729E-05  0.640E-03    0.06       1.0  T
  69   -427.0397357 -0.173134E-05  0.421E-03    0.06       1.6  T
  70   -427.0397380 -0.230912E-05  0.241E-03    0.06       2.7  T
  71   -427.0397382 -0.180381E-06  0.130E-03    0.06       5.0  T
  72   -427.0397383 -0.114080E-06  0.803E-04    0.06       8.2  T
  73   -427.0397384 -0.538947E-07  0.701E-04    0.06       9.4  T
     SCC iter.                  ...        0 min, 11.904 sec
     gradient                   ...        0 min,  0.398 sec
 * total energy  :  -419.7009306 Eh     change       -0.4820385E-01 Eh
   gradient norm :     0.0558472 Eh/α   predicted    -0.4789797E-01 (  -0.63%)
   displ. norm   :     0.8733906 α      lambda       -0.4265248E-01
   maximum displ.:     0.3983501 α      in ANC's #122, #124, #39, ...

........................................................................
.............................. CYCLE    9 ..............................
........................................................................
   1   -427.0671809 -0.427067E+03  0.970E-01    0.11       0.0  T
   2   -421.4938711  0.557331E+01  0.598E+00    0.01       1.0  T
   3   -418.4331231  0.306075E+01  0.622E+00    0.10       1.0  T
   4   -421.9387141 -0.350559E+01  0.493E+00    0.03       1.0  T
   5   -424.6920469 -0.275333E+01  0.337E+00    0.05       1.0  T
   6   -425.4150370 -0.722990E+00  0.274E+00    0.00       1.0  T
   7   -425.3312400  0.837970E-01  0.280E+00    0.02       1.0  T
   8   -424.6664776  0.664762E+00  0.341E+00    0.09       1.0  T
   9   -424.6148290  0.516487E-01  0.337E+00    0.08       1.0  T
  10   -425.2212496 -0.606421E+00  0.301E+00    0.00       1.0  T
  11   -424.8678509  0.353399E+00  0.354E+00    0.01       1.0  T
  12   -424.5143719  0.353479E+00  0.370E+00    0.04       1.0  T
  13   -425.0834394 -0.569068E+00  0.315E+00    0.01       1.0  T
  14   -425.3875062 -0.304067E+00  0.267E+00    0.01       1.0  T
  15   -425.3570068  0.304994E-01  0.311E+00    0.02       1.0  T
  16   -425.5151249 -0.158118E+00  0.300E+00    0.01       1.0  T
  17   -424.9276391  0.587486E+00  0.343E+00    0.01       1.0  T
  18   -425.8964048 -0.968766E+00  0.313E+00    0.07       1.0  T
  19   -425.6843890  0.212016E+00  0.333E+00    0.11       1.0  T
  20   -425.6689188  0.154702E-01  0.327E+00    0.11       1.0  T
  21   -425.7748017 -0.105883E+00  0.302E+00    0.05       1.0  T
  22   -424.7788472  0.995955E+00  0.341E+00    0.02       1.0  T
  23   -425.6473607 -0.868514E+00  0.260E+00    0.02       1.0  T
  24   -424.7874086  0.859952E+00  0.319E+00    0.07       1.0  T
  25   -425.0550737 -0.267665E+00  0.300E+00    0.01       1.0  T
  26   -425.6160600 -0.560986E+00  0.282E+00    0.01       1.0  T
  27   -425.5843952  0.316647E-01  0.287E+00    0.01       1.0  T
  28   -425.6031343 -0.187391E-01  0.287E+00    0.01       1.0  T
  29   -425.3307089  0.272425E+00  0.300E+00    0.03       1.0  T
  30   -425.3213796  0.932935E-02  0.301E+00    0.03       1.0  T
  31   -424.7568627  0.564517E+00  0.359E+00    0.06       1.0  T
  32   -424.7033019  0.535608E-01  0.368E+00    0.06       1.0  T
  33   -424.6383790  0.649229E-01  0.367E+00    0.04       1.0  T
  34   -425.4707705 -0.832391E+00  0.269E+00    0.00       1.0  T
  35   -425.6480953 -0.177325E+00  0.280E+00    0.02       1.0  T
  36   -425.9218782 -0.273783E+00  0.297E+00    0.01       1.0  T
  37   -425.6510257  0.270852E+00  0.285E+00    0.04       1.0  T
  38   -425.4333816  0.217644E+00  0.284E+00    0.03       1.0  T
  39   -425.5003787 -0.669971E-01  0.277E+00    0.06       1.0  T
  40   -425.7039866 -0.203608E+00  0.267E+00    0.05       1.0  T
  41   -425.5780075  0.125979E+00  0.264E+00    0.04       1.0  T
  42   -425.6666391 -0.886316E-01  0.258E+00    0.04       1.0  T
  43   -425.7822883 -0.115649E+00  0.244E+00    0.05       1.0  T
  44   -425.8101182 -0.278299E-01  0.238E+00    0.04       1.0  T
  45   -426.9063520 -0.109623E+01  0.261E+00    0.02       1.0  T
  46   -426.8500729  0.562791E-01  0.250E+00    0.03       1.0  T
  47   -427.0038361 -0.153763E+00  0.219E+00    0.07       1.0  T
  48   -426.8063883  0.197448E+00  0.158E+00    0.01       1.0  T
  49   -426.1027262  0.703662E+00  0.213E+00    0.03       1.0  T
  50   -426.6040594 -0.501333E+00  0.148E+00    0.00       1.0  T
  51   -427.0613152 -0.457256E+00  0.183E+00    0.07       1.0  T
  52   -427.0593504  0.196487E-02  0.143E+00    0.06       1.0  T
  53   -426.9007377  0.158613E+00  0.107E+00    0.03       1.0  T
  54   -426.9469586 -0.462210E-01  0.101E+00    0.03       1.0  T
  55   -426.8616504  0.853082E-01  0.985E-01    0.02       1.0  T
  56   -427.0485115 -0.186861E+00  0.903E-01    0.05       1.0  T
  57   -427.0670410 -0.185295E-01  0.815E-01    0.06       1.0  T
  58   -427.0921507 -0.251097E-01  0.764E-01    0.07       1.0  T
  59   -427.0911144  0.103630E-02  0.639E-01    0.06       1.0  T
  60   -427.0824371  0.867729E-02  0.494E-01    0.06       1.0  T
  61   -427.1002442 -0.178071E-01  0.409E-01    0.06       1.0  T
  62   -427.0916792  0.856492E-02  0.345E-01    0.06       1.0  T
  63   -427.0998653 -0.818604E-02  0.270E-01    0.06       1.0  T
  64   -427.1024137 -0.254843E-02  0.230E-01    0.06       1.0  T
  65   -427.1032512 -0.837524E-03  0.227E-01    0.06       1.0  T
  66   -427.1065669 -0.331571E-02  0.201E-01    0.07       1.0  T
  67   -427.1055925  0.974394E-03  0.191E-01    0.07       1.0  T
  68   -427.1035500  0.204252E-02  0.215E-01    0.07       1.0  T
  69   -427.1064437 -0.289371E-02  0.190E-01    0.07       1.0  T
  70   -427.1070081 -0.564405E-03  0.181E-01    0.07       1.0  T
  71   -427.1047743  0.223382E-02  0.177E-01    0.07       1.0  T
  72   -427.1076517 -0.287737E-02  0.133E-01    0.07       1.0  T
  73   -427.1078333 -0.181655E-03  0.892E-02    0.07       1.0  T
  74   -427.1078016  0.317384E-04  0.900E-02    0.07       1.0  T
  75   -427.1083281 -0.526534E-03  0.500E-02    0.07       1.0  T
  76   -427.1082848  0.433307E-04  0.435E-02    0.07       1.0  T
  77   -427.1083852 -0.100357E-03  0.342E-02    0.07       1.0  T
  78   -427.1083974 -0.122384E-04  0.314E-02    0.07       1.0  T
  79   -427.1084044 -0.702298E-05  0.291E-02    0.07       1.0  T
  80   -427.1084156 -0.111437E-04  0.229E-02    0.07       1.0  T
  81   -427.1084192 -0.363712E-05  0.185E-02    0.07       1.0  T
  82   -427.1084224 -0.323899E-05  0.137E-02    0.07       1.0  T
  83   -427.1084254 -0.294582E-05  0.726E-03    0.07       1.0  T
  84   -427.1084198  0.563668E-05  0.812E-03    0.07       1.0  T
  85   -427.1084267 -0.694704E-05  0.454E-03    0.07       1.4  T
  86   -427.1084257  0.987017E-06  0.434E-03    0.07       1.5  T
  87   -427.1084269 -0.116980E-05  0.324E-03    0.07       2.0  T
  88   -427.1084271 -0.245150E-06  0.244E-03    0.07       2.7  T
  89   -427.1084271  0.439912E-07  0.175E-03    0.07       3.7  T
  90   -427.1084272 -0.125660E-06  0.119E-03    0.07       5.5  T
  91   -427.1084272  0.103384E-07  0.833E-04    0.07       7.9  T
  92   -427.1084272 -0.283150E-07  0.619E-04    0.07      10.6  T
     SCC iter.                  ...        0 min, 15.022 sec
     gradient                   ...        0 min,  0.397 sec
 * total energy  :  -419.7387219 Eh     change       -0.3779131E-01 Eh
   gradient norm :     0.0439724 Eh/α   predicted    -0.3759419E-01 (  -0.52%)
   displ. norm   :     0.8733110 α      lambda       -0.3354381E-01
   maximum displ.:     0.3928963 α      in ANC's #122, #39, #35, ...

........................................................................
.............................. CYCLE   10 ..............................
........................................................................
   1   -427.1483329 -0.427148E+03  0.783E-01    0.12       0.0  T
   2   -420.7920382  0.635629E+01  0.607E+00    0.01       1.0  T
   3   -419.0476492  0.174439E+01  0.614E+00    0.03       1.0  T
   4   -423.8647130 -0.481706E+01  0.409E+00    0.16       1.0  T
   5   -423.8641588  0.554207E-03  0.411E+00    0.17       1.0  T
   6   -423.8552525  0.890629E-02  0.412E+00    0.16       1.0  T
   7   -421.9061522  0.194910E+01  0.493E+00    0.02       1.0  T
   8   -422.8905279 -0.984376E+00  0.417E+00    0.00       1.0  T
   9   -420.8849231  0.200560E+01  0.532E+00    0.10       1.0  T
  10   -422.2988250 -0.141390E+01  0.504E+00    0.13       1.0  T
  11   -425.0686961 -0.276987E+01  0.378E+00    0.04       1.0  T
  12   -424.0299822  0.103871E+01  0.399E+00    0.06       1.0  T
  13   -422.5169060  0.151308E+01  0.486E+00    0.07       1.0  T
  14   -423.4900759 -0.973170E+00  0.435E+00    0.05       1.0  T
  15   -420.6744722  0.281560E+01  0.551E+00    0.03       1.0  T
  16   -422.6092515 -0.193478E+01  0.530E+00    0.16       1.0  T
  17   -422.5471016  0.621499E-01  0.529E+00    0.09       1.0  T
  18   -422.5554143 -0.831275E-02  0.530E+00    0.08       1.0  T
  19   -419.7107212  0.284469E+01  0.628E+00    0.01       1.0  T
  20   -419.4772458  0.233475E+00  0.632E+00    0.01       1.0  T
  21   -421.3425283 -0.186528E+01  0.580E+00    0.00       1.0  T
  22   -423.7621313 -0.241960E+01  0.482E+00    0.03       1.0  T
  23   -423.8564907 -0.943594E-01  0.480E+00    0.03       1.0  T
  24   -423.8787880 -0.222973E-01  0.479E+00    0.03       1.0  T
  25   -423.8753857  0.340230E-02  0.479E+00    0.03       1.0  T
  26   -424.2534770 -0.378091E+00  0.448E+00    0.01       1.0  T
  27   -422.1933130  0.206016E+01  0.519E+00    0.02       1.0  T
  28   -421.8416092  0.351704E+00  0.522E+00    0.01       1.0  T
  29   -421.5293322  0.312277E+00  0.534E+00    0.03       1.0  T
  30   -421.6482990 -0.118967E+00  0.508E+00    0.01       1.0  T
  31   -422.3251779 -0.676879E+00  0.468E+00    0.02       1.0  T
  32   -423.5444333 -0.121926E+01  0.425E+00    0.00       1.0  T
  33   -425.0767452 -0.153231E+01  0.331E+00    0.00       1.0  T
  34   -425.0494506  0.272946E-01  0.347E+00    0.04       1.0  T
  35   -425.2012060 -0.151755E+00  0.340E+00    0.05       1.0  T
  36   -424.7159704  0.485236E+00  0.349E+00    0.04       1.0  T
  37   -425.1094272 -0.393457E+00  0.327E+00    0.02       1.0  T
  38   -424.2775387  0.831889E+00  0.339E+00    0.00       1.0  T
  39   -424.2892511 -0.117124E-01  0.369E+00    0.00       1.0  T
  40   -423.7176682  0.571583E+00  0.399E+00    0.00       1.0  T
  41   -421.2305797  0.248709E+01  0.479E+00    0.03       1.0  T
  42   -421.9116517 -0.681072E+00  0.469E+00    0.03       1.0  T
  43   -424.9439247 -0.303227E+01  0.376E+00    0.01       1.0  T
  44   -425.3350037 -0.391079E+00  0.375E+00    0.02       1.0  T
  45   -425.2348161  0.100188E+00  0.389E+00    0.01       1.0  T
  46   -425.5886195 -0.353803E+00  0.327E+00    0.09       1.0  T
  47   -425.5730423  0.155772E-01  0.314E+00    0.03       1.0  T
  48   -423.4158007  0.215724E+01  0.452E+00    0.01       1.0  T
  49   -424.8161581 -0.140036E+01  0.387E+00    0.02       1.0  T
  50   -426.0136876 -0.119753E+01  0.281E+00    0.00       1.0  T
  51   -426.5292860 -0.515598E+00  0.229E+00    0.03       1.0  T
  52   -426.8545299 -0.325244E+00  0.188E+00    0.01       1.0  T
  53   -426.6026784  0.251852E+00  0.164E+00    0.02       1.0  T
  54   -426.4143870  0.188291E+00  0.191E+00    0.02       1.0  T
  55   -426.2404859  0.173901E+00  0.205E+00    0.01       1.0  T
  56   -426.7300187 -0.489533E+00  0.177E+00    0.01       1.0  T
  57   -426.7947014 -0.646827E-01  0.168E+00    0.00       1.0  T
  58   -426.8074535 -0.127522E-01  0.169E+00    0.00       1.0  T
  59   -426.7716534  0.358002E-01  0.159E+00    0.00       1.0  T
  60   -427.1020899 -0.330437E+00  0.146E+00    0.07       1.0  T
  61   -426.6947753  0.407315E+00  0.203E+00    0.00       1.0  T
  62   -427.0969173 -0.402142E+00  0.169E+00    0.04       1.0  T
  63   -427.1126132 -0.156959E-01  0.131E+00    0.07       1.0  T
  64   -427.0362208  0.763925E-01  0.140E+00    0.03       1.0  T
  65   -427.1180135 -0.817928E-01  0.110E+00    0.08       1.0  T
  66   -427.1261813 -0.816775E-02  0.106E+00    0.09       1.0  T
  67   -427.1410840 -0.149028E-01  0.967E-01    0.09       1.0  T
  68   -427.1218834  0.192007E-01  0.891E-01    0.08       1.0  T
  69   -427.1427340 -0.208506E-01  0.849E-01    0.11       1.0  T
  70   -427.1427853 -0.513044E-04  0.689E-01    0.09       1.0  T
  71   -427.1429241 -0.138809E-03  0.611E-01    0.08       1.0  T
  72   -427.1483230 -0.539896E-02  0.559E-01    0.09       1.0  T
  73   -427.1504859 -0.216282E-02  0.524E-01    0.09       1.0  T
  74   -427.1565187 -0.603282E-02  0.423E-01    0.09       1.0  T
  75   -427.1580225 -0.150383E-02  0.286E-01    0.09       1.0  T
  76   -427.1469347  0.110878E-01  0.285E-01    0.08       1.0  T
  77   -427.1629981 -0.160634E-01  0.215E-01    0.09       1.0  T
  78   -427.1624110  0.587058E-03  0.163E-01    0.09       1.0  T
  79   -427.1645758 -0.216480E-02  0.153E-01    0.09       1.0  T
  80   -427.1675476 -0.297173E-02  0.143E-01    0.09       1.0  T
  81   -427.1678351 -0.287548E-03  0.149E-01    0.09       1.0  T
  82   -427.1674054  0.429742E-03  0.148E-01    0.08       1.0  T
  83   -427.1681092 -0.703815E-03  0.120E-01    0.09       1.0  T
  84   -427.1683766 -0.267368E-03  0.989E-02    0.09       1.0  T
  85   -427.1686532 -0.276586E-03  0.861E-02    0.09       1.0  T
  86   -427.1693215 -0.668344E-03  0.638E-02    0.09       1.0  T
  87   -427.1694724 -0.150896E-03  0.607E-02    0.09       1.0  T
  88   -427.1695087 -0.363052E-04  0.620E-02    0.09       1.0  T
  89   -427.1695431 -0.343910E-04  0.633E-02    0.09       1.0  T
  90   -427.1695500 -0.689866E-05  0.601E-02    0.09       1.0  T
  91   -427.1695882 -0.382238E-04  0.519E-02    0.09       1.0  T
  92   -427.1695991 -0.109158E-04  0.408E-02    0.09       1.0  T
  93   -427.1696091 -0.992888E-05  0.316E-02    0.09       1.0  T
  94   -427.1696021  0.695633E-05  0.262E-02    0.09       1.0  T
  95   -427.1696083 -0.619288E-05  0.224E-02    0.09       1.0  T
  96   -427.1696173 -0.904282E-05  0.200E-02    0.09       1.0  T
  97   -427.1696196 -0.225886E-05  0.166E-02    0.09       1.0  T
  98   -427.1696189  0.678484E-06  0.144E-02    0.09       1.0  T
  99   -427.1696197 -0.750840E-06  0.127E-02    0.09       1.0  T
 100   -427.1696262 -0.654232E-05  0.109E-02    0.09       1.0  T
 101   -427.1696271 -0.897710E-06  0.853E-03    0.09       1.0  T
 102   -427.1696321 -0.503211E-05  0.650E-03    0.09       1.0  T
 103   -427.1696338 -0.170722E-05  0.517E-03    0.09       1.3  T
 104   -427.1696359 -0.200781E-05  0.396E-03    0.09       1.7  T
 105   -427.1696370 -0.115072E-05  0.306E-03    0.09       2.1  T
 106   -427.1696374 -0.407973E-06  0.238E-03    0.09       2.8  T
 107   -427.1696380 -0.594133E-06  0.201E-03    0.09       3.3  T
 108   -427.1696383 -0.275376E-06  0.160E-03    0.09       4.1  T
 109   -427.1696386 -0.310343E-06  0.108E-03    0.09       6.1  T
 110   -427.1696387 -0.796193E-07  0.709E-04    0.09       9.3  T
 111   -427.1696387 -0.115604E-07  0.481E-04    0.09      13.7  T
     SCC iter.                  ...        0 min, 18.325 sec
     gradient                   ...        0 min,  0.398 sec
 * total energy  :  -419.7684247 Eh     change       -0.2970278E-01 Eh
   gradient norm :     0.0363072 Eh/α   predicted    -0.2956344E-01 (  -0.47%)
   displ. norm   :     0.8785683 α      lambda       -0.2665426E-01
   maximum displ.:     0.3625467 α      in ANC's #122, #39, #35, ...

........................................................................
.............................. CYCLE   11 ..............................
........................................................................
   1   -427.2083685 -0.427208E+03  0.818E-01    0.13       0.0  T
   2   -418.9083561  0.830001E+01  0.663E+00    0.00       1.0  T
   3   -424.4104955 -0.550214E+01  0.365E+00    0.03       1.0  T
   4   -423.9955852  0.414910E+00  0.391E+00    0.04       1.0  T
   5   -423.2070242  0.788561E+00  0.459E+00    0.01       1.0  T
   6   -424.6507060 -0.144368E+01  0.401E+00    0.01       1.0  T
   7   -424.3638086  0.286897E+00  0.431E+00    0.02       1.0  T
   8   -419.9398142  0.442399E+01  0.524E+00    0.03       1.0  T
   9   -424.3163444 -0.437653E+01  0.420E+00    0.01       1.0  T
  10   -422.9075379  0.140881E+01  0.425E+00    0.01       1.0  T
  11   -423.0547190 -0.147181E+00  0.410E+00    0.01       1.0  T
  12   -424.1127599 -0.105804E+01  0.420E+00    0.03       1.0  T
  13   -422.9441092  0.116865E+01  0.453E+00    0.01       1.0  T
  14   -423.2906418 -0.346533E+00  0.439E+00    0.01       1.0  T
  15   -422.7705748  0.520067E+00  0.457E+00    0.01       1.0  T
  16   -423.7327164 -0.962142E+00  0.411E+00    0.01       1.0  T
  17   -425.5988582 -0.186614E+01  0.290E+00    0.09       1.0  T
  18   -426.2847891 -0.685931E+00  0.215E+00    0.06       1.0  T
  19   -426.2335931  0.511959E-01  0.220E+00    0.05       1.0  T
  20   -426.3330442 -0.994510E-01  0.199E+00    0.03       1.0  T
  21   -424.9143468  0.141870E+01  0.321E+00    0.05       1.0  T
  22   -425.0670747 -0.152728E+00  0.311E+00    0.03       1.0  T
  23   -424.8137825  0.253292E+00  0.329E+00    0.06       1.0  T
  24   -424.8230322 -0.924971E-02  0.328E+00    0.06       1.0  T
  25   -425.5464855 -0.723453E+00  0.268E+00    0.01       1.0  T
  26   -425.9433258 -0.396840E+00  0.229E+00    0.01       1.0  T
  27   -426.9365809 -0.993255E+00  0.126E+00    0.01       1.0  T
  28   -426.2420883  0.694493E+00  0.201E+00    0.02       1.0  T
  29   -426.0056057  0.236483E+00  0.233E+00    0.02       1.0  T
  30   -427.1585868 -0.115298E+01  0.589E-01    0.08       1.0  T
  31   -427.0235382  0.135049E+00  0.765E-01    0.04       1.0  T
  32   -426.9134344  0.110104E+00  0.130E+00    0.02       1.0  T
  33   -427.0678448 -0.154410E+00  0.935E-01    0.04       1.0  T
  34   -427.1771843 -0.109340E+00  0.773E-01    0.09       1.0  T
  35   -427.1978083 -0.206240E-01  0.778E-01    0.11       1.0  T
  36   -427.1946133  0.319504E-02  0.780E-01    0.11       1.0  T
  37   -427.1947216 -0.108370E-03  0.779E-01    0.11       1.0  T
  38   -427.1917881  0.293355E-02  0.816E-01    0.10       1.0  T
  39   -427.1961933 -0.440518E-02  0.810E-01    0.11       1.0  T
  40   -427.1984804 -0.228709E-02  0.804E-01    0.11       1.0  T
  41   -427.1972644  0.121593E-02  0.787E-01    0.11       1.0  T
  42   -427.1912762  0.598819E-02  0.733E-01    0.11       1.0  T
  43   -427.1901329  0.114329E-02  0.636E-01    0.11       1.0  T
[...]
 137:  0.00 138:  0.00 139:  0.00 140:  0.00 141:  0.00 142:  0.00 143:  0.00 144:  0.00
 145:  0.00 146:  0.00 147:  0.00 148:  0.00 149:  0.00 150:  0.00 151:  0.00 152:  0.00
 153:  0.00 154:  0.00 155:  0.00 156:  0.00 157:  0.00 158:  0.00 159:  0.00 160:  0.00
 161:  0.00 162:  0.00 163:  0.00 164:  0.00 165:  0.00 166:  0.00 167:  0.00 168:  0.00
 169:  0.00 170:  0.00 171:  0.00 172:  0.00 173:  0.00 174:  0.00 175:  0.00 176:  0.00
 177:  0.00 178:  0.00 179:  0.00 180:  0.00 181:  0.00 182:  0.00 183:  0.00 184:  0.00
 185:  0.00 186:  0.00 187:  0.00 188:  0.00 189:  0.00 190:  0.00 191:  0.00 192:  0.00
 193:  0.00 194:  0.00 195:  0.00 196:  0.00 197:  0.00 198:  0.00 199:  0.00 200:  0.00
 201:  0.00 202:  0.00 203:  0.00 204:  0.00 205:  0.00 206:  0.00 207:  0.00 208:  0.00
 209:  0.00 210:  0.00 211:  0.00 212:  0.00 213:  0.00 214:  0.00 215:  0.00 216:  0.00
 217:  0.00 218:  0.00 219:  0.00 220:  0.00 221:  0.00 222:  0.00 223:  0.00 224:  0.00
 225:  0.00 226:  0.00 227:  0.00 228:  0.00 229:  0.00 230:  0.00 231:  0.00 232:  0.00
 233:  0.00 234:  0.00 235:  0.00 236:  0.00 237:  0.00 238:  0.00 239:  0.00 240:  0.00
 241:  0.00 242:  0.00 243:  0.00 244:  0.00 245:  0.00 246:  0.00 247:  0.00 248:  0.00
 249:  0.00 250:  0.00 251:  0.00 252:  0.00 253:  0.00 254:  0.00 255:  0.00 256:  0.00
 257:  0.00 258:  0.00 259:  0.00 260:  0.00 261:  0.00 262:  0.00 263:  0.00 264:  0.00
 265:  0.00 266:  0.00 267:  0.00 268:  0.00 269:  0.00 270:  0.00 271:  0.00 272:  0.00
 273:  0.00 274:  0.00 275:  0.00 276:  0.00 277:  0.00 278:  0.00 279:  0.00 280:  0.00
 281:  0.00 282:  0.00 283:  0.00 284:  0.00 285:  0.00 286:  0.00 287:  0.00 288:  0.00
 289:  0.00 290:  0.00 291:  0.00 292:  0.00 293:  0.00 294:  0.00 295:  0.00 296:  0.00
 297:  0.00 298:  0.00 299:  0.00 300:  0.00 301:  0.00 302:  0.00 303:  0.00 304:  0.00
 305:  0.00 306:  0.00 307:  0.00 308:  0.00 309:  0.00 310:  0.00 311:  0.00 312:  0.00
 313:  0.00 314:  0.00 315:  0.00 316:  0.00 317:  0.00 318:  0.00 319:  0.00 320:  0.00
 321:  0.00 322:  0.00 323:  0.00 324:  0.00 325:  0.00 326:  0.00 327:  0.00 328:  0.00
 329:  0.00 330:  0.00 331:  0.00 332:  0.00 333:  0.00 334:  0.00 335:  0.00 336:  0.00
 337:  0.00 338:  0.00 339:  0.00 340:  0.00 341:  0.00 342:  0.00 343:  0.00 344:  0.00
 345:  0.00 346:  0.00 347:  0.00 348:  0.00 349:  0.00 350:  0.00 351:  0.00 352:  0.00
 353:  0.00 354:  0.00 355:  0.00 356:  0.00 357:  0.00 358:  0.00 359:  0.00 360:  0.00
 361:  0.00 362:  0.00 363:  0.00 364:  0.00 365:  0.00 366:  0.00 367:  0.00 368:  0.00
 369:  0.00 370:  0.00 371:  0.00 372:  0.00 373:  0.00 374:  0.00 375:  0.00 376:  0.00
 377:  0.00 378:  0.00 379:  0.00 380:  0.00 381:  0.00 382:  0.00 383:  0.00 384:  0.00
 385:  0.00 386:  0.00 387:  0.00 388:  0.00 389:  0.00 390:  0.00 391:  0.00 392:  0.00
 393:  0.00 394:  0.00 395:  0.00 396:  0.00 397:  0.00 398:  0.00 399:  0.00 400:  0.00
 401:  0.00 402:  0.00 403:  0.00 404:  0.00 405:  0.00 406:  0.00 407:  0.00 408:  0.00
 409:  0.00 410:  0.00 411:  0.00 412:  0.00 413:  0.00 414:  0.00 415:  0.00 416:  0.00
 417:  0.00 418:  0.00 419:  0.00 420:  0.00 421:  0.00 422:  0.00 423:  0.00 424:  0.00
 425:  0.00 426:  0.00 427:  0.00 428:  0.00 429:  0.00 430:  0.00 431:  0.00 432:  0.00
 433:  0.00 434:  0.00 435:  0.00 436:  0.00 437:  0.00 438:  0.00 439:  0.00 440:  0.00
 441:  0.00 442:  0.00 443:  0.00 444:  0.00 445:  0.00 446:  0.00 447:  0.00 448:  0.00
 449:  0.00 450:  0.00 451:  0.00 452:  0.00 453:  0.00 454:  0.00 455:  0.00 456:  0.00
 457:  0.00 458:  0.00 459:  0.00 460:  0.00 461:  0.00 462:  0.00 463:  0.00 464:  0.00
 465:  0.00 466:  0.00 467:  0.00 468:  0.00 469:  0.00 470:  0.00 471:  0.00 472:  0.00
 473:  0.00 474:  0.00 475:  0.00 476:  0.00 477:  0.00 478:  0.00 479:  0.00 480:  0.00
 481:  0.00 482:  0.00 483:  0.00 484:  0.00 485:  0.00 486:  0.00 487:  0.00 488:  0.00
 489:  0.00 490:  0.00 491:  0.00 492:  0.00 493:  0.00 494:  0.00 495:  0.00 496:  0.00
 497:  0.00 498:  0.00 499:  0.00 500:  0.00 501:  0.00 502:  0.00 503:  0.00 504:  0.00
 505:  0.00 506:  0.00 507:  0.00 508:  0.00 509:  0.00 510:  0.00 511:  0.00 512:  0.00
 513:  0.00 514:  0.00 515:  0.00 516:  0.00 517:  0.00 518:  0.00 519:  0.00 520:  0.00
 521:  0.00 522:  0.00 523:  0.00 524:  0.00 525:  0.00 526:  0.00 527:  0.00 528:  0.00
 529:  0.00 530:  0.00 531:  0.00 532:  0.00 533:  0.00 534:  0.00 535:  0.00 536:  0.00
 537:  0.00 538:  0.00 539:  0.00 540:  0.00 541:  0.00 542:  0.00 543:  0.00 544:  0.00
 545:  0.00 546:  0.00 547:  0.00 548:  0.00 549:  0.00 550:  0.00 551:  0.00 552:  0.00
 553:  0.00 554:  0.00 555:  0.00 556:  0.00 557:  0.00 558:  0.00 559:  0.00 560:  0.00
 561:  0.00 562:  0.00 563:  0.00 564:  0.00 565:  0.00 566:  0.00 567:  0.00 568:  0.00
 569:  0.00 570:  0.00 571:  0.00 572:  0.00 573:  0.00 574:  0.00 575:  0.00 576:  0.00
 577:  0.00 578:  0.00 579:  0.00 580:  0.00 581:  0.00 582:  0.00 583:  0.00 584:  0.00
 585:  0.00 586:  0.00 587:  0.00 588:  0.00 589:  0.00 590:  0.00 591:  0.00 592:  0.00
 593:  0.00 594:  0.00 595:  0.00 596:  0.00 597:  0.00 598:  0.00 599:  0.00 600:  0.00
 601:  0.00 602:  0.00 603:  0.00 604:  0.00 605:  0.00 606:  0.00 607:  0.00 608:  0.00
 609:  0.00 610:  0.00 611:  0.00 612:  0.00 613:  0.00 614:  0.00 615:  0.00 616:  0.00
 617:  0.00 618:  0.00 619:  0.00 620:  0.00 621:  0.00 622:  0.00 623:  0.00 624:  0.00
 625:  0.00 626:  0.00 627:  0.00 628:  0.00 629:  0.00 630:  0.00 631:  0.00 632:  0.00
 633:  0.00 634:  0.00 635:  0.00 636:  0.00 637:  0.00 638:  0.00 639:  0.00 640:  0.00
 641:  0.00 642:  0.00 643:  0.00 644:  0.00 645:  0.00 646:  0.00 647:  0.00 648:  0.00
 649:  0.00 650:  0.00 651:  0.00 652:  0.00 653:  0.00 654:  0.00 655:  0.00 656:  0.00
 657:  0.00 658:  0.00 659:  0.00 660:  0.00 661:  0.00 662:  0.00 663:  0.00 664:  0.00
 665:  0.00 666:  0.00 667:  0.00 668:  0.00 669:  0.00 670:  0.00 671:  0.00 672:  0.00
 673:  0.00 674:  0.00 675:  0.00 676:  0.00 677:  0.00 678:  0.00 679:  0.00 680:  0.00
 681:  0.00 682:  0.00 683:  0.00 684:  0.00 685:  0.00 686:  0.00 687:  0.00 688:  0.00
 689:  0.00 690:  0.00 691:  0.00 692:  0.00 693:  0.00 694:  0.00 695:  0.00 696:  0.00
 output can be read by thermo (or use thermo option).
 writing <g98.out> molden fake output.
 recommended (thermochemical) frequency scaling factor: 1.0
           -------------------------------------------------
          |             Thermodynamic Functions             |
           -------------------------------------------------
 symmetry recognition skipped because # atoms >         200

          ...................................................
          :                      SETUP                      :
          :.................................................:
          :  # frequencies                         689      :
          :  # imaginary freq.                       0      :
          :  linear?                             false      :
          :  only rotor calc.                    false      :
          :  symmetry                               C1      :
          :  rotational number                       1      :
          :  scaling factor                  1.0000000      :
          :  rotor cutoff                   50.0000000 cm⁻¹ :
          :  imag. cutoff                  -20.0000000 cm⁻¹ :
          :.................................................:

    mode    ω/cm⁻¹     T·S(HO)/kcal·mol⁻¹    T·S(FR)/kcal·mol⁻¹   T·S(vib)
   ------------------------------------------------------------------------
       1      1.12    -3.68432 (  0.00%)    -2.18127 (100.00%)    -2.18127
       2      2.05    -3.32778 (  0.00%)    -2.00300 (100.00%)    -2.00301
       3      2.65    -3.17507 (  0.00%)    -1.92665 (100.00%)    -1.92666
       4      3.50    -3.00960 (  0.00%)    -1.84391 (100.00%)    -1.84394
       5      3.97    -2.93598 (  0.00%)    -1.80710 (100.00%)    -1.80715
       6      4.94    -2.80631 (  0.01%)    -1.74226 ( 99.99%)    -1.74236
       7      5.05    -2.79284 (  0.01%)    -1.73553 ( 99.99%)    -1.73564
       8      5.39    -2.75444 (  0.01%)    -1.71633 ( 99.99%)    -1.71647
       9      5.97    -2.69432 (  0.02%)    -1.68627 ( 99.98%)    -1.68647
      10      7.00    -2.59951 (  0.04%)    -1.63886 ( 99.96%)    -1.63923
      11      7.57    -2.55317 (  0.05%)    -1.61569 ( 99.95%)    -1.61618
      12      7.81    -2.53471 (  0.06%)    -1.60645 ( 99.94%)    -1.60700
      13     10.18    -2.37776 (  0.17%)    -1.52797 ( 99.83%)    -1.52943
      14     10.50    -2.35960 (  0.19%)    -1.51889 ( 99.81%)    -1.52052
      15     11.45    -2.30823 (  0.27%)    -1.49319 ( 99.73%)    -1.49543
      16     15.22    -2.13957 (  0.85%)    -1.40883 ( 99.15%)    -1.41506
      17     19.19    -2.00234 (  2.13%)    -1.34018 ( 97.87%)    -1.35425
      18     22.79    -1.90071 (  4.14%)    -1.28932 ( 95.86%)    -1.31462
      19     23.68    -1.87790 (  4.79%)    -1.27790 ( 95.21%)    -1.30666
      20     25.52    -1.83381 (  6.35%)    -1.25584 ( 93.65%)    -1.29255
      21     27.75    -1.78415 (  8.67%)    -1.23097 ( 91.33%)    -1.27891
      22     28.89    -1.76032 ( 10.03%)    -1.21904 ( 89.97%)    -1.27332
      23     30.09    -1.73620 ( 11.60%)    -1.20696 ( 88.40%)    -1.26835
      24     30.52    -1.72778 ( 12.20%)    -1.20274 ( 87.80%)    -1.26678
      25     30.83    -1.72198 ( 12.62%)    -1.19983 ( 87.38%)    -1.26575
      26     31.09    -1.71702 ( 13.00%)    -1.19735 ( 87.00%)    -1.26490
      27     31.43    -1.71044 ( 13.51%)    -1.19405 ( 86.49%)    -1.26382
      28     31.57    -1.70784 ( 13.72%)    -1.19275 ( 86.28%)    -1.26340
      29     33.30    -1.67626 ( 16.45%)    -1.17693 ( 83.55%)    -1.25905
      30     34.45    -1.65632 ( 18.39%)    -1.16694 ( 81.61%)    -1.25691
      31     38.56    -1.58963 ( 26.13%)    -1.13350 ( 73.87%)    -1.25270
      32     40.41    -1.56191 ( 29.91%)    -1.11960 ( 70.09%)    -1.25192
      33     42.07    -1.53824 ( 33.38%)    -1.10773 ( 66.62%)    -1.25143
      34     47.21    -1.47022 ( 44.27%)    -1.07359 ( 55.73%)    -1.24919
      35     50.76    -1.42742 ( 51.51%)    -1.05209 ( 48.49%)    -1.24541
      36     53.87    -1.39237 ( 57.40%)    -1.03447 ( 42.60%)    -1.23990
      37     60.54    -1.32364 ( 68.25%)    -0.99988 ( 31.75%)    -1.22083
      38     66.01    -1.27281 ( 75.23%)    -0.97427 ( 24.77%)    -1.19886
      39     75.79    -1.19171 ( 84.07%)    -0.93333 ( 15.93%)    -1.15056
      40     83.25    -1.13677 ( 88.49%)    -0.90552 ( 11.51%)    -1.11014
      41     88.24    -1.10275 ( 90.66%)    -0.88827 (  9.34%)    -1.08271
      42     90.76    -1.08636 ( 91.57%)    -0.87994 (  8.43%)    -1.06895
      43     91.51    -1.08157 ( 91.82%)    -0.87751 (  8.18%)    -1.06487
      44     91.69    -1.08041 ( 91.88%)    -0.87692 (  8.12%)    -1.06387
      45     93.83    -1.06695 ( 92.54%)    -0.87007 (  7.46%)    -1.05226
      46     93.89    -1.06660 ( 92.56%)    -0.86990 (  7.44%)    -1.05196
      47     97.25    -1.04613 ( 93.47%)    -0.85948 (  6.53%)    -1.03394
      48    100.22    -1.02864 ( 94.17%)    -0.85057 (  5.83%)    -1.01825
      49    103.12    -1.01204 ( 94.76%)    -0.84210 (  5.24%)    -1.00314
      50    111.07    -0.96900 ( 96.06%)    -0.82010 (  3.94%)    -0.96313
      51    119.27    -0.92788 ( 97.00%)    -0.79900 (  3.00%)    -0.92402
      52    123.14    -0.90950 ( 97.35%)    -0.78955 (  2.65%)    -0.90633
      53    124.74    -0.90206 ( 97.48%)    -0.78572 (  2.52%)    -0.89914
      54    125.39    -0.89911 ( 97.53%)    -0.78419 (  2.47%)    -0.89627
      55    125.41    -0.89899 ( 97.54%)    -0.78413 (  2.46%)    -0.89615
      56    125.47    -0.89872 ( 97.54%)    -0.78399 (  2.46%)    -0.89590
      57    125.52    -0.89849 ( 97.54%)    -0.78388 (  2.46%)    -0.89568
      58    126.43    -0.89436 ( 97.61%)    -0.78175 (  2.39%)    -0.89167
      59    126.54    -0.89383 ( 97.62%)    -0.78147 (  2.38%)    -0.89116
      60    138.76    -0.84105 ( 98.34%)    -0.75417 (  1.66%)    -0.83961
      61    140.72    -0.83306 ( 98.43%)    -0.75002 (  1.57%)    -0.83175
      62    142.81    -0.82466 ( 98.52%)    -0.74565 (  1.48%)    -0.82349
      63    145.76    -0.81301 ( 98.63%)    -0.73959 (  1.37%)    -0.81201
      64    146.34    -0.81074 ( 98.66%)    -0.73841 (  1.34%)    -0.80977
      65    148.75    -0.80145 ( 98.74%)    -0.73356 (  1.26%)    -0.80060
      66    150.56    -0.79462 ( 98.80%)    -0.73000 (  1.20%)    -0.79385
      67    152.74    -0.78647 ( 98.86%)    -0.72574 (  1.14%)    -0.78579
      68    157.53    -0.76899 ( 99.00%)    -0.71658 (  1.00%)    -0.76847
      69    160.47    -0.75855 ( 99.07%)    -0.71110 (  0.93%)    -0.75811
      70    169.28    -0.72851 ( 99.24%)    -0.69527 (  0.76%)    -0.72825
      71    184.18    -0.68146 ( 99.46%)    -0.67029 (  0.54%)    -0.68140
      72    184.38    -0.68084 ( 99.46%)    -0.66996 (  0.54%)    -0.68079
      73    184.53    -0.68041 ( 99.46%)    -0.66972 (  0.54%)    -0.68035
      74    184.63    -0.68009 ( 99.47%)    -0.66955 (  0.53%)    -0.68004
      75    184.89    -0.67933 ( 99.47%)    -0.66915 (  0.53%)    -0.67928
      76    185.09    -0.67871 ( 99.47%)    -0.66882 (  0.53%)    -0.67866
      77    185.20    -0.67839 ( 99.47%)    -0.66865 (  0.53%)    -0.67834
      78    204.86    -0.62282 ( 99.65%)    -0.63875 (  0.35%)    -0.62288
      79    205.67    -0.62067 ( 99.65%)    -0.63758 (  0.35%)    -0.62073
      80    206.05    -0.61966 ( 99.65%)    -0.63704 (  0.35%)    -0.61972
      81    206.65    -0.61810 ( 99.66%)    -0.63619 (  0.34%)    -0.61816
      82    207.43    -0.61603 ( 99.66%)    -0.63507 (  0.34%)    -0.61610
      83    209.11    -0.61165 ( 99.67%)    -0.63268 (  0.33%)    -0.61171
      84    209.14    -0.61155 ( 99.67%)    -0.63263 (  0.33%)    -0.61162
      85    216.73    -0.59219 ( 99.72%)    -0.62207 (  0.28%)    -0.59228
      86    217.39    -0.59055 ( 99.72%)    -0.62117 (  0.28%)    -0.59064
      87    218.28    -0.58835 ( 99.73%)    -0.61997 (  0.27%)    -0.58844
      88    219.24    -0.58598 ( 99.73%)    -0.61867 (  0.27%)    -0.58607
      89    219.81    -0.58457 ( 99.73%)    -0.61789 (  0.27%)    -0.58466
      90    223.94    -0.57453 ( 99.75%)    -0.61237 (  0.25%)    -0.57462
      91    223.97    -0.57446 ( 99.75%)    -0.61234 (  0.25%)    -0.57455
      92    224.28    -0.57372 ( 99.75%)    -0.61193 (  0.25%)    -0.57382
      93    224.57    -0.57303 ( 99.75%)    -0.61155 (  0.25%)    -0.57313
      94    224.82    -0.57243 ( 99.76%)    -0.61122 (  0.24%)    -0.57252
      95    225.19    -0.57155 ( 99.76%)    -0.61074 (  0.24%)    -0.57165
      96    225.39    -0.57106 ( 99.76%)    -0.61046 (  0.24%)    -0.57115
      97    226.34    -0.56880 ( 99.76%)    -0.60922 (  0.24%)    -0.56890
      98    226.35    -0.56878 ( 99.76%)    -0.60921 (  0.24%)    -0.56888
      99    226.37    -0.56873 ( 99.76%)    -0.60918 (  0.24%)    -0.56882
     100    228.59    -0.56350 ( 99.77%)    -0.60629 (  0.23%)    -0.56359
     101    229.29    -0.56186 ( 99.77%)    -0.60538 (  0.23%)    -0.56195
     102    232.91    -0.55348 ( 99.79%)    -0.60074 (  0.21%)    -0.55358
     103    236.34    -0.54570 ( 99.80%)    -0.59642 (  0.20%)    -0.54580
     104    246.88    -0.52257 ( 99.83%)    -0.58348 (  0.17%)    -0.52267
     105    247.03    -0.52226 ( 99.83%)    -0.58331 (  0.17%)    -0.52236
     106    247.04    -0.52223 ( 99.83%)    -0.58329 (  0.17%)    -0.52233
     107    247.09    -0.52213 ( 99.83%)    -0.58324 (  0.17%)    -0.52224
     108    247.89    -0.52042 ( 99.83%)    -0.58227 (  0.17%)    -0.52052
     109    248.01    -0.52018 ( 99.84%)    -0.58214 (  0.16%)    -0.52028
     110    248.12    -0.51994 ( 99.84%)    -0.58200 (  0.16%)    -0.52004
     111    254.06    -0.50753 ( 99.85%)    -0.57500 (  0.15%)    -0.50763
     112    254.26    -0.50710 ( 99.85%)    -0.57476 (  0.15%)    -0.50720
     113    254.53    -0.50655 ( 99.85%)    -0.57445 (  0.15%)    -0.50665
     114    254.76    -0.50608 ( 99.85%)    -0.57418 (  0.15%)    -0.50618
     115    255.91    -0.50373 ( 99.85%)    -0.57285 (  0.15%)    -0.50383
     116    255.99    -0.50356 ( 99.85%)    -0.57275 (  0.15%)    -0.50366
     117    260.80    -0.49386 ( 99.87%)    -0.56724 (  0.13%)    -0.49396
     118    264.48    -0.48659 ( 99.87%)    -0.56309 (  0.13%)    -0.48669
     119    266.78    -0.48211 ( 99.88%)    -0.56053 (  0.12%)    -0.48221
     120    273.03    -0.47017 ( 99.89%)    -0.55366 (  0.11%)    -0.47026
     121    274.85    -0.46675 ( 99.89%)    -0.55169 (  0.11%)    -0.46684
     122    277.96    -0.46099 ( 99.90%)    -0.54836 (  0.10%)    -0.46108
     123    279.53    -0.45811 ( 99.90%)    -0.54669 (  0.10%)    -0.45820
     124    279.63    -0.45793 ( 99.90%)    -0.54658 (  0.10%)    -0.45803
     125    280.54    -0.45628 ( 99.90%)    -0.54563 (  0.10%)    -0.45637
     126    280.83    -0.45575 ( 99.90%)    -0.54532 (  0.10%)    -0.45584
     127    283.85    -0.45031 ( 99.90%)    -0.54215 (  0.10%)    -0.45040
     128    292.90    -0.43445 ( 99.92%)    -0.53285 (  0.08%)    -0.43454
   ------------------------------------------------------------------------

   temp. (K)  partition function   enthalpy   heat capacity  entropy
                                   cal/mol     cal/K/mol   cal/K/mol   J/K/mol
 298.15  VIB  0.121E+75            84389.584    540.133    536.950
         ROT  0.102E+11              888.752      2.981     48.774
         INT  0.124E+85            85278.336    543.114    585.724
         TR   0.115E+30             1481.254      4.968     49.188
         TOT                       86759.5901   548.0823   634.9120  2656.4718

       T/K    H(0)-H(T)+PV         H(T)/Eh          T*S/Eh         G(T)/Eh
   ------------------------------------------------------------------------
    298.15    0.138260E+00    0.172268E+01    0.301667E+00    0.142101E+01
   ------------------------------------------------------------------------

         :::::::::::::::::::::::::::::::::::::::::::::::::::::
         ::                  THERMODYNAMIC                  ::
         :::::::::::::::::::::::::::::::::::::::::::::::::::::
         :: total free energy        -418.943514998224 Eh   ::
         ::.................................................::
         :: total energy             -420.364524583384 Eh   ::
         :: zero point energy           1.584416556336 Eh   ::
         :: G(RRHO) w/o ZPVE           -0.163406971176 Eh   ::
         :: G(RRHO) contrib.            1.421009585160 Eh   ::
         :::::::::::::::::::::::::::::::::::::::::::::::::::::

optimized geometry written to: xtbopt.xyz


           -------------------------------------------------
          | TOTAL ENERGY             -420.364524583384 Eh   |
          | TOTAL ENTHALPY           -418.641847819659 Eh   |
          | TOTAL FREE ENERGY        -418.943514998224 Eh   |
          | GRADIENT NORM               0.000577430895 Eh/α |
          | HOMO-LUMO GAP               0.242406836408 eV   |
           -------------------------------------------------

------------------------------------------------------------------------
 * finished run on 2021/11/20 at 01:21:59.238     
------------------------------------------------------------------------
 total:
 * wall-time:     0 d,  0 h, 45 min,  7.328 sec
 *  cpu-time:     0 d,  0 h, 45 min,  7.337 sec
 * ratio c/w:     1.000 speedup
 SCF:
 * wall-time:     0 d,  0 h,  0 min, 30.204 sec
 *  cpu-time:     0 d,  0 h,  0 min, 30.204 sec
 * ratio c/w:     1.000 speedup
 ANC optimizer:
 * wall-time:     0 d,  0 h,  4 min, 52.810 sec
 *  cpu-time:     0 d,  0 h,  4 min, 52.793 sec
 * ratio c/w:     1.000 speedup
 analytical hessian:
 * wall-time:     0 d,  0 h, 39 min, 43.988 sec
 *  cpu-time:     0 d,  0 h, 39 min, 44.016 sec
 * ratio c/w:     1.000 speedup

