232
 energy: -418.781632300092 gnorm: 0.923644011538 xtb: 6.4.1 (bd6e46d)
Fe       34.82588100000000    0.04286800000000   -0.01312800000000
C        37.15487200000000   -3.10392600000000    1.30956100000000
C        38.07097900000000   -2.15971800000000    1.25927900000000
C        37.65980000000000   -1.10581400000000    0.33798700000000
C        38.27867000000000    0.01853200000000   -0.00842300000000
C        37.57462800000000    1.23848000000000   -0.37252800000000
C        37.90273900000000    2.19853500000000   -1.22000200000000
C        36.86795900000000    3.21482100000000   -1.23689900000000
C        35.93169100000001    2.83835900000000   -0.39000800000000
N        36.33368100000000    1.60534800000000    0.17380900000000
C        34.67061700000000    3.48335800000000   -0.01085600000000
C        33.57539900000000    2.84857500000000    0.33990400000000
C        32.50177400000000    3.16653100000000    1.30893200000000
C        31.66421100000000    2.16977700000000    1.23176600000000
C        32.10250800000000    1.16609400000000    0.25131400000000
N        33.20744700000000    1.60494700000000   -0.23297800000000
C        31.49167400000000   -0.08717700000000   -0.16223400000000
C        32.15583400000000   -1.19168300000000   -0.41665800000000
C        31.78198500000000   -2.25462500000000   -1.37418600000000
C        32.73073300000000   -3.14838000000000   -1.28516600000000
C        33.71645700000000   -2.71093100000000   -0.30228900000000
N        33.36341100000000   -1.56512600000000    0.19450800000000
C        34.94734400000000   -3.36700100000000    0.14343200000000
C        36.07038600000000   -2.72114000000000    0.41055300000000
N        36.39898600000001   -1.47369900000000   -0.18785000000000
H        37.21513400000001   -4.01370600000000    1.92710800000000
H        38.98730700000000   -2.19966700000000    1.83732700000000
H        38.83010400000000    2.21533100000000   -1.82114500000000
H        36.88485800000000    4.11950900000000   -1.84952100000000
H        34.62289400000000    4.57816100000000   -0.01463300000000
H        32.44895200000000    4.04525600000000    1.93392500000000
H        30.75258100000000    2.13410800000000    1.84909000000000
H        30.39342300000000   -0.08426600000000   -0.26150500000000
H        30.91313000000000   -2.30709000000000   -2.02313600000000
H        32.72788700000000   -4.06468900000000   -1.88392600000000
H        34.91186200000000   -4.46280300000000    0.25535700000000
Fe      104.76176300000002   -0.00450900000000   -0.01756100000000
C       102.43277200000001    2.84228300000000    1.86594400000000
C       101.51666500000002    1.92379400000000    1.64137100000000
C       101.92784500000000    1.05909700000000    0.54055600000000
C       101.30897400000001    0.01853200000000   -0.00842300000000
C       102.01301599999999   -1.11269300000000   -0.59252600000000
C       101.68490600000000   -1.89886400000000   -1.60339200000000
C       102.71968600000001   -2.89437400000000   -1.80853300000000
C       103.65595399999999   -2.68155700000000   -0.90650200000000
N       103.25396300000000   -1.57454600000000   -0.12373100000000
C       104.91702800000000   -3.38569800000000   -0.65358900000000
C       106.01224499999999   -2.82700600000000   -0.19115600000000
C       107.08587100000000   -3.31921100000000    0.70206600000000
C       107.92343400000000   -2.32544400000000    0.81115100000000
C       107.48513600000000   -1.15729500000000    0.03391600000000
N       106.38019800000001   -1.49868700000000   -0.52338300000000
C       108.09597100000001    0.15094000000000   -0.13995400000000
C       107.43181000000000    1.28347300000000   -0.18506000000000
C       107.80565900000001    2.50559900000000   -0.92877500000000
C       106.85691200000001    3.36732600000000   -0.67549600000000
C       105.87118800000000    2.75513200000000    0.20916700000000
N       106.22423400000000    1.53705300000000    0.48477700000000
C       104.64030000000000    3.31712600000000    0.76886200000000
C       103.51725900000000    2.63292100000000    0.91152900000000
N       103.18865800000000    1.51814600000000    0.09209500000000
H       102.37251000000002    3.62170800000000    2.64154800000000
H       100.60033800000001    1.85581300000000    2.21679600000000
H       100.75754100000002   -1.80384800000000   -2.19721700000000
H       102.70278700000000   -3.66970800000000   -2.57835300000000
H       104.96475100000002   -4.46079600000000   -0.86040300000000
H       107.13869200000001   -4.29862800000000    1.15319300000000
H       108.83506400000000   -2.40491600000000    1.42437700000000
H       109.19422100000001    0.16649600000000   -0.23804100000000
H       108.67451500000001    2.67754300000000   -1.55672700000000
H       106.85975800000000    4.37880700000000   -1.09387400000000
H       104.67578200000000    4.37314200000000    1.08213100000000
C        41.17337400000000    0.01649600000000   -0.00953500000000
C        42.38135100000000    0.02395100000000   -0.00784000000000
C        43.80011900000000    0.02464800000000   -0.00270300000000
C        45.01563500000000    0.01649600000000   -0.00953500000000
C        54.52352500000001    0.01649600000000   -0.00953500000000
C        55.73150100000000    0.02395100000000   -0.00784000000000
C        57.15026900000000    0.02464800000000   -0.00270300000000
C        58.36578600000001    0.01649600000000   -0.00953500000000
C        67.87367500000001    0.01649600000000   -0.00953500000000
C        69.08165200000001    0.02395100000000   -0.00784000000000
C        70.50042000000001    0.02464800000000   -0.00270300000000
C        71.71593600000000    0.01649600000000   -0.00953500000000
C        81.22382500000001    0.01649600000000   -0.00953500000000
C        82.43180200000000    0.02395100000000   -0.00784000000000
C        83.85057000000000    0.02464800000000   -0.00270300000000
C        85.06608700000000    0.01649600000000   -0.00953500000000
C        94.57397600000002    0.01649600000000   -0.00953500000000
C        95.78195300000000    0.02395100000000   -0.00784000000000
C        97.20072100000000    0.02464800000000   -0.00270300000000
C        98.41623700000000    0.01649600000000   -0.00953500000000
Fe       49.80421700000001    0.03663200000000    0.00260400000000
C        47.52440600000001   -3.22481500000000   -0.90706200000000
C        46.56819700000000   -2.32546500000000   -1.00908800000000
C        46.96057100000000   -1.16316000000000   -0.20657200000000
C        46.32545400000000   -0.01188700000000    0.00569400000000
C        47.01091100000000    1.26271200000000    0.23192300000000
C        46.67562100000000    2.34131200000000    0.93616300000000
C        47.70016200000000    3.36062900000000    0.84558200000000
C        48.65076000000000    2.86370400000000    0.07221700000000
N        48.27376500000000    1.54709900000000   -0.34392600000000
C        49.89789900000000    3.47540600000000   -0.34464800000000
C        50.99945100000000    2.80814900000000   -0.67642000000000
C        51.99299700000001    3.06013300000000   -1.71059000000000
C        52.88688000000000    2.09927400000000   -1.60910600000000
C        52.50718200000001    1.18739000000000   -0.50512900000000
N        51.41226700000000    1.63670900000000    0.00223800000000
C        53.16438900000000   -0.01188700000000    0.00569400000000
C        52.54097800000001   -1.08106900000000    0.46721100000000
C        52.91969000000001   -2.01318500000000    1.54268600000000
C        51.97902200000000   -2.92733100000000    1.62855200000000
C        50.97072000000000   -2.63155200000000    0.63112500000000
N        51.30849500000000   -1.57817400000000   -0.01817000000000
C        49.71832700000001   -3.33855900000000    0.29993200000000
C        48.60445100000000   -2.74186300000000   -0.04741000000000
N        48.22233800000001   -1.45910500000000    0.37027300000000
H        47.52475000000000   -4.21588900000000   -1.39829600000000
H        45.65966200000000   -2.44715900000000   -1.59023600000000
H        45.75076900000000    2.45966400000000    1.51308900000000
H        47.72745700000000    4.34979300000000    1.30223200000000
H        49.98383900000001    4.57278400000000   -0.40667100000000
H        52.02567000000000    3.86634900000000   -2.43741400000000
H        53.77994200000001    1.98630600000000   -2.24288000000000
H        53.83444100000000   -1.93877800000000    2.15285600000000
H        51.99806800000000   -3.74093900000000    2.33682000000000
H        49.75681200000000   -4.43851800000000    0.35896800000000
Fe       63.15436700000001    0.03663200000000    0.00260400000000
C        60.87455600000000   -3.22481500000000   -0.90706200000000
C        59.91834700000000   -2.32546500000000   -1.00908800000000
C        60.31072100000000   -1.16316000000000   -0.20657200000000
C        59.67560500000000   -0.01188700000000    0.00569400000000
C        60.36106200000000    1.26271200000000    0.23192300000000
C        60.02577100000000    2.34131200000000    0.93616300000000
C        61.05031300000001    3.36062900000000    0.84558200000000
C        62.00091000000000    2.86370400000000    0.07221700000000
N        61.62391600000000    1.54709900000000   -0.34392600000000
C        63.24805000000001    3.47540600000000   -0.34464800000000
C        64.34960100000001    2.80814900000000   -0.67642000000000
C        65.34314800000000    3.06013300000000   -1.71059000000000
C        66.23703100000000    2.09927400000000   -1.60910600000000
C        65.85733300000000    1.18739000000000   -0.50512900000000
N        64.76241700000000    1.63670900000000    0.00223800000000
C        66.51454000000000   -0.01188700000000    0.00569400000000
C        65.89112799999999   -1.08106900000000    0.46721100000000
C        66.26984100000000   -2.01318500000000    1.54268600000000
C        65.32917200000000   -2.92733100000000    1.62855200000000
C        64.32087100000000   -2.63155200000000    0.63112500000000
N        64.65864600000000   -1.57817400000000   -0.01817000000000
C        63.06847800000000   -3.33855900000000    0.29993200000000
C        61.95460100000000   -2.74186300000000   -0.04741000000000
N        61.57248900000000   -1.45910500000000    0.37027300000000
H        60.87490100000000   -4.21588900000000   -1.39829600000000
H        59.00981300000001   -2.44715900000000   -1.59023600000000
H        59.10091900000000    2.45966400000000    1.51308900000000
H        61.07760700000000    4.34979300000000    1.30223200000000
H        63.33398900000001    4.57278400000000   -0.40667100000000
H        65.37582000000000    3.86634900000000   -2.43741400000000
H        67.13009200000000    1.98630600000000   -2.24288000000000
H        67.18459100000000   -1.93877800000000    2.15285600000000
H        65.34821900000000   -3.74093900000000    2.33682000000000
H        63.10696200000000   -4.43851800000000    0.35896800000000
Fe       76.50451700000001    0.03663200000000    0.00260400000000
C        74.22470700000000   -3.22481500000000   -0.90706200000000
C        73.26849700000000   -2.32546500000000   -1.00908800000000
C        73.66087200000000   -1.16316000000000   -0.20657200000000
C        73.02575500000000   -0.01188700000000    0.00569400000000
C        73.71121200000000    1.26271200000000    0.23192300000000
C        73.37592200000000    2.34131200000000    0.93616300000000
C        74.40046300000000    3.36062900000000    0.84558200000000
C        75.35106000000000    2.86370400000000    0.07221700000000
N        74.97406599999999    1.54709900000000   -0.34392600000000
C        76.59820000000001    3.47540600000000   -0.34464800000000
C        77.69975200000000    2.80814900000000   -0.67642000000000
C        78.69329800000001    3.06013300000000   -1.71059000000000
C        79.58718100000000    2.09927400000000   -1.60910600000000
C        79.20748300000000    1.18739000000000   -0.50512900000000
N        78.11256800000000    1.63670900000000    0.00223800000000
C        79.86469000000000   -0.01188700000000    0.00569400000000
C        79.24127900000001   -1.08106900000000    0.46721100000000
C        79.61999100000000   -2.01318500000000    1.54268600000000
C        78.67932300000000   -2.92733100000000    1.62855200000000
C        77.67102100000000   -2.63155200000000    0.63112500000000
N        78.00879600000000   -1.57817400000000   -0.01817000000000
C        76.41862800000000   -3.33855900000000    0.29993200000000
C        75.30475100000001   -2.74186300000000   -0.04741000000000
N        74.92263900000000   -1.45910500000000    0.37027300000000
H        74.22505099999999   -4.21588900000000   -1.39829600000000
H        72.35996299999999   -2.44715900000000   -1.59023600000000
H        72.45107000000000    2.45966400000000    1.51308900000000
H        74.42775800000000    4.34979300000000    1.30223200000000
H        76.68414000000000    4.57278400000000   -0.40667100000000
H        78.72597000000002    3.86634900000000   -2.43741400000000
H        80.48024300000000    1.98630600000000   -2.24288000000000
H        80.53474199999999   -1.93877800000000    2.15285600000000
H        78.69836900000000   -3.74093900000000    2.33682000000000
H        76.45711300000001   -4.43851800000000    0.35896800000000
Fe       89.85466800000000    0.03663200000000    0.00260400000000
C        87.57485699999999   -3.22481500000000   -0.90706200000000
C        86.61864799999999   -2.32546500000000   -1.00908800000000
C        87.01102200000000   -1.16316000000000   -0.20657200000000
C        86.37590500000000   -0.01188700000000    0.00569400000000
C        87.06136300000001    1.26271200000000    0.23192300000000
C        86.72607200000000    2.34131200000000    0.93616300000000
C        87.75061400000000    3.36062900000000    0.84558200000000
C        88.70121100000000    2.86370400000000    0.07221700000000
N        88.32421700000000    1.54709900000000   -0.34392600000000
C        89.94835000000000    3.47540600000000   -0.34464800000000
C        91.04990200000000    2.80814900000000   -0.67642000000000
C        92.04344900000001    3.06013300000000   -1.71059000000000
C        92.93733200000000    2.09927400000000   -1.60910600000000
C        92.55763400000001    1.18739000000000   -0.50512900000000
N        91.46271800000000    1.63670900000000    0.00223800000000
C        93.21484100000001   -0.01188700000000    0.00569400000000
C        92.59142900000001   -1.08106900000000    0.46721100000000
C        92.97014200000000   -2.01318500000000    1.54268600000000
C        92.02947300000000   -2.92733100000000    1.62855200000000
C        91.02117200000001   -2.63155200000000    0.63112500000000
N        91.35894700000001   -1.57817400000000   -0.01817000000000
C        89.76877899999999   -3.33855900000000    0.29993200000000
C        88.65490200000001   -2.74186300000000   -0.04741000000000
N        88.27279000000000   -1.45910500000000    0.37027300000000
H        87.57520200000000   -4.21588900000000   -1.39829600000000
H        85.71011300000001   -2.44715900000000   -1.59023600000000
H        85.80122000000000    2.45966400000000    1.51308900000000
H        87.77790800000000    4.34979300000000    1.30223200000000
H        90.03429000000000    4.57278400000000   -0.40667100000000
H        92.07612100000000    3.86634900000000   -2.43741400000000
H        93.83039300000000    1.98630600000000   -2.24288000000000
H        93.88489199999999   -1.93877800000000    2.15285600000000
H        92.04852000000001   -3.74093900000000    2.33682000000000
H        89.80726300000001   -4.43851800000000    0.35896800000000
232
 energy: -419.132523734111 gnorm: 0.520246117617 xtb: 6.4.1 (bd6e46d)
Fe       34.83596087827284    0.04153006416107   -0.01268106649537
C        37.15535421963047   -3.11258785135340    1.30309614030400
C        38.08517569411730   -2.15922127307130    1.25700997352243
C        37.65642099672305   -1.10955997334332    0.34309022045270
C        38.25928181905974    0.03849504219700   -0.00906896568979
C        37.56269203437519    1.23349143363687   -0.36465071977219
C        37.91413353755897    2.22549521709879   -1.23833679676416
C        36.89747365792385    3.21738113949936   -1.25087275453041
C        35.92560934906525    2.81698263333152   -0.38254170845211
N        36.31193274759860    1.58749624931896    0.17742508682407
C        34.68927295815973    3.48312632314326   -0.01171213716929
C        33.56414103049709    2.83452563418903    0.34097900011980
C        32.50321057949067    3.17416706455856    1.29449142739527
C        31.63921062486477    2.16276945749759    1.23548475640599
C        32.09542891838858    1.16743683748300    0.26654056718680
N        33.23764273101013    1.58943866696734   -0.21900992985712
C        31.47966711231430   -0.06588396283757   -0.15537103781901
C        32.15922171321031   -1.19624587200645   -0.42207224644471
C        31.77408265282406   -2.25390461709553   -1.36253369163668
C        32.73779699941335   -3.16924794012819   -1.28352729425044
C        33.72521805165604   -2.72272326466574   -0.30994125220653
N        33.37153106307419   -1.54580787964067    0.17403920854199
C        34.92972903954225   -3.37395707225387    0.13571141780578
C        36.07726550453371   -2.70670025247414    0.41321201272114
N        36.39257245179015   -1.47037322743765   -0.16384974059955
H        37.20780246985217   -4.00887179259471    1.92000740511593
H        38.99170879926019   -2.19132290378207    1.83510290328205
H        38.82788722466057    2.22324525379172   -1.82283990556343
H        36.89118610846360    4.11662906723375   -1.85102495740820
H        34.63714853130431    4.57443885422270   -0.00907098899770
H        32.45502561012230    4.04400515970087    1.92863742628809
H        30.74837935207997    2.12605541353165    1.84827511910237
H        30.39472701866525   -0.07700378533276   -0.26584557939783
H        30.91482524247033   -2.29877214990787   -2.01646394226217
H        32.73738114087416   -4.06857394262428   -1.88103688786264
H        34.90780443804859   -4.45910324963363    0.25530681792991
Fe      104.75167095754848   -0.00324155290719   -0.01690268316570
C       102.43228987815348    2.85198682818960    1.86119998765890
C       101.50249404680616    1.92371316842317    1.63905696223423
C       101.93126818301134    1.06180822561440    0.54627552073419
C       101.32856716675610   -0.00100131692499   -0.01267833514866
C       102.02498246900879   -1.10925762235159   -0.58384066908870
C       101.67352577166515   -1.92195454074941   -1.62639955853110
C       102.69016080910386   -2.89428736855215   -1.82273106985371
C       103.66204647354735   -2.66191793676326   -0.89519681615897
N       103.27573402926237   -1.55768869988619   -0.11684184282153
C       104.89836906899298   -3.38531263607225   -0.65439210579247
C       106.02350507968534   -2.81339050715145   -0.18749581853902
C       107.08443080149105   -3.32402962489188    0.68646698164045
C       107.94843917473979   -2.31924984761633    0.81609785116134
C       107.49220744128088   -1.16143687977714    0.04862814898845
N       106.34999738168746   -1.48605097492928   -0.50678256874579
C       108.10797200064320    0.12874138508246   -0.13715597977117
C       107.42841182182241    1.28896194887226   -0.18953150620727
C       107.81356102051078    2.50273022005969   -0.91745894544443
C       106.84984511407606    3.38752463451956   -0.67002158814181
C       105.86242580555896    2.76813188023255    0.20383460529166
N       106.21612679947084    1.52187645619310    0.46110657456057
C       104.65791392127913    3.32539406081262    0.76256841410899
C       103.51038528065587    2.61822234115783    0.91145080350493
N       103.19511551042692    1.51042173036056    0.11503455078316
H       102.37983840100814    3.61827858920792    2.63367273934488
H       100.59593975953972    1.84803020565731    2.21305827343606
H       100.75976481776628   -1.81129596164553   -2.20035089381501
H       102.69646338684453   -3.66659849708704   -2.57930493385487
H       104.95049771791403   -4.45817546727813   -0.85425161689622
H       107.13262139814368   -4.29642082179048    1.14822902369785
H       108.83926810191255   -2.39685257539574    1.42507123696563
H       109.19291466697584    0.16016417343326   -0.24365307687775
H       108.67282093298910    2.66813213147131   -1.55171378940060
H       106.85026489395148    4.38209075414867   -1.09031401158705
H       104.67983624534563    4.36951737404508    1.08139746902214
C        41.16356880032626    0.01672323638470   -0.00845998914992
C        42.38621199634233    0.02414929863947   -0.00782207985816
C        43.77203133451273    0.02539115818888   -0.00295181985280
C        44.99041673355241    0.02436048751730   -0.01225973189215
C        54.53979208735428    0.02324718929326   -0.00709924530146
C        55.75484145480821    0.02449766715249   -0.00634931071593
C        57.12563554951952    0.02522945278064   -0.00336778844617
C        58.34188018693866    0.02421558357985   -0.01316948716230
C        67.88988328432590    0.02332877372922   -0.00671601804942
C        69.10499951326007    0.02452043615872   -0.00626062107982
C        70.47578629108698    0.02522919781706   -0.00341271956137
C        71.69203065275380    0.02418264590061   -0.01327388377660
C        81.23993169443042    0.02332290925578   -0.00668358441019
C        82.45528782616670    0.02453465501262   -0.00619887204994
C        83.82579206714854    0.02522126984864   -0.00340537072942
C        85.04219468516422    0.02413212981316   -0.01333076332791
C        94.59205988746031    0.02364026709501   -0.00655510718739
C        95.80956468477066    0.02443911055863   -0.00666086418673
C        97.19773654876218    0.02405434447426   -0.00307809367420
C        98.42162206792680    0.01610807915737   -0.00907088386415
Fe       49.79717983817539    0.03880131480487    0.00057274591974
C        47.52559326328749   -3.24265362763383   -0.90193127897835
C        46.56200170114246   -2.32493515098545   -1.00183791373537
C        46.98579424018242   -1.17904308315863   -0.20986230156909
C        46.34152628708084    0.00650564870454    0.00474524641056
C        47.03902162783113    1.26681232274237    0.22895264629235
C        46.66666304302115    2.36712320956569    0.94823164607307
C        47.67637389365314    3.36301018905880    0.85375814641646
C        48.66071118654415    2.84513842364823    0.06732824856122
N        48.29489095688034    1.53613514982166   -0.33478836417560
C        49.88390260109048    3.47584620912371   -0.34575484249501
C        51.00887353900350    2.79761868556785   -0.67736087981761
C        51.99901006731459    3.06764620341006   -1.69982956319561
C        52.90693794793700    2.08825218730550   -1.60880961451420
C        52.50935946880195    1.18787794214785   -0.52110133449547
N        51.38268249463504    1.62331049083226   -0.01109628605535
C        53.16792447627824    0.00505206867615   -0.00341901102294
C        52.52566599930157   -1.09453326214452    0.47590978587954
C        52.93130158041308   -2.01155117655248    1.53425906674675
C        51.97520775949281   -2.94354452849751    1.62863192014610
C        50.96072226729402   -2.64158655745972    0.64024366551702
N        51.29603369828748   -1.54856777938530   -0.00942513199510
C        49.73849598049731   -3.34612927943020    0.30974259986793
C        48.59172918457251   -2.73059748169711   -0.05471799238644
N        48.23272367592844   -1.44988677805398    0.34400941274783
H        47.52910842697918   -4.21295075006936   -1.39499248246262
H        45.66029080463489   -2.43814123959472   -1.58616027322752
H        45.75013965428008    2.46362702500383    1.51436027948354
H        47.71756854125525    4.34488005334382    1.30454909616280
H        49.96829816716937    4.56727260094480   -0.41178863574823
H        52.01926152938617    3.86494188335792   -2.43037825902747
H        53.78055362396388    1.98052077756131   -2.24019465810178
H        53.82938455159666   -1.93414573398184    2.14536578794676
H        51.99157688565515   -3.74676447761380    2.33775224737858
H        49.76215683255172   -4.43608867499884    0.35700834274386
Fe       63.14724580410356    0.03855576580915    0.00148887869489
C        60.87507947586212   -3.24271674210654   -0.90210303059003
C        59.91184714893092   -2.32573900702119   -1.00158932880311
C        60.33590623873526   -1.17895973754274   -0.20871128207206
C        59.69289253120013    0.00620734940441    0.00459758207717
C        60.38943437120226    1.26725808509228    0.22853209951110
C        60.01692185034742    2.36749409298451    0.94836910203370
C        61.02609770147088    3.36310824343826    0.85371938455930
C        62.01080269417768    2.84504057949002    0.06692906904017
N        61.64497565907267    1.53619541304890   -0.33475164335957
C        63.23379907079515    3.47565305550983   -0.34549445677225
C        64.35925530897499    2.79743674900610   -0.67736844565854
C        65.34911608246837    3.06765470895159   -1.69997151085161
C        66.25716692182078    2.08829378237518   -1.60893146703287
C        65.85924561124570    1.18822890398657   -0.52132026698748
N        64.73294108209896    1.62333234526917   -0.01160609967641
C        66.51799612468730    0.00469478493158   -0.00318998406144
C        65.87606191847995   -1.09464520837007    0.47568569525993
C        66.28175757684060   -2.01183145036426    1.53430700683038
C        65.32554459900041   -2.94330914735716    1.62894186230420
C        64.31115284711423   -2.64086185007106    0.64023430540633
N        64.64620983896397   -1.54903315115196   -0.00953063893367
C        63.08816756308418   -3.34602915013321    0.30929343307468
C        61.94226928109148   -2.73038914112174   -0.05447744137734
N        61.58324449816493   -1.44975737509321    0.34372960505491
H        60.87913491273972   -4.21295772857071   -1.39511796513834
H        59.01042040295601   -2.43829547677971   -1.58636227474009
H        59.10033405561384    2.46371055407230    1.51456366880623
H        61.06764077496512    4.34489431866707    1.30460759034256
H        63.31842672182492    4.56720344987918   -0.41159005883040
H        65.36942302449165    3.86497933210326   -2.43039367765279
H        67.13073031319077    1.98053177791914   -2.24022232360734
H        67.17961982853346   -1.93419573156372    2.14544454374522
H        65.34173931663854   -3.74669121513569    2.33783365114487
H        63.11227218135873   -4.43603332912730    0.35667241806263
Fe       76.49737497346459    0.03853617954348    0.00146658267997
C        74.22511333079980   -3.24275412443784   -0.90208804604657
C        73.26200901330870   -2.32585095925834   -1.00159732756003
C        73.68608087998643   -1.17890295073149   -0.20860624517088
C        73.04304678489946    0.00615960868317    0.00456397615592
C        73.73958789368494    1.26732367629364    0.22855070581003
C        73.36710388775103    2.36748831801437    0.94840957855113
C        74.37623897677811    3.36312318777253    0.85370402309222
C        75.36096102193517    2.84505115039394    0.06690508953750
N        74.99508431904654    1.53619190834032   -0.33473775511610
C        76.58391686241968    3.47563086854943   -0.34545698594169
C        77.70943235889008    2.79744657351287   -0.67736822072854
C        78.69923909035684    3.06766893898358   -1.69997852746514
C        79.60729480720400    2.08827127799209   -1.60895927553654
C        79.20931189238871    1.18830453557141   -0.52135951187382
N        78.08317081309050    1.62334186588341   -0.01162525572177
C        79.86826898804765    0.00461603043476   -0.00313680795294
C        79.22633228142632   -1.09470903663922    0.47566866559666
C        79.63197290430058   -2.01180356449566    1.53426262548972
C        78.67565003399427   -2.94323756716702    1.62899310803808
C        77.66141923780206   -2.64069720155458    0.64032925234130
N        77.99636105223108   -1.54914462428347   -0.00950096134650
C        76.43811261982290   -3.34605020236324    0.30916291501799
C        75.29250040873595   -2.73045154666807   -0.05437577076013
N        74.93337796034336   -1.44965205561942    0.34375806908811
H        74.22926031193728   -4.21296970642300   -1.39513483945494
H        72.36057730606852   -2.43831683680655   -1.58639935235887
H        72.45048304416271    2.46371955974703    1.51458465677984
H        74.41778572800783    4.34490825701962    1.30459998976162
H        76.66857071223161    4.56719637711906   -0.41158943945690
H        78.71957504571556    3.86498973516797   -2.43039054491661
H        80.48087418755222    1.98052709974501   -2.24020365958442
H        80.52978909913868   -1.93419554878793    2.14542513545598
H        78.69187344559337   -3.74667392720493    2.33782975534687
H        76.46242374015377   -4.43604400494721    0.35650683502624
Fe       89.84743147954219    0.03863829373900    0.00073195680088
C        87.57517255229561   -3.24284741493383   -0.90188206965508
C        86.61232541724050   -2.32585542960736   -1.00159368641936
C        87.03628565427182   -1.17870270778732   -0.20860659230548
C        86.39301424439026    0.00607441643643    0.00450364865319
C        87.08953150977366    1.26733577623761    0.22875570209648
C        86.71724843528742    2.36718765074556    0.94836520935997
C        87.72668673756164    3.36308209108000    0.85367892857751
C        88.71123751439939    2.84522511521368    0.06708458474064
N        88.34517289162440    1.53620748761309   -0.33479926798344
C        89.93416363230835    3.47569524836466   -0.34544293537308
C        91.05959079992527    2.79762371138729   -0.67732309861907
C        92.04930403790816    3.06772364297215   -1.69983783190764
C        92.95725258122881    2.08805403903814   -1.60910805699668
C        92.55924521882656    1.18769565253156   -0.52210133295129
N        91.43379249279752    1.62311363245242   -0.01137115604435