324
 energy: -592.547173175784 gnorm: 0.000736049564 xtb: 6.4.1 (bd6e46d)
Fe       41.83596263694329   -0.00031614223151   -0.01280301068430
C        44.33933405732254   -3.38597525562555    0.04750820061610
C        45.33017328300293   -2.46354175028012    0.04457470006522
C        44.68775260928206   -1.18532263839692    0.01840071409737
C        45.36214798412866    0.03957109717297    0.00020921817846
C        44.66048522375780    1.24900558316859   -0.01988186764351
C        45.27395052836168    2.54140463478539   -0.03596986371934
C        44.26253757433427    3.44125778817204   -0.04151077338821
C        43.03893426495534    2.69255193960818   -0.02927780478450
N        43.30352633213767    1.34806670140399   -0.01811668609003
C        41.79629723970765    3.29540689685674   -0.02528549266592
C        40.56930092889979    2.66190474580671   -0.01898882783826
C        39.32499922166602    3.38032748552240   -0.01646664410542
C        38.33862198139031    2.45583108434025   -0.02116848207062
C        38.98320385317888    1.17465436102270   -0.02569278796432
N        40.34078758193305    1.31372821025552   -0.02187529204505
C        38.32706619696338   -0.04003377854626   -0.03712519517822
C        39.01062937082023   -1.23955405990032   -0.03714895926379
C        38.39536064157168   -2.53504683295984   -0.04695244950222
C        39.40235705948070   -3.43693258146578   -0.03289713826880
C        40.62988199317402   -2.69046063313811   -0.01520216912808
N        40.37093748901495   -1.34779958439328   -0.02055127169257
C        41.87069799072655   -3.29597810697582    0.00894922457095
C        43.09927357047852   -2.66514474282863    0.02293884919989
N        43.33342690790738   -1.31503501812822    0.00815252567751
H        44.42100122717488   -4.45561219988044    0.06406337218623
H        46.39247219515178   -2.61208567215617    0.05804361706438
H        46.33265782748070    2.71407156293232   -0.04158054777902
H        44.32006515734235    4.51253135260156   -0.05283158539158
H        41.78409957574920    4.37618592730890   -0.02860016594655
H        39.24201912912983    4.45019632044092   -0.01234773595156
H        37.27607668007624    2.60400505816645   -0.02158967909319
H        37.24822913903373   -0.05224402728251   -0.04534887120014
H        37.33654875623850   -2.70729069734980   -0.06196131876831
H        39.34367014442726   -4.50841942709757   -0.03403664075479
H        41.88284885757190   -4.37673732957495    0.01684403123832
Fe      153.60694393793477    0.03542588596904   -0.01262891025668
C       151.11189557862912    3.36641684151671    0.62948005958397
C       150.11878147583946    2.46142645236092    0.46411972020654
C       150.75807716810252    1.20488115744512    0.22017773694866
C       150.08062997205573    0.00271341828501   -0.00627181958289
C       150.77920675635906   -1.18693516662315   -0.23429121110831
C       150.16251218690687   -2.45534307670293   -0.47505544604396
C       151.17170351992715   -3.34200318098215   -0.64252407917398
C       152.39717607230853   -2.60934947500226   -0.50317820742328
N       152.13595082173734   -1.28737279056370   -0.25441524949484
C       153.63834390716585   -3.20562572958274   -0.61087885913307
C       154.86693435607967   -2.58609654885604   -0.49416178225866
C       156.10940787926950   -3.29626670562077   -0.62198941657477
C       157.09811896976484   -2.38884652310307   -0.45867933003247
C       156.45679307174700   -1.12632066797745   -0.23135894052114
N       155.09884670360091   -1.26008338054930   -0.25389197552350
C       157.11603328248626    0.06834758540899   -0.02094690161290
C       156.43551312187694    1.25036180160571    0.19312820222319
C       157.05412282249264    2.52463823559294    0.41783633421153
C       156.04934932240531    3.41314438265962    0.58700708958484
C       154.81984647374955    2.67976283614117    0.46513626910148
N       155.07542278024360    1.35853373825701    0.22259195842341
C       153.58043570572525    3.27603535539538    0.58829498643104
C       152.35024600536178    2.65675254650121    0.48513576880664
N       152.11277139007044    1.33041579071012    0.23564938616366
H       151.03285511929471    4.41734443873318    0.83045862028633
H       149.05682664284691    2.60870481991813    0.50005365870486
H       149.10335452339746   -2.62227857502878   -0.50727675222487
H       151.11153445118154   -4.39445364287745   -0.84196668438513
H       153.64787512711996   -4.26844189304828   -0.80730196012346
H       156.18969537383498   -4.34939683268675   -0.81173204755242
H       158.16029329546376   -2.53726486126328   -0.48553842036067
H       158.19491919912429    0.07852744264250   -0.02372889611412
H       158.11343742955469    2.69306418461583    0.43922619499080
H       156.11072834812936    4.46748870870491    0.77702201065669
H       153.57090288148331    4.33869063885435    0.78555851450511
C        46.75763389944323    0.05389329136420    0.00451065613322
C        47.97713305129017    0.06487720278055    0.00134069804171
C        49.31373806706280    0.07211968617821    0.00125832667223
C        50.53768190757850    0.07623657885388    0.00066181539967
C        51.87416210686498    0.07709314317763   -0.00132698773407
C        53.09391992783086    0.07569425027336   -0.00328347240896
C        62.94369108731696    0.04231477161163   -0.02935843044202
C        64.16332080078612    0.03910316072755   -0.03209486060373
C        65.49953329539090    0.03672333772853   -0.03360882228056
C        66.72338368252221    0.03585585353750   -0.03589964710481
C        68.05985484564387    0.03534772393809   -0.03392556109499
C        69.27928427556287    0.03640692645422   -0.03268510544975
C        78.75221316847531    0.03433187066355   -0.01620343014903
C        79.97141122628612    0.03780603403687   -0.02327517468347
C        81.30778428471437    0.03725919595559   -0.02796908914415
C        82.53136513295853    0.04385283580661   -0.03221179028522
C        83.86772994445246    0.04598940098246   -0.03660139383842
C        85.08690357006809    0.04527046788672   -0.03917844200832
C        94.55366513792637    0.04502967505313   -0.00950550599376
C        95.77278833016352    0.04388946654938   -0.01263341732617
C        97.10900767129206    0.04156506112828   -0.01655893545996
C        98.33249028511328    0.03886264267752   -0.02088296770584
C        99.66871785049976    0.03478213780636   -0.02681903761916
C       100.88785200602439    0.03360219703531   -0.02939615475540
C       110.35478460710843    0.04738878047780   -0.00853162131365
C       111.57398097900077    0.04541656832465   -0.01001343693869
C       112.91036816358989    0.04158947875689   -0.01414960298718
C       114.13393147571126    0.03528538015551   -0.01948908858144
C       115.47031985854139    0.03245378716716   -0.02638564316294
C       116.68952101636533    0.03210698773967   -0.03106567746768
C       126.16285066423812    0.05608416855576   -0.01200805647548
C       127.38226936872071    0.05578631092668   -0.01295469637600
C       128.71875588388374    0.05308988542061   -0.01394174201334
C       129.94257521594469    0.04939234318705   -0.01704181245415
C       131.27880988490912    0.04251759645150   -0.01796940275653
C       132.49848287509568    0.03577091075397   -0.02077841197770
C       142.34854590233132   -0.01363390465024   -0.01048255136658
C       143.56821725124306   -0.01671697052791   -0.00811257981274
C       144.90480387368493   -0.01909785164178   -0.00601599886708
C       146.12872295744441   -0.01873597845803   -0.00594888233633
C       147.46547313213688   -0.01516385364614   -0.00627741815970
C       148.68497827136886   -0.00866502535448   -0.00393976179399
Fe       58.01910543631215    0.05911419256233   -0.01784576248924
C        55.54124885752297   -3.32626282292287    0.35847001012127
C        54.54235987167660   -2.41781041157169    0.25872276188030
C        55.17391925752810   -1.14142825276481    0.12062276244033
C        54.48879672659810    0.07152800112672   -0.00699170284857
C        55.18164332265903    1.27938765037344   -0.13977013260389
C        54.55833990200575    2.55987878938741   -0.27620500970049
C        55.56296450033121    3.46119168611126   -0.38284167357384
C        56.79167786870020    2.72481762743339   -0.31136623555222
N        56.53712018629608    1.38652386663976   -0.16087354718822
C        58.02951322928418    3.33146711829005   -0.39144892164206
C        59.26354166352460    2.71478148367991   -0.33128907678132
C        60.49696141713684    3.44063482493655   -0.42527059527399
C        61.49574610422228    2.53218693388779   -0.32422013383398
C        60.86405406056949    1.25788234298620   -0.16941069240135
N        59.50936414554303    1.37545049253867   -0.17567431122663
C        61.54907578313817    0.04666294958595   -0.02664672365765
C        60.85646216781077   -1.15983559661699    0.11907772669712
C        61.47999655534507   -2.43855507531452    0.27045696873005
C        60.47538624868833   -3.34013987556820    0.37517753833880
C        59.24660576845320   -2.60568507472070    0.28707268399052
N        59.50101724549570   -1.26799444061107    0.13153187892768
C        58.00863114707252   -3.21389358113395    0.35258354507963
C        56.77465732385860   -2.59854191777470    0.27988194915648
N        56.52865495735101   -1.25828404930926    0.13249418206723
H        55.46903602033522   -4.39036915333152    0.47454643925811
H        53.48134823580632   -2.57474740855894    0.27541271299798
H        53.49838069540504    2.72430551102737   -0.28633648720777
H        55.49759530955671    4.52570430269704   -0.49952357125082
H        58.03292343838759    4.40539820753761   -0.51416635349699
H        60.56936641159090    4.50359336340193   -0.55141670361663
H        62.55675551763330    2.68795574143395   -0.34939290850188
H        62.54001949011614   -2.60166414231919    0.29087518544484
H        60.54093560620250   -4.40367621015208    0.50023677195786
H        58.00521739718360   -4.28794558263815    0.47423082078751
Fe       74.01612922559340    0.03602204798153   -0.01772391550729
C        71.52500112637200   -3.41144266340446    0.38930997132172
C        70.60030370358450   -2.43036484894045    0.26962927595226
C        71.32136136421747   -1.19916521685334    0.12241225305291
C        70.67857366080004    0.03602611509346   -0.02881423851845
C        71.32250905998829    1.27129773286312   -0.17459288108941
C        70.60240768504329    2.50269749139705   -0.32505291065595
C        71.52784397151133    3.48422677207373   -0.43485874334655
C        72.80639456271994    2.84636284749631   -0.35111351387021
N        72.66634530195333    1.49448607734184   -0.19322137737037
C        74.01747493646521    3.50400383173640   -0.41855100767528
C        75.22821919151176    2.84739477420169   -0.33560130832194
C        76.50733228482919    3.48609507634738   -0.40248938390586
C        77.43191624642434    2.50412867210895   -0.28924845789344
C        76.71062176360671    1.27181441321257   -0.15295047109417
N        75.36698230977937    1.49496799453469   -0.18207588188247
C        77.35306297177594    0.03520795205855   -0.01331097696725
C        76.70948883282945   -1.20053982576368    0.12817805702311
C        77.42988757470908   -2.43269789362558    0.27047035416546
C        76.50458783545712   -3.41361891530562    0.38681177268789
C        75.22592452806353   -2.77464643718935    0.31377710641755
N        75.36566657322385   -1.42290591186422    0.15523740199037
C        74.01469569539309   -3.43085665354739    0.39249933540737
C        72.80407257703395   -2.77355699705176    0.31427030141786
N        72.66507943218906   -1.42212561457028    0.15182085539943
H        71.37358175264704   -4.46571992655882    0.51601849770810
H        69.53083811519862   -2.51227241720036    0.27779730186203
H        69.53302258644146    2.58443088541070   -0.34168777702641
H        71.37731983152283    4.53877311406390   -0.56043974235679
H        74.01785364250095    4.57615027480246   -0.54215598977707
H        76.65898285453304    4.54137651542113   -0.52030560089774
H        78.50138586151088    2.58619228330860   -0.29471603419115
H        78.49932703061172   -2.51514412080784    0.27865102324503
H        76.65538863084704   -4.46838869911359    0.51012757002988
H        74.01430181811105   -4.50258576961492    0.51966730239603
Fe       89.82045830477756    0.04540388090227   -0.02505488946722
C        87.32930310329652   -3.40362615578970    0.37175801080291
C        86.40569188156813   -2.42143913966106    0.25305011309832
C        87.12806981562680   -1.19045406118338    0.11034504703085
C        86.48607627984346    0.04527681524125   -0.03860222730343
C        87.12900516611613    1.28071393429411   -0.18570665378868
C        86.40774595816519    2.51108074700757   -0.33896257872637
C        87.33224460511789    3.49321632979695   -0.45130326726547
C        88.61129639855709    2.85675145723746   -0.36582382476730
N        88.47264105995465    1.50509509676549   -0.20505995460566
C        89.82203587412577    3.51503411762805   -0.43310738562776
C        91.03222561079157    2.85818369310831   -0.34552607781205
C        92.31190998921610    3.49591549852550   -0.40971962667474
C        93.23542821917617    2.51366470593314   -0.29065123224076
C        92.51289122444727    1.28205159899295   -0.15421846893221
N        91.16953501898232    1.50598489309187   -0.18816364166544
C        93.15463329783515    0.04566918009049   -0.01029654076668
C        92.51189925686343   -1.19045771265760    0.13134446937109
C        93.23340027920352   -2.42145833115626    0.27829273929232
C        92.30903343334722   -3.40371579254164    0.39048929610187
C        91.02988564374789   -2.76665643662068    0.31100703203040
N        91.16834033987321   -1.41467770221163    0.15289331137075
C        89.81906482216479   -3.42417586654668    0.38341920496637
C        88.60893444120164   -2.76653303334463    0.30113844796640
N        88.47151364319332   -1.41464227942843    0.14104032909648
H        87.17684292639839   -4.45812090070291    0.49536565346394
H        85.33616537764010   -2.50246000734111    0.25886583588370
H        85.33828346957102    2.59172264431577   -0.35594845556690
H        87.18071140205922    4.54730605145357   -0.57948475257437
H        89.82249161898767    4.58685270847392   -0.55927097667720
H        92.46456378112099    4.55081271752350   -0.52966433497894
H        94.30496791603984    2.59501578505337   -0.29242826954830
H        94.30287858614928   -2.50236910133663    0.29182779042146
H        92.46077765812004   -4.45819959161800    0.51509354933674
H        89.81849716453382   -4.49599845711232    0.50951267380439
Fe      105.62118152909034    0.04081754176703   -0.02003075540434
C       103.13548380344153   -3.41239550867298    0.37812392212911
C       102.21029940977067   -2.43157100493259    0.26022615880068
C       102.93078017288603   -1.19948541767739    0.11743069019858
C       102.28688562799901    0.03533597837114   -0.02988949433066
C       102.92747176633813    1.27212865299347   -0.17573005787487
C       102.20391468624716    2.50159784019881   -0.32545835054653
C       103.12663542902867    3.48534950812825   -0.43813353181053
C       104.40686997355266    2.85072406791735   -0.35633939244541
N       104.27065465371813    1.49865631742108   -0.19706323614761
C       105.61656121301634    3.51058928093786   -0.42646965846561
C       106.82788235460814    2.85528356301333   -0.34257729773934
C       108.10640087537092    3.49495481614113   -0.41029411091769
C       109.03176553674047    2.51426403832324   -0.29260353174492
C       108.31157324374946    1.28157796085726   -0.15374246268307
N       106.96772473832416    1.50335232822657   -0.18510633176021
C       108.95559951408825    0.04643035047990   -0.00925280829975
C       108.31463975080139   -1.19061090129037    0.13349914743794
C       109.03801099541619   -2.42055358985375    0.28010731205573
C       108.11520819594142   -3.40417605782684    0.39310146774581
C       106.83505698662921   -2.76906348919246    0.31470802892635
N       106.97137231324731   -1.41686427993078    0.15629081333540
C       105.62547290602679   -3.42876018608140    0.38817758199814
C       104.41409729128556   -2.77330323486067    0.30688306782154
N       104.27451954601673   -1.42160972139140    0.14722916852689
H       102.98464760797258   -4.46714285061373    0.50155606206659
H       101.14087648641326   -2.51416546120172    0.26666075543636
H       101.13430592621249    2.58062022682715   -0.34008967027896
H       102.97304311834209    4.53938738198019   -0.56430899791451
H       105.61520042365497    4.58247392674343   -0.55205821043157
H       108.25699163433327    4.55003186111358   -0.53135136709132
H       110.10117590075897    2.59729957488060   -0.29701207235040
H       110.10758933937132   -2.49995072502304    0.29261196682895
H       108.26857098794588   -4.45841451961341    0.51763045114180
H       105.62697495234289   -4.50058228678320    0.51427816849492
Fe      121.42578369443143    0.04314189635392   -0.02863540614820
C       118.94442012279808   -3.41153290816118    0.37735947174499
C       118.01698529602031   -2.43239940709300    0.26281457479177
C       118.73472204399532   -1.19930786894353    0.11514728282923
C       118.08867846747417    0.03416704383753   -0.03485836200936
C       118.72877229301587    1.27045704103423   -0.18738577148010
C       118.00501642438159    2.49896021389366   -0.34347800113210
C       118.92760332835772    3.48233695125206   -0.46053668632632
C       120.20799856317090    2.84853649583032   -0.37409016308454
N       120.07197486134108    1.49720864295792   -0.20897841612581
C       121.41731751211368    3.50943449805066   -0.44226181784530
C       122.62978251386892    2.85709357541100   -0.35201205878524
C       123.90691271400785    3.50024053382078   -0.41438581512082
C       124.83448579070581    2.52205863637620   -0.29321195109288
C       124.11710545076276    1.28738937281770   -0.15758271696769
N       122.77277190005468    1.50561271923236   -0.19352475324325
C       124.76354332365689    0.05313230066404   -0.01480398416287
C       124.12312419304619   -1.18491415641660    0.12311679102986
C       124.84669889030906   -2.41528738030312    0.26517010684315
C       123.92401286331568   -3.39931096756097    0.37572879075452
C       122.64363819743046   -2.76407266832846    0.30035209006137
N       122.77990030899088   -1.41146873148872    0.14538367880008
C       121.43438292535525   -3.42416928024684    0.37616582213448
C       120.22169777904998   -2.77028413408857    0.30024450141896
N       120.07900600650210   -1.41897428998392    0.14062550478773
H       118.79591262847161   -4.46645109385319    0.50225167475560
H       116.94773062535187   -2.51684821678807    0.27381552650055
H       116.93538738804799    2.57757879375662   -0.35944227531407
H       118.77380399605933    4.53565647690098   -0.59223428586706
H       121.41461797700289    4.58102430287153   -0.57057133681633
H       124.05510368794810    4.55574639781975   -0.53454973151362
H       125.90367415184291    2.60800697064115   -0.29317520452981
H       125.91631862210221   -2.49464440986298    0.27690865014140
H       124.07758919607060   -4.45393206591258    0.49691033812512
H       121.43710945001928   -4.49618501762054    0.50091339868381
Fe      137.42318471657549    0.00986152495141   -0.02025367993158
C       134.93845572561153   -3.37001528093784    0.35952682390601
C       133.94141128521699   -2.45981263581773    0.25701349448957
C       134.57559831125738   -1.18536560274405    0.11410878204184
C       133.89312529187910    0.02806886557991   -0.02157731477370
C       134.58833453755216    1.23417436844197   -0.15811853026126
C       133.96736016617734    2.51494888272254   -0.30262397675135
C       134.97375032714658    3.41462504729468   -0.40647848092137
C       136.20105280612117    2.67700143213674   -0.32449933529806
N       135.94398888448001    1.33946735511860   -0.17175791736386
C       137.44020713765156    3.28214407369218   -0.39546386539672
C       138.67297547290860    2.66415644764395   -0.32460600524451
C       139.90782607209218    3.38898591341799   -0.40742137537759
C       140.90489894635053    2.47939134284858   -0.30040051614764
C       140.27084123595907    1.20526934346480   -0.15341166352378
N       138.91630427956355    1.32434414993882   -0.16912685216886
C       140.95355289448628   -0.00762958211925   -0.01378553297395
C       140.25832505408553   -1.21379803820171    0.12177191456756
C       140.87909421614427   -2.49442960531521    0.26880931465414
C       139.87261997048040   -3.39435214428176    0.36943278751345
C       138.64532877985633   -2.65712869059612    0.28336175057907
N       138.90257667936447   -1.31947784542157    0.13175944607068
C       137.40623632046243   -3.26286095493824    0.34988654036969
C       136.17334150144646   -2.64504754385362    0.27860281417456
N       135.93010573712539   -1.30474134003474    0.12769064539744
H       134.86398403518393   -4.43359184797108    0.47906625405613
H       132.88006643526302   -2.61447529202898    0.27407954608249
H       132.90767486396871    2.68056201206757   -0.31973968618241
H       134.91035055063614    4.47879179158800   -0.52721738692158
H       137.44572751242831    4.35597123921286   -0.51898878524936
H       139.98212540983238    4.45212319355773   -0.53099022779821
H       141.96621182506343    2.63423381889824   -0.31731948106460
H       141.93876644673136   -2.65974525697076    0.28976207225747
H       139.93585060377282   -4.45844974905408    0.49084625916620
H       137.40072986384024   -4.33692888119551    0.47133320740518
