324
 energy: -589.418134243063 gnorm: 2.435994439400 xtb: 6.4.1 (bd6e46d)
Fe       41.31463600000000    0.03959600000000   -0.01298000000000
C        43.64362700000001   -3.10719700000000    1.30970800000000
C        44.55973400000001   -2.16298900000000    1.25942600000000
C        44.14855400000000   -1.10908500000000    0.33813400000000
C        44.76742500000000    0.01526100000000   -0.00827500000000
C        44.06338300000000    1.23520900000000   -0.37238100000000
C        44.39149300000000    2.19526400000000   -1.21985400000000
C        43.35671300000000    3.21154900000000   -1.23675200000000
C        42.42044500000000    2.83508700000000   -0.38986000000000
N        42.82243600000000    1.60207600000000    0.17395700000000
C        41.15937100000000    3.48008600000000   -0.01070900000000
C        40.06415400000001    2.84530400000000    0.34005200000000
C        38.99052800000000    3.16326000000000    1.30908000000000
C        38.15296500000000    2.16650600000000    1.23191300000000
C        38.59126300000000    1.16282300000000    0.25146100000000
N        39.69620100000001    1.60167600000000   -0.23283100000000
C        37.98042800000000   -0.09044800000000   -0.16208700000000
C        38.64458900000000   -1.19495400000000   -0.41651100000000
C        38.27074000000000   -2.25789600000000   -1.37403900000000
C        39.21948700000000   -3.15165200000000   -1.28501900000000
C        40.20521100000001   -2.71420200000000   -0.30214200000000
N        39.85216500000000   -1.56839700000000    0.19465600000000
C        41.43609900000000   -3.37027200000000    0.14358000000000
C        42.55914000000001   -2.72441100000000    0.41070100000000
N        42.88774000000000   -1.47697000000000   -0.18770300000000
H        43.70388800000000   -4.01697800000000    1.92725500000000
H        45.47606100000001   -2.20293900000000    1.83747500000000
H        45.31885800000000    2.21205900000000   -1.82099800000000
H        43.37361200000000    4.11623800000000   -1.84937300000000
H        41.11164800000000    4.57488900000000   -0.01448600000000
H        38.93770700000000    4.04198500000000    1.93407200000000
H        37.24133500000001    2.13083600000000    1.84923700000000
H        36.88217800000000   -0.08753700000000   -0.26135700000000
H        37.40188400000000   -2.31036100000000   -2.02298900000000
H        39.21664100000000   -4.06796000000000   -1.88377900000000
H        41.40061700000000   -4.46607400000000    0.25550500000000
Fe      154.09447800000001   -0.00778000000000   -0.01741300000000
C       151.76548700000001    2.83901200000000    1.86609100000000
C       150.84938000000000    1.92052300000000    1.64151800000000
C       151.26055900000000    1.05582600000000    0.54070400000000
C       150.64168900000004    0.01526100000000   -0.00827500000000
C       151.34573100000000   -1.11596400000000   -0.59237800000000
C       151.01762100000002   -1.90213600000000   -1.60324500000000
C       152.05240000000001   -2.89764500000000   -1.80838500000000
C       152.98866799999999   -2.68482900000000   -0.90635500000000
N       152.58667800000001   -1.57781700000000   -0.12358400000000
C       154.24974300000000   -3.38897000000000   -0.65344200000000
C       155.34495999999999   -2.83027700000000   -0.19100900000000
C       156.41858500000001   -3.32248200000000    0.70221300000000
C       157.25614800000000   -2.32871500000000    0.81129900000000
C       156.81785100000002   -1.16056700000000    0.03406300000000
N       155.71291299999999   -1.50195900000000   -0.52323600000000
C       157.42868600000000    0.14766900000000   -0.13980600000000
C       156.76452500000002    1.28020200000000   -0.18491300000000
C       157.13837400000000    2.50232800000000   -0.92862800000000
C       156.18962700000000    3.36405500000000   -0.67534900000000
C       155.20390300000000    2.75186000000000    0.20931400000000
N       155.55694900000000    1.53378200000000    0.48492400000000
C       153.97301500000000    3.31385500000000    0.76900900000000
C       152.84997300000003    2.62965000000000    0.91167700000000
N       152.52137300000001    1.51487500000000    0.09224200000000
H       151.70522500000001    3.61843700000000    2.64169500000000
H       149.93305200000000    1.85254200000000    2.21694300000000
H       150.09025500000001   -1.80711900000000   -2.19707000000000
H       152.03550100000001   -3.67298000000000   -2.57820500000000
H       154.29746499999999   -4.46406800000000   -0.86025500000000
H       156.47140700000000   -4.30189900000000    1.15334000000000
H       158.16777900000000   -2.40818700000000    1.42452400000000
H       158.52693600000001    0.16322400000000   -0.23789400000000
H       158.00722999999999    2.67427100000000   -1.55658000000000
H       156.19247300000001    4.37553600000000   -1.09372600000000
H       154.00849700000001    4.36987100000000    1.08227800000000
C        47.73943600000000    0.02639200000000   -0.00423400000000
C        48.95496900000000    0.00104800000000   -0.01471400000000
C        50.37648600000000   -0.02037500000000   -0.01888900000000
C        51.58504800000000   -0.02258600000000   -0.01878400000000
C        53.00612300000000   -0.00362600000000   -0.01941100000000
C        54.21726500000000    0.02639200000000   -0.00423400000000
C        63.31461200000000    0.02639200000000   -0.00423400000000
C        64.53014500000000    0.00104800000000   -0.01471400000000
C        65.95166200000000   -0.02037500000000   -0.01888900000000
C        67.16022300000000   -0.02258600000000   -0.01878400000000
C        68.58129900000000   -0.00362600000000   -0.01941100000000
C        69.79244100000000    0.02639200000000   -0.00423400000000
C        78.88978700000000    0.02639200000000   -0.00423400000000
C        80.10532000000001    0.00104800000000   -0.01471400000000
C        81.52683700000000   -0.02037500000000   -0.01888900000000
C        82.73539900000000   -0.02258600000000   -0.01878400000000
C        84.15647400000002   -0.00362600000000   -0.01941100000000
C        85.36761600000000    0.02639200000000   -0.00423400000000
C        94.46496300000001    0.02639200000000   -0.00423400000000
C        95.68049600000001    0.00104800000000   -0.01471400000000
C        97.10201300000000   -0.02037500000000   -0.01888900000000
C        98.31057400000000   -0.02258600000000   -0.01878400000000
C        99.73165000000000   -0.00362600000000   -0.01941100000000
C       100.94279200000001    0.02639200000000   -0.00423400000000
C       110.04013900000000    0.02639200000000   -0.00423400000000
C       111.25567100000002    0.00104800000000   -0.01471400000000
C       112.67718800000000   -0.02037500000000   -0.01888900000000
C       113.88575000000002   -0.02258600000000   -0.01878400000000
C       115.30682500000000   -0.00362600000000   -0.01941100000000
C       116.51796700000000    0.02639200000000   -0.00423400000000
C       125.61531400000000    0.02639200000000   -0.00423400000000
C       126.83084700000001    0.00104800000000   -0.01471400000000
C       128.25236400000000   -0.02037500000000   -0.01888900000000
C       129.46092500000000   -0.02258600000000   -0.01878400000000
C       130.88200100000000   -0.00362600000000   -0.01941100000000
C       132.09314300000000    0.02639200000000   -0.00423400000000
C       141.19049000000001    0.02639200000000   -0.00423400000000
C       142.40602200000001    0.00104800000000   -0.01471400000000
C       143.82753900000000   -0.02037500000000   -0.01888900000000
C       145.03610100000000   -0.02258600000000   -0.01878400000000
C       146.45717600000000   -0.00362600000000   -0.01941100000000
C       147.66831800000000    0.02639200000000   -0.00423400000000
Fe       58.80585500000000    0.03800900000000    0.00059400000000
C        56.52604500000000   -3.22343800000000   -0.90907200000000
C        55.56983500000000   -2.32408800000000   -1.01109800000000
C        55.96221000000000   -1.16178300000000   -0.20858200000000
C        55.32709300000000   -0.01051100000000    0.00368400000000
C        56.01255000000000    1.26408900000000    0.22991300000000
C        55.67726000000000    2.34268900000000    0.93415400000000
C        56.70180100000001    3.36200600000000    0.84357200000000
C        57.65239900000000    2.86508100000000    0.07020700000000
N        57.27540400000000    1.54847600000000   -0.34593500000000
C        58.89953800000000    3.47678300000000   -0.34665800000000
C        60.00109000000000    2.80952500000000   -0.67843000000000
C        60.99463600000000    3.06151000000000   -1.71259900000000
C        61.88851900000000    2.10065100000000   -1.61111600000000
C        61.50882100000000    1.18876700000000   -0.50713900000000
N        60.41390600000000    1.63808600000000    0.00022800000000
C        62.16602800000000   -0.01051100000000    0.00368400000000
C        61.54261700000000   -1.07969300000000    0.46520100000000
C        61.92132900000000   -2.01180800000000    1.54067600000000
C        60.98066100000000   -2.92595400000000    1.62654200000000
C        59.97235900000000   -2.63017500000000    0.62911500000000
N        60.31013400000000   -1.57679800000000   -0.02018000000000
C        58.71996600000000   -3.33718200000000    0.29792200000000
C        57.60609000000000   -2.74048600000000   -0.04941900000000
N        57.22397700000000   -1.45772900000000    0.36826400000000
H        56.52638900000001   -4.21451200000000   -1.40030600000000
H        54.66130100000001   -2.44578200000000   -1.59224600000000
H        54.75240800000000    2.46104000000000    1.51108000000000
H        56.72909600000001    4.35117000000000    1.30022300000000
H        58.98547800000000    4.57416000000000   -0.40868100000000
H        61.02730900000000    3.86772600000000   -2.43942300000000
H        62.78158100000000    1.98768300000000   -2.24489000000000
H        62.83608000000000   -1.93740200000000    2.15084600000000
H        60.99970700000000   -3.73956200000000    2.33481000000000
H        58.75845100000001   -4.43714200000000    0.35695800000000
Fe       74.38103099999999    0.03800900000000    0.00059400000000
C        72.10122000000000   -3.22343800000000   -0.90907200000000
C        71.14501100000000   -2.32408800000000   -1.01109800000000
C        71.53738500000000   -1.16178300000000   -0.20858200000000
C        70.90226900000000   -0.01051100000000    0.00368400000000
C        71.58772600000002    1.26408900000000    0.22991300000000
C        71.25243500000001    2.34268900000000    0.93415400000000
C        72.27697700000000    3.36200600000000    0.84357200000000
C        73.22757400000000    2.86508100000000    0.07020700000000
N        72.85057999999999    1.54847600000000   -0.34593500000000
C        74.47471400000001    3.47678300000000   -0.34665800000000
C        75.57626500000001    2.80952500000000   -0.67843000000000
C        76.56981200000001    3.06151000000000   -1.71259900000000
C        77.46369500000000    2.10065100000000   -1.61111600000000
C        77.08399700000001    1.18876700000000   -0.50713900000000
N        75.98908200000000    1.63808600000000    0.00022800000000
C        77.74120400000000   -0.01051100000000    0.00368400000000
C        77.11779199999999   -1.07969300000000    0.46520100000000
C        77.49650500000000   -2.01180800000000    1.54067600000000
C        76.55583600000000   -2.92595400000000    1.62654200000000
C        75.54753500000000   -2.63017500000000    0.62911500000000
N        75.88531000000000   -1.57679800000000   -0.02018000000000
C        74.29514200000000   -3.33718200000000    0.29792200000000
C        73.18126500000000   -2.74048600000000   -0.04941900000000
N        72.79915300000000   -1.45772900000000    0.36826400000000
H        72.10156499999999   -4.21451200000000   -1.40030600000000
H        70.23647699999999   -2.44578200000000   -1.59224600000000
H        70.32758300000000    2.46104000000000    1.51108000000000
H        72.30427200000000    4.35117000000000    1.30022300000000
H        74.56065400000000    4.57416000000000   -0.40868100000000
H        76.60248400000000    3.86772600000000   -2.43942300000000
H        78.35675600000000    1.98768300000000   -2.24489000000000
H        78.41125500000000   -1.93740200000000    2.15084600000000
H        76.57488300000000   -3.73956200000000    2.33481000000000
H        74.33362600000001   -4.43714200000000    0.35695800000000
Fe       89.95620700000002    0.03800900000000    0.00059400000000
C        87.67639600000000   -3.22343800000000   -0.90907200000000
C        86.72018700000000   -2.32408800000000   -1.01109800000000
C        87.11256100000001   -1.16178300000000   -0.20858200000000
C        86.47744400000001   -0.01051100000000    0.00368400000000
C        87.16290100000001    1.26408900000000    0.22991300000000
C        86.82761100000000    2.34268900000000    0.93415400000000
C        87.85215200000000    3.36200600000000    0.84357200000000
C        88.80275000000000    2.86508100000000    0.07020700000000
N        88.42575500000001    1.54847600000000   -0.34593500000000
C        90.04988899999999    3.47678300000000   -0.34665800000000
C        91.15144100000001    2.80952500000000   -0.67843000000000
C        92.14498700000000    3.06151000000000   -1.71259900000000
C        93.03887000000000    2.10065100000000   -1.61111600000000
C        92.65917200000000    1.18876700000000   -0.50713900000000
N        91.56425700000001    1.63808600000000    0.00022800000000
C        93.31637900000001   -0.01051100000000    0.00368400000000
C        92.69296799999999   -1.07969300000000    0.46520100000000
C        93.07168000000000   -2.01180800000000    1.54067600000000
C        92.13101200000000   -2.92595400000000    1.62654200000000
C        91.12271000000001   -2.63017500000000    0.62911500000000
N        91.46048500000001   -1.57679800000000   -0.02018000000000
C        89.87031700000000   -3.33718200000000    0.29792200000000
C        88.75644100000000   -2.74048600000000   -0.04941900000000
N        88.37432800000001   -1.45772900000000    0.36826400000000
H        87.67674000000001   -4.21451200000000   -1.40030600000000
H        85.81165200000001   -2.44578200000000   -1.59224600000000
H        85.90275900000000    2.46104000000000    1.51108000000000
H        87.87944700000001    4.35117000000000    1.30022300000000
H        90.13582900000000    4.57416000000000   -0.40868100000000
H        92.17766000000000    3.86772600000000   -2.43942300000000
H        93.93193200000002    1.98768300000000   -2.24489000000000
H        93.98643100000000   -1.93740200000000    2.15084600000000
H        92.15005800000000   -3.73956200000000    2.33481000000000
H        89.90880199999999   -4.43714200000000    0.35695800000000
Fe      105.53138199999999    0.03800900000000    0.00059400000000
C       103.25157100000000   -3.22343800000000   -0.90907200000000
C       102.29536200000000   -2.32408800000000   -1.01109800000000
C       102.68773600000000   -1.16178300000000   -0.20858200000000
C       102.05262000000000   -0.01051100000000    0.00368400000000
C       102.73807700000000    1.26408900000000    0.22991300000000
C       102.40278600000002    2.34268900000000    0.93415400000000
C       103.42732800000000    3.36200600000000    0.84357200000000
C       104.37792500000000    2.86508100000000    0.07020700000000
N       104.00093099999999    1.54847600000000   -0.34593500000000
C       105.62506500000001    3.47678300000000   -0.34665800000000
C       106.72661600000001    2.80952500000000   -0.67843000000000
C       107.72016300000001    3.06151000000000   -1.71259900000000
C       108.61404600000000    2.10065100000000   -1.61111600000000
C       108.23434800000000    1.18876700000000   -0.50713900000000
N       107.13943300000000    1.63808600000000    0.00022800000000
C       108.89155500000000   -0.01051100000000    0.00368400000000
C       108.26814300000001   -1.07969300000000    0.46520100000000
C       108.64685600000000   -2.01180800000000    1.54067600000000
C       107.70618700000001   -2.92595400000000    1.62654200000000
C       106.69788600000000   -2.63017500000000    0.62911500000000
N       107.03566100000000   -1.57679800000000   -0.02018000000000
C       105.44549300000000   -3.33718200000000    0.29792200000000
C       104.33161600000001   -2.74048600000000   -0.04941900000000
N       103.94950400000000   -1.45772900000000    0.36826400000000
H       103.25191599999999   -4.21451200000000   -1.40030600000000
H       101.38682799999999   -2.44578200000000   -1.59224600000000
H       101.47793400000002    2.46104000000000    1.51108000000000
H       103.45462300000000    4.35117000000000    1.30022300000000
H       105.71100500000000    4.57416000000000   -0.40868100000000
H       107.75283500000002    3.86772600000000   -2.43942300000000
H       109.50710700000000    1.98768300000000   -2.24489000000000
H       109.56160600000001   -1.93740200000000    2.15084600000000
H       107.72523400000000   -3.73956200000000    2.33481000000000
H       105.48397700000001   -4.43714200000000    0.35695800000000
Fe      121.10655800000001    0.03800900000000    0.00059400000000
C       118.82674700000001   -3.22343800000000   -0.90907200000000
C       117.87053800000000   -2.32408800000000   -1.01109800000000
C       118.26291200000000   -1.16178300000000   -0.20858200000000
C       117.62779500000001   -0.01051100000000    0.00368400000000
C       118.31325200000002    1.26408900000000    0.22991300000000
C       117.97796200000001    2.34268900000000    0.93415400000000
C       119.00250300000000    3.36200600000000    0.84357200000000
C       119.95310100000002    2.86508100000000    0.07020700000000
N       119.57610600000000    1.54847600000000   -0.34593500000000
C       121.20024000000001    3.47678300000000   -0.34665800000000
C       122.30179200000002    2.80952500000000   -0.67843000000000
C       123.29533800000000    3.06151000000000   -1.71259900000000
C       124.18922100000000    2.10065100000000   -1.61111600000000
C       123.80952300000001    1.18876700000000   -0.50713900000000
N       122.71460800000000    1.63808600000000    0.00022800000000
C       124.46673000000001   -0.01051100000000    0.00368400000000
C       123.84331899999999   -1.07969300000000    0.46520100000000
C       124.22203200000001   -2.01180800000000    1.54067600000000
C       123.28136300000000   -2.92595400000000    1.62654200000000
C       122.27306100000000   -2.63017500000000    0.62911500000000
N       122.61083600000002   -1.57679800000000   -0.02018000000000
C       121.02066800000000   -3.33718200000000    0.29792200000000
C       119.90679200000000   -2.74048600000000   -0.04941900000000
N       119.52467900000001   -1.45772900000000    0.36826400000000
H       118.82709100000000   -4.21451200000000   -1.40030600000000
H       116.96200300000001   -2.44578200000000   -1.59224600000000
H       117.05311000000000    2.46104000000000    1.51108000000000
H       119.02979800000000    4.35117000000000    1.30022300000000
H       121.28618000000000    4.57416000000000   -0.40868100000000
H       123.32801100000000    3.86772600000000   -2.43942300000000
H       125.08228300000000    1.98768300000000   -2.24489000000000
H       125.13678200000000   -1.93740200000000    2.15084600000000
H       123.30040900000002   -3.73956200000000    2.33481000000000
H       121.05915299999999   -4.43714200000000    0.35695800000000
Fe      136.68173300000001    0.03800900000000    0.00059400000000
C       134.40192200000001   -3.22343800000000   -0.90907200000000
C       133.44571300000001   -2.32408800000000   -1.01109800000000
C       133.83808700000000   -1.16178300000000   -0.20858200000000
C       133.20297099999999   -0.01051100000000    0.00368400000000
C       133.88842800000000    1.26408900000000    0.22991300000000
C       133.55313799999999    2.34268900000000    0.93415400000000
C       134.57767899999999    3.36200600000000    0.84357200000000
C       135.52827600000001    2.86508100000000    0.07020700000000
N       135.15128200000001    1.54847600000000   -0.34593500000000
C       136.77541600000001    3.47678300000000   -0.34665800000000
C       137.87696700000001    2.80952500000000   -0.67843000000000
C       138.87051399999999    3.06151000000000   -1.71259900000000
C       139.76439700000000    2.10065100000000   -1.61111600000000
C       139.38469900000001    1.18876700000000   -0.50713900000000
N       138.28978400000000    1.63808600000000    0.00022800000000
C       140.04190600000001   -0.01051100000000    0.00368400000000
C       139.41849400000001   -1.07969300000000    0.46520100000000
C       139.79720699999999   -2.01180800000000    1.54067600000000
C       138.85653800000000   -2.92595400000000    1.62654200000000
C       137.84823700000004   -2.63017500000000    0.62911500000000
N       138.18601200000001   -1.57679800000000   -0.02018000000000
C       136.59584400000000   -3.33718200000000    0.29792200000000
C       135.48196700000000   -2.74048600000000   -0.04941900000000
N       135.09985499999999   -1.45772900000000    0.36826400000000
H       134.40226699999999   -4.21451200000000   -1.40030600000000
H       132.53717900000001   -2.44578200000000   -1.59224600000000
H       132.62828500000001    2.46104000000000    1.51108000000000
H       134.60497400000000    4.35117000000000    1.30022300000000
H       136.86135600000000    4.57416000000000   -0.40868100000000
H       138.90318600000001    3.86772600000000   -2.43942300000000
H       140.65745799999999    1.98768300000000   -2.24489000000000
H       140.71195700000001   -1.93740200000000    2.15084600000000
H       138.87558500000000   -3.73956200000000    2.33481000000000
H       136.63432800000001   -4.43714200000000    0.35695800000000
324
 energy: -590.519733524023 gnorm: 1.099789209014 xtb: 6.4.1 (bd6e46d)
Fe       41.31817488433580    0.03959527766749   -0.01280464790470
C        43.64195196748536   -3.11244037993816    1.30802335553175
C        44.56651933544949   -2.16153170936845    1.25935603949399
C        44.14638936802816   -1.11263991095735    0.34011929621953
C        44.75918749507092    0.02527826378158   -0.00980571356841
C        44.05887799034048    1.22836127434000   -0.36567588437038
C        44.39701552060883    2.21081102255459   -1.23150161413072
C        43.37328853655035    3.21314413158133   -1.24603520139591
C        42.41413886109495    2.82480964028198   -0.38288336858863
N        42.81305892670645    1.59545925232683    0.17645208936682
C        41.16975363943659    3.48260884173805   -0.01248101118875
C        40.05513094994352    2.83746977062030    0.34164489469657
C        38.99482685411201    3.16825020651367    1.30335533560304
C        38.14002346416569    2.16097028167845    1.23450961094111
C        38.58572485445573    1.16320861149018    0.25847066864809
N        39.71111344157897    1.59791687807226   -0.23071516840797
C        37.97359713974173   -0.07839274093439   -0.15857732939289
C        38.64779359004292   -1.20069728887184   -0.41947494461472
C        38.26588079028263   -2.25459134831065   -1.36978935005866
C        39.22443430863405   -3.16226605903960   -1.28524415017110
C        40.21061120226658   -2.72177338951398   -0.30496225497224
N        39.85354637639395   -1.55867563230852    0.18903619136215
C        41.42464413567065   -3.37498316067035    0.13955234203629
C        42.56556365504839   -2.71515142044806    0.41132368243260
N        42.88554642603137   -1.47738733136036   -0.17896409091763
H        43.70153991159975   -4.01446536936763    1.92457212071785
H        45.47671700734760   -2.20019236712743    1.83641352368835
H        45.31661773273063    2.21413720764139   -1.82046848228565
H        43.37506395416407    4.11462965466299   -1.84923445087322
H        41.11564525949936    4.57383579060662   -0.01276420176632
H        38.93940760640126    4.04138048333363    1.93275544864515
H        37.24153159954425    2.12822749244242    1.84802585863774
H        36.88370472619656   -0.08585232219394   -0.26270525848288
H        37.40280710039717   -2.30766574171923   -2.02088913545134
H        39.21966846764440   -4.06796405702294   -1.88222578155706
H        41.39966153475053   -4.46406113970613    0.25550726756484
Fe      154.09093618375607   -0.00780496092427   -0.01724401720127
C       151.76716403432474    2.84447442902401    1.86540865805562
C       150.84260003867863    1.91910152013175    1.64117258669864
C       151.26274817300774    1.05895664687299    0.54331025037222
C       150.64994135638344    0.00574879060311   -0.01163697429577
C       151.35023867868844   -1.11047093167967   -0.58451786968549
C       151.01210423227496   -1.91525327619002   -1.61756756677178
C       152.03582172760727   -2.89748749763946   -1.81779911961948
C       152.99497716685687   -2.67602066851428   -0.89758932216838
N       152.59604852916971   -1.57178243984140   -0.11990311199500
C       154.23935668018927   -3.39112198080996   -0.65565300639702
C       155.35398419363094   -2.82286882300565   -0.18798926612785
C       156.41428441859492   -3.32632165299388    0.69566271717422
C       157.26909093038327   -2.32375602719435    0.81487504131068
C       156.82339137902281   -1.16224401919004    0.04087957830733
N       155.69799962217448   -1.49866390121533   -0.52046217691491
C       157.43551698179104    0.13516789152103   -0.13859182346678
C       156.76131650722553    1.28639793550494   -0.18676162417266
C       157.14323279557129    2.49829024615366   -0.92506522877013
C       156.18467735219545    3.37452609852974   -0.67360055812006
C       155.19850328405633    2.75982375940796    0.20794662919076
N       155.55557234630601    1.52527334074601    0.47760239019892
C       153.98446903056598    3.31923517117567    0.76592505678271
C       152.84355150552338    2.62043444373893    0.91057099135089
N       152.52358330255854    1.51366161635842    0.10091103288471
H       151.70757347537565    3.61646717829587    2.63859364748614
H       149.93239594010024    1.85004001979173    2.21538898921199
H       150.09249564970011   -1.80925658070120   -2.19694083749157
H       152.03405020397796   -3.67142628929127   -2.57777379479071
H       154.29346881117780   -4.46335429606440   -0.85837072494443
H       156.46970675857702   -4.30106180595990    1.15215854439832
H       158.16758336746975   -2.40539938686597    1.42381837413061
H       158.52540980194996    0.16181849246199   -0.23952986119755
H       158.00630747546697    2.67123300015768   -1.55501665963864
H       156.18944572453429    4.37525293141862   -1.09219888326029
H       154.00945285039884    4.36789506170479    1.08190736918638
C        47.73847436321750    0.02626701969146   -0.00413862672898
C        48.96251157057329    0.00082217296081   -0.01466933776392
C        50.36639217041552   -0.02003650973359   -0.01887931423898
C        51.59093525264255   -0.02219228063844   -0.01875764092763
C        52.96657730053859   -0.00401519575237   -0.01940054372812
C        54.15461818581763    0.03249503314638   -0.00541304283372
C        63.36836242292529    0.03108144549116   -0.00407405563308
C        64.56362586567589    0.00057890106310   -0.01448305483505
C        65.94317979148920   -0.01991830985866   -0.01922688088701
C        67.16729482111504   -0.02215160365621   -0.01876311164679
C        68.54187582924887   -0.00402015100561   -0.01937452795214
C        69.72974243809955    0.03247326233383   -0.00558685957070
C        78.94350178865423    0.03108232442596   -0.00396473373752
C        80.13879756518102    0.00060051675174   -0.01446513367932
C        81.51836986271884   -0.01992672713603   -0.01925028166637
C        82.74245202116219   -0.02215113227190   -0.01875791661425
C        84.11709027007673   -0.00401338623640   -0.01937078616185
C        85.30489688466257    0.03246893267721   -0.00561685881480
C        94.51865876051237    0.03108182691201   -0.00393745513490
C        95.71398918128439    0.00060512691294   -0.01445991388500
C        97.09353378695147   -0.01992889207281   -0.01925597441301
C        98.31763890903034   -0.02215055715760   -0.01875690256975
C        99.69226074530904   -0.00401158623209   -0.01936964910836
C       100.88007301148780    0.03246709618994   -0.00562440607173
C       110.09381595512481    0.03108064857213   -0.00393196095766
C       111.28919424362037    0.00060550035185   -0.01445605621900
C       112.66868472871332   -0.01992976881530   -0.01925649876508
C       113.89283847849133   -0.02215047680870   -0.01875799256497
C       115.26741607313404   -0.00401054857420   -0.01937024159795
C       116.45524711839076    0.03246379882554   -0.00562542183286
C       125.66894567924454    0.03107689941574   -0.00393714379880
C       126.86445989954210    0.00060169356129   -0.01444792183549
C       128.24378782688012   -0.01993172379055   -0.01925427519619
C       129.46808252014753   -0.02214913137221   -0.01876174839647
C       130.84254205567532   -0.00400877645416   -0.01937224472816
C       132.03039910559542    0.03245324195355   -0.00562039837209
C       141.24421593595093    0.03115773926357   -0.00387840467527
C       142.43962831202364    0.00069292373216   -0.01435018204486
C       143.82062911592999   -0.01993608522804   -0.01925163022346
C       145.04532836060767   -0.02225096624865   -0.01892853556013
C       146.44862816723554   -0.00392581148591   -0.01926305919934
C       147.67060505058677    0.02620201862067   -0.00412248426372
Fe       58.80343876430806    0.03873978247378   -0.00032605277923
C        56.52872678550123   -3.23331396260974   -0.90792143033398
C        55.56623791005480   -2.32116401570893   -1.00884594577967
C        55.98840840843903   -1.17898694881486   -0.21028697103916
C        55.38551765024210   -0.00172771785200    0.00481145960918
C        56.03524503146821    1.26761321880257    0.22672426174641
C        55.67265671262864    2.35675305429289    0.94168038386966