 Entering Gaussian System
 *********************************************
 Gaussian 98:
 frequency output generated by the xtb code
 *********************************************
                         Standard orientation:
 --------------------------------------------------------------------
  Center     Atomic     Atomic              Coordinates (Angstroms)
  Number     Number      Type              X           Y           Z
 --------------------------------------------------------------------
    1         28             0       21.737293    0.001156   -0.008514
    2          6             0       24.235400   -3.411197    0.057681
    3          6             0       25.187222   -2.450857    0.053536
    4          6             0       24.498093   -1.195989    0.024190
    5          6             0       25.164752    0.032701    0.003559
    6          6             0       24.476237    1.249294   -0.012840
    7          6             0       25.142188    2.516864   -0.023539
    8          6             0       24.172837    3.459513   -0.016983
    9          6             0       22.922691    2.760750   -0.004794
   10          7             0       23.123608    1.406053   -0.005119
   11          6             0       21.702057    3.403333    0.009505
   12          6             0       20.494806    2.735837    0.008803
   13          6             0       19.227057    3.407451    0.014574
   14          6             0       18.280634    2.444271   -0.007423
   15          6             0       18.974398    1.188278   -0.024257
   16          7             0       20.326350    1.380410   -0.011124
   17          6             0       18.327398   -0.030232   -0.054439
   18          6             0       18.997033   -1.236819   -0.059508
   19          6             0       18.326964   -2.505522   -0.082811
   20          6             0       19.290838   -3.451272   -0.061997
   21          6             0       20.545502   -2.756315   -0.028153
   22          7             0       20.352017   -1.404105   -0.030216
   23          6             0       21.764476   -3.401195    0.006897
   24          6             0       22.972716   -2.735875    0.028918
   25          7             0       23.148701   -1.377752    0.012655
   26          1             0       24.353994   -4.477127    0.076529
   27          1             0       26.254599   -2.555766    0.068408
   28          1             0       26.207444    2.641608   -0.032714
   29          1             0       24.271799    4.527536   -0.020412
   30          1             0       21.692280    4.482531    0.017703
   31          1             0       19.105935    4.473297    0.031654
   32          1             0       17.212699    2.546640   -0.011772
   33          1             0       17.248448   -0.040045   -0.071324
   34          1             0       17.261431   -2.627565   -0.109819
   35          1             0       19.189575   -4.519325   -0.068709
   36          1             0       21.774673   -4.480395    0.014149
   37         28             0       62.039225    0.037715   -0.006640
   38          6             0       59.550086    3.405843    0.583496
   39          6             0       58.595733    2.463888    0.409883
   40          6             0       59.281628    1.224680    0.199246
   41          6             0       58.611792    0.013814    0.000760
   42          6             0       59.297003   -1.189277   -0.192146
   43          6             0       58.627691   -2.440086   -0.386433
   44          6             0       59.594521   -3.371638   -0.546796
   45          6             0       60.846452   -2.682614   -0.451231
   46          7             0       60.649180   -1.345530   -0.230266
   47          6             0       62.065121   -3.315714   -0.581603
   48          6             0       63.273798   -2.656188   -0.497633
   49          6             0       64.539223   -3.315921   -0.644517
   50          6             0       65.488187   -2.366111   -0.498775
   51          6             0       64.798324   -1.130529   -0.261401
   52          7             0       63.446067   -1.320952   -0.266497
   53          6             0       65.449134    0.067596   -0.048974
   54          6             0       64.783247    1.252891    0.187345
   55          6             0       65.457266    2.497982    0.420608
   56          6             0       64.495918    3.427947    0.607460
   57          6             0       63.238880    2.747502    0.485112
   58          7             0       63.428502    1.418650    0.231864
   59          6             0       62.021323    3.385381    0.601480
   60          6             0       60.811058    2.735572    0.474945
   61          7             0       60.631611    1.398835    0.237073
   62          1             0       59.434322    4.456100    0.767789
   63          1             0       57.528623    2.571313    0.421644
   64          1             0       57.562116   -2.562135   -0.395203
   65          1             0       59.492715   -4.425938   -0.715953
   66          1             0       62.072001   -4.379839   -0.761628
   67          1             0       64.657160   -4.365356   -0.833489
   68          1             0       66.555522   -2.465528   -0.541423
   69          1             0       66.528096    0.077371   -0.064716
   70          1             0       66.523436    2.616428    0.434589
   71          1             0       64.600338    4.476721    0.807815
   72          1             0       62.013994    4.446718    0.797243
   73          6             0       26.562229    0.043993    0.002859
   74          6             0       27.779772    0.059584    0.002728
   75          6             0       29.121975    0.065462   -0.001131
   76          6             0       30.339726    0.068333   -0.005048
   77          6             0       39.999598    0.052331   -0.017585
   78          6             0       41.217479    0.044216   -0.017384
   79          6             0       42.559284    0.035732   -0.017554
   80          6             0       43.777139    0.025659   -0.018631
   81          6             0       53.436584   -0.012195   -0.010495
   82          6             0       54.654274   -0.007663   -0.007174
   83          6             0       55.996609   -0.006246   -0.003591
   84          6             0       57.214145    0.006642   -0.001315
   85         28             0       35.169850    0.061023   -0.015362
   86          6             0       32.694427   -3.345957    0.394463
   87          6             0       31.734696   -2.399187    0.288454
   88          6             0       32.413700   -1.148048    0.135684
   89          6             0       31.736683    0.067035   -0.008050
   90          6             0       32.417142    1.279501   -0.155880
   91          6             0       31.741734    2.532670   -0.308415
   92          6             0       32.704299    3.475839   -0.420837
   93          6             0       33.958852    2.791194   -0.335849
   94          7             0       33.768072    1.444529   -0.175027
   95          6             0       35.174799    3.438005   -0.406376
   96          6             0       36.388781    2.788864   -0.325478
   97          6             0       37.645383    3.471306   -0.397679
   98          6             0       38.605120    2.524913   -0.288365
   99          6             0       37.926052    1.272061   -0.150526
  100          7             0       36.575651    1.440647   -0.172610
  101          6             0       38.602934    0.055755   -0.017354
  102          6             0       37.922299   -1.158640    0.115353
  103          6             0       38.597709   -2.413911    0.249468
  104          6             0       37.635208   -3.357613    0.357584
  105          6             0       36.380701   -2.671129    0.288748
  106          7             0       36.571501   -1.323149    0.138551
  107          6             0       35.164865   -3.316528    0.370966
  108          6             0       33.950907   -2.665407    0.305807
  109          7             0       33.764141   -1.317753    0.148676
  110          1             0       32.584882   -4.405406    0.520647
  111          1             0       30.668241   -2.511086    0.308555
  112          1             0       30.675502    2.648212   -0.324450
  113          1             0       32.597714    4.535449   -0.549114
  114          1             0       35.176362    4.510118   -0.531160
  115          1             0       37.755030    4.531698   -0.516259
  116          1             0       39.671666    2.638069   -0.297612
  117          1             0       39.663853   -2.530462    0.257064
  118          1             0       37.741774   -4.418574    0.473431
  119          1             0       35.163189   -4.388916    0.493274
  120         28             0       48.606656    0.005565   -0.018719
  121          6             0       46.123053   -3.394362    0.398717
  122          6             0       45.165679   -2.444819    0.296049
  123          6             0       45.847729   -1.196393    0.134574
  124          6             0       45.173802    0.019171   -0.019133
  125          6             0       45.857455    1.229183   -0.174051
  126          6             0       45.185329    2.482662   -0.337606
  127          6             0       46.150176    3.424348   -0.442391
  128          6             0       47.402859    2.738473   -0.341622
  129          7             0       47.208649    1.392096   -0.181713
  130          6             0       48.620096    3.384592   -0.390800
  131          6             0       49.832217    2.733767   -0.295397
  132          6             0       51.090244    3.415604   -0.342842
  133          6             0       52.047616    2.466599   -0.235493
  134          6             0       51.365632    1.212689   -0.123957
  135          7             0       50.015656    1.383649   -0.156798
  136          6             0       52.039506   -0.007556   -0.013984
  137          6             0       51.356030   -1.222616    0.092534
  138          6             0       52.028238   -2.481827    0.203994
  139          6             0       51.063409   -3.423796    0.306558
  140          6             0       49.810667   -2.732373    0.256719
  141          7             0       50.004719   -1.383445    0.120942
  142          6             0       48.593344   -3.373942    0.348725
  143          6             0       47.381187   -2.718232    0.299453
  144          7             0       47.197631   -1.370083    0.141943
  145          1             0       46.010820   -4.453149    0.528455
  146          1             0       44.098953   -2.553322    0.322837
  147          1             0       44.119544    2.599583   -0.364649
  148          1             0       46.046346    4.483716   -0.574298
  149          1             0       48.624445    4.457358   -0.509655
  150          1             0       51.202411    4.477325   -0.445673
  151          1             0       53.114278    2.578501   -0.231794
  152          1             0       53.094092   -2.601657    0.203148
  153          1             0       51.167314   -4.486545    0.407874
  154          1             0       48.589174   -4.446922    0.465711
 --------------------------------------------------------------------
     1 basis functions        1 primitive gaussians
     1 alpha electrons        1 beta electrons

 Harmonic frequencies (cm**-1), IR intensities (km*mol⁻¹),
 Raman scattering activities (A**4/amu), Raman depolarization ratios,
 reduced masses (AMU), force constants (mDyne/A) and normal coordinates:
                      1                      2                      3
                        a                      a                      a 
 Frequencies --    -6.0451                -4.7482                -3.2988
 Red. masses --    11.6685                12.8977                17.3188
 Frc consts  --     0.0000                 0.0000                 0.0000
 IR Inten    --    36.3691                 1.5822                 0.1540
 Raman Activ --     0.0000                 0.0000                 0.0000
 Depolar     --     0.0000                 0.0000                 0.0000
 Atom AN      X      Y      Z        X      Y      Z        X      Y      Z
   1  28     0.00  -0.01  -0.01    -0.00  -0.01  -0.09    -0.00   0.00   0.04
   2   6     0.00  -0.00  -0.01     0.00  -0.01  -0.25    -0.00  -0.00  -0.08
   3   6     0.00  -0.00  -0.01     0.00  -0.00  -0.18    -0.00  -0.00  -0.06
   4   6     0.00  -0.00  -0.00     0.00  -0.00  -0.11    -0.00  -0.00  -0.03
   5   6     0.00  -0.00  -0.00     0.00  -0.00  -0.08     0.00  -0.00  -0.03
   6   6    -0.00  -0.00  -0.01    -0.00  -0.00  -0.11     0.00  -0.00  -0.03
   7   6    -0.00  -0.00  -0.01    -0.00  -0.00  -0.19     0.00  -0.00  -0.06
   8   6    -0.00  -0.00  -0.01    -0.00  -0.00  -0.26     0.00  -0.00  -0.08
   9   6    -0.00  -0.00  -0.01    -0.00  -0.00  -0.21     0.00   0.00  -0.05
  10   7    -0.00  -0.00  -0.01    -0.00  -0.00  -0.13     0.00   0.00  -0.03
  11   6    -0.00  -0.00  -0.01    -0.00  -0.00  -0.20     0.01   0.00  -0.04
  12   6    -0.00  -0.00  -0.01    -0.00  -0.00  -0.06     0.00   0.00   0.02
  13   6    -0.00  -0.01  -0.00     0.00  -0.00   0.04     0.01   0.01   0.07
  14   6    -0.00  -0.01   0.00    -0.00  -0.01   0.22     0.00   0.01   0.14
  15   6    -0.00  -0.01   0.00    -0.00  -0.01   0.21     0.00   0.01   0.13
  16   7    -0.00  -0.00  -0.00    -0.00  -0.00   0.04     0.00   0.00   0.06
  17   6     0.00  -0.01   0.01    -0.01  -0.01   0.31    -0.00   0.01   0.17
  18   6     0.00  -0.01   0.01    -0.01  -0.01   0.21    -0.00   0.01   0.13
  19   6     0.00  -0.01   0.01    -0.01  -0.01   0.22    -0.01   0.01   0.14
  20   6     0.00  -0.01   0.00    -0.00  -0.01   0.04    -0.01   0.01   0.07
  21   6     0.00  -0.00  -0.00    -0.00  -0.01  -0.06    -0.00   0.00   0.02
  22   7     0.00  -0.00   0.00    -0.00  -0.01   0.05    -0.00   0.00   0.06
  23   6     0.00  -0.00  -0.01     0.00  -0.01  -0.19    -0.00   0.00  -0.04
  24   6     0.00  -0.00  -0.01     0.00  -0.01  -0.20    -0.00  -0.00  -0.05
  25   7     0.00  -0.00  -0.01     0.00  -0.01  -0.13    -0.00  -0.00  -0.03
  26   1     0.00  -0.00  -0.00     0.00  -0.00  -0.09    -0.00  -0.00  -0.03
  27   1     0.00  -0.00  -0.00     0.00  -0.00  -0.05    -0.00  -0.00  -0.02
  28   1    -0.00  -0.00  -0.00    -0.00  -0.00  -0.06     0.00  -0.00  -0.02
  29   1    -0.00  -0.00  -0.00    -0.00  -0.00  -0.09     0.00  -0.00  -0.03
  30   1    -0.00  -0.00  -0.00    -0.00  -0.00  -0.08     0.00   0.00  -0.02
  31   1    -0.00  -0.00  -0.00     0.00  -0.00  -0.00     0.00   0.00   0.01
  32   1    -0.00  -0.00   0.00    -0.00  -0.00   0.10     0.00   0.00   0.06
  33   1     0.00  -0.00   0.00    -0.00  -0.00   0.13    -0.00   0.00   0.07
  34   1     0.00  -0.00   0.00    -0.00  -0.00   0.10    -0.00   0.00   0.05
  35   1     0.00  -0.00   0.00    -0.00  -0.00  -0.00    -0.00   0.00   0.01
  36   1     0.00  -0.00  -0.00     0.00  -0.00  -0.08    -0.00   0.00  -0.02
  37  28    -0.00  -0.00   0.06     0.00  -0.00   0.01     0.00  -0.01  -0.11
  38   6     0.00  -0.04   0.26    -0.00   0.00  -0.02     0.01  -0.01   0.00
  39   6     0.00  -0.03   0.19    -0.00   0.00  -0.02     0.01  -0.00   0.01
  40   6     0.00  -0.02   0.11    -0.00   0.00  -0.01     0.00  -0.00  -0.01
  41   6     0.00  -0.01   0.08     0.00  -0.00  -0.01     0.00  -0.00  -0.00
  42   6    -0.00  -0.02   0.11     0.00   0.00  -0.01    -0.00  -0.00  -0.01
  43   6    -0.00  -0.03   0.18     0.00   0.00  -0.02    -0.01  -0.00   0.01
  44   6    -0.00  -0.04   0.25     0.00   0.00  -0.02    -0.01  -0.01   0.01
  45   6    -0.00  -0.03   0.20     0.00   0.00  -0.01    -0.01  -0.01  -0.01
  46   7    -0.00  -0.02   0.13     0.00   0.00  -0.01    -0.00  -0.01  -0.02
  47   6    -0.00  -0.03   0.19     0.00   0.00  -0.01    -0.01  -0.01  -0.03
  48   6    -0.00  -0.01   0.04     0.00   0.00   0.00    -0.01  -0.01  -0.06
  49   6    -0.01   0.01  -0.07     0.00   0.00   0.01    -0.01  -0.01  -0.08
  50   6    -0.01   0.04  -0.26     0.00  -0.00   0.03    -0.01  -0.01  -0.11
  51   6    -0.01   0.04  -0.25     0.00  -0.00   0.03    -0.01  -0.01  -0.11
  52   7    -0.00   0.01  -0.07     0.00  -0.00   0.01    -0.01  -0.01  -0.08
  53   6    -0.01   0.06  -0.36     0.00  -0.00   0.04    -0.00  -0.01  -0.13
  54   6    -0.00   0.04  -0.24    -0.00  -0.00   0.03     0.00  -0.01  -0.11
  55   6    -0.00   0.04  -0.26    -0.00  -0.00   0.03     0.01  -0.01  -0.12
  56   6     0.00   0.01  -0.07    -0.00  -0.00   0.02     0.01  -0.01  -0.09
  57   6     0.00  -0.01   0.04    -0.00   0.00   0.00     0.01  -0.01  -0.06
  58   7    -0.00   0.01  -0.07    -0.00  -0.00   0.01     0.01  -0.01  -0.08
  59   6     0.00  -0.04   0.19    -0.00   0.00  -0.01     0.01  -0.01  -0.03
  60   6     0.00  -0.04   0.21    -0.00   0.00  -0.01     0.01  -0.01  -0.02
  61   7     0.00  -0.02   0.13    -0.00   0.00  -0.01     0.01  -0.01  -0.03
  62   1     0.00  -0.02   0.10    -0.00   0.00  -0.01     0.00  -0.00   0.00
  63   1     0.00  -0.01   0.06    -0.00   0.00  -0.01     0.00  -0.00   0.01
  64   1    -0.00  -0.01   0.06     0.00   0.00  -0.01    -0.00  -0.00   0.01
  65   1    -0.00  -0.01   0.09     0.00   0.00  -0.01    -0.00  -0.00   0.00
  66   1     0.00  -0.01   0.08     0.00   0.00  -0.01    -0.00  -0.00  -0.01
  67   1    -0.00   0.00  -0.00     0.00   0.00   0.00    -0.00  -0.00  -0.02
  68   1    -0.00   0.02  -0.11     0.00  -0.00   0.01    -0.00  -0.00  -0.04
  69   1    -0.00   0.03  -0.15     0.00  -0.00   0.02    -0.00  -0.00  -0.04
  70   1    -0.00   0.02  -0.11    -0.00  -0.00   0.01     0.00  -0.00  -0.04
  71   1     0.00  -0.00  -0.00    -0.00   0.00   0.00     0.01  -0.00  -0.02
  72   1     0.00  -0.01   0.08    -0.00   0.00  -0.00     0.01  -0.00  -0.01
  73   6     0.00  -0.00  -0.00     0.00  -0.00  -0.06     0.00  -0.00  -0.03
  74   6     0.00   0.00   0.00     0.00   0.00  -0.03     0.00  -0.01  -0.04
  75   6     0.00   0.00   0.00     0.00   0.00  -0.01     0.00  -0.01  -0.04
  76   6     0.00   0.00   0.00     0.00   0.00   0.01     0.00  -0.01  -0.05
  77   6     0.00   0.01  -0.00     0.00   0.00   0.03    -0.00  -0.00  -0.02
  78   6     0.00   0.01  -0.00     0.00   0.00   0.02    -0.00   0.00   0.00
  79   6     0.00   0.01  -0.01     0.00  -0.00   0.01     0.00   0.00   0.03
  80   6     0.00   0.01  -0.02     0.00  -0.00  -0.00     0.00   0.01   0.05
  81   6     0.00   0.00   0.00     0.00  -0.00  -0.02     0.00   0.01   0.06
  82   6     0.00   0.00   0.02     0.00  -0.00  -0.01     0.00   0.01   0.04
  83   6     0.00  -0.00   0.04     0.00  -0.00  -0.01     0.00   0.00   0.02
  84   6     0.00  -0.01   0.06     0.00  -0.00  -0.01     0.00   0.00   0.01
  85  28     0.00   0.01   0.02     0.00   0.02   0.15    -0.00  -0.02  -0.19
  86   6     0.00   0.01   0.02    -0.00   0.01   0.08     0.00  -0.02  -0.11
  87   6     0.00   0.00   0.01    -0.00   0.01   0.05     0.00  -0.01  -0.09
  88   6     0.00   0.00   0.01     0.00   0.01   0.05     0.00  -0.01  -0.08
  89   6     0.00   0.00   0.01     0.00   0.01   0.04     0.00  -0.01  -0.07
  90   6    -0.00   0.00   0.01     0.00   0.01   0.05    -0.00  -0.01  -0.08
  91   6    -0.00   0.00   0.01     0.00   0.01   0.05    -0.00  -0.01  -0.08
  92   6    -0.00   0.00   0.01     0.00   0.01   0.07    -0.00  -0.01  -0.10
  93   6    -0.00   0.01   0.01     0.00   0.01   0.08    -0.00  -0.01  -0.10
  94   7    -0.00   0.01   0.01     0.00   0.01   0.07    -0.00  -0.01  -0.09
  95   6    -0.00   0.01   0.01     0.00   0.01   0.09    -0.00  -0.01  -0.11
  96   6    -0.00   0.01   0.01     0.00   0.01   0.08    -0.00  -0.01  -0.10
  97   6    -0.00   0.01   0.01     0.00   0.01   0.08    -0.00  -0.01  -0.09
  98   6    -0.00   0.01   0.01     0.00   0.01   0.06    -0.00  -0.01  -0.06
  99   6    -0.00   0.01   0.01     0.00   0.01   0.06    -0.00  -0.01  -0.06
 100   7    -0.00   0.01   0.01     0.00   0.01   0.07    -0.00  -0.01  -0.09
 101   6     0.00   0.01   0.00     0.00   0.01   0.05    -0.00  -0.01  -0.05
 102   6     0.00   0.01   0.01    -0.00   0.01   0.06     0.00  -0.01  -0.06
 103   6     0.00   0.01   0.01    -0.00   0.01   0.06     0.00  -0.01  -0.07
 104   6     0.00   0.01   0.01    -0.00   0.01   0.09     0.00  -0.01  -0.10
 105   6     0.00   0.01   0.02    -0.00   0.01   0.09     0.00  -0.01  -0.11
 106   7     0.00   0.01   0.01    -0.00   0.01   0.08     0.00  -0.01  -0.09
 107   6     0.00   0.01   0.02    -0.00   0.01   0.10     0.00  -0.02  -0.12
 108   6     0.00   0.01   0.02    -0.00   0.01   0.08     0.00  -0.02  -0.11
 109   7     0.00   0.01   0.01    -0.00   0.01   0.07     0.00  -0.01  -0.10
 110   1     0.00   0.00   0.01    -0.00   0.00   0.03     0.00  -0.01  -0.04
 111   1     0.00   0.00   0.00    -0.00   0.00   0.01     0.00  -0.00  -0.02
 112   1    -0.00   0.00   0.00     0.00   0.00   0.01    -0.00  -0.00  -0.02
 113   1    -0.00   0.00   0.00     0.00   0.00   0.02    -0.00  -0.00  -0.03
 114   1    -0.00   0.00   0.00     0.00   0.00   0.03    -0.00  -0.00  -0.04
 115   1    -0.00   0.00   0.00     0.00   0.00   0.03    -0.00  -0.00  -0.03
 116   1    -0.00   0.00   0.00     0.00   0.00   0.02    -0.00  -0.00  -0.01
 117   1     0.00   0.00   0.00    -0.00   0.00   0.02     0.00  -0.00  -0.02
 118   1     0.00   0.00   0.01    -0.00   0.00   0.03     0.00  -0.00  -0.03
 119   1     0.00   0.00   0.01    -0.00   0.00   0.03     0.00  -0.01  -0.04
 120  28     0.00   0.00  -0.08     0.00  -0.01  -0.06     0.00   0.03   0.26
 121   6    -0.00   0.00  -0.05     0.00  -0.01  -0.03    -0.00   0.02   0.13
 122   6    -0.00   0.00  -0.04     0.00  -0.00  -0.02    -0.00   0.01   0.10
 123   6    -0.00   0.00  -0.03     0.00  -0.00  -0.02     0.00   0.01   0.09
 124   6     0.00   0.00  -0.03     0.00  -0.00  -0.01     0.00   0.01   0.08
 125   6     0.00   0.00  -0.03     0.00  -0.00  -0.02     0.00   0.01   0.09
 126   6     0.00   0.00  -0.04     0.00  -0.00  -0.02     0.00   0.01   0.10
 127   6     0.00   0.00  -0.05     0.00  -0.00  -0.03     0.00   0.02   0.13
 128   6     0.00  -0.00  -0.05     0.00  -0.01  -0.03     0.00   0.02   0.14
 129   7     0.00   0.00  -0.04     0.00  -0.00  -0.03     0.00   0.02   0.13
 130   6     0.00  -0.00  -0.05     0.00  -0.01  -0.04     0.00   0.02   0.16
 131   6     0.00  -0.00  -0.05     0.00  -0.01  -0.03     0.00   0.02   0.14
 132   6     0.00  -0.00  -0.04     0.00  -0.01  -0.03     0.00   0.02   0.14
 133   6     0.00  -0.00  -0.03     0.00  -0.00  -0.03     0.00   0.01   0.11
 134   6     0.00   0.00  -0.02     0.00  -0.00  -0.02     0.00   0.01   0.10
 135   7     0.00  -0.00  -0.04     0.00  -0.01  -0.03     0.00   0.02   0.13
 136   6     0.00   0.00  -0.01     0.00  -0.00  -0.02     0.00   0.01   0.08
 137   6    -0.00   0.00  -0.02     0.00  -0.00  -0.02    -0.00   0.01   0.10
 138   6    -0.00  -0.00  -0.03     0.00  -0.00  -0.03    -0.00   0.01   0.11
 139   6    -0.00  -0.00  -0.04     0.00  -0.01  -0.04    -0.00   0.02   0.14
 140   6    -0.00  -0.00  -0.05     0.00  -0.01  -0.04    -0.00   0.02   0.14
 141   7    -0.00  -0.00  -0.04     0.00  -0.01  -0.03    -0.00   0.02   0.13
 142   6    -0.00  -0.00  -0.06     0.00  -0.01  -0.04     0.00   0.02   0.16
 143   6    -0.00  -0.00  -0.05     0.00  -0.01  -0.03     0.00   0.02   0.14
 144   7    -0.00   0.00  -0.04     0.00  -0.00  -0.03     0.00   0.02   0.13
 145   1    -0.00  -0.00  -0.02     0.00  -0.00  -0.01    -0.00   0.01   0.04
 146   1    -0.00   0.00  -0.01     0.00  -0.00  -0.00    -0.00   0.00   0.02
 147   1     0.00   0.00  -0.01    -0.00  -0.00  -0.00     0.00   0.00   0.03
 148   1     0.00  -0.00  -0.02    -0.00  -0.00  -0.01     0.00   0.01   0.04
 149   1     0.00  -0.00  -0.02     0.00  -0.00  -0.01     0.00   0.01   0.05
 150   1     0.00  -0.00  -0.01    -0.00  -0.00  -0.01     0.00   0.01   0.04
 151   1     0.00   0.00  -0.01    -0.00  -0.00  -0.01     0.00   0.00   0.03
 152   1    -0.00  -0.00  -0.01     0.00  -0.00  -0.01    -0.00   0.00   0.03
 153   1    -0.00  -0.00  -0.01     0.00  -0.00  -0.01    -0.00   0.01   0.04
 154   1    -0.00  -0.00  -0.02     0.00  -0.00  -0.01     0.00   0.01   0.05
                      4                      5                      6
                        a                      a                      a 
 Frequencies --    -1.8535                 1.2127                 2.7976
 Red. masses --    18.2001                17.5802                11.2469
 Frc consts  --     0.0000                 0.0000                 0.0000
 IR Inten    --    10.1715                 0.4708                 0.0719
 Raman Activ --     0.0000                 0.0000                 0.0000
 Depolar     --     0.0000                 0.0000                 0.0000
 Atom AN      X      Y      Z        X      Y      Z        X      Y      Z
   1  28     0.00  -0.05  -0.19     0.00  -0.18   0.05    -0.00  -0.00  -0.01
   2   6     0.01  -0.01  -0.03     0.05  -0.04   0.02     0.00   0.00   0.16
   3   6     0.01  -0.01  -0.02     0.04  -0.03   0.01     0.00   0.00   0.11
   4   6     0.00  -0.01  -0.04     0.02  -0.04   0.01     0.00   0.00   0.05
   5   6    -0.00  -0.01  -0.03     0.00  -0.03   0.01     0.00   0.00  -0.00
   6   6    -0.00  -0.01  -0.03    -0.02  -0.04   0.01    -0.00  -0.00  -0.06
   7   6    -0.01  -0.01  -0.01    -0.04  -0.03   0.01    -0.00  -0.00  -0.11
   8   6    -0.01  -0.01  -0.01    -0.05  -0.04   0.01    -0.00  -0.00  -0.15
   9   6    -0.01  -0.02  -0.04    -0.04  -0.06   0.02    -0.00   0.00  -0.12
  10   7    -0.01  -0.02  -0.05    -0.02  -0.06   0.02    -0.00   0.00  -0.07
  11   6    -0.01  -0.02  -0.05    -0.05  -0.08   0.02    -0.00   0.00  -0.15
  12   6    -0.01  -0.03  -0.09    -0.04  -0.10   0.03    -0.00  -0.00  -0.13
  13   6    -0.01  -0.03  -0.12    -0.05  -0.12   0.03    -0.00  -0.00  -0.16
  14   6    -0.01  -0.04  -0.17    -0.04  -0.13   0.04    -0.00  -0.00  -0.12
  15   6    -0.00  -0.03  -0.16    -0.02  -0.12   0.03    -0.00  -0.00  -0.06
  16   7    -0.01  -0.03  -0.12    -0.02  -0.11   0.03    -0.00  -0.00  -0.07
  17   6     0.00  -0.04  -0.19     0.00  -0.13   0.04     0.00  -0.00  -0.01
  18   6     0.01  -0.03  -0.16     0.02  -0.12   0.04     0.00  -0.00   0.05
  19   6     0.01  -0.04  -0.18     0.04  -0.13   0.04     0.00  -0.00   0.11
  20   6     0.02  -0.03  -0.14     0.05  -0.12   0.04     0.00  -0.00   0.15
  21   6     0.01  -0.03  -0.10     0.04  -0.10   0.03     0.00  -0.00   0.12
  22   7     0.01  -0.03  -0.13     0.02  -0.11   0.03     0.00  -0.00   0.06
  23   6     0.01  -0.02  -0.07     0.05  -0.08   0.03     0.00   0.00   0.15
  24   6     0.01  -0.02  -0.05     0.04  -0.06   0.02     0.00   0.00   0.12
  25   7     0.01  -0.02  -0.06     0.02  -0.06   0.02     0.00   0.00   0.07
  26   1     0.00  -0.00  -0.00     0.02  -0.01   0.00     0.00   0.00   0.06
  27   1     0.00  -0.00  -0.00     0.01  -0.00   0.00     0.00   0.00   0.03
  28   1    -0.00  -0.00   0.00    -0.01  -0.00   0.00    -0.00  -0.00  -0.03
  29   1    -0.01  -0.00   0.00    -0.02  -0.01   0.00    -0.00  -0.00  -0.06
  30   1    -0.01  -0.01  -0.01    -0.02  -0.02   0.01    -0.00   0.00  -0.06
  31   1    -0.01  -0.01  -0.03    -0.02  -0.03   0.01    -0.00   0.00  -0.06
  32   1    -0.00  -0.01  -0.06    -0.01  -0.04   0.01    -0.00  -0.00  -0.04
  33   1     0.00  -0.01  -0.06     0.00  -0.04   0.01     0.00  -0.00  -0.00
  34   1     0.00  -0.01  -0.06     0.01  -0.04   0.01     0.00  -0.00   0.03
  35   1     0.01  -0.01  -0.04     0.02  -0.03   0.01     0.00  -0.00   0.06
  36   1     0.01  -0.01  -0.02     0.02  -0.02   0.01     0.00   0.00   0.06
  37  28     0.00  -0.05  -0.18     0.00  -0.18   0.05    -0.00  -0.00  -0.01
  38   6     0.02  -0.01  -0.06     0.05  -0.04   0.01     0.00  -0.03   0.19
  39   6     0.01  -0.01  -0.05     0.04  -0.03   0.01     0.00  -0.02   0.14
  40   6     0.01  -0.01  -0.05     0.02  -0.04   0.01     0.00  -0.01   0.06
  41   6     0.00  -0.01  -0.04    -0.00  -0.03   0.01     0.00  -0.00  -0.00
  42   6    -0.01  -0.01  -0.05    -0.02  -0.04   0.01    -0.00   0.01  -0.07
  43   6    -0.01  -0.01  -0.04    -0.04  -0.03   0.01    -0.00   0.02  -0.15
  44   6    -0.02  -0.01  -0.04    -0.05  -0.04   0.01    -0.00   0.03  -0.20
  45   6    -0.01  -0.02  -0.06    -0.04  -0.06   0.01    -0.00   0.03  -0.16
  46   7    -0.01  -0.02  -0.07    -0.02  -0.06   0.02    -0.00   0.01  -0.09
  47   6    -0.02  -0.02  -0.07    -0.05  -0.08   0.02    -0.00   0.03  -0.20
  48   6    -0.01  -0.03  -0.09    -0.04  -0.10   0.03    -0.00   0.03  -0.16
  49   6    -0.02  -0.03  -0.10    -0.05  -0.12   0.03    -0.00   0.04  -0.20
  50   6    -0.01  -0.03  -0.11    -0.03  -0.13   0.04    -0.00   0.03  -0.15
  51   6    -0.01  -0.03  -0.11    -0.02  -0.12   0.04    -0.00   0.01  -0.07
  52   7    -0.01  -0.03  -0.10    -0.02  -0.11   0.03    -0.00   0.02  -0.09
  53   6    -0.00  -0.03  -0.12     0.00  -0.13   0.04     0.00   0.00  -0.00
  54   6     0.01  -0.03  -0.11     0.02  -0.12   0.04     0.00  -0.01   0.07
  55   6     0.01  -0.03  -0.12     0.04  -0.13   0.04     0.00  -0.03   0.14
  56   6     0.02  -0.03  -0.11     0.05  -0.12   0.04     0.00  -0.04   0.19
  57   6     0.01  -0.02  -0.10     0.04  -0.10   0.03     0.00  -0.03   0.15
  58   7     0.01  -0.03  -0.10     0.02  -0.11   0.03     0.00  -0.02   0.08
  59   6     0.02  -0.02  -0.08     0.05  -0.08   0.02     0.00  -0.04   0.19
  60   6     0.01  -0.02  -0.07     0.04  -0.06   0.02     0.00  -0.03   0.15
  61   7     0.01  -0.02  -0.07     0.02  -0.06   0.02     0.00  -0.02   0.08
  62   1     0.01  -0.00  -0.02     0.02  -0.01   0.00     0.00  -0.01   0.07
  63   1     0.00  -0.00  -0.01     0.01  -0.00   0.00     0.00  -0.01   0.04
  64   1    -0.00  -0.00  -0.01    -0.01  -0.00   0.00    -0.00   0.01  -0.04
  65   1    -0.01  -0.00  -0.01    -0.02  -0.01   0.00    -0.00   0.01  -0.08
  66   1    -0.01  -0.01  -0.02    -0.02  -0.02   0.01    -0.00   0.01  -0.08
  67   1    -0.01  -0.01  -0.03    -0.02  -0.04   0.01    -0.00   0.01  -0.08
  68   1    -0.00  -0.01  -0.04    -0.01  -0.04   0.01    -0.00   0.01  -0.04
  69   1    -0.00  -0.01  -0.04     0.00  -0.04   0.01     0.00   0.00   0.00
  70   1     0.00  -0.01  -0.04     0.01  -0.04   0.01     0.00  -0.01   0.04
  71   1     0.01  -0.01  -0.03     0.02  -0.04   0.01     0.00  -0.01   0.07
  72   1     0.01  -0.01  -0.02     0.02  -0.02   0.01     0.00  -0.01   0.07
  73   6    -0.00  -0.00  -0.02    -0.00  -0.01   0.00     0.00   0.00  -0.00
  74   6    -0.00   0.00  -0.00    -0.00   0.01   0.00     0.00   0.00  -0.00
  75   6    -0.00   0.01   0.01    -0.00   0.02  -0.00     0.00   0.00  -0.00
  76   6    -0.00   0.01   0.03    -0.00   0.04  -0.01     0.00   0.00  -0.00
  77   6    -0.00   0.03   0.08    -0.00   0.10  -0.03    -0.00   0.00   0.00
  78   6    -0.00   0.03   0.07    -0.00   0.11  -0.03    -0.00   0.00   0.00
  79   6    -0.00   0.03   0.07    -0.00   0.11  -0.03    -0.00  -0.00   0.00
  80   6    -0.00   0.02   0.07    -0.00   0.11  -0.03    -0.00  -0.00   0.00
  81   6    -0.00   0.01   0.01    -0.00   0.04  -0.01     0.00  -0.00   0.00
  82   6    -0.00   0.00   0.00    -0.00   0.03  -0.00     0.00  -0.00  -0.00
  83   6    -0.00  -0.00  -0.01    -0.00   0.01  -0.00     0.00  -0.00  -0.00
  84   6     0.00  -0.01  -0.03    -0.00  -0.01   0.00     0.00  -0.00  -0.00
  85  28    -0.00   0.05   0.20    -0.00   0.16  -0.05     0.00   0.00   0.00
  86   6     0.00   0.02   0.09     0.03   0.05  -0.02    -0.00   0.01   0.11
  87   6     0.00   0.02   0.06     0.02   0.05  -0.02    -0.00   0.01   0.08
  88   6     0.00   0.02   0.06     0.01   0.05  -0.02    -0.00   0.01   0.04
  89   6    -0.00   0.01   0.05    -0.00   0.05  -0.01     0.00   0.00   0.00
  90   6    -0.00   0.02   0.06    -0.01   0.05  -0.02     0.00  -0.00  -0.04
  91   6    -0.00   0.02   0.07    -0.02   0.05  -0.02     0.00  -0.01  -0.08
  92   6    -0.00   0.02   0.09    -0.03   0.05  -0.02     0.00  -0.01  -0.10
  93   6    -0.00   0.02   0.10    -0.02   0.06  -0.02     0.00  -0.01  -0.08
  94   7    -0.00   0.02   0.09    -0.01   0.07  -0.02     0.00  -0.00  -0.04
  95   6    -0.00   0.03   0.11    -0.03   0.07  -0.03     0.00  -0.01  -0.10
  96   6    -0.00   0.03   0.11    -0.02   0.08  -0.03     0.00  -0.01  -0.08
  97   6    -0.00   0.03   0.11    -0.03   0.09  -0.03     0.00  -0.01  -0.09
  98   6    -0.00   0.03   0.10    -0.02   0.10  -0.03     0.00  -0.01  -0.07
  99   6    -0.00   0.03   0.09    -0.01   0.09  -0.03     0.00  -0.00  -0.03
 100   7    -0.00   0.03   0.10    -0.01   0.09  -0.03     0.00  -0.00  -0.04
 101   6    -0.00   0.03   0.08    -0.00   0.10  -0.03    -0.00   0.00   0.00
 102   6     0.00   0.03   0.09     0.01   0.09  -0.03    -0.00   0.00   0.03
 103   6     0.00   0.03   0.10     0.02   0.10  -0.03    -0.00   0.01   0.07
 104   6     0.00   0.03   0.11     0.02   0.09  -0.03    -0.00   0.01   0.10
 105   6     0.00   0.03   0.11     0.02   0.08  -0.03    -0.00   0.01   0.08
 106   7     0.00   0.03   0.10     0.01   0.09  -0.03    -0.00   0.01   0.04
 107   6     0.00   0.03   0.11     0.02   0.07  -0.03    -0.00   0.01   0.10
 108   6     0.00   0.02   0.10     0.02   0.06  -0.02    -0.00   0.01   0.08
 109   7     0.00   0.02   0.09     0.01   0.07  -0.02    -0.00   0.01   0.05
 110   1     0.00   0.01   0.03     0.01   0.02  -0.01    -0.00   0.01   0.04
 111   1     0.00   0.00   0.01     0.01   0.01  -0.00    -0.00   0.00   0.02
 112   1    -0.00   0.00   0.02    -0.01   0.01  -0.00     0.00  -0.00  -0.02
 113   1    -0.00   0.01   0.03    -0.01   0.02  -0.01     0.00  -0.00  -0.04
 114   1    -0.00   0.01   0.04    -0.01   0.02  -0.01     0.00  -0.00  -0.04
 115   1    -0.00   0.01   0.04    -0.01   0.03  -0.01     0.00  -0.00  -0.04
 116   1    -0.00   0.01   0.03    -0.01   0.03  -0.01     0.00  -0.00  -0.02
 117   1     0.00   0.01   0.03     0.01   0.03  -0.01    -0.00   0.00   0.02
 118   1     0.00   0.01   0.03     0.01   0.03  -0.01    -0.00   0.00   0.04
 119   1     0.00   0.01   0.03     0.01   0.02  -0.01    -0.00   0.00   0.04
 120  28    -0.00   0.04   0.15    -0.00   0.16  -0.04    -0.00  -0.00   0.01
 121   6    -0.00   0.02   0.09    -0.02   0.09  -0.03    -0.00  -0.01  -0.04
 122   6    -0.00   0.02   0.08    -0.02   0.10  -0.03    -0.00  -0.00  -0.03
 123   6    -0.00   0.02   0.07    -0.01   0.09  -0.02    -0.00  -0.00  -0.01
 124   6    -0.00   0.02   0.07    -0.00   0.10  -0.02    -0.00  -0.00   0.00
 125   6     0.00   0.02   0.07     0.01   0.09  -0.02     0.00   0.00   0.02
 126   6     0.00   0.02   0.08     0.02   0.10  -0.02     0.00   0.00   0.04
 127   6     0.00   0.02   0.08     0.02   0.09  -0.02     0.00   0.01   0.06
 128   6     0.00   0.02   0.08     0.02   0.08  -0.02     0.00   0.00   0.05
 129   7     0.00   0.02   0.08     0.01   0.09  -0.02     0.00   0.00   0.03
 130   6     0.00   0.02   0.08     0.02   0.07  -0.02     0.00   0.01   0.06
 131   6     0.00   0.02   0.06     0.02   0.06  -0.02     0.00   0.00   0.05
 132   6     0.00   0.01   0.05     0.02   0.06  -0.01     0.00   0.01   0.07
 133   6     0.00   0.01   0.04     0.02   0.05  -0.01     0.00   0.00   0.05
 134   6     0.00   0.01   0.04     0.01   0.05  -0.01     0.00   0.00   0.03
 135   7     0.00   0.02   0.06     0.01   0.07  -0.02     0.00   0.00   0.03
 136   6    -0.00   0.01   0.03    -0.00   0.05  -0.01    -0.00  -0.00   0.00
 137   6    -0.00   0.01   0.04    -0.01   0.05  -0.01    -0.00  -0.00  -0.02
 138   6    -0.00   0.01   0.05    -0.02   0.05  -0.01    -0.00  -0.01  -0.04
 139   6    -0.01   0.01   0.06    -0.03   0.06  -0.02    -0.00  -0.01  -0.06
 140   6    -0.00   0.02   0.07    -0.02   0.06  -0.02    -0.00  -0.01  -0.04
 141   7    -0.00   0.02   0.06    -0.01   0.07  -0.02    -0.00  -0.00  -0.02
 142   6    -0.00   0.02   0.09    -0.02   0.07  -0.02    -0.00  -0.01  -0.05
 143   6    -0.00   0.02   0.08    -0.02   0.08  -0.02    -0.00  -0.00  -0.03
 144   7    -0.00   0.02   0.08    -0.01   0.09  -0.02    -0.00  -0.00  -0.02
 145   1    -0.00   0.01   0.03    -0.01   0.03  -0.01    -0.00  -0.00  -0.02
 146   1    -0.00   0.01   0.02    -0.01   0.03  -0.01    -0.00  -0.00  -0.01
 147   1     0.00   0.01   0.02     0.01   0.03  -0.01     0.00   0.00   0.01
 148   1     0.00   0.01   0.03     0.01   0.03  -0.01     0.00   0.00   0.02
 149   1     0.00   0.01   0.02     0.01   0.02  -0.01     0.00   0.00   0.02
 150   1     0.00   0.00   0.02     0.01   0.02  -0.00     0.00   0.00   0.03
 151   1     0.00   0.00   0.01     0.01   0.01  -0.00     0.00   0.00   0.02
 152   1    -0.00   0.00   0.01    -0.01   0.01  -0.00    -0.00  -0.00  -0.01
 153   1    -0.00   0.00   0.02    -0.01   0.02  -0.00    -0.00  -0.00  -0.02
 154   1    -0.00   0.01   0.03    -0.01   0.02  -0.01    -0.00  -0.00  -0.02
                      7                      8                      9
                        a                      a                      a 
 Frequencies --     4.1759                 5.2556                 5.4541
 Red. masses --    11.2324                14.8804                11.2510
 Frc consts  --     0.0000                 0.0000                 0.0000
 IR Inten    --     0.1098                 2.1508                 0.0328
 Raman Activ --     0.0000                 0.0000                 0.0000
 Depolar     --     0.0000                 0.0000                 0.0000
 Atom AN      X      Y      Z        X      Y      Z        X      Y      Z
   1  28     0.00  -0.00  -0.00     0.00  -0.06   0.01     0.00  -0.01   0.00
   2   6     0.00   0.00   0.15     0.09   0.04   0.01     0.01   0.00  -0.10
   3   6     0.00   0.00   0.10     0.06   0.06   0.00     0.01   0.00  -0.07
   4   6     0.00   0.00   0.05     0.03   0.04   0.00     0.00   0.00  -0.04
   5   6     0.00   0.00   0.00     0.00   0.06  -0.00     0.00   0.00  -0.00
   6   6    -0.00   0.00  -0.05    -0.03   0.04  -0.00    -0.00   0.00   0.03
   7   6    -0.00   0.00  -0.10    -0.06   0.06  -0.00    -0.00   0.01   0.07
   8   6    -0.00   0.00  -0.14    -0.09   0.03   0.00    -0.01   0.00   0.10
   9   6    -0.00   0.00  -0.12    -0.07   0.00   0.00    -0.01  -0.00   0.08
  10   7    -0.00   0.00  -0.06    -0.04   0.01   0.00    -0.00   0.00   0.05
  11   6    -0.00   0.00  -0.15    -0.09  -0.03   0.01    -0.01  -0.00   0.11
  12   6    -0.00   0.00  -0.12    -0.07  -0.06   0.01    -0.01  -0.01   0.09
  13   6    -0.00   0.00  -0.16    -0.09  -0.09   0.01    -0.01  -0.01   0.12
  14   6    -0.00  -0.00  -0.12    -0.06  -0.12   0.01    -0.00  -0.01   0.09
  15   6    -0.00  -0.00  -0.06    -0.03  -0.10   0.01    -0.00  -0.01   0.04
  16   7    -0.00  -0.00  -0.07    -0.04  -0.07   0.01    -0.00  -0.01   0.05
  17   6     0.00  -0.00  -0.00     0.00  -0.12   0.01     0.00  -0.01   0.00
  18   6     0.00  -0.00   0.05     0.03  -0.10   0.01     0.00  -0.01  -0.04
  19   6     0.00  -0.00   0.11     0.07  -0.12   0.01     0.01  -0.01  -0.08
  20   6     0.00  -0.00   0.15     0.09  -0.09   0.02     0.01  -0.01  -0.11
  21   6     0.00  -0.00   0.12     0.07  -0.06   0.01     0.01  -0.00  -0.09
  22   7     0.00  -0.00   0.06     0.04  -0.07   0.01     0.00  -0.00  -0.05
  23   6     0.00   0.00   0.15     0.09  -0.03   0.01     0.01  -0.00  -0.11
  24   6     0.00   0.00   0.12     0.07   0.00   0.01     0.01  -0.00  -0.08
  25   7     0.00   0.00   0.06     0.04   0.01   0.01     0.00  -0.00  -0.04
  26   1     0.00   0.00   0.06     0.03   0.01   0.00     0.00   0.00  -0.04
  27   1     0.00   0.00   0.03     0.02   0.03   0.00     0.00   0.00  -0.02
  28   1    -0.00  -0.00  -0.03    -0.02   0.03  -0.00    -0.00   0.00   0.02
  29   1    -0.00   0.00  -0.05    -0.03   0.01   0.00    -0.00   0.00   0.04
  30   1    -0.00   0.00  -0.06    -0.03  -0.01   0.00    -0.00  -0.00   0.04
  31   1    -0.00   0.00  -0.06    -0.03  -0.03   0.00    -0.00  -0.00   0.04
  32   1    -0.00  -0.00  -0.04    -0.02  -0.04   0.00    -0.00  -0.00   0.03
  33   1     0.00  -0.00  -0.00     0.00  -0.04   0.00     0.00  -0.00   0.00
  34   1     0.00  -0.00   0.03     0.02  -0.04   0.00     0.00  -0.00  -0.03
  35   1     0.00  -0.00   0.06     0.03  -0.03   0.01     0.00  -0.00  -0.04
  36   1     0.00   0.00   0.06     0.03  -0.01   0.01     0.00  -0.00  -0.04
  37  28    -0.00   0.00  -0.00    -0.00   0.06  -0.01    -0.00   0.00  -0.00
  38   6    -0.00   0.02  -0.11    -0.09  -0.03  -0.01    -0.01   0.01  -0.05
  39   6    -0.00   0.01  -0.08    -0.06  -0.06  -0.01    -0.00   0.00  -0.04
  40   6    -0.00   0.01  -0.04    -0.03  -0.04  -0.00    -0.00  -0.00  -0.02
  41   6    -0.00  -0.00  -0.00    -0.00  -0.06  -0.00    -0.00  -0.00   0.00
  42   6     0.00  -0.01   0.04     0.03  -0.04  -0.01     0.00  -0.01   0.02
  43   6     0.00  -0.01   0.08     0.06  -0.06  -0.01     0.00  -0.01   0.04
  44   6     0.00  -0.02   0.11     0.08  -0.03  -0.02     0.01  -0.01   0.05
  45   6     0.00  -0.01   0.09     0.07  -0.00  -0.02     0.00  -0.01   0.04
  46   7     0.00  -0.01   0.05     0.04  -0.01  -0.01     0.00  -0.00   0.02
  47   6     0.00  -0.02   0.12     0.08   0.03  -0.02     0.01  -0.01   0.05
  48   6     0.00  -0.02   0.10     0.07   0.06  -0.01     0.00  -0.00   0.05
  49   6     0.00  -0.02   0.12     0.08   0.09  -0.01     0.01  -0.00   0.06
  50   6     0.00  -0.02   0.09     0.06   0.11  -0.00     0.00  -0.00   0.04
  51   6     0.00  -0.01   0.04     0.03   0.10   0.00     0.00   0.00   0.02
  52   7     0.00  -0.01   0.05     0.04   0.07  -0.01     0.00   0.00   0.03
  53   6    -0.00   0.00  -0.00    -0.00   0.11   0.01    -0.00   0.01   0.00
  54   6    -0.00   0.01  -0.05    -0.03   0.10   0.00    -0.00   0.01  -0.02
  55   6    -0.00   0.02  -0.09    -0.06   0.11   0.00    -0.00   0.02  -0.05
  56   6    -0.00   0.02  -0.13    -0.09   0.09  -0.00    -0.01   0.02  -0.06
  57   6    -0.00   0.02  -0.10    -0.07   0.06  -0.01    -0.01   0.01  -0.05
  58   7    -0.00   0.01  -0.05    -0.04   0.07  -0.00    -0.00   0.01  -0.03
  59   6    -0.00   0.02  -0.12    -0.09   0.03  -0.01    -0.01   0.01  -0.06
  60   6    -0.00   0.02  -0.09    -0.07  -0.00  -0.01    -0.01   0.01  -0.04
  61   7    -0.00   0.01  -0.05    -0.04  -0.01  -0.01    -0.00   0.00  -0.02
  62   1    -0.00   0.01  -0.04    -0.03  -0.01  -0.00    -0.00   0.00  -0.02
  63   1    -0.00   0.00  -0.02    -0.02  -0.02  -0.00    -0.00  -0.00  -0.01
  64   1     0.00  -0.00   0.02     0.02  -0.02  -0.00     0.00  -0.00   0.01
  65   1     0.00  -0.01   0.04     0.03  -0.01  -0.01     0.00  -0.00   0.02
  66   1     0.00  -0.01   0.04     0.03   0.01  -0.01     0.00  -0.00   0.02
  67   1     0.00  -0.01   0.05     0.03   0.03  -0.00     0.00  -0.00   0.02
  68   1     0.00  -0.01   0.03     0.02   0.04   0.00     0.00   0.00   0.01
  69   1    -0.00  -0.00  -0.00    -0.00   0.04   0.00    -0.00   0.00   0.00
  70   1    -0.00   0.01  -0.03    -0.02   0.04   0.00    -0.00   0.01  -0.01
  71   1    -0.00   0.01  -0.05    -0.03   0.03  -0.00    -0.00   0.01  -0.02
  72   1    -0.00   0.01  -0.05    -0.03   0.01  -0.00    -0.00   0.00  -0.02
  73   6    -0.00   0.00   0.00     0.00   0.09  -0.01     0.00   0.01  -0.00
  74   6    -0.00   0.00   0.00     0.00   0.11  -0.01     0.00   0.01  -0.00
  75   6    -0.00   0.00   0.00     0.00   0.12  -0.01     0.00   0.01  -0.00
  76   6    -0.00   0.00   0.00     0.00   0.13  -0.01     0.00   0.01  -0.00
  77   6    -0.00  -0.00   0.00     0.00   0.03  -0.01    -0.00   0.00  -0.00
  78   6    -0.00  -0.00   0.00     0.00   0.01  -0.00    -0.00   0.00  -0.00
  79   6    -0.00  -0.00   0.00    -0.00  -0.01   0.00    -0.00  -0.00  -0.00
  80   6    -0.00  -0.00   0.00    -0.00  -0.03   0.01    -0.00  -0.00  -0.00
  81   6     0.00  -0.00  -0.00    -0.00  -0.12   0.01    -0.00  -0.01   0.00
  82   6     0.00  -0.00  -0.00    -0.00  -0.12   0.01    -0.00  -0.01   0.00
  83   6    -0.00  -0.00  -0.00    -0.00  -0.11   0.00    -0.00  -0.01   0.00
  84   6    -0.00  -0.00  -0.00    -0.00  -0.09  -0.00    -0.00  -0.01   0.00
  85  28    -0.00   0.00   0.01     0.00   0.17  -0.03     0.00   0.01  -0.01
  86   6    -0.00  -0.01  -0.08    -0.04   0.10  -0.03    -0.00   0.03   0.20
  87   6    -0.00  -0.01  -0.05    -0.03   0.11  -0.03    -0.00   0.03   0.14
  88   6    -0.00  -0.00  -0.03    -0.01   0.11  -0.02    -0.00   0.02   0.07
  89   6    -0.00   0.00   0.00     0.00   0.11  -0.01     0.00   0.01  -0.00
  90   6     0.00   0.00   0.03     0.01   0.11  -0.01     0.00  -0.00  -0.07
  91   6     0.00   0.01   0.06     0.03   0.12  -0.00     0.00  -0.01  -0.15
  92   6     0.00   0.01   0.08     0.04   0.11  -0.00     0.00  -0.02  -0.20
  93   6     0.00   0.01   0.07     0.03   0.09  -0.00     0.00  -0.01  -0.16
  94   7     0.00   0.01   0.04     0.02   0.10  -0.01     0.00  -0.00  -0.09
  95   6     0.00   0.01   0.09     0.04   0.08  -0.00     0.00  -0.02  -0.20
  96   6     0.00   0.01   0.08     0.03   0.07  -0.00     0.00  -0.01  -0.16
  97   6     0.00   0.01   0.10     0.04   0.05   0.00     0.00  -0.02  -0.20
  98   6     0.00   0.01   0.07     0.03   0.04   0.00     0.00  -0.01  -0.14
  99   6     0.00   0.00   0.04     0.01   0.05  -0.00     0.00  -0.00  -0.07
 100   7     0.00   0.01   0.04     0.02   0.07  -0.01     0.00  -0.00  -0.09
 101   6    -0.00  -0.00   0.00     0.00   0.04  -0.01    -0.00   0.00  -0.00
 102   6    -0.00  -0.00  -0.03    -0.01   0.05  -0.02    -0.00   0.01   0.06
 103   6    -0.00  -0.01  -0.07    -0.03   0.04  -0.02    -0.00   0.02   0.14
 104   6    -0.00  -0.01  -0.09    -0.04   0.05  -0.03    -0.00   0.03   0.19
 105   6    -0.00  -0.01  -0.07    -0.03   0.06  -0.03    -0.00   0.02   0.16
 106   7    -0.00  -0.00  -0.04    -0.02   0.07  -0.02    -0.00   0.01   0.08
 107   6    -0.00  -0.01  -0.08    -0.04   0.08  -0.03    -0.00   0.03   0.19
 108   6    -0.00  -0.01  -0.06    -0.03   0.09  -0.03    -0.00   0.03   0.16
 109   7    -0.00  -0.00  -0.03    -0.02   0.10  -0.02    -0.00   0.02   0.08
 110   1    -0.00  -0.00  -0.03    -0.01   0.03  -0.01    -0.00   0.01   0.08
 111   1    -0.00  -0.00  -0.02    -0.01   0.04  -0.01    -0.00   0.01   0.04
 112   1     0.00   0.00   0.02     0.01   0.04  -0.00     0.00  -0.00  -0.04
 113   1     0.00   0.00   0.03     0.01   0.03   0.00     0.00  -0.01  -0.08
 114   1     0.00   0.00   0.03     0.01   0.02   0.00     0.00  -0.01  -0.08
 115   1     0.00   0.00   0.04     0.01   0.02   0.00     0.00  -0.01  -0.08
 116   1     0.00   0.00   0.02     0.01   0.01   0.00     0.00  -0.00  -0.04
 117   1    -0.00  -0.00  -0.02    -0.01   0.01  -0.01    -0.00   0.01   0.04
 118   1    -0.00  -0.00  -0.04    -0.01   0.01  -0.01    -0.00   0.01   0.07
 119   1    -0.00  -0.00  -0.03    -0.01   0.02  -0.01    -0.00   0.01   0.07
 120  28     0.00  -0.00  -0.00    -0.00  -0.17   0.03     0.00  -0.01   0.01
 121   6    -0.00  -0.02  -0.18    -0.04  -0.05   0.03    -0.00  -0.02  -0.14
 122   6    -0.00  -0.02  -0.13    -0.03  -0.04   0.02    -0.00  -0.02  -0.10
 123   6    -0.00  -0.01  -0.07    -0.01  -0.05   0.02    -0.00  -0.01  -0.05
 124   6    -0.00  -0.00  -0.00    -0.00  -0.04   0.01    -0.00  -0.00  -0.00
 125   6    -0.00   0.01   0.07     0.01  -0.05   0.01     0.00   0.00   0.05
 126   6    -0.00   0.02   0.13     0.03  -0.04   0.00     0.00   0.01   0.10
 127   6     0.00   0.02   0.18     0.04  -0.05   0.00     0.00   0.01   0.15
 128   6     0.00   0.02   0.14     0.03  -0.07   0.01     0.00   0.01   0.12
 129   7     0.00   0.01   0.08     0.02  -0.07   0.01     0.00   0.00   0.06
 130   6     0.00   0.02   0.18     0.03  -0.08   0.01     0.00   0.01   0.15
 131   6     0.00   0.01   0.14     0.03  -0.09   0.01     0.00   0.01   0.13
 132   6     0.00   0.02   0.17     0.03  -0.10   0.00     0.00   0.01   0.16
 133   6     0.00   0.01   0.12     0.02  -0.11   0.00     0.00   0.00   0.12
 134   6     0.00   0.00   0.06     0.01  -0.11   0.01     0.00  -0.00   0.06
 135   7     0.00   0.01   0.08     0.01  -0.10   0.01     0.00  -0.00   0.07
 136   6     0.00  -0.00  -0.00    -0.00  -0.11   0.01    -0.00  -0.01   0.00
 137   6     0.00  -0.01  -0.06    -0.01  -0.11   0.02    -0.00  -0.01  -0.05
 138   6     0.00  -0.01  -0.13    -0.03  -0.11   0.02    -0.00  -0.02  -0.11
 139   6     0.00  -0.02  -0.18    -0.04  -0.10   0.03    -0.00  -0.02  -0.15
 140   6     0.00  -0.02  -0.14    -0.03  -0.09   0.03    -0.00  -0.02  -0.12
 141   7     0.00  -0.01  -0.08    -0.02  -0.10   0.02    -0.00  -0.01  -0.06
 142   6     0.00  -0.02  -0.18    -0.04  -0.08   0.03    -0.00  -0.02  -0.14
 143   6    -0.00  -0.02  -0.15    -0.03  -0.06   0.03    -0.00  -0.02  -0.11
 144   7     0.00  -0.01  -0.08    -0.02  -0.07   0.02    -0.00  -0.01  -0.06
 145   1    -0.00  -0.01  -0.07    -0.01  -0.01   0.01    -0.00  -0.01  -0.05
 146   1    -0.00  -0.01  -0.04    -0.01  -0.01   0.01    -0.00  -0.00  -0.03
 147   1    -0.00   0.01   0.04     0.01  -0.01   0.00     0.00   0.00   0.03
 148   1    -0.00   0.01   0.07     0.01  -0.02   0.00     0.00   0.01   0.06
 149   1     0.00   0.01   0.07     0.01  -0.02   0.00     0.00   0.00   0.06
 150   1     0.00   0.01   0.07     0.01  -0.03   0.00     0.00   0.00   0.06
 151   1     0.00   0.00   0.04     0.01  -0.04   0.00     0.00   0.00   0.04
 152   1     0.00  -0.00  -0.04    -0.01  -0.04   0.01    -0.00  -0.01  -0.03
 153   1     0.00  -0.01  -0.07    -0.01  -0.03   0.01    -0.00  -0.01  -0.06
 154   1     0.00  -0.01  -0.07    -0.01  -0.02   0.01    -0.00  -0.01  -0.05
                     10                     11                     12
                        a                      a                      a 
 Frequencies --     9.3524                12.5301                15.1089
 Red. masses --    11.5437                11.6904                11.7978
 Frc consts  --     0.0000                 0.0000                 0.0000
 IR Inten    --     0.0107                11.1569                 7.6995
 Raman Activ --     0.0000                 0.0000                 0.0000
 Depolar     --     0.0000                 0.0000                 0.0000
 Atom AN      X      Y      Z        X      Y      Z        X      Y      Z
   1  28    -0.00  -0.01  -0.00    -0.00   0.00   0.02     0.00   0.01  -0.03
   2   6    -0.08  -0.07   0.00     0.00   0.00   0.01     0.02   0.02  -0.03
   3   6    -0.06  -0.09   0.00     0.00   0.01  -0.03     0.01   0.02   0.05
   4   6    -0.03  -0.07   0.00     0.00   0.00  -0.03     0.01   0.02   0.07
   5   6     0.00  -0.09   0.00    -0.00   0.01  -0.05     0.00   0.02   0.11
   6   6     0.03  -0.07   0.00    -0.00   0.00  -0.03    -0.01   0.02   0.06
   7   6     0.06  -0.09   0.00    -0.00   0.01  -0.03    -0.01   0.02   0.05
   8   6     0.08  -0.07  -0.00    -0.01   0.00   0.02    -0.02   0.02  -0.03
   9   6     0.07  -0.03  -0.00    -0.00   0.00   0.03    -0.01   0.01  -0.06
  10   7     0.04  -0.04   0.00    -0.00   0.00   0.00    -0.01   0.01  -0.00
  11   6     0.08  -0.00  -0.00    -0.00  -0.00   0.05    -0.02   0.01  -0.11
  12   6     0.07   0.03  -0.00    -0.00  -0.00   0.04    -0.01  -0.00  -0.08
  13   6     0.08   0.06  -0.00    -0.00  -0.00   0.04    -0.02  -0.01  -0.08
  14   6     0.06   0.08  -0.00    -0.00  -0.00   0.01    -0.01  -0.01  -0.02
  15   6     0.03   0.06  -0.00    -0.00  -0.00  -0.00    -0.01  -0.01   0.01
  16   7     0.04   0.03  -0.00    -0.00  -0.00   0.02    -0.01  -0.00  -0.03
  17   6    -0.00   0.08  -0.00     0.00  -0.00  -0.02    -0.00  -0.01   0.04
  18   6    -0.03   0.06  -0.00     0.00  -0.00  -0.00     0.01  -0.01   0.01
  19   6    -0.06   0.08  -0.00     0.00  -0.00   0.01     0.01  -0.01  -0.02
  20   6    -0.09   0.06   0.00     0.00  -0.00   0.04     0.02  -0.01  -0.08
  21   6    -0.07   0.02   0.00     0.00  -0.00   0.04     0.02  -0.00  -0.08
  22   7    -0.04   0.03  -0.00     0.00  -0.00   0.02     0.01  -0.00  -0.03
  23   6    -0.08  -0.01   0.00     0.00   0.00   0.05     0.02   0.00  -0.11
  24   6    -0.07  -0.04   0.00     0.00   0.00   0.03     0.02   0.01  -0.06
  25   7    -0.04  -0.04   0.00     0.00   0.00   0.00     0.01   0.01  -0.00
  26   1    -0.03  -0.02   0.00     0.00   0.00   0.01     0.01   0.00  -0.02
  27   1    -0.02  -0.03   0.00     0.00   0.00  -0.01     0.00   0.01   0.03
  28   1     0.02  -0.03   0.00    -0.00   0.00  -0.01    -0.00   0.01   0.03
  29   1     0.03  -0.02  -0.00    -0.00   0.00   0.01    -0.01   0.01  -0.02
  30   1     0.03  -0.00  -0.00    -0.00  -0.00   0.02    -0.01   0.00  -0.05
  31   1     0.03   0.02  -0.00    -0.00  -0.00   0.02    -0.01  -0.00  -0.03
  32   1     0.02   0.03  -0.00    -0.00  -0.00   0.00    -0.00  -0.01   0.00
  33   1    -0.00   0.03  -0.00     0.00  -0.00  -0.01    -0.00  -0.01   0.02
  34   1    -0.02   0.03  -0.00     0.00  -0.00   0.00     0.00  -0.01   0.00
  35   1    -0.03   0.02   0.00     0.00  -0.00   0.02     0.01  -0.00  -0.04
  36   1    -0.03  -0.00   0.00     0.00   0.00   0.02     0.01   0.00  -0.05
  37  28    -0.00  -0.01  -0.00     0.00  -0.01   0.02     0.00  -0.02   0.03
  38   6    -0.09  -0.07  -0.01    -0.01  -0.01   0.01    -0.03  -0.03   0.03
  39   6    -0.06  -0.09  -0.02    -0.00  -0.00  -0.03    -0.02  -0.02  -0.06
  40   6    -0.03  -0.08  -0.01    -0.00  -0.00  -0.04    -0.01  -0.02  -0.08
  41   6    -0.00  -0.09  -0.02     0.00   0.00  -0.06     0.00  -0.01  -0.13
  42   6     0.03  -0.07  -0.01     0.00  -0.00  -0.04     0.01  -0.02  -0.08
  43   6     0.06  -0.09  -0.01     0.00  -0.00  -0.03     0.02  -0.02  -0.06
  44   6     0.09  -0.07  -0.01     0.01  -0.01   0.01     0.03  -0.03   0.03
  45   6     0.07  -0.04  -0.00     0.01  -0.01   0.03     0.02  -0.03   0.06
  46   7     0.04  -0.04  -0.01     0.00  -0.01   0.00     0.01  -0.02  -0.00
  47   6     0.09  -0.00   0.00     0.01  -0.01   0.06     0.03  -0.03   0.12
  48   6     0.07   0.03   0.01     0.01  -0.01   0.05     0.02  -0.01   0.09
  49   6     0.09   0.06   0.01     0.01  -0.01   0.05     0.03  -0.00   0.10
  50   6     0.06   0.08   0.01     0.01   0.00   0.02     0.02   0.02   0.02
  51   6     0.03   0.07   0.01     0.00   0.00   0.00     0.01   0.02  -0.01
  52   7     0.04   0.03   0.01     0.00  -0.00   0.02     0.01  -0.00   0.04
  53   6    -0.00   0.08   0.01    -0.00   0.01  -0.02    -0.00   0.03  -0.04
  54   6    -0.03   0.06   0.01    -0.00   0.00  -0.00    -0.01   0.02  -0.01
  55   6    -0.06   0.08   0.01    -0.01   0.00   0.01    -0.02   0.02   0.02
  56   6    -0.09   0.06   0.01    -0.01  -0.01   0.05    -0.03  -0.00   0.09
  57   6    -0.07   0.03   0.00    -0.01  -0.01   0.05    -0.02  -0.01   0.09
  58   7    -0.04   0.03   0.01    -0.00  -0.00   0.02    -0.01  -0.00   0.04
  59   6    -0.09  -0.01  -0.00    -0.01  -0.01   0.06    -0.03  -0.03   0.12
  60   6    -0.07  -0.04  -0.01    -0.01  -0.01   0.03    -0.02  -0.03   0.06
  61   7    -0.04  -0.04  -0.01    -0.00  -0.01   0.00    -0.01  -0.02  -0.00
  62   1    -0.03  -0.02  -0.00    -0.00  -0.00   0.01    -0.01  -0.01   0.02
  63   1    -0.02  -0.03  -0.01    -0.00  -0.00  -0.02    -0.01  -0.01  -0.03
  64   1     0.02  -0.03  -0.01     0.00  -0.00  -0.02     0.01  -0.01  -0.03
  65   1     0.03  -0.02  -0.00     0.00  -0.00   0.01     0.01  -0.01   0.02
  66   1     0.03  -0.00   0.00     0.00  -0.00   0.02     0.01  -0.01   0.05
  67   1     0.03   0.02   0.00     0.00  -0.00   0.02     0.01  -0.00   0.04
  68   1     0.02   0.03   0.01     0.00   0.00   0.00     0.01   0.01  -0.00
  69   1    -0.00   0.03   0.00    -0.00   0.00  -0.01    -0.00   0.01  -0.02
  70   1    -0.02   0.03   0.00    -0.00   0.00   0.00    -0.01   0.01  -0.00
  71   1    -0.03   0.02   0.00    -0.00  -0.00   0.02    -0.01  -0.00   0.04
  72   1    -0.03  -0.00  -0.00    -0.00  -0.01   0.02    -0.01  -0.01   0.05
  73   6     0.00  -0.12   0.00    -0.00   0.01  -0.08     0.00   0.03   0.17
  74   6     0.00  -0.13   0.00    -0.00   0.01  -0.10     0.00   0.03   0.20
  75   6     0.00  -0.13   0.00    -0.00   0.00  -0.12     0.00   0.03   0.21
  76   6     0.00  -0.11   0.00    -0.00   0.00  -0.12     0.00   0.02   0.19
  77   6     0.00   0.13  -0.00     0.00   0.01   0.22    -0.00  -0.03  -0.05
  78   6     0.00   0.15  -0.00     0.00   0.01   0.25    -0.00  -0.02  -0.03
  79   6     0.00   0.15  -0.00     0.00   0.01   0.25    -0.00  -0.01  -0.02
  80   6     0.00   0.13  -0.00     0.00   0.01   0.22    -0.00  -0.00   0.01
  81   6    -0.00  -0.11  -0.02     0.00   0.01  -0.13     0.00   0.01  -0.21
  82   6     0.00  -0.13  -0.02     0.00   0.01  -0.13     0.00   0.00  -0.23
  83   6     0.00  -0.13  -0.02     0.00   0.01  -0.12     0.00  -0.00  -0.22
  84   6    -0.00  -0.12  -0.02     0.00   0.00  -0.09     0.00  -0.01  -0.19
  85  28     0.00   0.03   0.00    -0.00  -0.01  -0.02    -0.00  -0.03  -0.01
  86   6     0.09  -0.05   0.00    -0.01  -0.01  -0.14    -0.01  -0.00   0.06
  87   6     0.06  -0.08   0.00    -0.01  -0.01  -0.14    -0.00   0.01   0.13
  88   6     0.03  -0.06   0.00    -0.01  -0.00  -0.10    -0.00   0.00   0.11
  89   6     0.00  -0.08   0.00    -0.00  -0.00  -0.11     0.00   0.01   0.15
  90   6    -0.03  -0.06   0.00     0.00  -0.00  -0.10     0.00   0.00   0.11
  91   6    -0.06  -0.08   0.00     0.01  -0.01  -0.14     0.00   0.01   0.12
  92   6    -0.09  -0.05   0.00     0.01  -0.01  -0.14     0.01  -0.00   0.05
  93   6    -0.07  -0.02   0.00     0.01  -0.01  -0.09     0.00  -0.01   0.00
  94   7    -0.04  -0.03   0.00     0.01  -0.01  -0.08     0.00  -0.01   0.04
  95   6    -0.09   0.01   0.00     0.01  -0.01  -0.06     0.01  -0.02  -0.06
  96   6    -0.07   0.04   0.00     0.01  -0.00   0.02     0.00  -0.03  -0.08
  97   6    -0.09   0.08   0.00     0.01  -0.00   0.08     0.01  -0.03  -0.12
  98   6    -0.06   0.10  -0.00     0.01   0.00   0.15     0.00  -0.03  -0.10
  99   6    -0.03   0.08  -0.00     0.00   0.00   0.13     0.00  -0.03  -0.06
 100   7    -0.04   0.05   0.00     0.01  -0.00   0.05     0.00  -0.02  -0.06
 101   6     0.00   0.10  -0.00     0.00   0.00   0.17    -0.00  -0.03  -0.06
 102   6     0.03   0.08  -0.00    -0.00   0.00   0.13    -0.00  -0.03  -0.07
 103   6     0.06   0.10  -0.00    -0.01   0.00   0.16    -0.01  -0.03  -0.10
 104   6     0.09   0.08   0.00    -0.01  -0.00   0.09    -0.01  -0.03  -0.12
 105   6     0.07   0.04   0.00    -0.01  -0.00   0.02    -0.01  -0.03  -0.08
 106   7     0.04   0.05  -0.00    -0.00  -0.00   0.06    -0.00  -0.02  -0.06
 107   6     0.09   0.01   0.00    -0.01  -0.01  -0.05    -0.01  -0.02  -0.06
 108   6     0.07  -0.02   0.00    -0.01  -0.01  -0.09    -0.01  -0.01   0.00
 109   7     0.04  -0.03   0.00    -0.01  -0.01  -0.08    -0.00  -0.01   0.04
 110   1     0.03  -0.02   0.00    -0.01  -0.00  -0.05    -0.00  -0.00   0.01
 111   1     0.02  -0.03   0.00    -0.00  -0.00  -0.05    -0.00   0.00   0.05
 112   1    -0.02  -0.03   0.00     0.00  -0.00  -0.05     0.00   0.00   0.05
 113   1    -0.03  -0.02   0.00     0.00  -0.00  -0.05     0.00  -0.00   0.01
 114   1    -0.03   0.00   0.00     0.00  -0.00  -0.02     0.00  -0.01  -0.03
 115   1    -0.03   0.02   0.00     0.00  -0.00   0.02     0.00  -0.01  -0.04
 116   1    -0.02   0.04  -0.00     0.00   0.00   0.06     0.00  -0.01  -0.03
 117   1     0.02   0.04  -0.00    -0.00   0.00   0.06    -0.00  -0.01  -0.03
 118   1     0.03   0.02   0.00    -0.00  -0.00   0.02    -0.00  -0.01  -0.04
 119   1     0.03   0.00   0.00    -0.00  -0.00  -0.02    -0.00  -0.01  -0.03
 120  28     0.00   0.03   0.01     0.00   0.01  -0.02    -0.00   0.04   0.02
 121   6    -0.09   0.08   0.01     0.02   0.00   0.09     0.01   0.02   0.12
 122   6    -0.06   0.10   0.01     0.01   0.01   0.15     0.01   0.01   0.08
 123   6    -0.03   0.08   0.00     0.01   0.01   0.13     0.01   0.01   0.05
 124   6     0.00   0.10   0.00     0.00   0.01   0.17    -0.00   0.01   0.03
 125   6     0.03   0.08   0.00    -0.01   0.01   0.13    -0.01   0.01   0.05
 126   6     0.06   0.10   0.01    -0.01   0.01   0.16    -0.01   0.01   0.09
 127   6     0.09   0.08   0.01    -0.02   0.01   0.09    -0.01   0.02   0.12
 128   6     0.07   0.04   0.01    -0.01   0.00   0.03    -0.01   0.02   0.10
 129   7     0.04   0.05   0.01    -0.01   0.01   0.06    -0.01   0.02   0.06
 130   6     0.09   0.01   0.01    -0.01   0.00  -0.05    -0.01   0.03   0.09
 131   6     0.07  -0.02   0.00    -0.01   0.00  -0.09    -0.01   0.02   0.02
 132   6     0.09  -0.05   0.00    -0.01   0.00  -0.14    -0.01   0.02  -0.03
 133   6     0.06  -0.08  -0.01    -0.01   0.00  -0.15    -0.01   0.02  -0.12
 134   6     0.03  -0.06  -0.01    -0.00   0.00  -0.11    -0.00   0.02  -0.11
 135   7     0.04  -0.03  -0.00    -0.01   0.00  -0.08    -0.00   0.02  -0.03
 136   6     0.00  -0.08  -0.01     0.00   0.01  -0.12     0.00   0.01  -0.15
 137   6    -0.03  -0.06  -0.01     0.00   0.00  -0.11     0.00   0.02  -0.11
 138   6    -0.06  -0.08  -0.01     0.01   0.00  -0.15     0.01   0.02  -0.11
 139   6    -0.09  -0.05   0.00     0.01   0.00  -0.14     0.01   0.02  -0.02
 140   6    -0.07  -0.02   0.00     0.01   0.00  -0.09     0.01   0.02   0.02
 141   7    -0.04  -0.03  -0.00     0.01   0.00  -0.08     0.00   0.02  -0.03
 142   6    -0.09   0.01   0.01     0.01   0.00  -0.05     0.01   0.03   0.09
 143   6    -0.07   0.04   0.01     0.01   0.00   0.02     0.01   0.02   0.10
 144   7    -0.04   0.05   0.01     0.01   0.01   0.06     0.01   0.02   0.06
 145   1    -0.03   0.02   0.00     0.01   0.00   0.02     0.01   0.01   0.05
 146   1    -0.02   0.04   0.00     0.00   0.00   0.06     0.00   0.00   0.02
 147   1     0.02   0.04   0.00    -0.00   0.00   0.06    -0.00   0.00   0.03
 148   1     0.03   0.02   0.01    -0.01   0.00   0.02    -0.01   0.01   0.05
 149   1     0.03   0.00   0.00    -0.01  -0.00  -0.02    -0.01   0.01   0.04
 150   1     0.03  -0.02   0.00    -0.00  -0.00  -0.05    -0.00   0.01  -0.00
 151   1     0.02  -0.03  -0.00    -0.00   0.00  -0.05    -0.00   0.00  -0.05
 152   1    -0.02  -0.03  -0.00     0.00   0.00  -0.05     0.00   0.00  -0.05
 153   1    -0.03  -0.02   0.00     0.00  -0.00  -0.05     0.00   0.01   0.00
 154   1    -0.03   0.00   0.00     0.00  -0.00  -0.02     0.00   0.01   0.04
                     13                     14                     15
                        a                      a                      a 
 Frequencies --    17.5367                22.7536                23.5215
 Red. masses --    11.6326                10.9339                10.9322
 Frc consts  --     0.0000                 0.0000                 0.0000
 IR Inten    --     9.5498                 0.0274                 5.0581
 Raman Activ --     0.0000                 0.0000                 0.0000
 Depolar     --     0.0000                 0.0000                 0.0000
 Atom AN      X      Y      Z        X      Y      Z        X      Y      Z
   1  28     0.00   0.00  -0.03    -0.00  -0.00   0.00    -0.01   0.00  -0.00
   2   6     0.01   0.00  -0.03    -0.00   0.00   0.02    -0.00   0.00  -0.03
   3   6     0.00   0.01   0.07    -0.00   0.00   0.02    -0.00   0.00  -0.03
   4   6     0.00   0.01   0.08    -0.00  -0.00   0.01    -0.00   0.00  -0.01
   5   6     0.00   0.01   0.13    -0.00  -0.00  -0.00    -0.00   0.00   0.00
   6   6    -0.00   0.01   0.08    -0.00  -0.00  -0.01    -0.00   0.00   0.01
   7   6    -0.00   0.01   0.07    -0.00  -0.00  -0.02    -0.00   0.00   0.03
   8   6    -0.00   0.00  -0.03    -0.00  -0.00  -0.02    -0.00   0.00   0.02
   9   6    -0.00   0.00  -0.06    -0.00  -0.00  -0.01    -0.00   0.00   0.01
  10   7    -0.00   0.00   0.00    -0.00  -0.00  -0.00    -0.00   0.00   0.01
  11   6    -0.00   0.00  -0.12    -0.00  -0.00   0.01    -0.00   0.00  -0.01
  12   6    -0.00  -0.00  -0.09    -0.00  -0.00   0.02    -0.00   0.00  -0.02
  13   6    -0.00  -0.00  -0.09    -0.00  -0.00   0.03    -0.00   0.00  -0.03
  14   6    -0.00  -0.01  -0.01    -0.00  -0.00   0.03    -0.00  -0.00  -0.03
  15   6    -0.00  -0.00   0.02    -0.00   0.00   0.01    -0.00  -0.00  -0.01
  16   7    -0.00  -0.00  -0.03    -0.00  -0.00   0.01    -0.00   0.00  -0.01
  17   6    -0.00  -0.01   0.06    -0.00   0.00  -0.00    -0.00  -0.00   0.00
  18   6     0.00  -0.00   0.02    -0.00   0.00  -0.01    -0.00  -0.00   0.01
  19   6     0.00  -0.01  -0.01    -0.00   0.00  -0.03    -0.00  -0.00   0.03
  20   6     0.01  -0.00  -0.09    -0.00   0.00  -0.03    -0.00  -0.00   0.03
  21   6     0.01  -0.00  -0.09    -0.00   0.00  -0.01    -0.00  -0.00   0.02
  22   7     0.00  -0.00  -0.03    -0.00   0.00  -0.01    -0.00  -0.00   0.01
  23   6     0.01  -0.00  -0.13    -0.00   0.00  -0.00    -0.00   0.00   0.00
  24   6     0.01   0.00  -0.06    -0.00   0.00   0.01    -0.00   0.00  -0.01
  25   7     0.00   0.00   0.01    -0.00   0.00   0.00    -0.00   0.00  -0.01
  26   1     0.00   0.00  -0.02    -0.00   0.00   0.01    -0.00   0.00  -0.01
  27   1     0.00   0.00   0.03    -0.00  -0.00   0.01    -0.00   0.00  -0.01
  28   1    -0.00   0.00   0.03    -0.00  -0.00  -0.01    -0.00   0.00   0.01
  29   1    -0.00   0.00  -0.02    -0.00  -0.00  -0.01    -0.00   0.00   0.01
  30   1    -0.00   0.00  -0.05    -0.00  -0.00   0.00    -0.00   0.00  -0.00
  31   1    -0.00  -0.00  -0.04    -0.00  -0.00   0.01    -0.00   0.00  -0.01
  32   1    -0.00  -0.00   0.00    -0.00  -0.00   0.01    -0.00  -0.00  -0.01
  33   1    -0.00  -0.00   0.03    -0.00   0.00  -0.00    -0.00  -0.00   0.00
  34   1     0.00  -0.00   0.00    -0.00   0.00  -0.01    -0.00  -0.00   0.01
  35   1     0.00  -0.00  -0.04    -0.00   0.00  -0.01    -0.00  -0.00   0.01
  36   1     0.00  -0.00  -0.05    -0.00   0.00  -0.00    -0.00   0.00   0.00
  37  28    -0.00   0.01  -0.02     0.01   0.00   0.00     0.01  -0.00   0.00
  38   6     0.02   0.02  -0.02     0.00   0.00  -0.02     0.00   0.01  -0.03
  39   6     0.01   0.02   0.06     0.00   0.00  -0.02     0.00   0.01  -0.03
  40   6     0.01   0.01   0.07     0.00   0.00  -0.01     0.00   0.00  -0.02
  41   6    -0.00   0.01   0.11     0.00   0.00   0.00     0.00  -0.00   0.00
  42   6    -0.01   0.01   0.07     0.00  -0.00   0.01     0.00  -0.00   0.02
  43   6    -0.01   0.02   0.06     0.00  -0.00   0.02     0.00  -0.01   0.04
  44   6    -0.02   0.02  -0.02     0.00  -0.00   0.02     0.00  -0.01   0.03
  45   6    -0.02   0.02  -0.05     0.00  -0.00   0.01     0.00  -0.00   0.01
  46   7    -0.01   0.01   0.01     0.00  -0.00   0.01     0.00  -0.00   0.01
  47   6    -0.02   0.02  -0.10     0.00   0.00  -0.00     0.00   0.00  -0.00
  48   6    -0.02   0.01  -0.07     0.00   0.00  -0.02     0.00   0.00  -0.02
  49   6    -0.02   0.00  -0.08     0.00   0.01  -0.03     0.00   0.01  -0.04
  50   6    -0.02  -0.01  -0.01     0.00   0.00  -0.03     0.00   0.01  -0.04
  51   6    -0.01  -0.01   0.01     0.00   0.00  -0.01     0.00   0.00  -0.02
  52   7    -0.01   0.00  -0.03     0.00   0.00  -0.01     0.00   0.00  -0.01
  53   6     0.00  -0.02   0.04     0.00  -0.00  -0.00     0.00   0.00   0.00
  54   6     0.01  -0.01   0.01     0.00  -0.00   0.01     0.00  -0.00   0.02
  55   6     0.02  -0.01  -0.01     0.00  -0.01   0.03     0.00  -0.01   0.04
  56   6     0.02   0.00  -0.07     0.00  -0.01   0.03     0.00  -0.01   0.04
  57   6     0.02   0.01  -0.07     0.00  -0.00   0.01     0.00  -0.00   0.02
  58   7     0.01   0.00  -0.03     0.00  -0.00   0.01     0.00  -0.00   0.01
  59   6     0.02   0.02  -0.10     0.00  -0.00   0.00     0.00  -0.00   0.00
  60   6     0.02   0.02  -0.05     0.00   0.00  -0.01     0.00   0.00  -0.01
  61   7     0.01   0.01   0.01     0.00   0.00  -0.00     0.00   0.00  -0.01
  62   1     0.01   0.01  -0.02     0.00   0.00  -0.01     0.00   0.00  -0.01
  63   1     0.00   0.00   0.03     0.00   0.00  -0.01     0.00   0.00  -0.01
  64   1    -0.00   0.00   0.03     0.00  -0.00   0.01     0.00  -0.00   0.01
  65   1    -0.01   0.01  -0.02     0.00  -0.00   0.01     0.00  -0.00   0.01
  66   1    -0.01   0.01  -0.04     0.00   0.00  -0.00     0.00   0.00  -0.00
  67   1    -0.01   0.00  -0.03     0.00   0.00  -0.01     0.00   0.00  -0.02
  68   1    -0.00  -0.01   0.00     0.00   0.00  -0.01     0.00   0.00  -0.01
  69   1     0.00  -0.01   0.02     0.00  -0.00   0.00     0.00   0.00   0.00
  70   1     0.00  -0.01   0.00     0.00  -0.00   0.01     0.00  -0.00   0.01
  71   1     0.01   0.00  -0.03     0.00  -0.00   0.01     0.00  -0.00   0.01
  72   1     0.01   0.01  -0.04     0.00  -0.00   0.00     0.00  -0.00   0.00
  73   6     0.00   0.01   0.19    -0.00  -0.00  -0.00    -0.00   0.00   0.00
  74   6     0.00   0.01   0.22    -0.00  -0.00  -0.00    -0.00   0.00   0.00
  75   6     0.00   0.01   0.22    -0.00  -0.00  -0.00    -0.00   0.00   0.00
  76   6     0.00   0.00   0.19    -0.00   0.00  -0.00    -0.00   0.00   0.00
  77   6     0.00   0.04   0.16    -0.00   0.00   0.00    -0.00  -0.00  -0.00
  78   6     0.00   0.04   0.19    -0.00  -0.00   0.00    -0.00  -0.00  -0.00
  79   6     0.00   0.04   0.20    -0.00  -0.00   0.00    -0.00   0.00  -0.00
  80   6     0.00   0.03   0.17    -0.00  -0.00   0.00    -0.00   0.00  -0.00
  81   6    -0.00  -0.01   0.15     0.00   0.00   0.00     0.00   0.00   0.00
  82   6    -0.00  -0.01   0.17     0.00   0.00   0.00     0.00  -0.00   0.00
  83   6    -0.00  -0.00   0.18     0.00   0.00   0.00     0.00  -0.00   0.00
  84   6    -0.00   0.00   0.16     0.00   0.00   0.00     0.00  -0.00   0.00
  85  28     0.00   0.00  -0.04    -0.01   0.00   0.00    -0.00  -0.00   0.00
  86   6     0.01  -0.02  -0.07    -0.00   0.03   0.22    -0.00  -0.02  -0.20
  87   6     0.01  -0.01   0.04    -0.00   0.03   0.22    -0.00  -0.02  -0.20
  88   6     0.01  -0.00   0.07    -0.00   0.01   0.10    -0.00  -0.01  -0.09
  89   6     0.00   0.00   0.12    -0.00   0.00  -0.00    -0.00  -0.00   0.00
  90   6    -0.00  -0.00   0.06    -0.00  -0.01  -0.10    -0.00   0.01   0.09
  91   6    -0.01  -0.01   0.04    -0.00  -0.03  -0.22    -0.00   0.02   0.20
  92   6    -0.01  -0.02  -0.08    -0.00  -0.03  -0.22    -0.00   0.02   0.20
  93   6    -0.01  -0.02  -0.10    -0.00  -0.01  -0.10    -0.00   0.01   0.09
  94   7    -0.01  -0.01  -0.02    -0.00  -0.01  -0.06    -0.00   0.01   0.05
  95   6    -0.01  -0.02  -0.16    -0.00  -0.00  -0.00    -0.00  -0.00  -0.01
  96   6    -0.01  -0.01  -0.11    -0.00   0.01   0.10    -0.00  -0.01  -0.10
  97   6    -0.02   0.00  -0.09    -0.00   0.02   0.21    -0.00  -0.02  -0.21
  98   6    -0.01   0.02   0.01    -0.00   0.02   0.21    -0.00  -0.02  -0.21
  99   6    -0.01   0.02   0.05    -0.00   0.01   0.10    -0.00  -0.01  -0.10
 100   7    -0.01   0.01  -0.03    -0.00   0.01   0.05    -0.00  -0.01  -0.05
 101   6     0.00   0.03   0.10    -0.00   0.00   0.00    -0.00  -0.00  -0.00
 102   6     0.01   0.02   0.05    -0.00  -0.01  -0.10    -0.00   0.01   0.10
 103   6     0.01   0.02   0.01    -0.00  -0.02  -0.21    -0.00   0.02   0.21
 104   6     0.02   0.00  -0.09    -0.00  -0.02  -0.21    -0.00   0.02   0.21
 105   6     0.01  -0.01  -0.11    -0.00  -0.01  -0.10    -0.00   0.01   0.10
 106   7     0.01   0.01  -0.03    -0.00  -0.01  -0.05    -0.00   0.01   0.05
 107   6     0.01  -0.02  -0.16    -0.00   0.00   0.00    -0.00  -0.00   0.01
 108   6     0.01  -0.02  -0.09    -0.00   0.01   0.10    -0.00  -0.01  -0.09
 109   7     0.01  -0.01  -0.01    -0.00   0.01   0.06    -0.00  -0.01  -0.05
 110   1     0.01  -0.01  -0.04     0.00   0.01   0.08    -0.00  -0.01  -0.07
 111   1     0.00  -0.00   0.03     0.00   0.01   0.08    -0.00  -0.01  -0.08
 112   1    -0.00  -0.00   0.03    -0.00  -0.01  -0.08    -0.00   0.01   0.08
 113   1    -0.01  -0.01  -0.04    -0.00  -0.01  -0.08    -0.00   0.01   0.07
 114   1    -0.01  -0.01  -0.07    -0.00  -0.00  -0.00    -0.00  -0.00  -0.00
 115   1    -0.01  -0.00  -0.04    -0.00   0.01   0.08    -0.00  -0.01  -0.08
 116   1    -0.00   0.01   0.02    -0.00   0.01   0.08    -0.00  -0.01  -0.08
 117   1     0.00   0.01   0.02    -0.00  -0.01  -0.08    -0.00   0.01   0.08
 118   1     0.01  -0.00  -0.04    -0.00  -0.01  -0.08    -0.00   0.01   0.08
 119   1     0.01  -0.01  -0.07    -0.00   0.00   0.00    -0.00   0.00   0.00
 120  28    -0.00  -0.02  -0.03     0.00  -0.00  -0.00     0.01   0.00  -0.00
 121   6    -0.02  -0.01  -0.06    -0.00  -0.03  -0.20    -0.00  -0.03  -0.22
 122   6    -0.01   0.01   0.04    -0.00  -0.03  -0.20    -0.00  -0.03  -0.22
 123   6    -0.01   0.01   0.06    -0.00  -0.01  -0.09    -0.00  -0.01  -0.10
 124   6    -0.00   0.02   0.11    -0.00  -0.00   0.00    -0.00   0.00  -0.00
 125   6     0.01   0.01   0.06    -0.00   0.01   0.09    -0.00   0.01   0.10
 126   6     0.01   0.01   0.04    -0.00   0.02   0.20    -0.00   0.03   0.22
 127   6     0.02  -0.01  -0.06    -0.00   0.02   0.20    -0.00   0.03   0.22
 128   6     0.01  -0.01  -0.09    -0.00   0.01   0.09    -0.00   0.01   0.10
 129   7     0.01  -0.00  -0.01    -0.00   0.01   0.05     0.00   0.01   0.05
 130   6     0.02  -0.03  -0.14     0.00   0.00  -0.01     0.00   0.00   0.01
 131   6     0.01  -0.02  -0.09     0.00  -0.01  -0.10     0.00  -0.01  -0.09
 132   6     0.01  -0.03  -0.08     0.00  -0.02  -0.21     0.01  -0.02  -0.21
 133   6     0.01  -0.02   0.01     0.00  -0.02  -0.21     0.01  -0.02  -0.21
 134   6     0.00  -0.02   0.04     0.00  -0.01  -0.10     0.00  -0.01  -0.10
 135   7     0.01  -0.02  -0.02     0.00  -0.01  -0.05     0.00  -0.00  -0.05
 136   6    -0.00  -0.02   0.09     0.00   0.00   0.00     0.00   0.00   0.00
 137   6    -0.00  -0.02   0.04     0.00   0.01   0.10     0.00   0.01   0.10
 138   6    -0.01  -0.02   0.01     0.00   0.02   0.21     0.00   0.02   0.21
 139   6    -0.02  -0.03  -0.09     0.00   0.02   0.21     0.00   0.02   0.21
 140   6    -0.01  -0.02  -0.10     0.00   0.01   0.10     0.00   0.01   0.09
 141   7    -0.01  -0.02  -0.02     0.00   0.00   0.05     0.00   0.01   0.05
 142   6    -0.02  -0.03  -0.14     0.00  -0.00   0.00     0.00  -0.00  -0.01
 143   6    -0.01  -0.01  -0.09    -0.00  -0.01  -0.09    -0.00  -0.01  -0.10
 144   7    -0.01  -0.00  -0.01    -0.00  -0.01  -0.05    -0.00  -0.01  -0.06
 145   1    -0.01  -0.00  -0.03    -0.00  -0.01  -0.08    -0.00  -0.01  -0.08
 146   1    -0.00   0.01   0.02    -0.00  -0.01  -0.08    -0.00  -0.01  -0.08
 147   1     0.00   0.01   0.02    -0.00   0.01   0.08    -0.00   0.01   0.08
 148   1     0.01  -0.00  -0.03    -0.00   0.01   0.07    -0.00   0.01   0.08
 149   1     0.01  -0.01  -0.06     0.00  -0.00  -0.00     0.00   0.00   0.00
 150   1     0.01  -0.01  -0.04     0.00  -0.01  -0.08     0.00  -0.01  -0.08
 151   1     0.00  -0.01   0.02     0.00  -0.01  -0.08     0.00  -0.01  -0.08
 152   1    -0.00  -0.01   0.01     0.00   0.01   0.08     0.00   0.01   0.08
 153   1    -0.01  -0.01  -0.04     0.00   0.01   0.08     0.00   0.01   0.08
 154   1    -0.01  -0.01  -0.06     0.00  -0.00   0.00     0.00  -0.00  -0.00
                     16                     17                     18
                        a                      a                      a 
 Frequencies --    25.0702                25.8124                26.5421
 Red. masses --    10.9381                10.9663                15.4774
 Frc consts  --     0.0000                 0.0000                 0.0000
 IR Inten    --     6.9624                 0.1155                 2.3668
 Raman Activ --     0.0000                 0.0000                 0.0000
 Depolar     --     0.0000                 0.0000                 0.0000
 Atom AN      X      Y      Z        X      Y      Z        X      Y      Z
   1  28    -0.00   0.00  -0.00     0.00   0.01   0.00     0.00  -0.07   0.00
   2   6     0.00   0.00  -0.00     0.00   0.01   0.30    -0.08  -0.09   0.03
   3   6    -0.00   0.00  -0.00     0.00   0.01   0.30    -0.06  -0.11   0.03
   4   6    -0.00   0.00  -0.00     0.00   0.01   0.14    -0.03  -0.10   0.02
   5   6    -0.00   0.00   0.00    -0.00   0.01  -0.00     0.00  -0.11   0.01
   6   6    -0.00   0.00   0.00    -0.00   0.01  -0.14     0.03  -0.10  -0.00
   7   6    -0.00   0.00   0.00    -0.01   0.01  -0.30     0.06  -0.11  -0.02
   8   6    -0.00   0.00   0.00    -0.01   0.01  -0.30     0.08  -0.09  -0.02
   9   6    -0.00   0.00   0.00    -0.00   0.00  -0.14     0.07  -0.06  -0.01
  10   7    -0.00   0.00   0.00    -0.00   0.01  -0.08     0.04  -0.07  -0.00
  11   6    -0.00   0.00  -0.00    -0.00   0.00  -0.00     0.08  -0.03  -0.01
  12   6    -0.00  -0.00  -0.00    -0.00  -0.00   0.14     0.07  -0.00   0.01
  13   6    -0.00  -0.00  -0.00    -0.00  -0.01   0.29     0.08   0.03   0.02
  14   6    -0.00  -0.00  -0.00    -0.00  -0.01   0.29     0.06   0.05   0.02
  15   6    -0.00  -0.00  -0.00    -0.00  -0.00   0.14     0.03   0.04   0.01
  16   7    -0.00  -0.00  -0.00    -0.00  -0.00   0.08     0.04   0.00   0.00
  17   6    -0.00  -0.00   0.00     0.00  -0.00  -0.00     0.00   0.05   0.00
  18   6    -0.00  -0.00   0.00     0.01  -0.00  -0.14    -0.03   0.04  -0.01
  19   6    -0.00  -0.00   0.00     0.01  -0.00  -0.29    -0.06   0.05  -0.02
  20   6     0.00  -0.00   0.00     0.02   0.00  -0.29    -0.08   0.03  -0.03
  21   6    -0.00   0.00   0.00     0.01   0.00  -0.14    -0.06  -0.00  -0.02
  22   7    -0.00  -0.00   0.00     0.01   0.00  -0.08    -0.03   0.00  -0.01
  23   6     0.00   0.00  -0.00     0.01   0.00   0.00    -0.08  -0.03  -0.01
  24   6    -0.00   0.00  -0.00     0.00   0.01   0.14    -0.06  -0.06   0.01
  25   7    -0.00   0.00  -0.00     0.00   0.01   0.08    -0.03  -0.07   0.01
  26   1     0.00   0.00  -0.00     0.00   0.00   0.11    -0.03  -0.03   0.01
  27   1    -0.00   0.00  -0.00     0.00   0.01   0.11    -0.02  -0.04   0.01
  28   1    -0.00   0.00   0.00    -0.00   0.00  -0.11     0.02  -0.04  -0.01
  29   1    -0.00   0.00   0.00    -0.00   0.00  -0.11     0.03  -0.03  -0.01
  30   1    -0.00   0.00  -0.00    -0.00   0.00  -0.00     0.03  -0.01  -0.00
  31   1    -0.00  -0.00  -0.00    -0.00  -0.00   0.11     0.03   0.01   0.01
  32   1    -0.00  -0.00  -0.00    -0.00  -0.00   0.11     0.02   0.02   0.01
  33   1    -0.00  -0.00   0.00     0.00  -0.00  -0.00     0.00   0.02   0.00
  34   1    -0.00  -0.00   0.00     0.00  -0.00  -0.11    -0.02   0.02  -0.01
  35   1     0.00  -0.00   0.00     0.01   0.00  -0.11    -0.03   0.01  -0.01
  36   1     0.00   0.00  -0.00     0.00   0.00   0.00    -0.03  -0.01  -0.00
  37  28    -0.00  -0.00  -0.00    -0.00  -0.00  -0.00    -0.00   0.06   0.01
  38   6    -0.00  -0.05   0.30    -0.01  -0.01  -0.00     0.07   0.08   0.02
  39   6    -0.00  -0.05   0.30    -0.00  -0.01   0.00     0.05   0.11  -0.00
  40   6     0.00  -0.03   0.14    -0.00  -0.01   0.00     0.02   0.09  -0.01
  41   6     0.00  -0.00   0.00    -0.00  -0.01   0.00    -0.00   0.11  -0.03
  42   6     0.00   0.02  -0.14     0.00  -0.01   0.00    -0.03   0.09  -0.02
  43   6    -0.00   0.05  -0.30     0.00  -0.01  -0.00    -0.05   0.11  -0.02
  44   6    -0.00   0.05  -0.30     0.00  -0.01  -0.00    -0.07   0.08   0.01
  45   6     0.00   0.02  -0.14     0.00  -0.00  -0.00    -0.06   0.05   0.02
  46   7     0.00   0.01  -0.08     0.00  -0.00  -0.00    -0.03   0.06   0.00
  47   6     0.00  -0.00  -0.01     0.00  -0.00  -0.00    -0.07   0.02   0.04
  48   6     0.01  -0.03   0.13     0.00   0.00  -0.00    -0.06  -0.00   0.03
  49   6     0.01  -0.05   0.28     0.00   0.00  -0.00    -0.07  -0.03   0.03
  50   6     0.01  -0.05   0.28     0.00   0.00   0.00    -0.05  -0.05  -0.00
  51   6     0.01  -0.03   0.13     0.00   0.00   0.00    -0.03  -0.03  -0.01
  52   7     0.00  -0.02   0.08     0.00   0.00  -0.00    -0.03  -0.00   0.01
  53   6     0.00  -0.00   0.00    -0.00   0.00   0.00    -0.00  -0.04  -0.03
[...]
  62   1    -0.00   0.00   0.00     0.05  -0.45  -0.08    -0.00   0.00   0.00
  63   1    -0.00   0.00   0.00     0.62  -0.06  -0.01    -0.01   0.00   0.00
  64   1     0.16   0.02   0.00     0.44   0.05   0.00     0.03   0.00   0.00
  65   1     0.01   0.11   0.02     0.03   0.31   0.05     0.00   0.02   0.00
  66   1    -0.00   0.00   0.00    -0.00   0.01   0.00    -0.00   0.00   0.00
  67   1    -0.00   0.01   0.00    -0.00   0.01   0.00    -0.00   0.01   0.00
  68   1    -0.01   0.00   0.00    -0.00   0.00   0.00    -0.01   0.00   0.00
  69   1    -0.00  -0.00   0.00     0.00   0.00  -0.00    -0.00  -0.00   0.00
  70   1    -0.00  -0.00  -0.00    -0.01  -0.00  -0.00    -0.01  -0.00  -0.00
  71   1    -0.00  -0.00  -0.00    -0.00  -0.02  -0.00    -0.00  -0.01  -0.00
  72   1     0.00   0.00  -0.00    -0.00  -0.01  -0.00     0.00  -0.00  -0.00
  73   6    -0.00  -0.00  -0.00    -0.00   0.00   0.00    -0.00  -0.00   0.00
  74   6    -0.00   0.00  -0.00     0.00   0.00  -0.00     0.00   0.00  -0.00
  75   6     0.00   0.00  -0.00    -0.00   0.00  -0.00    -0.00   0.00  -0.00
  76   6    -0.00  -0.00   0.00     0.00  -0.00   0.00    -0.00  -0.00   0.00
  77   6    -0.00  -0.00   0.00     0.00   0.00  -0.00    -0.00   0.00  -0.00
  78   6    -0.00   0.00  -0.00    -0.00  -0.00   0.00    -0.00  -0.00   0.00
  79   6    -0.00   0.00  -0.00     0.00  -0.00   0.00     0.00  -0.00   0.00
  80   6    -0.00  -0.00   0.00     0.00   0.00  -0.00    -0.00   0.00  -0.00
  81   6    -0.00  -0.00   0.00    -0.00   0.00  -0.00    -0.00  -0.00   0.00
  82   6     0.00   0.00  -0.00     0.00  -0.00   0.00    -0.00   0.00  -0.00
  83   6    -0.00   0.00   0.00    -0.00  -0.00  -0.00     0.00   0.00   0.00
  84   6     0.00  -0.00  -0.00    -0.00   0.00   0.00    -0.00  -0.00  -0.00
  85  28     0.00   0.00  -0.00     0.00  -0.00  -0.00     0.00   0.00   0.00
  86   6     0.00   0.01  -0.00    -0.00  -0.01   0.00    -0.00  -0.06   0.01
  87   6     0.02   0.00  -0.00    -0.01  -0.00   0.00    -0.08  -0.01   0.00
  88   6     0.00  -0.00   0.00    -0.00   0.00  -0.00    -0.00   0.00  -0.00
  89   6     0.00  -0.00   0.00    -0.00  -0.00   0.00    -0.00  -0.00   0.00
  90   6     0.00   0.00  -0.00    -0.00  -0.00   0.00    -0.00  -0.00   0.00
  91   6     0.06  -0.00   0.00    -0.00   0.00  -0.00    -0.03   0.00  -0.00
  92   6     0.00  -0.04   0.01    -0.00   0.00  -0.00    -0.00   0.02  -0.00
  93   6    -0.00  -0.00   0.00     0.00   0.00  -0.00     0.00   0.00  -0.00
  94   7    -0.00   0.00  -0.00     0.00  -0.00   0.00     0.00  -0.00   0.00
  95   6    -0.00  -0.00   0.00    -0.00  -0.00   0.00    -0.00  -0.00   0.00
  96   6     0.00  -0.00   0.00     0.00  -0.00   0.00     0.00  -0.00   0.00
  97   6    -0.00  -0.07   0.01    -0.00  -0.00   0.00    -0.00  -0.06   0.01
  98   6    -0.10  -0.01   0.00    -0.00  -0.00   0.00    -0.08  -0.01   0.00
  99   6    -0.00   0.00  -0.00    -0.00   0.00  -0.00    -0.00   0.00  -0.00
 100   7     0.00   0.00  -0.00     0.00   0.00  -0.00     0.00   0.00  -0.00
 101   6    -0.00  -0.00   0.00    -0.00   0.00  -0.00    -0.00   0.00  -0.00
 102   6     0.00   0.00  -0.00    -0.00  -0.00   0.00    -0.00  -0.00   0.00
 103   6     0.02  -0.00   0.00    -0.01   0.00  -0.00    -0.13   0.01  -0.00
 104   6     0.00  -0.01   0.00    -0.00   0.01  -0.00    -0.00   0.09  -0.01
 105   6    -0.00  -0.00   0.00     0.00   0.00  -0.00     0.00   0.00  -0.00
 106   7    -0.00   0.00  -0.00     0.00  -0.00   0.00     0.00  -0.00   0.00
 107   6     0.00  -0.00   0.00    -0.00  -0.00   0.00    -0.00   0.00  -0.00
 108   6    -0.00   0.00   0.00     0.00  -0.00   0.00     0.00  -0.00   0.00
 109   7    -0.00  -0.00  -0.00     0.00   0.00  -0.00     0.00   0.00  -0.00
 110   1    -0.00  -0.04   0.00     0.00   0.03  -0.00     0.02   0.19  -0.02
 111   1    -0.06  -0.01   0.00     0.04   0.00  -0.00     0.27   0.03  -0.01
 112   1    -0.19   0.02  -0.00     0.01  -0.00   0.00     0.09  -0.01   0.00
 113   1    -0.01   0.14  -0.02     0.00  -0.01   0.00     0.01  -0.06   0.01
 114   1    -0.00   0.01  -0.00    -0.00   0.00  -0.00    -0.00   0.00  -0.00
 115   1     0.02   0.22  -0.02     0.00   0.00  -0.00     0.02   0.18  -0.02
 116   1     0.31   0.03  -0.00     0.01   0.00  -0.00     0.25   0.03  -0.00
 117   1    -0.07   0.01  -0.00     0.03  -0.00   0.00     0.41  -0.04   0.00
 118   1    -0.00   0.04  -0.00     0.00  -0.02   0.00     0.03  -0.29   0.03
 119   1     0.00   0.00  -0.00    -0.00   0.00  -0.00    -0.00  -0.00   0.00
 120  28    -0.00   0.00  -0.00     0.00  -0.00   0.00     0.00   0.00  -0.00
 121   6    -0.01  -0.10   0.01     0.00   0.02  -0.00    -0.00  -0.04   0.01
 122   6    -0.13  -0.01   0.00     0.03   0.00  -0.00    -0.05  -0.00   0.00
 123   6    -0.00   0.00  -0.00     0.00  -0.00   0.00    -0.00   0.00  -0.00
 124   6    -0.00  -0.00   0.00     0.00   0.00  -0.00    -0.00   0.00  -0.00
 125   6     0.00   0.00  -0.00     0.00   0.00  -0.00    -0.00  -0.00   0.00
 126   6     0.05  -0.00   0.00     0.01  -0.00   0.00    -0.08   0.01  -0.00
 127   6     0.00  -0.04   0.01     0.00  -0.01   0.00    -0.00   0.06  -0.01
 128   6    -0.00  -0.00   0.00    -0.00  -0.00   0.00     0.00   0.00  -0.00
 129   7    -0.00   0.00  -0.00    -0.00   0.00  -0.00     0.00  -0.00   0.00
 130   6     0.00  -0.00   0.00     0.00   0.00  -0.00    -0.00  -0.00   0.00
 131   6     0.00  -0.00   0.00    -0.00   0.00  -0.00     0.00  -0.00   0.00
 132   6    -0.00  -0.02   0.00     0.00   0.01  -0.00    -0.00  -0.08   0.01
 133   6    -0.02  -0.00  -0.00     0.02   0.00   0.00    -0.11  -0.01  -0.00
 134   6    -0.00   0.00  -0.00     0.00  -0.00   0.00    -0.00   0.00  -0.00
 135   7     0.00   0.00  -0.00    -0.00  -0.00   0.00     0.00   0.00  -0.00
 136   6     0.00  -0.00   0.00    -0.00   0.00  -0.00    -0.00  -0.00   0.00
 137   6     0.00   0.00  -0.00    -0.00  -0.00   0.00    -0.00  -0.00   0.00
 138   6     0.12  -0.01  -0.00    -0.02   0.00   0.00    -0.06   0.01   0.00
 139   6     0.00  -0.09   0.01    -0.00   0.01  -0.00    -0.00   0.05  -0.00
 140   6    -0.00  -0.00   0.00     0.00   0.00  -0.00     0.00   0.00  -0.00
 141   7    -0.00   0.00  -0.00     0.00  -0.00   0.00     0.00  -0.00   0.00
 142   6    -0.00  -0.00   0.00     0.00   0.00  -0.00    -0.00   0.00   0.00
 143   6     0.00  -0.00   0.00    -0.00   0.00  -0.00     0.00  -0.00   0.00
 144   7     0.00   0.00  -0.00    -0.00  -0.00   0.00     0.00   0.00  -0.00
 145   1     0.03   0.30  -0.04    -0.01  -0.06   0.01     0.01   0.13  -0.02
 146   1     0.41   0.04  -0.01    -0.08  -0.01   0.00     0.18   0.02  -0.00
 147   1    -0.18   0.02  -0.00    -0.05   0.01  -0.00     0.27  -0.03   0.01
 148   1    -0.01   0.13  -0.02    -0.00   0.03  -0.00     0.02  -0.18   0.02
 149   1     0.00   0.01  -0.00     0.00  -0.00   0.00    -0.00   0.00  -0.00
 150   1     0.01   0.05  -0.01    -0.00  -0.03   0.00     0.03   0.26  -0.03
 151   1     0.06   0.01   0.00    -0.05  -0.01  -0.00     0.37   0.04   0.00
 152   1    -0.38   0.04   0.00     0.06  -0.01  -0.00     0.21  -0.02  -0.00
 153   1    -0.03   0.28  -0.03     0.00  -0.05   0.00     0.01  -0.15   0.01
 154   1     0.00   0.02  -0.00     0.00  -0.00   0.00    -0.00  -0.00   0.00
                    454                    455                    456
                        a                      a                      a 
 Frequencies --  3170.4255              3170.5197              3170.7404
 Red. masses --     1.9718                 1.9725                 1.9724
 Frc consts  --     0.0000                 0.0000                 0.0000
 IR Inten    --     5.8391                91.4095                33.0466
 Raman Activ --     0.0000                 0.0000                 0.0000
 Depolar     --     0.0000                 0.0000                 0.0000
 Atom AN      X      Y      Z        X      Y      Z        X      Y      Z
   1  28    -0.00   0.00   0.00    -0.00  -0.00  -0.00     0.00   0.00   0.00
   2   6     0.00  -0.01   0.00    -0.00   0.00  -0.00     0.00  -0.01   0.00
   3   6     0.01  -0.00   0.00    -0.01   0.00  -0.00     0.01  -0.00   0.00
   4   6     0.00   0.00  -0.00    -0.00  -0.00   0.00     0.00   0.00  -0.00
   5   6    -0.00   0.00   0.00     0.00   0.00  -0.00    -0.00  -0.00   0.00
   6   6     0.00  -0.00   0.00     0.00  -0.00   0.00    -0.00   0.00  -0.00
   7   6     0.01   0.00  -0.00     0.01   0.00  -0.00    -0.02  -0.00   0.00
   8   6     0.00   0.01  -0.00     0.00   0.00  -0.00    -0.00  -0.01   0.00
   9   6    -0.00   0.00   0.00    -0.00   0.00   0.00     0.00  -0.00  -0.00
  10   7    -0.00  -0.00   0.00    -0.00  -0.00   0.00     0.00   0.00  -0.00
  11   6     0.00   0.00   0.00     0.00   0.00   0.00     0.00  -0.00  -0.00
  12   6     0.00   0.00   0.00    -0.00  -0.00  -0.00    -0.00  -0.00   0.00
  13   6    -0.00   0.00   0.00     0.00  -0.00  -0.00    -0.00   0.00   0.00
  14   6    -0.00   0.00  -0.00     0.00  -0.00   0.00    -0.00   0.00  -0.00
  15   6    -0.00  -0.00  -0.00     0.00   0.00   0.00    -0.00   0.00   0.00
  16   7     0.00  -0.00  -0.00    -0.00   0.00   0.00     0.00   0.00   0.00
  17   6    -0.00  -0.00  -0.00     0.00   0.00   0.00    -0.00  -0.00  -0.00
  18   6    -0.00   0.00  -0.00     0.00  -0.00   0.00    -0.00   0.00  -0.00
  19   6    -0.00  -0.00  -0.00     0.00   0.00   0.00    -0.00  -0.00  -0.00
  20   6    -0.00  -0.00  -0.00     0.00   0.00   0.00    -0.00  -0.00  -0.00
  21   6     0.00  -0.00   0.00    -0.00   0.00  -0.00    -0.00   0.00  -0.00
  22   7     0.00   0.00   0.00    -0.00  -0.00  -0.00     0.00   0.00   0.00
  23   6     0.00  -0.00   0.00    -0.00   0.00  -0.00     0.00  -0.00   0.00
  24   6    -0.00  -0.00  -0.00     0.00   0.00   0.00    -0.00  -0.00  -0.00
  25   7    -0.00   0.00  -0.00     0.00  -0.00   0.00    -0.00   0.00  -0.00
  26   1    -0.00   0.02  -0.00     0.00  -0.01   0.00    -0.00   0.02  -0.00
  27   1    -0.03   0.00  -0.00     0.02  -0.00   0.00    -0.03   0.00  -0.00
  28   1    -0.03  -0.00   0.00    -0.02  -0.00   0.00     0.06   0.01  -0.00
  29   1    -0.00  -0.03   0.00    -0.00  -0.01   0.00     0.00   0.04  -0.00
  30   1     0.00  -0.00  -0.00     0.00  -0.00   0.00    -0.00   0.00   0.00
  31   1     0.00  -0.01  -0.00    -0.00   0.00   0.00     0.00  -0.00  -0.00
  32   1     0.01  -0.00   0.00    -0.00   0.00  -0.00     0.00  -0.00   0.00
  33   1     0.00   0.00   0.00    -0.00   0.00  -0.00     0.00  -0.00   0.00
  34   1     0.01   0.00   0.00    -0.01  -0.00  -0.00     0.01   0.00   0.00
  35   1     0.00   0.01   0.00    -0.00  -0.01  -0.00     0.00   0.01   0.00
  36   1     0.00   0.00  -0.00     0.00  -0.00   0.00    -0.00   0.00  -0.00
  37  28     0.00   0.00  -0.00    -0.00  -0.00   0.00    -0.00  -0.00  -0.00
  38   6    -0.00   0.01   0.00    -0.00   0.01   0.00     0.00  -0.00  -0.00
  39   6    -0.02   0.00   0.00    -0.01   0.00   0.00     0.00  -0.00  -0.00
  40   6    -0.00  -0.00  -0.00    -0.00  -0.00  -0.00     0.00   0.00   0.00
  41   6     0.00  -0.00  -0.00     0.00   0.00   0.00     0.00   0.00   0.00
  42   6    -0.00   0.00   0.00     0.00  -0.00  -0.00     0.00  -0.00  -0.00
  43   6    -0.02  -0.00  -0.00     0.01   0.00   0.00     0.01   0.00   0.00
  44   6    -0.00  -0.01  -0.00     0.00   0.01   0.00     0.00   0.01   0.00
  45   6     0.00  -0.00  -0.00    -0.00   0.00   0.00    -0.00   0.00   0.00
  46   7     0.00   0.00   0.00    -0.00  -0.00  -0.00    -0.00  -0.00   0.00
  47   6    -0.00  -0.00  -0.00    -0.00  -0.00   0.00    -0.00   0.00   0.00
  48   6    -0.00  -0.00  -0.00    -0.00  -0.00  -0.00     0.00   0.00   0.00
  49   6     0.00  -0.00  -0.00     0.00  -0.00  -0.00     0.00  -0.00  -0.00
  50   6     0.00  -0.00  -0.00     0.00  -0.00  -0.00     0.00  -0.00  -0.00
  51   6     0.00   0.00   0.00     0.00   0.00   0.00     0.00   0.00  -0.00
  52   7    -0.00   0.00   0.00    -0.00   0.00  -0.00    -0.00  -0.00  -0.00
  53   6     0.00   0.00  -0.00     0.00   0.00  -0.00     0.00   0.00  -0.00
  54   6     0.00  -0.00  -0.00     0.00  -0.00  -0.00     0.00  -0.00  -0.00
  55   6     0.00   0.00   0.00     0.00   0.00   0.00     0.00   0.00   0.00
  56   6     0.00   0.00   0.00     0.00   0.00   0.00     0.00   0.00   0.00
  57   6    -0.00   0.00   0.00    -0.00   0.00   0.00     0.00  -0.00   0.00
  58   7    -0.00  -0.00  -0.00    -0.00  -0.00  -0.00    -0.00   0.00   0.00
  59   6    -0.00   0.00   0.00    -0.00   0.00   0.00    -0.00  -0.00  -0.00
  60   6     0.00   0.00   0.00     0.00   0.00   0.00    -0.00  -0.00  -0.00
  61   7     0.00  -0.00  -0.00     0.00  -0.00  -0.00    -0.00   0.00  -0.00
  62   1     0.00  -0.04  -0.01     0.00  -0.03  -0.01    -0.00   0.01   0.00
  63   1     0.06  -0.01  -0.00     0.05  -0.00  -0.00    -0.01   0.00   0.00
  64   1     0.06   0.01   0.00    -0.03  -0.00  -0.00    -0.03  -0.00  -0.00
  65   1     0.00   0.04   0.01    -0.00  -0.02  -0.00    -0.00  -0.02  -0.00
  66   1    -0.00   0.00   0.00     0.00   0.00   0.00     0.00  -0.00  -0.00
  67   1    -0.00   0.01   0.00    -0.00   0.01   0.00    -0.00   0.00   0.00
  68   1    -0.01   0.00   0.00    -0.01   0.00   0.00    -0.00   0.00   0.00
  69   1    -0.00  -0.00   0.00    -0.00   0.00   0.00    -0.00  -0.00   0.00
  70   1    -0.01  -0.00  -0.00    -0.01  -0.00  -0.00    -0.00  -0.00  -0.00
  71   1    -0.00  -0.01  -0.00    -0.00  -0.01  -0.00    -0.00  -0.00  -0.00
  72   1    -0.00  -0.00  -0.00    -0.00  -0.00  -0.00     0.00   0.00   0.00
  73   6     0.00   0.00   0.00     0.00   0.00  -0.00    -0.00  -0.00   0.00
  74   6    -0.00  -0.00  -0.00    -0.00  -0.00   0.00     0.00   0.00  -0.00
  75   6    -0.00   0.00  -0.00     0.00  -0.00   0.00    -0.00   0.00  -0.00
  76   6     0.00  -0.00   0.00    -0.00   0.00  -0.00    -0.00  -0.00   0.00
  77   6    -0.00  -0.00   0.00    -0.00   0.00  -0.00    -0.00  -0.00   0.00
  78   6     0.00   0.00  -0.00     0.00  -0.00   0.00     0.00   0.00  -0.00
  79   6    -0.00  -0.00   0.00    -0.00  -0.00   0.00    -0.00   0.00  -0.00
  80   6     0.00   0.00  -0.00    -0.00   0.00  -0.00     0.00  -0.00   0.00
  81   6    -0.00  -0.00   0.00     0.00   0.00  -0.00     0.00   0.00  -0.00
  82   6    -0.00   0.00  -0.00     0.00  -0.00   0.00     0.00  -0.00   0.00
  83   6     0.00   0.00  -0.00    -0.00  -0.00  -0.00    -0.00  -0.00  -0.00
  84   6    -0.00  -0.00  -0.00     0.00   0.00   0.00     0.00   0.00   0.00
  85  28    -0.00   0.00  -0.00     0.00  -0.00   0.00     0.00   0.00  -0.00
  86   6     0.00   0.01  -0.00     0.00   0.04  -0.00    -0.01  -0.15   0.02
  87   6     0.01   0.00  -0.00     0.05   0.00  -0.00    -0.20  -0.01   0.00
  88   6     0.00  -0.00   0.00     0.00  -0.00   0.00    -0.00   0.01  -0.00
  89   6     0.00  -0.00   0.00     0.00   0.00  -0.00    -0.00  -0.00   0.00
  90   6     0.00   0.00  -0.00    -0.00  -0.00   0.00    -0.00  -0.00   0.00
  91   6     0.02  -0.00   0.00    -0.01   0.00  -0.00    -0.06   0.00  -0.00
  92   6     0.00  -0.01   0.00    -0.00   0.01  -0.00    -0.00   0.04  -0.01
  93   6    -0.00  -0.00   0.00     0.00   0.00  -0.00     0.00   0.00  -0.00
  94   7    -0.00   0.00  -0.00     0.00  -0.00   0.00     0.00  -0.00   0.00
  95   6     0.00   0.00  -0.00     0.00   0.00  -0.00    -0.00   0.00  -0.00
  96   6    -0.00   0.00  -0.00     0.00  -0.00   0.00    -0.00  -0.00   0.00
  97   6     0.00   0.06  -0.01    -0.00  -0.01   0.00    -0.00   0.00  -0.00
  98   6     0.08   0.01  -0.00    -0.01  -0.00   0.00     0.00   0.00  -0.00
  99   6     0.00  -0.00   0.00    -0.00   0.00  -0.00    -0.00  -0.00   0.00
 100   7    -0.00  -0.00   0.00     0.00  -0.00   0.00     0.00  -0.00  -0.00
 101   6     0.00  -0.00   0.00    -0.00   0.00  -0.00    -0.00  -0.00   0.00
 102   6     0.00   0.00  -0.00    -0.00  -0.00   0.00     0.00   0.00  -0.00
 103   6     0.14  -0.01   0.00    -0.08   0.01  -0.00     0.06  -0.00   0.00
 104   6     0.00  -0.10   0.01    -0.00   0.06  -0.01     0.00  -0.04   0.00
 105   6    -0.00  -0.00   0.00     0.00   0.00  -0.00    -0.00  -0.00   0.00
 106   7    -0.00   0.00  -0.00     0.00  -0.00   0.00    -0.00   0.00  -0.00
 107   6     0.00  -0.00   0.00    -0.00   0.00  -0.00    -0.00  -0.00   0.00
 108   6    -0.00   0.00  -0.00    -0.00   0.00  -0.00     0.01  -0.00   0.00
 109   7    -0.00  -0.00  -0.00    -0.00  -0.00   0.00     0.00   0.00  -0.00
 110   1    -0.00  -0.02   0.00    -0.01  -0.12   0.01     0.05   0.46  -0.06
 111   1    -0.03  -0.00   0.00    -0.17  -0.02   0.00     0.65   0.07  -0.01
 112   1    -0.05   0.01  -0.00     0.02  -0.00   0.00     0.20  -0.02   0.00
 113   1    -0.00   0.04  -0.00     0.00  -0.02   0.00     0.01  -0.14   0.02
 114   1     0.00  -0.00   0.00    -0.00  -0.00   0.00    -0.00  -0.00   0.00
 115   1    -0.02  -0.18   0.02     0.00   0.02  -0.00    -0.00  -0.00   0.00
 116   1    -0.25  -0.03   0.00     0.02   0.00  -0.00    -0.01  -0.00   0.00
 117   1    -0.45   0.05  -0.00     0.27  -0.03   0.00    -0.18   0.02  -0.00
 118   1    -0.03   0.32  -0.03     0.02  -0.19   0.02    -0.01   0.13  -0.01
 119   1     0.00   0.01  -0.00    -0.00  -0.01   0.00    -0.00   0.02  -0.00
 120  28     0.00   0.00   0.00    -0.00  -0.00   0.00    -0.00   0.00   0.00
 121   6    -0.00  -0.08   0.01    -0.00  -0.03   0.00    -0.00  -0.01   0.00
 122   6    -0.10  -0.01   0.00    -0.04  -0.00   0.00    -0.01  -0.00   0.00
 123   6    -0.00   0.00  -0.00    -0.00   0.00  -0.00    -0.00   0.00  -0.00
 124   6    -0.00   0.00  -0.00    -0.00   0.00  -0.00     0.00  -0.00   0.00
 125   6    -0.00  -0.00   0.00    -0.00  -0.00   0.00    -0.00  -0.00   0.00
 126   6    -0.12   0.01  -0.00    -0.14   0.01  -0.00    -0.00   0.00  -0.00
 127   6    -0.00   0.09  -0.01    -0.00   0.10  -0.01    -0.00   0.00  -0.00
 128   6     0.00   0.00  -0.00     0.00   0.00  -0.00     0.00  -0.00   0.00
 129   7     0.00  -0.00   0.00     0.00  -0.00   0.00    -0.00  -0.00   0.00
 130   6    -0.00   0.00  -0.00     0.00   0.00  -0.00     0.00   0.00  -0.00
 131   6     0.00  -0.00   0.00    -0.00   0.00  -0.00    -0.00   0.00  -0.00
 132   6    -0.00  -0.04   0.00     0.01   0.11  -0.01     0.00   0.06  -0.01
 133   6    -0.06  -0.00  -0.00     0.15   0.01   0.00     0.08   0.01   0.00
 134   6    -0.00   0.00  -0.00     0.00  -0.01   0.00     0.00  -0.00   0.00
 135   7     0.00   0.00  -0.00    -0.00  -0.00   0.00    -0.00  -0.00   0.00
 136   6    -0.00  -0.00   0.00     0.00   0.00  -0.00     0.00   0.00  -0.00
 137   6    -0.00  -0.00   0.00     0.00   0.00  -0.00     0.00   0.00  -0.00
 138   6    -0.03   0.00   0.00     0.05  -0.00  -0.00     0.05  -0.00  -0.00
 139   6    -0.00   0.02  -0.00     0.00  -0.04   0.00     0.00  -0.04   0.00
 140   6     0.00   0.00  -0.00    -0.00  -0.00   0.00    -0.00  -0.00   0.00
 141   7     0.00  -0.00  -0.00    -0.00   0.00  -0.00    -0.00   0.00  -0.00
 142   6    -0.00  -0.00   0.00     0.00  -0.00   0.00     0.00  -0.00   0.00
 143   6     0.00  -0.00   0.00     0.00  -0.00  -0.00     0.00  -0.00  -0.00
 144   7     0.00   0.00  -0.00     0.00   0.00  -0.00     0.00   0.00  -0.00
 145   1     0.02   0.24  -0.03     0.01   0.10  -0.01     0.00   0.02  -0.00
 146   1     0.34   0.03  -0.01     0.14   0.01  -0.00     0.03   0.00  -0.00
 147   1     0.40  -0.04   0.01     0.45  -0.05   0.01     0.01  -0.00   0.00
 148   1     0.03  -0.28   0.03     0.03  -0.32   0.04     0.00  -0.01   0.00
 149   1    -0.00  -0.00   0.00    -0.00  -0.02   0.00     0.00  -0.01   0.00
 150   1     0.01   0.13  -0.01    -0.04  -0.35   0.03    -0.02  -0.18   0.02
 151   1     0.18   0.02   0.00    -0.48  -0.05  -0.00    -0.25  -0.03  -0.00
 152   1     0.11  -0.01  -0.00    -0.17   0.02   0.00    -0.17   0.02   0.00
 153   1     0.01  -0.08   0.01    -0.01   0.12  -0.01    -0.01   0.12  -0.01
 154   1    -0.00   0.00  -0.00     0.00   0.00  -0.00     0.00   0.00  -0.00
