      -----------------------------------------------------------      
     |                   =====================                   |     
     |                           x T B                           |     
     |                   =====================                   |     
     |                         S. Grimme                         |     
     |          Mulliken Center for Theoretical Chemistry        |     
     |                    University of Bonn                     |     
      -----------------------------------------------------------      

   * xtb version 6.4.1 (bd6e46d) compiled by 'conda@4901f00b25ba' on 2021-06-10

   xtb is free software: you can redistribute it and/or modify it under
   the terms of the GNU Lesser General Public License as published by
   the Free Software Foundation, either version 3 of the License, or
   (at your option) any later version.
   
   xtb is distributed in the hope that it will be useful,
   but WITHOUT ANY WARRANTY; without even the implied warranty of
   MERCHANTABILITY or FITNESS FOR A PARTICULAR PURPOSE.  See the
   GNU Lesser General Public License for more details.
   
   Cite this work as:
   * C. Bannwarth, E. Caldeweyher, S. Ehlert, A. Hansen, P. Pracht,
     J. Seibert, S. Spicher, S. Grimme, WIREs Comput. Mol. Sci., 2020, 11,
     e01493. DOI: 10.1002/wcms.1493
   
   for GFN2-xTB:
   * C. Bannwarth, S. Ehlert and S. Grimme., J. Chem. Theory Comput., 2019,
     15, 1652-1671. DOI: 10.1021/acs.jctc.8b01176
   for GFN1-xTB:
   * S. Grimme, C. Bannwarth, P. Shushkov, J. Chem. Theory Comput., 2017,
     13, 1989-2009. DOI: 10.1021/acs.jctc.7b00118
   for GFN0-xTB:
   * P. Pracht, E. Caldeweyher, S. Ehlert, S. Grimme, ChemRxiv, 2019, preprint.
     DOI: 10.26434/chemrxiv.8326202.v1
   for GFN-FF:
   * S. Spicher and S. Grimme, Angew. Chem. Int. Ed., 2020, 59, 15665-15673.
     DOI: 10.1002/anie.202004239
   
   for DFT-D4:
   * E. Caldeweyher, C. Bannwarth and S. Grimme, J. Chem. Phys., 2017,
     147, 034112. DOI: 10.1063/1.4993215
   * E. Caldeweyher, S. Ehlert, A. Hansen, H. Neugebauer, S. Spicher,
     C. Bannwarth and S. Grimme, J. Chem. Phys., 2019, 150, 154122.
     DOI: 10.1063/1.5090222
   * E. Caldeweyher, J.-M. Mewes, S. Ehlert and S. Grimme, Phys. Chem. Chem. Phys.
     2020, 22, 8499-8512. DOI: 10.1039/D0CP00502A
   
   for sTDA-xTB:
   * S. Grimme and C. Bannwarth, J. Chem. Phys., 2016, 145, 054103.
     DOI: 10.1063/1.4959605
   
   in the mass-spec context:
   * V. Asgeirsson, C. Bauer and S. Grimme, Chem. Sci., 2017, 8, 4879.
     DOI: 10.1039/c7sc00601b
   * J. Koopman and S. Grimme, ACS Omega 2019, 4, 12, 15120-15133.
     DOI: 10.1021/acsomega.9b02011
   
   for metadynamics refer to:
   * S. Grimme, J. Chem. Theory Comput., 2019, 155, 2847-2862
     DOI: 10.1021/acs.jctc.9b00143
   
   for SPH calculations refer to:
   * S. Spicher and S. Grimme, J. Chem. Theory Comput., 2021, 17, 1701-1714
     DOI: 10.1021/acs.jctc.0c01306
   
   with help from (in alphabetical order)
   P. Atkinson, C. Bannwarth, F. Bohle, G. Brandenburg, E. Caldeweyher
   M. Checinski, S. Dohm, S. Ehlert, S. Ehrlich, I. Gerasimov, J. Koopman
   C. Lavigne, S. Lehtola, F. März, M. Müller, F. Musil, H. Neugebauer
   J. Pisarek, C. Plett, P. Pracht, J. Seibert, P. Shushkov, S. Spicher
   M. Stahn, M. Steiner, T. Strunk, J. Stückrath, T. Rose, and J. Unsleber
   
 * started run on 2021/11/19 at 13:14:00.762     

           -------------------------------------------------
          |                Calculation Setup                |
           -------------------------------------------------

          program call               : /home/jeff/miniconda3/bin/xtb input_structure_1.xyz --gfn 2 --ohess normal --parallel 1 --etemp 300 --chrg 0 --uhf 0 -I det_control.in
          hostname                   : jelfscompute1
          coordinate file            : input_structure_1.xyz
          omp threads                :                     1
          number of atoms            :                   154
          number of electrons        :                   530
          charge                     :                     0
          spin                       :                   0.0
          first test random number   :      0.23111678472951

   ID    Z sym.   atoms
    1   28 Ni     1, 37, 85, 120
    2    6 C      2-9, 11-15, 17-21, 23, 24, 38-45, 47-51, 53-57, 59, 60,
                  73-84, 86-93, 95-99, 101-105, 107, 108, 121-128, 130-134,
                  136-140, 142, 143
    3    7 N      10, 16, 22, 25, 46, 52, 58, 61, 94, 100, 106, 109, 129,
                  135, 141, 144
    4    1 H      26-36, 62-72, 110-119, 145-154

molecular fragmentation (1/2 indicates fragments):
111111111111111111111111111111111111222222222222222222222222222222222222
222222222222222222222222222222222222222222222222222222222222222222222222
2222222222
# atoms in fragment 1/2:    36   118
 fragment masses (1/2) :      366.02     1240.18
CMA distance (Bohr)    :  52.933
constraining FC (au)   :  0.0500

           -------------------------------------------------
          |                 G F N 2 - x T B                 |
           -------------------------------------------------

        Reference                      10.1021/acs.jctc.8b01176
      * Hamiltonian:
        H0-scaling (s, p, d)           1.850000    2.230000    2.230000
        zeta-weighting                 0.500000
      * Dispersion:
        s8                             2.700000
        a1                             0.520000
        a2                             5.000000
        s9                             5.000000
      * Repulsion:
        kExp                           1.500000    1.000000
        rExp                           1.000000
      * Coulomb:
        alpha                          2.000000
        third order                    shell-resolved
        anisotropic                    true
        a3                             3.000000
        a5                             4.000000
        cn-shift                       1.200000
        cn-exp                         4.000000
        max-rad                        5.000000


          ...................................................
          :                      SETUP                      :
          :.................................................:
          :  # basis functions                 514          :
          :  # atomic orbitals                 510          :
          :  # shells                          270          :
          :  # electrons                       530          :
          :  max. iterations                   250          :
          :  Hamiltonian                  GFN2-xTB          :
          :  restarted?                      false          :
          :  GBSA solvation                  false          :
          :  PC potential                    false          :
          :  electronic temp.          300.0000000     K    :
          :  accuracy                    1.0000000          :
          :  -> integral cutoff          0.2500000E+02      :
          :  -> integral neglect         0.1000000E-07      :
          :  -> SCF convergence          0.1000000E-05 Eh   :
          :  -> wf. convergence          0.1000000E-03 e    :
          :  Broyden damping             0.4000000          :
          ...................................................

 iter      E             dE          RMSdq      gap      omega  full diag
   1   -287.3768018 -0.287377E+03  0.897E+00    0.75       0.0  T
   2   -278.3759546  0.900085E+01  0.768E+00    0.03       1.0  T
   3   -171.1910363  0.107185E+03  0.131E+01    0.15       1.0  T
   4   -181.1459801 -0.995494E+01  0.973E+00    0.01       1.0  T
   5   -122.0056032  0.591404E+02  0.107E+01    0.15       1.0  T
   6    -37.8410157  0.841646E+02  0.122E+01    0.10       1.0  T
   7   -272.3753932 -0.234534E+03  0.757E+00    0.08       1.0  T
   8   -281.7905290 -0.941514E+01  0.444E+00    0.03       1.0  T
   9   -258.7744689  0.230161E+02  0.610E+00    0.02       1.0  T
  10   -285.9246354 -0.271502E+02  0.347E+00    0.19       1.0  T
  11   -287.7087996 -0.178416E+01  0.249E+00    0.38       1.0  T
  12   -287.8668115 -0.158012E+00  0.220E+00    0.40       1.0  T
  13   -287.9774218 -0.110610E+00  0.194E+00    0.31       1.0  T
  14   -288.0162470 -0.388252E-01  0.184E+00    0.33       1.0  T
  15   -288.0503016 -0.340546E-01  0.164E+00    0.12       1.0  T
  16   -288.1375949 -0.872933E-01  0.134E+00    0.18       1.0  T
  17   -287.9670095  0.170585E+00  0.159E+00    0.02       1.0  T
  18   -287.5320980  0.434912E+00  0.221E+00    0.10       1.0  T
  19   -287.5190312  0.130667E-01  0.222E+00    0.10       1.0  T
  20   -287.5080228  0.110085E-01  0.226E+00    0.10       1.0  T
  21   -287.6404868 -0.132464E+00  0.211E+00    0.09       1.0  T
  22   -287.6243177  0.161691E-01  0.199E+00    0.05       1.0  T
  23   -287.6780024 -0.536847E-01  0.203E+00    0.08       1.0  T
  24   -287.5744244  0.103578E+00  0.169E+00    0.04       1.0  T
  25   -287.6918343 -0.117410E+00  0.143E+00    0.00       1.0  T
  26   -287.4518170  0.240017E+00  0.183E+00    0.09       1.0  T
  27   -287.4508029  0.101408E-02  0.183E+00    0.09       1.0  T
  28   -287.1641282  0.286675E+00  0.221E+00    0.09       1.0  T
  29   -286.7811606  0.382968E+00  0.256E+00    0.05       1.0  T
  30   -285.4696725  0.131149E+01  0.343E+00    0.03       1.0  T
  31   -285.4653907  0.428181E-02  0.344E+00    0.03       1.0  T
  32   -285.7181727 -0.252782E+00  0.329E+00    0.02       1.0  T
  33   -284.3978228  0.132035E+01  0.410E+00    0.03       1.0  T
  34   -284.9245871 -0.526764E+00  0.380E+00    0.03       1.0  T
  35   -283.8083524  0.111623E+01  0.475E+00    0.02       1.0  T
  36   -283.6778954  0.130457E+00  0.481E+00    0.03       1.0  T
  37   -283.7690717 -0.911763E-01  0.477E+00    0.02       1.0  T
  38   -285.7501992 -0.198113E+01  0.356E+00    0.04       1.0  T
  39   -287.0393923 -0.128919E+01  0.252E+00    0.03       1.0  T
  40   -287.3819143 -0.342522E+00  0.206E+00    0.07       1.0  T
  41   -287.1584757  0.223439E+00  0.235E+00    0.08       1.0  T
  42   -287.0667024  0.917733E-01  0.246E+00    0.06       1.0  T
  43   -286.8606302  0.206072E+00  0.270E+00    0.04       1.0  T
  44   -287.4743629 -0.613733E+00  0.210E+00    0.03       1.0  T
  45   -287.6258451 -0.151482E+00  0.186E+00    0.04       1.0  T
  46   -288.1592853 -0.533440E+00  0.114E+00    0.06       1.0  T
  47   -288.1615458 -0.226055E-02  0.110E+00    0.07       1.0  T
  48   -288.0975529  0.639929E-01  0.127E+00    0.04       1.0  T
  49   -288.1106897 -0.131368E-01  0.119E+00    0.06       1.0  T
  50   -288.0706717  0.400180E-01  0.130E+00    0.06       1.0  T
  51   -287.9733661  0.973056E-01  0.165E+00    0.03       1.0  T
  52   -287.9520316  0.213344E-01  0.183E+00    0.01       1.0  T
  53   -288.0197332 -0.677016E-01  0.151E+00    0.03       1.0  T
  54   -288.1494023 -0.129669E+00  0.139E+00    0.04       1.0  T
  55   -288.1080903  0.413120E-01  0.157E+00    0.01       1.0  T
  56   -288.2324535 -0.124363E+00  0.100E+00    0.11       1.0  T
  57   -288.2114187  0.210347E-01  0.109E+00    0.10       1.0  T
  58   -288.2217065 -0.102877E-01  0.111E+00    0.10       1.0  T
  59   -288.2320966 -0.103901E-01  0.110E+00    0.10       1.0  T
  60   -288.2282310  0.386561E-02  0.115E+00    0.09       1.0  T
  61   -288.1355076  0.927234E-01  0.154E+00    0.05       1.0  T
  62   -288.1415132 -0.600562E-02  0.151E+00    0.06       1.0  T
  63   -288.1322727  0.924051E-02  0.150E+00    0.06       1.0  T
  64   -288.1295537  0.271900E-02  0.152E+00    0.06       1.0  T
  65   -287.9846050  0.144949E+00  0.186E+00    0.03       1.0  T
  66   -287.9824474  0.215765E-02  0.186E+00    0.03       1.0  T
  67   -287.9825352 -0.878505E-04  0.186E+00    0.03       1.0  T
  68   -287.9650768  0.174585E-01  0.190E+00    0.03       1.0  T
  69   -287.9772689 -0.121922E-01  0.187E+00    0.03       1.0  T
  70   -287.9867564 -0.948750E-02  0.184E+00    0.03       1.0  T
  71   -288.0836354 -0.968790E-01  0.161E+00    0.04       1.0  T
  72   -287.9860263  0.976092E-01  0.175E+00    0.03       1.0  T
  73   -288.0635792 -0.775529E-01  0.156E+00    0.03       1.0  T
  74   -288.0786257 -0.150465E-01  0.141E+00    0.04       1.0  T
  75   -288.2003781 -0.121752E+00  0.981E-01    0.07       1.0  T
  76   -288.1959010  0.447714E-02  0.902E-01    0.06       1.0  T
  77   -288.2498996 -0.539986E-01  0.688E-01    0.09       1.0  T
  78   -288.2813448 -0.314453E-01  0.555E-01    0.13       1.0  T
  79   -288.2853019 -0.395706E-02  0.558E-01    0.12       1.0  T
  80   -288.2976140 -0.123121E-01  0.553E-01    0.10       1.0  T
  81   -288.3007648 -0.315077E-02  0.551E-01    0.10       1.0  T
  82   -288.2994871  0.127768E-02  0.589E-01    0.08       1.0  T
  83   -288.2968850  0.260212E-02  0.615E-01    0.07       1.0  T
  84   -288.2994568 -0.257178E-02  0.597E-01    0.07       1.0  T
  85   -288.2993096  0.147142E-03  0.595E-01    0.07       1.0  T
  86   -288.3004862 -0.117664E-02  0.582E-01    0.07       1.0  T
  87   -288.3033133 -0.282701E-02  0.557E-01    0.07       1.0  T
  88   -288.3015498  0.176348E-02  0.567E-01    0.07       1.0  T
  89   -288.3017071 -0.157364E-03  0.566E-01    0.07       1.0  T
  90   -288.3049760 -0.326891E-02  0.541E-01    0.07       1.0  T
  91   -288.3020960  0.288004E-02  0.560E-01    0.06       1.0  T
  92   -288.3019616  0.134422E-03  0.561E-01    0.06       1.0  T
  93   -288.3072022 -0.524059E-02  0.530E-01    0.07       1.0  T
  94   -288.3097809 -0.257876E-02  0.515E-01    0.07       1.0  T
  95   -288.3139871 -0.420615E-02  0.487E-01    0.08       1.0  T
  96   -288.3163908 -0.240375E-02  0.473E-01    0.08       1.0  T
  97   -288.3180045 -0.161365E-02  0.472E-01    0.09       1.0  T
  98   -288.3188236 -0.819152E-03  0.480E-01    0.10       1.0  T
  99   -288.3184694  0.354177E-03  0.489E-01    0.10       1.0  T
 100   -288.3183334  0.136080E-03  0.493E-01    0.10       1.0  T
 101   -288.3186319 -0.298488E-03  0.489E-01    0.10       1.0  T
 102   -288.3199682 -0.133637E-02  0.471E-01    0.10       1.0  T
 103   -288.3225765 -0.260823E-02  0.442E-01    0.10       1.0  T
 104   -288.3258060 -0.322951E-02  0.405E-01    0.10       1.0  T
 105   -288.3289375 -0.313156E-02  0.368E-01    0.11       1.0  T
 106   -288.3319596 -0.302204E-02  0.325E-01    0.11       1.0  T
 107   -288.3356194 -0.365987E-02  0.261E-01    0.11       1.0  T
 108   -288.3356964 -0.769904E-04  0.164E-01    0.10       1.0  T
 109   -288.3353832  0.313229E-03  0.282E-01    0.11       1.0  T
 110   -288.3143785  0.210047E-01  0.426E-01    0.07       1.0  T
 111   -288.3330484 -0.186698E-01  0.312E-01    0.11       1.0  T
 112   -288.3177048  0.153436E-01  0.406E-01    0.07       1.0  T
 113   -288.3331963 -0.154915E-01  0.305E-01    0.10       1.0  T
 114   -288.3169931  0.162032E-01  0.428E-01    0.07       1.0  T
 115   -288.3353097 -0.183166E-01  0.273E-01    0.11       1.0  T
 116   -288.3421240 -0.681436E-02  0.531E-02    0.12       1.0  T
 117   -288.3410885  0.103556E-02  0.100E-01    0.11       1.0  T
 118   -288.3403022  0.786238E-03  0.134E-01    0.12       1.0  T
 119   -288.3413365 -0.103422E-02  0.525E-02    0.11       1.0  T
 120   -288.3419337 -0.597283E-03  0.435E-02    0.12       1.0  T
 121   -288.3422384 -0.304666E-03  0.290E-02    0.12       1.0  T
 122   -288.3418290  0.409363E-03  0.489E-02    0.12       1.0  T
 123   -288.3422876 -0.458598E-03  0.199E-02    0.12       1.0  T
 124   -288.3419946  0.293028E-03  0.386E-02    0.12       1.0  T
 125   -288.3423040 -0.309330E-03  0.182E-02    0.12       1.0  T
 126   -288.3420534  0.250535E-03  0.350E-02    0.12       1.0  T
 127   -288.3422984 -0.244966E-03  0.157E-02    0.12       1.0  T
 128   -288.3420812  0.217182E-03  0.338E-02    0.12       1.0  T
 129   -288.3422808 -0.199586E-03  0.159E-02    0.12       1.0  T
 130   -288.3421250  0.155834E-03  0.315E-02    0.12       1.0  T
 131   -288.3422631 -0.138116E-03  0.182E-02    0.12       1.0  T
 132   -288.3421733  0.897665E-04  0.285E-02    0.12       1.0  T
 133   -288.3422634 -0.900874E-04  0.195E-02    0.12       1.0  T
 134   -288.3422301  0.332552E-04  0.245E-02    0.12       1.0  T
 135   -288.3422976 -0.674633E-04  0.171E-02    0.12       1.0  T
 136   -288.3423070 -0.940799E-05  0.170E-02    0.12       1.0  T
 137   -288.3423415 -0.345328E-04  0.121E-02    0.12       1.0  T
 138   -288.3423589 -0.173708E-04  0.808E-03    0.12       1.0  T
 139   -288.3423589 -0.753124E-08  0.824E-03    0.12       1.0  T
 140   -288.3423721 -0.132253E-04  0.443E-03    0.12       1.8  T
 141   -288.3423727 -0.603758E-06  0.202E-03    0.12       4.0  T
 142   -288.3423726  0.177143E-06  0.230E-03    0.12       3.5  T
 143   -288.3423727 -0.130155E-06  0.172E-03    0.12       4.7  T
 144   -288.3423727 -0.156736E-07  0.135E-03    0.12       6.0  T
 145   -288.3423728 -0.129797E-06  0.851E-04    0.12       9.5  T
 146   -288.3423729 -0.771360E-08  0.842E-04    0.12       9.6  T

   *** convergence criteria satisfied after 146 iterations ***

         #    Occupation            Energy/Eh            Energy/eV
      -------------------------------------------------------------
         1        2.0000           -0.6898397             -18.7715
       ...           ...                  ...                  ...
       259        1.9995           -0.3525644              -9.5938
       260        1.9986           -0.3516628              -9.5692
       261        1.9978           -0.3512229              -9.5573
       262        1.9960           -0.3506421              -9.5415
       263        1.9946           -0.3503557              -9.5337
       264        1.8828           -0.3473734              -9.4525
       265        1.8221           -0.3469459              -9.4409 (HOMO)
       266        0.1569           -0.3423949              -9.3170 (LUMO)
       267        0.1517           -0.3423608              -9.3161
       268        0.0000           -0.3318258              -9.0294
       269        0.0000           -0.3317804              -9.0282
       270                         -0.3263439              -8.8803
       ...                                ...                  ...
       510                          1.6137377              43.9120
      -------------------------------------------------------------
                  HL-Gap            0.0045509 Eh            0.1238 eV
             Fermi-level           -0.3447358 Eh           -9.3807 eV

 SCC (total)                   0 d,  0 h,  0 min,  8.880 sec
 SCC setup                      ...        0 min,  0.004 sec (  0.049%)
 Dispersion                     ...        0 min,  0.009 sec (  0.101%)
 classical contributions        ...        0 min,  0.001 sec (  0.012%)
 integral evaluation            ...        0 min,  0.081 sec (  0.917%)
 iterations                     ...        0 min,  8.562 sec ( 96.413%)
 molecular gradient             ...        0 min,  0.216 sec (  2.429%)
 printout                       ...        0 min,  0.007 sec (  0.078%)

         :::::::::::::::::::::::::::::::::::::::::::::::::::::
         ::                     SUMMARY                     ::
         :::::::::::::::::::::::::::::::::::::::::::::::::::::
         :: total energy            -283.274471558551 Eh    ::
         :: gradient norm              0.745050175886 Eh/a0 ::
         :: HOMO-LUMO gap              0.123837075334 eV    ::
         ::.................................................::
         :: SCC energy              -288.342372850119 Eh    ::
         :: -> isotropic ES            0.138900143923 Eh    ::
         :: -> anisotropic ES          0.020415285769 Eh    ::
         :: -> anisotropic XC          0.142700478433 Eh    ::
         :: -> dispersion             -0.239838758757 Eh    ::
         :: repulsion energy           5.067664060693 Eh    ::
         :: add. restraining           0.000000000000 Eh    ::
         :: total charge               0.000000000004 e     ::
         :::::::::::::::::::::::::::::::::::::::::::::::::::::

      ----------------------------------------------------------- 
     |                   =====================                   |
     |                        A N C O P T                        |
     |                   =====================                   |
     |               Approximate Normal Coordinate               |
     |                Rational Function Optimizer                |
      ----------------------------------------------------------- 

          ...................................................
          :                      SETUP                      :
          :.................................................:
          :   optimization level            normal          :
          :   max. optcycles                   462          :
          :   ANC micro-cycles                  20          :
          :   degrees of freedom               456          :
          :.................................................:
          :   RF solver                   davidson          :
          :   write xtbopt.log                true          :
          :   linear?                        false          :
          :   energy convergence         0.5000000E-05 Eh   :
          :   grad. convergence          0.1000000E-02 Eh/α :
          :   maximium RF displ.         1.0000000          :
          :   Hlow (freq-cutoff)         0.1000000E-01      :
          :   Hmax (freq-cutoff)         5.0000000          :
          :   S6 in model hess.         20.0000000          :
          ...................................................

generating ANC from model Hessian ...
Using Lindh-Hessian (1995)
 Shifting diagonal of input Hessian by    1.0124424357260908E-002
 Lowest  eigenvalues of input Hessian
    0.010000    0.010039    0.010094    0.010097    0.010101    0.010107
    0.010107    0.010112    0.010115    0.010117    0.010120    0.000000
    0.000000    0.000000    0.000000    0.000000    0.000000    0.010135
 Highest eigenvalues
    2.239936    2.250060    2.576437    2.785520    2.844620    2.909723


........................................................................
.............................. CYCLE    1 ..............................
........................................................................
   1   -288.3423729 -0.288342E+03  0.493E-04    0.12       0.0  T
   2   -288.3423660  0.691706E-05  0.735E-03    0.12       1.1  T
   3   -288.3423727 -0.674791E-05  0.998E-04    0.12       8.1  T
   4   -288.3423729 -0.110554E-06  0.694E-04    0.12      11.6  T
   5   -288.3423728  0.112987E-07  0.754E-04    0.12      10.7  T
     SCC iter.                  ...        0 min,  0.295 sec
     gradient                   ...        0 min,  0.215 sec
 * total energy  :  -283.2744716 Eh     change        0.7002086E-08 Eh
   gradient norm :     0.7450507 Eh/α   predicted     0.0000000E+00 (-100.00%)
   displ. norm   :     0.5791835 α      lambda       -0.3380017E+00
   maximum displ.:     0.1628080 α      in ANC's #158, #157, #156, ...

........................................................................
.............................. CYCLE    2 ..............................
........................................................................
   1   -288.3299062 -0.288330E+03  0.420E-01    0.10       0.0  T
   2   -288.1482696  0.181637E+00  0.858E-01    0.42       1.0  T
   3   -288.2114318 -0.631622E-01  0.760E-01    0.14       1.0  T
   4   -287.2495939  0.961838E+00  0.254E+00    0.02       1.0  T
   5   -288.3128354 -0.106324E+01  0.497E-01    0.07       1.0  T
   6   -288.3210898 -0.825432E-02  0.389E-01    0.23       1.0  T
   7   -288.3315955 -0.105057E-01  0.316E-01    0.17       1.0  T
   8   -288.3141579  0.174376E-01  0.396E-01    0.15       1.0  T
   9   -288.3311703 -0.170124E-01  0.312E-01    0.24       1.0  T
  10   -288.3380024 -0.683204E-02  0.269E-01    0.19       1.0  T
  11   -288.3389929 -0.990556E-03  0.254E-01    0.17       1.0  T
  12   -288.3400848 -0.109191E-02  0.239E-01    0.16       1.0  T
  13   -288.3424252 -0.234037E-02  0.222E-01    0.15       1.0  T
  14   -288.3424627 -0.375527E-04  0.218E-01    0.13       1.0  T
  15   -288.3431086 -0.645859E-03  0.210E-01    0.15       1.0  T
  16   -288.3442494 -0.114078E-02  0.188E-01    0.14       1.0  T
  17   -288.3455263 -0.127691E-02  0.164E-01    0.15       1.0  T
  18   -288.3461906 -0.664279E-03  0.149E-01    0.14       1.0  T
  19   -288.3477783 -0.158768E-02  0.108E-01    0.14       1.0  T
  20   -288.3488585 -0.108024E-02  0.704E-02    0.14       1.0  T
  21   -288.3494494 -0.590889E-03  0.356E-02    0.13       1.0  T
  22   -288.3495878 -0.138392E-03  0.212E-02    0.13       1.0  T
  23   -288.3496232 -0.353956E-04  0.155E-02    0.13       1.0  T
  24   -288.3496570 -0.338344E-04  0.421E-03    0.13       1.9  T
  25   -288.3496263  0.306973E-04  0.161E-02    0.12       1.0  T
  26   -288.3496600 -0.336671E-04  0.638E-03    0.13       1.3  T
  27   -288.3496519  0.811581E-05  0.956E-03    0.12       1.0  T
  28   -288.3496649 -0.130876E-04  0.836E-04    0.13       9.6  T
  29   -288.3496650 -0.842613E-08  0.720E-04    0.13      11.2  T
  30   -288.3496650 -0.254045E-07  0.617E-04    0.13      13.1  T
     SCC iter.                  ...        0 min,  1.740 sec
     gradient                   ...        0 min,  0.215 sec
 * total energy  :  -283.5425112 Eh     change       -0.2680397E+00 Eh
   gradient norm :     0.4103930 Eh/α   predicted    -0.2257619E+00 ( -15.77%)
   displ. norm   :     0.6742194 α      lambda       -0.2167518E+00
   maximum displ.:     0.2153710 α      in ANC's #158, #157, #156, ...

........................................................................
.............................. CYCLE    3 ..............................
........................................................................
   1   -288.3836465 -0.288384E+03  0.470E-01    0.10       0.0  T
   2   -287.9444270  0.439220E+00  0.126E+00    0.46       1.0  T
   3   -288.2313459 -0.286919E+00  0.902E-01    0.32       1.0  T
   4   -287.8027923  0.428554E+00  0.179E+00    0.00       1.0  T
   5   -288.3803329 -0.577541E+00  0.435E-01    0.24       1.0  T
   6   -288.3762161  0.411677E-02  0.429E-01    0.22       1.0  T
   7   -288.3642779  0.119382E-01  0.473E-01    0.23       1.0  T
   8   -288.3931979 -0.289200E-01  0.318E-01    0.18       1.0  T
   9   -288.3922895  0.908396E-03  0.323E-01    0.27       1.0  T
  10   -288.3965518 -0.426230E-02  0.298E-01    0.22       1.0  T
  11   -288.3965011  0.506634E-04  0.288E-01    0.21       1.0  T
  12   -288.3986868 -0.218564E-02  0.271E-01    0.20       1.0  T
  13   -288.3984529  0.233841E-03  0.265E-01    0.20       1.0  T
  14   -288.4021934 -0.374041E-02  0.223E-01    0.18       1.0  T
  15   -288.4038827 -0.168939E-02  0.197E-01    0.18       1.0  T
  16   -288.4051369 -0.125416E-02  0.177E-01    0.17       1.0  T
  17   -288.4064474 -0.131052E-02  0.152E-01    0.16       1.0  T
  18   -288.4082379 -0.179044E-02  0.108E-01    0.15       1.0  T
  19   -288.4084657 -0.227838E-03  0.961E-02    0.15       1.0  T
  20   -288.4095994 -0.113374E-02  0.543E-02    0.14       1.0  T
  21   -288.4099484 -0.348944E-03  0.271E-02    0.13       1.0  T
  22   -288.4100269 -0.785260E-04  0.149E-02    0.13       1.0  T
  23   -288.4100578 -0.309237E-04  0.431E-03    0.13       1.9  T
  24   -288.4100552  0.266035E-05  0.539E-03    0.13       1.5  T
  25   -288.4100587 -0.355875E-05  0.419E-03    0.13       1.9  T
  26   -288.4100602 -0.146696E-05  0.257E-03    0.13       3.1  T
  27   -288.4100582  0.196598E-05  0.440E-03    0.13       1.8  T
  28   -288.4100613 -0.310409E-05  0.122E-03    0.13       6.6  T
  29   -288.4100613  0.323910E-07  0.136E-03    0.13       5.9  T
  30   -288.4100616 -0.278146E-06  0.682E-05    0.13     118.1  T
  31   -288.4100616  0.734531E-08  0.237E-04    0.13      34.1  T
     SCC iter.                  ...        0 min,  1.799 sec
     gradient                   ...        0 min,  0.215 sec
 * total energy  :  -283.7058878 Eh     change       -0.1633766E+00 Eh
   gradient norm :     0.1763426 Eh/α   predicted    -0.1576405E+00 (  -3.51%)
   displ. norm   :     0.7450872 α      lambda       -0.1123943E+00
   maximum displ.:     0.2458778 α      in ANC's #158, #157, #156, ...

........................................................................
.............................. CYCLE    4 ..............................
........................................................................
   1   -288.4783027 -0.288478E+03  0.432E-01    0.10       0.0  T
   2   -288.0407434  0.437559E+00  0.123E+00    0.41       1.0  T
   3   -288.3418796 -0.301136E+00  0.851E-01    0.33       1.0  T
   4   -288.4236464 -0.817668E-01  0.439E-01    0.05       1.0  T
   5   -288.4546092 -0.309627E-01  0.457E-01    0.32       1.0  T
   6   -288.4680781 -0.134689E-01  0.381E-01    0.28       1.0  T
   7   -288.4586025  0.947563E-02  0.427E-01    0.18       1.0  T
   8   -288.4764920 -0.178895E-01  0.288E-01    0.16       1.0  T
   9   -288.4781980 -0.170601E-02  0.274E-01    0.25       1.0  T
  10   -288.4895764 -0.113784E-01  0.199E-01    0.18       1.0  T
  11   -288.4913835 -0.180718E-02  0.181E-01    0.16       1.0  T
  12   -288.4944359 -0.305235E-02  0.120E-01    0.12       1.0  T
  13   -288.4265084  0.679275E-01  0.503E-01    0.04       1.0  T
  14   -288.4994193 -0.729109E-01  0.530E-02    0.12       1.0  T
  15   -288.4976236  0.179566E-02  0.859E-02    0.10       1.0  T
  16   -288.4981458 -0.522144E-03  0.720E-02    0.10       1.0  T
  17   -288.5000178 -0.187201E-02  0.213E-02    0.12       1.0  T
  18   -288.5000756 -0.578338E-04  0.189E-02    0.12       1.0  T
  19   -288.5000804 -0.475663E-05  0.212E-02    0.12       1.0  T
  20   -288.5000876 -0.719169E-05  0.188E-02    0.12       1.0  T
  21   -288.5001247 -0.371088E-04  0.127E-02    0.12       1.0  T
  22   -288.5001326 -0.791569E-05  0.104E-02    0.12       1.0  T
  23   -288.5001291  0.348833E-05  0.954E-03    0.12       1.0  T
  24   -288.5001438 -0.146714E-04  0.602E-03    0.12       1.3  T
  25   -288.5001489 -0.511846E-05  0.381E-03    0.12       2.1  T
  26   -288.5001503 -0.140328E-05  0.305E-03    0.12       2.6  T
  27   -288.5001513 -0.958112E-06  0.219E-03    0.12       3.7  T
  28   -288.5001516 -0.318802E-06  0.157E-03    0.12       5.1  T
  29   -288.5001518 -0.248562E-06  0.881E-04    0.12       9.1  T
  30   -288.5001519 -0.765741E-07  0.565E-04    0.12      14.3  T
     SCC iter.                  ...        0 min,  1.742 sec
     gradient                   ...        0 min,  0.215 sec
 * total energy  :  -283.7976460 Eh     change       -0.9175822E-01 Eh
   gradient norm :     0.1068683 Eh/α   predicted    -0.8739544E-01 (  -4.75%)
   displ. norm   :     0.7942815 α      lambda       -0.7739886E-01
   maximum displ.:     0.2375415 α      in ANC's #158, #84, #157, ...

........................................................................
.............................. CYCLE    5 ..............................
........................................................................
   1   -288.5691789 -0.288569E+03  0.391E-01    0.11       0.0  T
   2   -288.4155284  0.153651E+00  0.753E-01    0.28       1.0  T
   3   -288.4382672 -0.227388E-01  0.794E-01    0.21       1.0  T
   4   -288.3334668  0.104800E+00  0.748E-01    0.01       1.0  T
   5   -288.5481360 -0.214669E+00  0.390E-01    0.41       1.0  T
   6   -288.5528015 -0.466545E-02  0.350E-01    0.36       1.0  T
   7   -288.5214019  0.313996E-01  0.472E-01    0.38       1.0  T
   8   -288.5580404 -0.366385E-01  0.294E-01    0.35       1.0  T
   9   -288.5675532 -0.951275E-02  0.218E-01    0.23       1.0  T
  10   -288.5703636 -0.281047E-02  0.193E-01    0.26       1.0  T
  11   -288.5704863 -0.122696E-03  0.191E-01    0.25       1.0  T
  12   -288.5707270 -0.240680E-03  0.189E-01    0.25       1.0  T
  13   -288.5801386 -0.941156E-02  0.955E-02    0.15       1.0  T
  14   -288.5820534 -0.191484E-02  0.538E-02    0.12       1.0  T
  15   -288.5820266  0.267566E-04  0.539E-02    0.11       1.0  T
  16   -288.5801700  0.185668E-02  0.724E-02    0.10       1.0  T
  17   -288.5816364 -0.146647E-02  0.437E-02    0.10       1.0  T
  18   -288.5814861  0.150308E-03  0.516E-02    0.13       1.0  T
  19   -288.5823151 -0.828957E-03  0.152E-02    0.12       1.0  T
  20   -288.5823372 -0.220717E-04  0.110E-02    0.12       1.0  T
  21   -288.5823680 -0.308681E-04  0.720E-03    0.12       1.1  T
  22   -288.5823876 -0.196077E-04  0.122E-03    0.12       6.6  T
  23   -288.5823861  0.157410E-05  0.188E-03    0.12       4.3  T
  24   -288.5823879 -0.181109E-05  0.649E-04    0.12      12.4  T
  25   -288.5823881 -0.188074E-06  0.409E-04    0.12      19.7  T
  26   -288.5823881 -0.790493E-08  0.362E-04    0.12      22.3  T
     SCC iter.                  ...        0 min,  1.507 sec
     gradient                   ...        0 min,  0.215 sec
 * total energy  :  -283.8633895 Eh     change       -0.6574348E-01 Eh
   gradient norm :     0.0866032 Eh/α   predicted    -0.6311526E-01 (  -4.00%)
   displ. norm   :     0.8120034 α      lambda       -0.5756985E-01
   maximum displ.:     0.2815249 α      in ANC's #84, #82, #81, ...

........................................................................
.............................. CYCLE    6 ..............................
........................................................................
   1   -288.6507164 -0.288651E+03  0.354E-01    0.11       0.0  T
   2   -288.6422947  0.842175E-02  0.273E-01    0.14       1.0  T
   3   -287.9923217  0.649973E+00  0.117E+00    0.04       1.0  T
   4   -288.5094103 -0.517089E+00  0.672E-01    0.04       1.0  T
   5   -288.6361596 -0.126749E+00  0.260E-01    0.39       1.0  T
   6   -288.5086827  0.127477E+00  0.516E-01    0.02       1.0  T
   7   -288.6303235 -0.121641E+00  0.309E-01    0.34       1.0  T
   8   -288.6385890 -0.826547E-02  0.240E-01    0.33       1.0  T
   9   -288.6326263  0.596269E-02  0.270E-01    0.31       1.0  T
  10   -288.6446067 -0.119805E-01  0.189E-01    0.24       1.0  T
  11   -288.6477334 -0.312665E-02  0.155E-01    0.20       1.0  T
  12   -288.6492698 -0.153637E-02  0.140E-01    0.17       1.0  T
  13   -288.6504119 -0.114212E-02  0.126E-01    0.15       1.0  T
  14   -288.6507706 -0.358752E-03  0.119E-01    0.15       1.0  T
  15   -288.6511480 -0.377410E-03  0.114E-01    0.15       1.0  T
  16   -288.6522052 -0.105712E-02  0.101E-01    0.15       1.0  T
  17   -288.6531890 -0.983866E-03  0.852E-02    0.14       1.0  T
  18   -288.6532172 -0.281884E-04  0.846E-02    0.14       1.0  T
  19   -288.6533459 -0.128662E-03  0.771E-02    0.13       1.0  T
  20   -288.6550580 -0.171208E-02  0.438E-02    0.13       1.0  T
  21   -288.6549913  0.666266E-04  0.440E-02    0.13       1.0  T
  22   -288.6553128 -0.321441E-03  0.295E-02    0.13       1.0  T
  23   -288.6554262 -0.113472E-03  0.182E-02    0.12       1.0  T
  24   -288.6554082  0.179974E-04  0.159E-02    0.12       1.0  T
  25   -288.6553933  0.149750E-04  0.144E-02    0.11       1.0  T
  26   -288.6554240 -0.307376E-04  0.118E-02    0.11       1.0  T
  27   -288.6554808 -0.568237E-04  0.421E-03    0.12       1.9  T
  28   -288.6554809 -0.468745E-07  0.302E-03    0.12       2.7  T
  29   -288.6554827 -0.183809E-05  0.131E-03    0.12       6.1  T
  30   -288.6554819  0.816036E-06  0.131E-03    0.12       6.1  T
  31   -288.6554829 -0.998067E-06  0.694E-04    0.12      11.6  T
  32   -288.6554830 -0.118260E-06  0.176E-04    0.12      45.9  T
     SCC iter.                  ...        0 min,  1.855 sec
     gradient                   ...        0 min,  0.216 sec
 * total energy  :  -283.9126497 Eh     change       -0.4926022E-01 Eh
   gradient norm :     0.0667623 Eh/α   predicted    -0.4776426E-01 (  -3.04%)
   displ. norm   :     0.8117629 α      lambda       -0.4225779E-01
   maximum displ.:     0.2953773 α      in ANC's #84, #25, #82, ...

........................................................................
.............................. CYCLE    7 ..............................
........................................................................
   1   -288.7124376 -0.288712E+03  0.343E-01    0.12       0.0  T
   2   -288.6765857  0.358519E-01  0.381E-01    0.07       1.0  T
   3   -288.3174550  0.359131E+00  0.904E-01    0.03       1.0  T
   4   -288.5534727 -0.236018E+00  0.752E-01    0.34       1.0  T
   5   -288.6720371 -0.118564E+00  0.397E-01    0.40       1.0  T
   6   -288.6760349 -0.399773E-02  0.276E-01    0.08       1.0  T
   7   -288.6839409 -0.790604E-02  0.330E-01    0.35       1.0  T
   8   -288.7039267 -0.199858E-01  0.167E-01    0.20       1.0  T
   9   -288.7086600 -0.473329E-02  0.119E-01    0.14       1.0  T
  10   -288.7104332 -0.177319E-02  0.105E-01    0.16       1.0  T
  11   -288.7105771 -0.143913E-03  0.104E-01    0.17       1.0  T
  12   -288.7114671 -0.890043E-03  0.938E-02    0.16       1.0  T
  13   -288.7074359  0.403122E-02  0.118E-01    0.08       1.0  T
  14   -288.7118587 -0.442276E-02  0.775E-02    0.10       1.0  T
  15   -288.6462346  0.656241E-01  0.338E-01    0.02       1.0  T
  16   -288.7067967 -0.605621E-01  0.117E-01    0.08       1.0  T
  17   -288.7136478 -0.685115E-02  0.461E-02    0.10       1.0  T
  18   -288.7147343 -0.108642E-02  0.143E-02    0.12       1.0  T
  19   -288.7147992 -0.649292E-04  0.918E-03    0.13       1.0  T
  20   -288.7147287  0.705314E-04  0.140E-02    0.13       1.0  T
  21   -288.7147868 -0.581246E-04  0.989E-03    0.13       1.0  T
  22   -288.7148103 -0.235648E-04  0.710E-03    0.13       1.1  T
  23   -288.7148271 -0.167958E-04  0.462E-03    0.13       1.7  T
  24   -288.7148318 -0.463749E-05  0.357E-03    0.13       2.3  T
  25   -288.7148353 -0.351979E-05  0.263E-03    0.13       3.1  T
  26   -288.7148370 -0.173816E-05  0.198E-03    0.13       4.1  T
  27   -288.7148377 -0.613112E-06  0.167E-03    0.13       4.8  T
  28   -288.7148385 -0.865926E-06  0.113E-03    0.13       7.1  T
  29   -288.7148390 -0.489963E-06  0.663E-04    0.13      12.1  T
  30   -288.7148392 -0.153792E-06  0.426E-04    0.13      18.9  T
     SCC iter.                  ...        0 min,  1.744 sec
     gradient                   ...        0 min,  0.216 sec
 * total energy  :  -283.9485243 Eh     change       -0.3587457E-01 Eh
   gradient norm :     0.0467034 Eh/α   predicted    -0.3505199E-01 (  -2.29%)
   displ. norm   :     0.8079132 α      lambda       -0.2976252E-01
   maximum displ.:     0.3584758 α      in ANC's #25, #84, #82, ...

........................................................................
.............................. CYCLE    8 ..............................
........................................................................
   1   -288.7512003 -0.288751E+03  0.320E-01    0.14       0.0  T
   2   -288.6388327  0.112368E+00  0.523E-01    0.02       1.0  T
   3   -288.6675611 -0.287283E-01  0.452E-01    0.04       1.0  T
   4   -288.7102055 -0.426445E-01  0.362E-01    0.48       1.0  T
   5   -288.7361645 -0.259590E-01  0.258E-01    0.37       1.0  T
   6   -288.6844867  0.516779E-01  0.530E-01    0.32       1.0  T
   7   -288.7446804 -0.601938E-01  0.169E-01    0.26       1.0  T
   8   -288.7460794 -0.139895E-02  0.158E-01    0.23       1.0  T
   9   -288.7509148 -0.483540E-02  0.944E-02    0.19       1.0  T
  10   -288.7521167 -0.120192E-02  0.716E-02    0.17       1.0  T
  11   -288.7524884 -0.371649E-03  0.560E-02    0.17       1.0  T
  12   -288.7535710 -0.108265E-02  0.237E-02    0.15       1.0  T
  13   -288.7537124 -0.141388E-03  0.121E-02    0.14       1.0  T
  14   -288.7537441 -0.316704E-04  0.871E-03    0.13       1.0  T
  15   -288.7537614 -0.173402E-04  0.676E-03    0.14       1.2  T
  16   -288.7537621 -0.716199E-06  0.622E-03    0.13       1.3  T
  17   -288.7537760 -0.139170E-04  0.253E-03    0.14       3.2  T
  18   -288.7537764 -0.350589E-06  0.182E-03    0.14       4.4  T
  19   -288.7537779 -0.150399E-05  0.391E-04    0.14      20.6  T
  20   -288.7537779  0.135846E-07  0.359E-04    0.14      22.4  T
  21   -288.7537779 -0.399089E-07  0.170E-04    0.14      47.4  T
     SCC iter.                  ...        0 min,  1.217 sec
     gradient                   ...        0 min,  0.216 sec
 * total energy  :  -283.9737173 Eh     change       -0.2519298E-01 Eh
   gradient norm :     0.0335907 Eh/α   predicted    -0.2459464E-01 (  -2.38%)
   displ. norm   :     0.8286711 α      lambda       -0.2150864E-01
   maximum displ.:     0.4738602 α      in ANC's #25, #12, #84, ...

........................................................................
.............................. CYCLE    9 ..............................
........................................................................
   1   -288.7715034 -0.288772E+03  0.284E-01    0.19       0.0  T
   2   -288.6417445  0.129759E+00  0.527E-01    0.02       1.0  T
   3   -288.7596168 -0.117872E+00  0.252E-01    0.24       1.0  T
   4   -288.7430643  0.165525E-01  0.355E-01    0.16       1.0  T
   5   -288.7482323 -0.516800E-02  0.331E-01    0.30       1.0  T
   6   -288.7626843 -0.144520E-01  0.211E-01    0.23       1.0  T
   7   -288.7695909 -0.690661E-02  0.138E-01    0.20       1.0  T
   8   -288.7707095 -0.111856E-02  0.107E-01    0.24       1.0  T
   9   -288.7733906 -0.268114E-02  0.592E-02    0.16       1.0  T
  10   -288.7735819 -0.191273E-03  0.537E-02    0.20       1.0  T
  11   -288.7740218 -0.439904E-03  0.365E-02    0.17       1.0  T
  12   -288.7746029 -0.581140E-03  0.168E-02    0.16       1.0  T
  13   -288.7746160 -0.130135E-04  0.108E-02    0.15       1.0  T
  14   -288.7746572 -0.412586E-04  0.442E-03    0.15       1.8  T
  15   -288.7746452  0.120037E-04  0.557E-03    0.16       1.4  T
  16   -288.7746612 -0.160230E-04  0.244E-03    0.15       3.3  T
  17   -288.7746644 -0.315867E-05  0.734E-04    0.16      11.0  T
  18   -288.7746646 -0.212004E-06  0.369E-04    0.16      21.8  T
  19   -288.7746646 -0.199025E-07  0.261E-04    0.16      30.8  T
     SCC iter.                  ...        0 min,  1.100 sec
     gradient                   ...        0 min,  0.216 sec
 * total energy  :  -283.9927361 Eh     change       -0.1901881E-01 Eh
   gradient norm :     0.0285069 Eh/α   predicted    -0.1813929E-01 (  -4.62%)
   displ. norm   :     0.8940611 α      lambda       -0.1893078E-01
   maximum displ.:     0.5666451 α      in ANC's #25, #12, #13, ...

........................................................................
.............................. CYCLE   10 ..............................
........................................................................
   1   -288.7821536 -0.288782E+03  0.266E-01    0.26       0.0  T
   2   -288.7181620  0.639917E-01  0.433E-01    0.06       1.0  T
   3   -288.7719743 -0.538123E-01  0.247E-01    0.24       1.0  T
   4   -288.7776032 -0.562886E-02  0.180E-01    0.42       1.0  T
   5   -288.7771539  0.449224E-03  0.186E-01    0.26       1.0  T
   6   -288.7812957 -0.414178E-02  0.138E-01    0.26       1.0  T
   7   -288.7847274 -0.343165E-02  0.612E-02    0.29       1.0  T
   8   -288.7849569 -0.229507E-03  0.587E-02    0.20       1.0  T
   9   -288.7852719 -0.314992E-03  0.317E-02    0.25       1.0  T
  10   -288.7854875 -0.215666E-03  0.201E-02    0.21       1.0  T
  11   -288.7855275 -0.399787E-04  0.107E-02    0.21       1.0  T
  12   -288.7855493 -0.218105E-04  0.695E-03    0.19       1.2  T
  13   -288.7855602 -0.109087E-04  0.421E-03    0.19       1.9  T
  14   -288.7855660 -0.575282E-05  0.167E-03    0.20       4.8  T
  15   -288.7855666 -0.619770E-06  0.725E-04    0.20      11.1  T
  16   -288.7855668 -0.180901E-06  0.345E-04    0.20      23.3  T
     SCC iter.                  ...        0 min,  0.928 sec
     gradient                   ...        0 min,  0.216 sec
 * total energy  :  -284.0112066 Eh     change       -0.1847049E-01 Eh
   gradient norm :     0.0301952 Eh/α   predicted    -0.1703152E-01 (  -7.79%)
   displ. norm   :     0.9717515 α      lambda       -0.2114628E-01
   maximum displ.:     0.6145005 α      in ANC's #25, #12, #28, ...

........................................................................
.............................. CYCLE   11 ..............................
........................................................................
   1   -288.7899496 -0.288790E+03  0.291E-01    0.37       0.0  T
   2   -288.7665997  0.233499E-01  0.359E-01    0.21       1.0  T
   3   -288.7748062 -0.820654E-02  0.317E-01    0.33       1.0  T
   4   -288.7752815 -0.475306E-03  0.277E-01    0.44       1.0  T
   5   -288.7917333 -0.164517E-01  0.850E-02    0.34       1.0  T
   6   -288.7923995 -0.666190E-03  0.600E-02    0.27       1.0  T
   7   -288.7931758 -0.776349E-03  0.226E-02    0.31       1.0  T
   8   -288.7931293  0.465295E-04  0.194E-02    0.28       1.0  T
   9   -288.7931910 -0.616907E-04  0.966E-03    0.30       1.0  T
  10   -288.7932087 -0.176667E-04  0.400E-03    0.30       2.0  T
  11   -288.7932110 -0.236547E-05  0.200E-03    0.30       4.0  T
  12   -288.7932115 -0.438699E-06  0.102E-03    0.30       7.9  T
  13   -288.7932116 -0.117037E-06  0.689E-04    0.30      11.7  T
  14   -288.7932116 -0.545266E-07  0.380E-04    0.30      21.2  T
     SCC iter.                  ...        0 min,  0.813 sec
     gradient                   ...        0 min,  0.216 sec
 * total energy  :  -284.0332045 Eh     change       -0.2199794E-01 Eh
   gradient norm :     0.0378028 Eh/α   predicted    -0.2055736E-01 (  -6.55%)
   displ. norm   :     0.9528542 α      lambda       -0.2347991E-01
   maximum displ.:     0.5949411 α      in ANC's #25, #12, #28, ...

........................................................................
.............................. CYCLE   12 ..............................
........................................................................
   1   -288.7841651 -0.288784E+03  0.282E-01    0.54       0.0  T
   2   -288.7755352  0.862991E-02  0.261E-01    0.47       1.0  T
   3   -288.7711966  0.433858E-02  0.291E-01    0.55       1.0  T
   4   -288.7790338 -0.783720E-02  0.181E-01    0.61       1.0  T
   5   -288.7857872 -0.675336E-02  0.575E-02    0.54       1.0  T
   6   -288.7860492 -0.262028E-03  0.322E-02    0.52       1.0  T
   7   -288.7861730 -0.123779E-03  0.223E-02    0.55       1.0  T
   8   -288.7862106 -0.375787E-04  0.986E-03    0.53       1.0  T
   9   -288.7862231 -0.125543E-04  0.471E-03    0.54       1.7  T
  10   -288.7862280 -0.490849E-05  0.210E-03    0.54       3.8  T
  11   -288.7862284 -0.428888E-06  0.118E-03    0.54       6.8  T
  12   -288.7862286 -0.122018E-06  0.843E-04    0.54       9.6  T
  13   -288.7862287 -0.896453E-07  0.408E-04    0.54      19.8  T
     SCC iter.                  ...        0 min,  0.756 sec
     gradient                   ...        0 min,  0.216 sec
 * total energy  :  -284.0586086 Eh     change       -0.2540407E-01 Eh
   gradient norm :     0.0534957 Eh/α   predicted    -0.2239902E-01 ( -11.83%)
   displ. norm   :     0.9118492 α      lambda       -0.2804000E-01
   maximum displ.:     0.5431538 α      in ANC's #25, #12, #28, ...

........................................................................
.............................. CYCLE   13 ..............................
........................................................................
   1   -288.7795109 -0.288780E+03  0.268E-01    0.87       0.0  T
   2   -288.7758070  0.370388E-02  0.215E-01    0.81       1.0  T
   3   -288.7710552  0.475180E-02  0.247E-01    0.90       1.0  T
   4   -288.7788269 -0.777166E-02  0.106E-01    0.92       1.0  T
   5   -288.7805853 -0.175841E-02  0.554E-02    0.88       1.0  T
   6   -288.7810108 -0.425539E-03  0.223E-02    0.88       1.0  T
   7   -288.7809867  0.240902E-04  0.164E-02    0.89       1.0  T
   8   -288.7810233 -0.365468E-04  0.824E-03    0.87       1.0  T
   9   -288.7810373 -0.140667E-04  0.293E-03    0.88       2.8  T
  10   -288.7810382 -0.921222E-06  0.181E-03    0.88       4.5  T
  11   -288.7810386 -0.407061E-06  0.884E-04    0.88       9.1  T
  12   -288.7810387 -0.843191E-07  0.586E-04    0.88      13.8  T
     SCC iter.                  ...        0 min,  0.698 sec
     gradient                   ...        0 min,  0.216 sec
 * total energy  :  -284.0890609 Eh     change       -0.3045228E-01 Eh
   gradient norm :     0.0681495 Eh/α   predicted    -0.2567723E-01 ( -15.68%)
   displ. norm   :     0.8777774 α      lambda       -0.3323747E-01
   maximum displ.:     0.5015886 α      in ANC's #25, #12, #28, ...

........................................................................
.............................. CYCLE   14 ..............................
........................................................................
   1   -288.7768583 -0.288777E+03  0.242E-01    1.25       0.0  T
   2   -288.7751375  0.172080E-02  0.187E-01    1.25       1.0  T
   3   -288.7722912  0.284626E-02  0.197E-01    1.31       1.0  T
   4   -288.7775296 -0.523840E-02  0.582E-02    1.31       1.0  T
   5   -288.7776399 -0.110265E-03  0.462E-02    1.30       1.0  T
   6   -288.7779497 -0.309821E-03  0.211E-02    1.31       1.0  T
   7   -288.7779455  0.421092E-05  0.126E-02    1.30       1.0  T
   8   -288.7779698 -0.242788E-04  0.649E-03    1.30       1.2  T
   9   -288.7779798 -0.100755E-04  0.215E-03    1.30       3.8  T
  10   -288.7779802 -0.400732E-06  0.140E-03    1.30       5.8  T
  11   -288.7779804 -0.200326E-06  0.856E-04    1.30       9.4  T
  12   -288.7779805 -0.748650E-07  0.447E-04    1.30      18.0  T
     SCC iter.                  ...        0 min,  0.700 sec
     gradient                   ...        0 min,  0.216 sec
 * total energy  :  -284.1244826 Eh     change       -0.3542171E-01 Eh
   gradient norm :     0.0799102 Eh/α   predicted    -0.2942343E-01 ( -16.93%)
   displ. norm   :     0.8525297 α      lambda       -0.3765908E-01
   maximum displ.:     0.4747544 α      in ANC's #25, #12, #28, ...

........................................................................
.............................. CYCLE   15 ..............................
........................................................................
   1   -288.7775243 -0.288778E+03  0.215E-01    1.32       0.0  T
   2   -288.7764807  0.104356E-02  0.172E-01    1.32       1.0  T
   3   -288.7750741  0.140660E-02  0.157E-01    1.32       1.0  T
   4   -288.7782436 -0.316945E-02  0.417E-02    1.32       1.0  T
   5   -288.7783049 -0.613551E-04  0.277E-02    1.32       1.0  T
   6   -288.7783535 -0.485603E-04  0.195E-02    1.32       1.0  T
   7   -288.7783835 -0.300212E-04  0.987E-03    1.32       1.0  T
   8   -288.7783938 -0.103394E-04  0.512E-03    1.32       1.6  T
   9   -288.7783992 -0.540431E-05  0.182E-03    1.32       4.4  T
  10   -288.7783996 -0.348802E-06  0.120E-03    1.32       6.7  T
  11   -288.7783997 -0.139307E-06  0.705E-04    1.32      11.4  T
  12   -288.7783998 -0.564605E-07  0.388E-04    1.32      20.7  T
     SCC iter.                  ...        0 min,  0.701 sec
     gradient                   ...        0 min,  0.216 sec
 * total energy  :  -284.1613579 Eh     change       -0.3687532E-01 Eh
   gradient norm :     0.0796905 Eh/α   predicted    -0.3251515E-01 ( -11.82%)
   displ. norm   :     0.9408709 α      lambda       -0.5816455E-01
   maximum displ.:     0.3795972 α      in ANC's #12, #25, #28, ...

........................................................................
.............................. CYCLE   16 ..............................
........................................................................
   1   -288.8075916 -0.288808E+03  0.356E-01    1.26       0.0  T
   2   -288.8053831  0.220845E-02  0.278E-01    1.26       1.0  T
   3   -288.8001195  0.526365E-02  0.246E-01    1.24       1.0  T
   4   -288.8090548 -0.893530E-02  0.654E-02    1.25       1.0  T
   5   -288.8095736 -0.518877E-03  0.334E-02    1.24       1.0  T
   6   -288.8096766 -0.102963E-03  0.231E-02    1.24       1.0  T
   7   -288.8097295 -0.529387E-04  0.137E-02    1.24       1.0  T
   8   -288.8097433 -0.137336E-04  0.703E-03    1.24       1.1  T
   9   -288.8097519 -0.858428E-05  0.299E-03    1.24       2.7  T
  10   -288.8097525 -0.655307E-06  0.192E-03    1.24       4.2  T
  11   -288.8097525 -0.329699E-07  0.131E-03    1.24       6.2  T
  12   -288.8097528 -0.230448E-06  0.689E-04    1.24      11.7  T
  13   -288.8097528 -0.655926E-07  0.344E-04    1.24      23.5  T
     SCC iter.                  ...        0 min,  0.761 sec
     gradient                   ...        0 min,  0.216 sec
 * total energy  :  -284.2018451 Eh     change       -0.4048716E-01 Eh
   gradient norm :     0.1162058 Eh/α   predicted    -0.5482713E-01 (  35.42%)
   displ. norm   :     0.7023079 α      lambda       -0.4010549E-01
   maximum displ.:     0.3893238 α      in ANC's #25, #12, #13, ...

........................................................................
.............................. CYCLE   17 ..............................
........................................................................
   1   -288.8014203 -0.288801E+03  0.162E-01    1.24       0.0  T
   2   -288.8008354  0.584910E-03  0.137E-01    1.25       1.0  T
   3   -288.8004281  0.407291E-03  0.101E-01    1.24       1.0  T
   4   -288.8016835 -0.125541E-02  0.352E-02    1.25       1.0  T
   5   -288.8018661 -0.182574E-03  0.172E-02    1.24       1.0  T
   6   -288.8018705 -0.442321E-05  0.125E-02    1.24       1.0  T
   7   -288.8018798 -0.929693E-05  0.730E-03    1.24       1.1  T
   8   -288.8018874 -0.759646E-05  0.260E-03    1.24       3.1  T
   9   -288.8018882 -0.822254E-06  0.145E-03    1.24       5.6  T
  10   -288.8018884 -0.153268E-06  0.104E-03    1.24       7.7  T
  11   -288.8018885 -0.123825E-06  0.484E-04    1.24      16.6  T
  12   -288.8018885 -0.183684E-07  0.295E-04    1.24      27.3  T
     SCC iter.                  ...        0 min,  0.702 sec
     gradient                   ...        0 min,  0.216 sec
 * total energy  :  -284.2350782 Eh     change       -0.3323307E-01 Eh
   gradient norm :     0.0802232 Eh/α   predicted    -0.2994355E-01 (  -9.90%)
   displ. norm   :     0.7299694 α      lambda       -0.3694479E-01
   maximum displ.:     0.3866316 α      in ANC's #12, #25, #13, ...

........................................................................
.............................. CYCLE   18 ..............................
........................................................................
   1   -288.8513300 -0.288851E+03  0.189E-01    1.25       0.0  T
   2   -288.8510555  0.274479E-03  0.134E-01    1.26       1.0  T
   3   -288.8486804  0.237513E-02  0.122E-01    1.26       1.0  T
   4   -288.8515091 -0.282876E-02  0.346E-02    1.26       1.0  T
   5   -288.8516993 -0.190230E-03  0.163E-02    1.26       1.0  T
   6   -288.8517132 -0.138892E-04  0.114E-02    1.26       1.0  T
   7   -288.8517173 -0.409308E-05  0.588E-03    1.26       1.4  T
   8   -288.8517217 -0.442266E-05  0.264E-03    1.26       3.1  T
   9   -288.8517225 -0.802146E-06  0.154E-03    1.26       5.2  T
  10   -288.8517227 -0.170678E-06  0.107E-03    1.26       7.6  T
  11   -288.8517228 -0.961746E-07  0.645E-04    1.26      12.5  T
  12   -288.8517228 -0.324687E-07  0.341E-04    1.26      23.6  T
     SCC iter.                  ...        0 min,  0.702 sec
     gradient                   ...        0 min,  0.216 sec
 * total energy  :  -284.2619814 Eh     change       -0.2690329E-01 Eh
   gradient norm :     0.0592638 Eh/α   predicted    -0.2831557E-01 (   5.25%)
   displ. norm   :     0.8746537 α      lambda       -0.2851559E-01
   maximum displ.:     0.5328470 α      in ANC's #12, #25, #13, ...

........................................................................
.............................. CYCLE   19 ..............................
........................................................................
   1   -288.8879152 -0.288888E+03  0.169E-01    1.23       0.0  T
   2   -288.8876762  0.238970E-03  0.123E-01    1.24       1.0  T
   3   -288.8853031  0.237318E-02  0.117E-01    1.23       1.0  T
   4   -288.8880756 -0.277253E-02  0.253E-02    1.24       1.0  T
   5   -288.8881574 -0.818439E-04  0.139E-02    1.24       1.0  T
   6   -288.8881456  0.118832E-04  0.114E-02    1.24       1.0  T
   7   -288.8881659 -0.203008E-04  0.499E-03    1.24       1.6  T
   8   -288.8881713 -0.544741E-05  0.162E-03    1.24       5.0  T
   9   -288.8881717 -0.387548E-06  0.101E-03    1.24       8.0  T
  10   -288.8881718 -0.101578E-06  0.543E-04    1.24      14.8  T
  11   -288.8881718 -0.164570E-07  0.282E-04    1.24      28.6  T
     SCC iter.                  ...        0 min,  0.643 sec
     gradient                   ...        0 min,  0.216 sec
 * total energy  :  -284.2852296 Eh     change       -0.2324816E-01 Eh
   gradient norm :     0.0587761 Eh/α   predicted    -0.2516530E-01 (   8.25%)
   displ. norm   :     0.8509951 α      lambda       -0.2801279E-01
   maximum displ.:     0.4992273 α      in ANC's #12, #25, #13, ...

........................................................................
.............................. CYCLE   20 ..............................
........................................................................
   1   -288.9271926 -0.288927E+03  0.177E-01    1.23       0.0  T
   2   -288.9270774  0.115107E-03  0.118E-01    1.23       1.0  T
   3   -288.9243339  0.274355E-02  0.111E-01    1.23       1.0  T
   4   -288.9272836 -0.294968E-02  0.266E-02    1.23       1.0  T
   5   -288.9273947 -0.111137E-03  0.127E-02    1.23       1.0  T
   6   -288.9273938  0.905352E-06  0.101E-02    1.23       1.0  T
   7   -288.9274031 -0.925400E-05  0.452E-03    1.23       1.8  T
   8   -288.9274058 -0.278131E-05  0.192E-03    1.23       4.2  T
   9   -288.9274062 -0.385503E-06  0.128E-03    1.23       6.3  T
  10   -288.9274064 -0.132679E-06  0.774E-04    1.23      10.4  T
  11   -288.9274064 -0.495781E-07  0.422E-04    1.23      19.1  T
     SCC iter.                  ...        0 min,  0.643 sec
     gradient                   ...        0 min,  0.216 sec
 * total energy  :  -284.3075370 Eh     change       -0.2230738E-01 Eh
   gradient norm :     0.0499938 Eh/α   predicted    -0.2414975E-01 (   8.26%)
   displ. norm   :     0.8826794 α      lambda       -0.2269126E-01
   maximum displ.:     0.5435367 α      in ANC's #12, #25, #13, ...
 * RMSD in coord.:     0.9886327 α      energy gain  -0.1033065E+01 Eh

generating ANC from model Hessian ...
Using Lindh-Hessian (1995)
 Shifting diagonal of input Hessian by    1.0008397589249192E-002
 Lowest  eigenvalues of input Hessian
    0.010000    0.010003    0.010006    0.010007    0.010008    0.000000
    0.000000    0.000000    0.000000    0.000000    0.000000    0.010009
    0.010022    0.010023    0.010025    0.010042    0.010060    0.010150
 Highest eigenvalues
    2.113141    2.130934    2.295259    2.567096    2.583404    2.779090


........................................................................
.............................. CYCLE   21 ..............................
........................................................................
   1   -288.9706145 -0.288971E+03  0.142E-01    1.21       0.0  T
   2   -288.9706043  0.102454E-04  0.908E-02    1.21       1.0  T
   3   -288.9693602  0.124406E-02  0.641E-02    1.21       1.0  T
   4   -288.9706104 -0.125015E-02  0.187E-02    1.21       1.0  T
   5   -288.9706693 -0.589267E-04  0.112E-02    1.21       1.0  T
   6   -288.9706695 -0.214939E-06  0.848E-03    1.21       1.0  T
   7   -288.9706771 -0.752639E-05  0.313E-03    1.22       2.6  T
   8   -288.9706787 -0.162197E-05  0.130E-03    1.21       6.2  T
   9   -288.9706788 -0.148686E-06  0.851E-04    1.21       9.5  T
  10   -288.9706789 -0.588647E-07  0.486E-04    1.21      16.6  T
     SCC iter.                  ...        0 min,  0.584 sec
     gradient                   ...        0 min,  0.216 sec
 * total energy  :  -284.3270383 Eh     change       -0.1950135E-01 Eh
   gradient norm :     0.0466371 Eh/α   predicted     0.0000000E+00 (-100.00%)
   displ. norm   :     0.7162384 α      lambda       -0.1670140E-01
   maximum displ.:     0.4065219 α      in ANC's #35, #16, #22, ...

........................................................................
.............................. CYCLE   22 ..............................
........................................................................
   1   -289.0004554 -0.289000E+03  0.856E-02    1.20       0.0  T
   2   -289.0004185  0.368711E-04  0.588E-02    1.20       1.0  T
   3   -288.9996226  0.795898E-03  0.555E-02    1.20       1.0  T
   4   -289.0004747 -0.852054E-03  0.123E-02    1.20       1.0  T
   5   -289.0004965 -0.217581E-04  0.775E-03    1.20       1.0  T
   6   -289.0004959  0.558008E-06  0.592E-03    1.20       1.4  T
   7   -289.0005001 -0.417571E-05  0.229E-03    1.20       3.5  T
   8   -289.0005009 -0.810726E-06  0.898E-04    1.20       9.0  T
   9   -289.0005010 -0.998197E-07  0.508E-04    1.20      15.9  T
     SCC iter.                  ...        0 min,  0.526 sec
     gradient                   ...        0 min,  0.216 sec
 * total energy  :  -284.3427452 Eh     change       -0.1570683E-01 Eh
   gradient norm :     0.0293963 Eh/α   predicted    -0.1263461E-01 ( -19.56%)
   displ. norm   :     0.9265281 α      lambda       -0.1924723E-01
   maximum displ.:     0.5130754 α      in ANC's #35, #16, #22, ...

........................................................................
.............................. CYCLE   23 ..............................
........................................................................
   1   -289.0326650 -0.289033E+03  0.119E-01    1.18       0.0  T
   2   -289.0326138  0.511638E-04  0.798E-02    1.18       1.0  T
   3   -289.0312125  0.140130E-02  0.739E-02    1.18       1.0  T
   4   -289.0326941 -0.148166E-02  0.156E-02    1.18       1.0  T
   5   -289.0327269 -0.327847E-04  0.102E-02    1.18       1.0  T
   6   -289.0327258  0.112596E-05  0.766E-03    1.18       1.1  T
   7   -289.0327343 -0.851603E-05  0.288E-03    1.18       2.8  T
   8   -289.0327355 -0.120918E-05  0.114E-03    1.18       7.1  T
   9   -289.0327357 -0.138400E-06  0.662E-04    1.18      12.2  T
  10   -289.0327357 -0.286901E-07  0.424E-04    1.18      19.0  T
     SCC iter.                  ...        0 min,  0.584 sec
     gradient                   ...        0 min,  0.218 sec
 * total energy  :  -284.3604127 Eh     change       -0.1766749E-01 Eh
   gradient norm :     0.0219117 Eh/α   predicted    -0.1788505E-01 (   1.23%)
   displ. norm   :     0.9432260 α      lambda       -0.1759528E-01
   maximum displ.:     0.4923401 α      in ANC's #16, #35, #22, ...

........................................................................
.............................. CYCLE   24 ..............................
........................................................................
   1   -289.0611746 -0.289061E+03  0.147E-01    1.16       0.0  T
   2   -289.0611488  0.258487E-04  0.932E-02    1.16       1.0  T
   3   -289.0597475  0.140133E-02  0.712E-02    1.16       1.0  T
   4   -289.0611966 -0.144915E-02  0.147E-02    1.16       1.0  T
   5   -289.0612186 -0.220034E-04  0.103E-02    1.16       1.0  T
   6   -289.0612173  0.132011E-05  0.708E-03    1.16       1.1  T
   7   -289.0612262 -0.893762E-05  0.294E-03    1.16       2.7  T
   8   -289.0612277 -0.144433E-05  0.107E-03    1.16       7.5  T
   9   -289.0612278 -0.862971E-07  0.645E-04    1.16      12.5  T
  10   -289.0612278 -0.227571E-07  0.404E-04    1.16      20.0  T
     SCC iter.                  ...        0 min,  0.582 sec
     gradient                   ...        0 min,  0.217 sec
 * total energy  :  -284.3761453 Eh     change       -0.1573266E-01 Eh
   gradient norm :     0.0263197 Eh/α   predicted    -0.1662469E-01 (   5.67%)
   displ. norm   :     0.9244461 α      lambda       -0.1576234E-01
   maximum displ.:     0.5069263 α      in ANC's #16, #35, #22, ...

........................................................................
.............................. CYCLE   25 ..............................
........................................................................
   1   -289.0915328 -0.289092E+03  0.122E-01    1.15       0.0  T
   2   -289.0915240  0.882865E-05  0.778E-02    1.15       1.0  T
   3   -289.0906875  0.836495E-03  0.530E-02    1.15       1.0  T
   4   -289.0915449 -0.857338E-03  0.140E-02    1.15       1.0  T
   5   -289.0915632 -0.183116E-04  0.958E-03    1.15       1.0  T
   6   -289.0915646 -0.141178E-05  0.531E-03    1.15       1.5  T
   7   -289.0915684 -0.384064E-05  0.135E-03    1.15       6.0  T
   8   -289.0915685 -0.111491E-06  0.927E-04    1.15       8.7  T
   9   -289.0915686 -0.998098E-07  0.499E-04    1.15      16.1  T
     SCC iter.                  ...        0 min,  0.524 sec
     gradient                   ...        0 min,  0.217 sec
 * total energy  :  -284.3908060 Eh     change       -0.1466070E-01 Eh
   gradient norm :     0.0248027 Eh/α   predicted    -0.1461642E-01 (  -0.30%)
   displ. norm   :     0.9266355 α      lambda       -0.1412374E-01
   maximum displ.:     0.5389749 α      in ANC's #16, #22, #35, ...

........................................................................
.............................. CYCLE   26 ..............................
........................................................................
   1   -289.1211127 -0.289121E+03  0.111E-01    1.15       0.0  T
   2   -289.1211076  0.513611E-05  0.723E-02    1.15       1.0  T
   3   -289.1203835  0.724096E-03  0.514E-02    1.15       1.0  T
   4   -289.1211224 -0.738952E-03  0.155E-02    1.15       1.0  T
   5   -289.1211455 -0.230936E-04  0.101E-02    1.15       1.0  T
   6   -289.1211454  0.106758E-06  0.639E-03    1.15       1.3  T
   7   -289.1211499 -0.447900E-05  0.203E-03    1.15       4.0  T
   8   -289.1211506 -0.722692E-06  0.100E-03    1.15       8.0  T
   9   -289.1211508 -0.172668E-06  0.549E-04    1.15      14.7  T
  10   -289.1211508 -0.214108E-07  0.341E-04    1.15      23.6  T
     SCC iter.                  ...        0 min,  0.582 sec
     gradient                   ...        0 min,  0.217 sec
 * total energy  :  -284.4041591 Eh     change       -0.1335306E-01 Eh
   gradient norm :     0.0179336 Eh/α   predicted    -0.1312557E-01 (  -1.70%)
   displ. norm   :     0.9323756 α      lambda       -0.1290362E-01
   maximum displ.:     0.5691481 α      in ANC's #16, #22, #35, ...

........................................................................
.............................. CYCLE   27 ..............................
........................................................................
   1   -289.1507264 -0.289151E+03  0.110E-01    1.15       0.0  T
   2   -289.1507262  0.200106E-06  0.713E-02    1.15       1.0  T
   3   -289.1501653  0.560911E-03  0.470E-02    1.15       1.0  T
   4   -289.1507342 -0.568944E-03  0.154E-02    1.15       1.0  T
   5   -289.1507559 -0.217058E-04  0.102E-02    1.15       1.0  T
   6   -289.1507562 -0.313611E-06  0.660E-03    1.15       1.2  T
   7   -289.1507612 -0.495010E-05  0.211E-03    1.15       3.8  T
   8   -289.1507619 -0.736019E-06  0.994E-04    1.15       8.1  T
   9   -289.1507621 -0.167659E-06  0.527E-04    1.15      15.3  T
     SCC iter.                  ...        0 min,  0.526 sec
     gradient                   ...        0 min,  0.217 sec
 * total energy  :  -284.4163710 Eh     change       -0.1221188E-01 Eh
   gradient norm :     0.0143996 Eh/α   predicted    -0.1206052E-01 (  -1.24%)
   displ. norm   :     0.9356247 α      lambda       -0.1184221E-01
   maximum displ.:     0.5908187 α      in ANC's #16, #22, #24, ...

........................................................................
.............................. CYCLE   28 ..............................
........................................................................
   1   -289.1788040 -0.289179E+03  0.111E-01    1.15       0.0  T
   2   -289.1788042 -0.138236E-06  0.713E-02    1.15       1.0  T
   3   -289.1783389  0.465327E-03  0.447E-02    1.16       1.0  T
   4   -289.1788175 -0.478644E-03  0.137E-02    1.15       1.0  T
   5   -289.1788281 -0.106378E-04  0.978E-03    1.15       1.0  T
   6   -289.1788293 -0.117493E-05  0.622E-03    1.15       1.3  T
   7   -289.1788342 -0.489237E-05  0.200E-03    1.15       4.0  T
   8   -289.1788348 -0.568951E-06  0.925E-04    1.15       8.7  T
   9   -289.1788349 -0.122332E-06  0.467E-04    1.15      17.2  T
     SCC iter.                  ...        0 min,  0.527 sec
     gradient                   ...        0 min,  0.217 sec
 * total energy  :  -284.4275578 Eh     change       -0.1118684E-01 Eh
   gradient norm :     0.0135970 Eh/α   predicted    -0.1110440E-01 (  -0.74%)
   displ. norm   :     0.9398295 α      lambda       -0.1109663E-01
   maximum displ.:     0.6041709 α      in ANC's #16, #22, #24, ...

........................................................................
.............................. CYCLE   29 ..............................
........................................................................
   1   -289.2047296 -0.289205E+03  0.125E-01    1.15       0.0  T
   2   -289.2047302 -0.564780E-06  0.787E-02    1.15       1.0  T
   3   -289.2043068  0.423317E-03  0.438E-02    1.15       1.0  T
   4   -289.2047468 -0.439954E-03  0.127E-02    1.15       1.0  T
   5   -289.2047516 -0.476571E-05  0.930E-03    1.15       1.0  T
   6   -289.2047525 -0.968000E-06  0.563E-03    1.15       1.4  T
   7   -289.2047573 -0.473672E-05  0.193E-03    1.15       4.2  T
   8   -289.2047578 -0.522841E-06  0.897E-04    1.15       9.0  T
   9   -289.2047579 -0.100100E-06  0.432E-04    1.15      18.6  T
     SCC iter.                  ...        0 min,  0.526 sec
     gradient                   ...        0 min,  0.217 sec
 * total energy  :  -284.4377899 Eh     change       -0.1023213E-01 Eh
   gradient norm :     0.0136390 Eh/α   predicted    -0.1044903E-01 (   2.12%)
   displ. norm   :     0.9299505 α      lambda       -0.1041576E-01
   maximum displ.:     0.6094393 α      in ANC's #16, #22, #24, ...

........................................................................
.............................. CYCLE   30 ..............................
........................................................................
   1   -289.2303726 -0.289230E+03  0.123E-01    1.14       0.0  T
   2   -289.2303741 -0.144928E-05  0.769E-02    1.14       1.0  T
   3   -289.2300416  0.332494E-03  0.393E-02    1.15       1.0  T
   4   -289.2303891 -0.347500E-03  0.116E-02    1.14       1.0  T
   5   -289.2303912 -0.212123E-05  0.851E-03    1.14       1.0  T
   6   -289.2303928 -0.165588E-05  0.432E-03    1.14       1.9  T
   7   -289.2303959 -0.305782E-05  0.147E-03    1.14       5.5  T
   8   -289.2303962 -0.329922E-06  0.810E-04    1.14       9.9  T
   9   -289.2303963 -0.995175E-07  0.345E-04    1.14      23.4  T
     SCC iter.                  ...        0 min,  0.526 sec
     gradient                   ...        0 min,  0.217 sec
 * total energy  :  -284.4474171 Eh     change       -0.9627173E-02 Eh
   gradient norm :     0.0120990 Eh/α   predicted    -0.9711699E-02 (   0.88%)
   displ. norm   :     0.9285024 α      lambda       -0.9386772E-02
   maximum displ.:     0.6224766 α      in ANC's #16, #22, #24, ...

........................................................................
.............................. CYCLE   31 ..............................
........................................................................
   1   -289.2547083 -0.289255E+03  0.103E-01    1.14       0.0  T
   2   -289.2547094 -0.112759E-05  0.652E-02    1.14       1.0  T
   3   -289.2544248  0.284545E-03  0.364E-02    1.14       1.0  T
   4   -289.2547226 -0.297803E-03  0.112E-02    1.14       1.0  T
   5   -289.2547242 -0.156625E-05  0.814E-03    1.14       1.0  T
   6   -289.2547260 -0.175300E-05  0.417E-03    1.14       1.9  T
   7   -289.2547286 -0.260985E-05  0.149E-03    1.14       5.4  T
   8   -289.2547289 -0.290337E-06  0.789E-04    1.14      10.2  T
   9   -289.2547290 -0.891753E-07  0.322E-04    1.14      25.0  T
     SCC iter.                  ...        0 min,  0.525 sec
     gradient                   ...        0 min,  0.218 sec
 * total energy  :  -284.4563207 Eh     change       -0.8903599E-02 Eh
   gradient norm :     0.0107254 Eh/α   predicted    -0.8739636E-02 (  -1.84%)
   displ. norm   :     0.9343525 α      lambda       -0.8822041E-02
   maximum displ.:     0.6333120 α      in ANC's #16, #22, #24, ...

........................................................................
.............................. CYCLE   32 ..............................
........................................................................
   1   -289.2778612 -0.289278E+03  0.115E-01    1.13       0.0  T
   2   -289.2778621 -0.929852E-06  0.721E-02    1.13       1.0  T
   3   -289.2775673  0.294867E-03  0.367E-02    1.13       1.0  T
   4   -289.2778755 -0.308283E-03  0.112E-02    1.13       1.0  T
   5   -289.2778765 -0.935549E-06  0.815E-03    1.13       1.0  T
   6   -289.2778787 -0.222661E-05  0.380E-03    1.13       2.1  T
   7   -289.2778811 -0.243291E-05  0.116E-03    1.13       6.9  T
   8   -289.2778813 -0.169719E-06  0.724E-04    1.13      11.1  T
   9   -289.2778814 -0.101171E-06  0.296E-04    1.13      27.3  T
     SCC iter.                  ...        0 min,  0.525 sec
     gradient                   ...        0 min,  0.218 sec
 * total energy  :  -284.4645280 Eh     change       -0.8207346E-02 Eh
   gradient norm :     0.0102877 Eh/α   predicted    -0.8261907E-02 (   0.66%)
   displ. norm   :     0.9288933 α      lambda       -0.8345550E-02
   maximum displ.:     0.6347794 α      in ANC's #16, #22, #24, ...

........................................................................
.............................. CYCLE   33 ..............................
........................................................................
   1   -289.3008835 -0.289301E+03  0.115E-01    1.12       0.0  T
   2   -289.3008845 -0.103615E-05  0.720E-02    1.12       1.0  T
   3   -289.3006004  0.284142E-03  0.360E-02    1.12       1.0  T
   4   -289.3008971 -0.296749E-03  0.112E-02    1.12       1.0  T
   5   -289.3008979 -0.728967E-06  0.821E-03    1.12       1.0  T
   6   -289.3008992 -0.136946E-05  0.425E-03    1.12       1.9  T
   7   -289.3009025 -0.324343E-05  0.145E-03    1.12       5.6  T
   8   -289.3009029 -0.402801E-06  0.792E-04    1.12      10.2  T
   9   -289.3009030 -0.122664E-06  0.301E-04    1.12      26.8  T
     SCC iter.                  ...        0 min,  0.524 sec
     gradient                   ...        0 min,  0.218 sec
 * total energy  :  -284.4722850 Eh     change       -0.7756945E-02 Eh
   gradient norm :     0.0089637 Eh/α   predicted    -0.7773225E-02 (   0.21%)
   displ. norm   :     0.9291388 α      lambda       -0.7500226E-02
   maximum displ.:     0.6443921 α      in ANC's #16, #22, #24, ...

........................................................................
.............................. CYCLE   34 ..............................
........................................................................
   1   -289.3222103 -0.289322E+03  0.962E-02    1.11       0.0  T
   2   -289.3222106 -0.248928E-06  0.618E-02    1.11       1.0  T
   3   -289.3219254  0.285145E-03  0.361E-02    1.11       1.0  T
   4   -289.3222235 -0.298082E-03  0.111E-02    1.11       1.0  T
   5   -289.3222245 -0.949297E-06  0.806E-03    1.11       1.0  T
   6   -289.3222256 -0.112110E-05  0.419E-03    1.11       1.9  T
   7   -289.3222290 -0.344647E-05  0.135E-03    1.11       5.9  T
   8   -289.3222294 -0.393459E-06  0.736E-04    1.11      10.9  T
   9   -289.3222295 -0.113734E-06  0.286E-04    1.11      28.2  T
     SCC iter.                  ...        0 min,  0.526 sec
     gradient                   ...        0 min,  0.218 sec
 * total energy  :  -284.4794457 Eh     change       -0.7160750E-02 Eh
   gradient norm :     0.0081179 Eh/α   predicted    -0.6987575E-02 (  -2.42%)
   displ. norm   :     0.9281391 α      lambda       -0.6894938E-02
   maximum displ.:     0.6503504 α      in ANC's #16, #22, #24, ...

........................................................................
.............................. CYCLE   35 ..............................
........................................................................
   1   -289.3435814 -0.289344E+03  0.948E-02    1.11       0.0  T
   2   -289.3435813  0.164016E-06  0.612E-02    1.10       1.0  T
   3   -289.3432902  0.291103E-03  0.366E-02    1.11       1.0  T
   4   -289.3435949 -0.304728E-03  0.111E-02    1.10       1.0  T
   5   -289.3435953 -0.379941E-06  0.807E-03    1.10       1.0  T
   6   -289.3435967 -0.148955E-05  0.399E-03    1.11       2.0  T
   7   -289.3436000 -0.320448E-05  0.125E-03    1.10       6.5  T
   8   -289.3436003 -0.327603E-06  0.703E-04    1.10      11.5  T
   9   -289.3436004 -0.107365E-06  0.277E-04    1.11      29.1  T
     SCC iter.                  ...        0 min,  0.526 sec
     gradient                   ...        0 min,  0.218 sec
 * total energy  :  -284.4860214 Eh     change       -0.6575660E-02 Eh
   gradient norm :     0.0074043 Eh/α   predicted    -0.6417262E-02 (  -2.41%)
   displ. norm   :     0.9270373 α      lambda       -0.6322089E-02
   maximum displ.:     0.6548219 α      in ANC's #16, #22, #24, ...

........................................................................
.............................. CYCLE   36 ..............................
........................................................................
   1   -289.3639328 -0.289364E+03  0.942E-02    1.10       0.0  T
   2   -289.3639329 -0.506585E-07  0.611E-02    1.10       1.0  T
   3   -289.3636494  0.283499E-03  0.363E-02    1.10       1.0  T
   4   -289.3639463 -0.296903E-03  0.113E-02    1.10       1.0  T
   5   -289.3639465 -0.210879E-06  0.810E-03    1.10       1.0  T
   6   -289.3639482 -0.168171E-05  0.388E-03    1.10       2.1  T
   7   -289.3639511 -0.293652E-05  0.119E-03    1.10       6.7  T
   8   -289.3639514 -0.288735E-06  0.681E-04    1.10      11.8  T
   9   -289.3639515 -0.989045E-07  0.268E-04    1.10      30.1  T
     SCC iter.                  ...        0 min,  0.526 sec
     gradient                   ...        0 min,  0.219 sec
 * total energy  :  -284.4920282 Eh     change       -0.6006826E-02 Eh
   gradient norm :     0.0068391 Eh/α   predicted    -0.5877639E-02 (  -2.15%)
   displ. norm   :     0.9253527 α      lambda       -0.5763068E-02
   maximum displ.:     0.6571518 α      in ANC's #16, #22, #24, ...

........................................................................
.............................. CYCLE   37 ..............................
........................................................................
   1   -289.3831158 -0.289383E+03  0.943E-02    1.09       0.0  T
   2   -289.3831161 -0.350344E-06  0.613E-02    1.09       1.0  T
   3   -289.3828460  0.270137E-03  0.358E-02    1.09       1.0  T
   4   -289.3831292 -0.283150E-03  0.113E-02    1.09       1.0  T
   5   -289.3831292 -0.147523E-07  0.800E-03    1.09       1.0  T
   6   -289.3831314 -0.219199E-05  0.354E-03    1.09       2.3  T
   7   -289.3831336 -0.221433E-05  0.106E-03    1.09       7.6  T
   8   -289.3831338 -0.178738E-06  0.683E-04    1.09      11.8  T
   9   -289.3831339 -0.111318E-06  0.261E-04    1.09      30.9  T
     SCC iter.                  ...        0 min,  0.525 sec
[...]
 113:  0.06 114:  0.48 115:  3.89 116:  1.89 117:  0.07 118:  0.02 119:  0.01 120:  0.03
 121:  0.19 122:  0.15 123: 14.29 124:  4.74 125:  0.01 126: 12.83 127:  9.71 128:  1.82
 129:  6.83 130:  0.46 131:  1.02 132:  0.55 133:  0.03 134:  9.19 135:  1.54 136:  0.09
 137:  2.11 138:  0.03 139:  0.18 140:  4.80 141:  0.04 142:  0.01 143: 39.44 144:  1.63
 145: 11.77 146:  8.47 147:  5.69 148:  0.38 149:  0.66 150:  0.21 151:  2.15 152:  0.05
 153:  1.19 154:  0.14 155:  4.54 156:  0.02 157:  0.01 158:  0.02 159:  0.36 160:  0.03
 161:  1.43 162:  0.05 163:  0.11 164:  0.05 165:  0.03 166:  0.01 167:  0.26 168:  0.54
 169: 19.82 170:  7.69 171:  0.00 172:  0.00 173:  0.77 174:  0.27 175:  1.45 176:  6.84
 177: 11.01 178: 10.11 179:  4.06 180: 49.73 181:  0.88 182: 12.00 183:  2.97 184: 14.34
 185: 18.62 186: 26.65 187: 13.51 188:  0.03 189:  0.05 190:  0.17 191: 32.95 192: 11.74
 193:  0.47 194: 37.90 195:  0.01 196:  0.30 197:  2.29 198:  0.06 199: 29.49 200: 13.06
 201:  6.33 202:  0.34 203:  4.74 204:143.21 205:  0.39 206:  0.83 207:  0.76 208:  0.34
 209:  0.01 210: 18.11 211: 17.71 212:  0.02 213: 56.06 214:  0.06 215:  0.48 216:  1.11
 217:  0.34 218: 12.37 219:  6.48 220:  0.00 221:  6.64 222:  0.34 223:  0.11 224:  0.06
 225:  6.34 226:  0.64 227: 23.39 228:  0.21 229: 64.97 230:  3.13 231:  1.00 232:  0.40
 233:  0.05 234:244.79 235:  1.25 236:  0.36 237:137.33 238:125.67 239: 16.08 240: 52.29
 241:  0.61 242: 12.70 243:  4.06 244: 28.09 245:  3.58 246:  0.17 247:  3.00 248:  6.59
 249:  2.54 250:  0.85 251:  0.06 252:  1.02 253:  0.73 254:  0.10 255:  0.02 256:  0.03
 257:  0.04 258:  0.33 259: 80.30 260:  0.04 261: 14.03 262:  0.27 263: 10.55 264: 31.96
 265: 39.92 266: 13.79 267:  7.80 268:  0.53 269:  6.14 270:  3.27 271:  0.47 272:  0.07
 273: 37.91 274:  7.35 275: 17.79 276:  0.02 277: 36.25 278:  0.00 279:  0.34 280:  0.01
 281:  0.01 282: 57.85 283:  3.88 284:  7.02 285:  0.04 286:  2.17 287: 17.04 288: 19.94
 289:170.87 290:  3.77 291:  0.31 292: 15.52 293:  0.47 294:  1.42 295:  0.01 296:  0.36
 297:  0.13 298:  0.87 299: 75.84 300:  6.92 301:  7.56 302:  0.24 303: 52.81 304:  0.66
 305:  0.21 306:  3.88 307:  5.00 308: 13.25 309:  1.14 310:  7.94 311:  0.01 312:  0.00
 313:  8.86 314: 43.28 315:  4.15 316:  0.02 317: 42.28 318:  0.09 319:491.18 320: 31.25
 321: 11.19 322:  0.89 323:  3.67 324: 12.28 325: 54.28 326:223.52 327:  0.01 328:  0.01
 329:  0.00 330: 28.65 331:  4.97 332:  2.36 333:  0.09 334:  0.14 335:  7.33 336:  0.66
 337:  0.88 338:  5.97 339:365.73 340:  0.07 341:  8.52 342:  8.01 343:  1.86 344: 55.36
 345:  0.16 346:  0.67 347:  2.51 348: 11.91 349:  7.89 350:  5.09 351:  0.86 352:  0.04
 353:  0.03 354:  1.19 355: 97.01 356:  0.14 357:  8.00 358:  0.37 359:  8.15 360:  2.08
 361:  4.44 362:  0.01 363:  0.96 364:  0.36 365:  0.99 366:  0.00 367: 46.82 368:  7.33
 369:113.27 370: 12.08 371:326.04 372:  0.35 373:  8.80 374:  0.48 375:  0.10 376:  0.00
 377: 14.91 378:  4.08 379:  0.04 380:  0.02 381:  1.13 382:  0.09 383:  0.34 384:  0.62
 385:  7.35 386:  0.01 387:  2.74 388:  0.01 389:563.09 390:  0.18 391:  1.53 392:  0.70
 393: 13.00 394:  5.83 395: 25.02 396: 18.14 397: 62.47 398: 41.64 399:101.12 400:  0.01
 401:  0.01 402:  1.45 403: 12.33 404: 16.75 405:  9.59 406:  4.88 407:636.78 408:  7.34
 409:389.34 410:  0.55 411:  0.01 412:  0.00 413:  0.02 414:  0.02 415:  0.02 416: 32.28
 417:  0.38 418:  3.54 419:  0.11 420:  0.18 421:  1.72 422:  0.00 423: 21.13 424:145.54
 425:  5.49 426:  3.58 427: 46.61 428:116.38 429: 21.21 430: 21.84 431: 19.39 432:  5.50
 433: 20.90 434: 12.78 435: 33.49 436:  2.98 437: 10.92 438: 16.32 439:  2.24 440: 44.14
 441: 37.45 442: 15.90 443: 34.80 444: 25.61 445: 61.35 446: 42.51 447:126.19 448:138.98
 449:346.12 450:253.47 451: 24.28 452: 24.14 453:  8.61 454: 88.55 455:  7.06 456:  3.52
 457:232.90 458:  9.00 459:115.78 460:  5.84 461: 91.41 462: 33.05
 Raman intensities (amu)
   1:  0.00   2:  0.00   3:  0.00   4:  0.00   5:  0.00   6:  0.00   7:  0.00   8:  0.00
   9:  0.00  10:  0.00  11:  0.00  12:  0.00  13:  0.00  14:  0.00  15:  0.00  16:  0.00
  17:  0.00  18:  0.00  19:  0.00  20:  0.00  21:  0.00  22:  0.00  23:  0.00  24:  0.00
  25:  0.00  26:  0.00  27:  0.00  28:  0.00  29:  0.00  30:  0.00  31:  0.00  32:  0.00
  33:  0.00  34:  0.00  35:  0.00  36:  0.00  37:  0.00  38:  0.00  39:  0.00  40:  0.00
  41:  0.00  42:  0.00  43:  0.00  44:  0.00  45:  0.00  46:  0.00  47:  0.00  48:  0.00
  49:  0.00  50:  0.00  51:  0.00  52:  0.00  53:  0.00  54:  0.00  55:  0.00  56:  0.00
  57:  0.00  58:  0.00  59:  0.00  60:  0.00  61:  0.00  62:  0.00  63:  0.00  64:  0.00
  65:  0.00  66:  0.00  67:  0.00  68:  0.00  69:  0.00  70:  0.00  71:  0.00  72:  0.00
  73:  0.00  74:  0.00  75:  0.00  76:  0.00  77:  0.00  78:  0.00  79:  0.00  80:  0.00
  81:  0.00  82:  0.00  83:  0.00  84:  0.00  85:  0.00  86:  0.00  87:  0.00  88:  0.00
  89:  0.00  90:  0.00  91:  0.00  92:  0.00  93:  0.00  94:  0.00  95:  0.00  96:  0.00
  97:  0.00  98:  0.00  99:  0.00 100:  0.00 101:  0.00 102:  0.00 103:  0.00 104:  0.00
 105:  0.00 106:  0.00 107:  0.00 108:  0.00 109:  0.00 110:  0.00 111:  0.00 112:  0.00
 113:  0.00 114:  0.00 115:  0.00 116:  0.00 117:  0.00 118:  0.00 119:  0.00 120:  0.00
 121:  0.00 122:  0.00 123:  0.00 124:  0.00 125:  0.00 126:  0.00 127:  0.00 128:  0.00
 129:  0.00 130:  0.00 131:  0.00 132:  0.00 133:  0.00 134:  0.00 135:  0.00 136:  0.00
 137:  0.00 138:  0.00 139:  0.00 140:  0.00 141:  0.00 142:  0.00 143:  0.00 144:  0.00
 145:  0.00 146:  0.00 147:  0.00 148:  0.00 149:  0.00 150:  0.00 151:  0.00 152:  0.00
 153:  0.00 154:  0.00 155:  0.00 156:  0.00 157:  0.00 158:  0.00 159:  0.00 160:  0.00
 161:  0.00 162:  0.00 163:  0.00 164:  0.00 165:  0.00 166:  0.00 167:  0.00 168:  0.00
 169:  0.00 170:  0.00 171:  0.00 172:  0.00 173:  0.00 174:  0.00 175:  0.00 176:  0.00
 177:  0.00 178:  0.00 179:  0.00 180:  0.00 181:  0.00 182:  0.00 183:  0.00 184:  0.00
 185:  0.00 186:  0.00 187:  0.00 188:  0.00 189:  0.00 190:  0.00 191:  0.00 192:  0.00
Refinement of some symmetry elements was terminated before convergence was reached.
Some symmetry elements may remain unidentified.
Molecule has no symmetry elements
It seems to be the C1 point group
 193:  0.00 194:  0.00 195:  0.00 196:  0.00 197:  0.00 198:  0.00 199:  0.00 200:  0.00
 201:  0.00 202:  0.00 203:  0.00 204:  0.00 205:  0.00 206:  0.00 207:  0.00 208:  0.00
 209:  0.00 210:  0.00 211:  0.00 212:  0.00 213:  0.00 214:  0.00 215:  0.00 216:  0.00
 217:  0.00 218:  0.00 219:  0.00 220:  0.00 221:  0.00 222:  0.00 223:  0.00 224:  0.00
 225:  0.00 226:  0.00 227:  0.00 228:  0.00 229:  0.00 230:  0.00 231:  0.00 232:  0.00
 233:  0.00 234:  0.00 235:  0.00 236:  0.00 237:  0.00 238:  0.00 239:  0.00 240:  0.00
 241:  0.00 242:  0.00 243:  0.00 244:  0.00 245:  0.00 246:  0.00 247:  0.00 248:  0.00
 249:  0.00 250:  0.00 251:  0.00 252:  0.00 253:  0.00 254:  0.00 255:  0.00 256:  0.00
 257:  0.00 258:  0.00 259:  0.00 260:  0.00 261:  0.00 262:  0.00 263:  0.00 264:  0.00
 265:  0.00 266:  0.00 267:  0.00 268:  0.00 269:  0.00 270:  0.00 271:  0.00 272:  0.00
 273:  0.00 274:  0.00 275:  0.00 276:  0.00 277:  0.00 278:  0.00 279:  0.00 280:  0.00
 281:  0.00 282:  0.00 283:  0.00 284:  0.00 285:  0.00 286:  0.00 287:  0.00 288:  0.00
 289:  0.00 290:  0.00 291:  0.00 292:  0.00 293:  0.00 294:  0.00 295:  0.00 296:  0.00
 297:  0.00 298:  0.00 299:  0.00 300:  0.00 301:  0.00 302:  0.00 303:  0.00 304:  0.00
 305:  0.00 306:  0.00 307:  0.00 308:  0.00 309:  0.00 310:  0.00 311:  0.00 312:  0.00
 313:  0.00 314:  0.00 315:  0.00 316:  0.00 317:  0.00 318:  0.00 319:  0.00 320:  0.00
 321:  0.00 322:  0.00 323:  0.00 324:  0.00 325:  0.00 326:  0.00 327:  0.00 328:  0.00
 329:  0.00 330:  0.00 331:  0.00 332:  0.00 333:  0.00 334:  0.00 335:  0.00 336:  0.00
 337:  0.00 338:  0.00 339:  0.00 340:  0.00 341:  0.00 342:  0.00 343:  0.00 344:  0.00
 345:  0.00 346:  0.00 347:  0.00 348:  0.00 349:  0.00 350:  0.00 351:  0.00 352:  0.00
 353:  0.00 354:  0.00 355:  0.00 356:  0.00 357:  0.00 358:  0.00 359:  0.00 360:  0.00
 361:  0.00 362:  0.00 363:  0.00 364:  0.00 365:  0.00 366:  0.00 367:  0.00 368:  0.00
 369:  0.00 370:  0.00 371:  0.00 372:  0.00 373:  0.00 374:  0.00 375:  0.00 376:  0.00
 377:  0.00 378:  0.00 379:  0.00 380:  0.00 381:  0.00 382:  0.00 383:  0.00 384:  0.00
 385:  0.00 386:  0.00 387:  0.00 388:  0.00 389:  0.00 390:  0.00 391:  0.00 392:  0.00
 393:  0.00 394:  0.00 395:  0.00 396:  0.00 397:  0.00 398:  0.00 399:  0.00 400:  0.00
 401:  0.00 402:  0.00 403:  0.00 404:  0.00 405:  0.00 406:  0.00 407:  0.00 408:  0.00
 409:  0.00 410:  0.00 411:  0.00 412:  0.00 413:  0.00 414:  0.00 415:  0.00 416:  0.00
 417:  0.00 418:  0.00 419:  0.00 420:  0.00 421:  0.00 422:  0.00 423:  0.00 424:  0.00
 425:  0.00 426:  0.00 427:  0.00 428:  0.00 429:  0.00 430:  0.00 431:  0.00 432:  0.00
 433:  0.00 434:  0.00 435:  0.00 436:  0.00 437:  0.00 438:  0.00 439:  0.00 440:  0.00
 441:  0.00 442:  0.00 443:  0.00 444:  0.00 445:  0.00 446:  0.00 447:  0.00 448:  0.00
 449:  0.00 450:  0.00 451:  0.00 452:  0.00 453:  0.00 454:  0.00 455:  0.00 456:  0.00
 457:  0.00 458:  0.00 459:  0.00 460:  0.00 461:  0.00 462:  0.00
 output can be read by thermo (or use thermo option).
 writing <g98.out> molden fake output.
 recommended (thermochemical) frequency scaling factor: 1.0
           -------------------------------------------------
          |             Thermodynamic Functions             |
           -------------------------------------------------

c1  symmetry found (for desy threshold:  0.10E+00) used in thermo
 inverting freq            1   6.0450806465981204     
 inverting freq            2   4.7481721363113296     
 inverting freq            3   3.2987709086738217     
 inverting freq            4   1.8535010234010796     

          ...................................................
          :                      SETUP                      :
          :.................................................:
          :  # frequencies                         456      :
          :  # imaginary freq.                       0      :
          :  linear?                             false      :
          :  only rotor calc.                    false      :
          :  symmetry                               c1      :
          :  rotational number                       1      :
          :  scaling factor                  1.0000000      :
          :  rotor cutoff                   50.0000000 cm⁻¹ :
          :  imag. cutoff                  -20.0000000 cm⁻¹ :
          :.................................................:

    mode    ω/cm⁻¹     T·S(HO)/kcal·mol⁻¹    T·S(FR)/kcal·mol⁻¹   T·S(vib)
   ------------------------------------------------------------------------
       1      6.05    -2.68668 (  0.02%)    -1.68244 ( 99.98%)    -1.68266
       2      4.75    -2.82974 (  0.01%)    -1.75398 ( 99.99%)    -1.75407
       3      3.30    -3.04553 (  0.00%)    -1.86187 (100.00%)    -1.86189
       4      1.85    -3.38707 (  0.00%)    -2.03264 (100.00%)    -2.03264
       5      1.21    -3.63843 (  0.00%)    -2.15831 (100.00%)    -2.15831
       6      2.80    -3.14316 (  0.00%)    -1.91069 (100.00%)    -1.91070
       7      4.18    -2.90584 (  0.00%)    -1.79203 (100.00%)    -1.79208
       8      5.26    -2.76959 (  0.01%)    -1.72390 ( 99.99%)    -1.72403
       9      5.45    -2.74763 (  0.01%)    -1.71292 ( 99.99%)    -1.71307
      10      9.35    -2.42815 (  0.12%)    -1.55316 ( 99.88%)    -1.55423
      11     12.53    -2.25489 (  0.39%)    -1.46651 ( 99.61%)    -1.46961
      12     15.11    -2.14405 (  0.83%)    -1.41107 ( 99.17%)    -1.41713
      13     17.54    -2.05581 (  1.49%)    -1.36693 ( 98.51%)    -1.37720
      14     22.75    -1.90163 (  4.11%)    -1.28978 ( 95.89%)    -1.31494
      15     23.52    -1.88198 (  4.67%)    -1.27995 ( 95.33%)    -1.30806
      16     25.07    -1.84425 (  5.94%)    -1.26106 ( 94.06%)    -1.29573
      17     25.81    -1.82698 (  6.63%)    -1.25242 ( 93.37%)    -1.29052
      18     26.54    -1.81049 (  7.36%)    -1.24416 ( 92.64%)    -1.28582
      19     35.10    -1.64518 ( 19.54%)    -1.16135 ( 80.46%)    -1.25591
      20     36.15    -1.62775 ( 21.47%)    -1.15262 ( 78.53%)    -1.25460
      21     38.68    -1.58782 ( 26.37%)    -1.13260 ( 73.63%)    -1.25264
      22     41.90    -1.54056 ( 33.03%)    -1.10889 ( 66.97%)    -1.25148
      23     45.29    -1.49472 ( 40.22%)    -1.08589 ( 59.78%)    -1.25034
      24     54.48    -1.38575 ( 58.49%)    -1.03114 ( 41.51%)    -1.23857
      25     76.69    -1.18482 ( 84.70%)    -0.92984 ( 15.30%)    -1.14579
      26     80.73    -1.15473 ( 87.17%)    -0.91462 ( 12.83%)    -1.12394
      27     91.32    -1.08278 ( 91.75%)    -0.87812 (  8.25%)    -1.06590
      28     96.97    -1.04780 ( 93.40%)    -0.86033 (  6.60%)    -1.03542
      29     99.78    -1.03117 ( 94.07%)    -0.85186 (  5.93%)    -1.02053
      30     99.88    -1.03059 ( 94.09%)    -0.85156 (  5.91%)    -1.02001
      31    103.16    -1.01185 ( 94.77%)    -0.84200 (  5.23%)    -1.00297
      32    111.69    -0.96581 ( 96.14%)    -0.81846 (  3.86%)    -0.96012
      33    112.44    -0.96195 ( 96.24%)    -0.81649 (  3.76%)    -0.95648
      34    118.54    -0.93142 ( 96.93%)    -0.80082 (  3.07%)    -0.92741
      35    118.63    -0.93100 ( 96.94%)    -0.80061 (  3.06%)    -0.92701
      36    120.25    -0.92320 ( 97.10%)    -0.79660 (  2.90%)    -0.91952
      37    120.26    -0.92314 ( 97.10%)    -0.79657 (  2.90%)    -0.91947
      38    123.77    -0.90658 ( 97.41%)    -0.78804 (  2.59%)    -0.90351
      39    140.77    -0.83284 ( 98.43%)    -0.74991 (  1.57%)    -0.83154
      40    147.14    -0.80767 ( 98.68%)    -0.73681 (  1.32%)    -0.80674
      41    150.88    -0.79340 ( 98.81%)    -0.72936 (  1.19%)    -0.79264
      42    154.18    -0.78115 ( 98.91%)    -0.72295 (  1.09%)    -0.78052
      43    154.39    -0.78037 ( 98.91%)    -0.72255 (  1.09%)    -0.77974
      44    163.62    -0.74762 ( 99.14%)    -0.70535 (  0.86%)    -0.74726
      45    175.68    -0.70775 ( 99.35%)    -0.68428 (  0.65%)    -0.70759
      46    176.58    -0.70490 ( 99.36%)    -0.68276 (  0.64%)    -0.70476
      47    176.67    -0.70463 ( 99.36%)    -0.68262 (  0.64%)    -0.70449
      48    177.11    -0.70323 ( 99.37%)    -0.68188 (  0.63%)    -0.70310
      49    177.63    -0.70160 ( 99.38%)    -0.68101 (  0.62%)    -0.70147
      50    201.58    -0.63168 ( 99.62%)    -0.64355 (  0.38%)    -0.63172
      51    222.08    -0.57902 ( 99.74%)    -0.61484 (  0.26%)    -0.57911
      52    225.59    -0.57060 ( 99.76%)    -0.61021 (  0.24%)    -0.57069
      53    226.31    -0.56888 ( 99.76%)    -0.60926 (  0.24%)    -0.56897
      54    226.70    -0.56795 ( 99.76%)    -0.60875 (  0.24%)    -0.56804
      55    226.92    -0.56744 ( 99.76%)    -0.60847 (  0.24%)    -0.56754
      56    226.97    -0.56732 ( 99.77%)    -0.60840 (  0.23%)    -0.56742
      57    227.09    -0.56703 ( 99.77%)    -0.60824 (  0.23%)    -0.56713
      58    230.92    -0.55806 ( 99.78%)    -0.60328 (  0.22%)    -0.55816
      59    231.13    -0.55760 ( 99.78%)    -0.60302 (  0.22%)    -0.55769
      60    234.14    -0.55067 ( 99.79%)    -0.59918 (  0.21%)    -0.55077
      61    234.37    -0.55016 ( 99.79%)    -0.59890 (  0.21%)    -0.55026
      62    235.39    -0.54783 ( 99.80%)    -0.59760 (  0.20%)    -0.54793
      63    237.44    -0.54322 ( 99.80%)    -0.59504 (  0.20%)    -0.54332
      64    237.49    -0.54311 ( 99.80%)    -0.59498 (  0.20%)    -0.54322
      65    240.79    -0.53579 ( 99.81%)    -0.59089 (  0.19%)    -0.53589
      66    244.31    -0.52810 ( 99.82%)    -0.58658 (  0.18%)    -0.52820
      67    245.80    -0.52488 ( 99.83%)    -0.58478 (  0.17%)    -0.52499
      68    245.94    -0.52459 ( 99.83%)    -0.58461 (  0.17%)    -0.52469
      69    246.02    -0.52442 ( 99.83%)    -0.58452 (  0.17%)    -0.52452
      70    246.60    -0.52319 ( 99.83%)    -0.58383 (  0.17%)    -0.52329
      71    247.14    -0.52202 ( 99.83%)    -0.58317 (  0.17%)    -0.52212
      72    267.02    -0.48163 ( 99.88%)    -0.56025 (  0.12%)    -0.48173
      73    269.83    -0.47623 ( 99.88%)    -0.55715 (  0.12%)    -0.47633
      74    269.97    -0.47596 ( 99.88%)    -0.55700 (  0.12%)    -0.47606
      75    270.81    -0.47437 ( 99.88%)    -0.55608 (  0.12%)    -0.47447
      76    271.45    -0.47316 ( 99.89%)    -0.55539 (  0.11%)    -0.47325
      77    271.71    -0.47266 ( 99.89%)    -0.55510 (  0.11%)    -0.47276
      78    272.13    -0.47186 ( 99.89%)    -0.55464 (  0.11%)    -0.47195
      79    272.69    -0.47081 ( 99.89%)    -0.55404 (  0.11%)    -0.47091
      80    273.22    -0.46981 ( 99.89%)    -0.55346 (  0.11%)    -0.46990
      81    284.46    -0.44922 ( 99.90%)    -0.54151 (  0.10%)    -0.44931
      82    287.75    -0.44340 ( 99.91%)    -0.53811 (  0.09%)    -0.44349
      83    292.05    -0.43592 ( 99.91%)    -0.53372 (  0.09%)    -0.43600
   ------------------------------------------------------------------------

   temp. (K)  partition function   enthalpy   heat capacity  entropy
                                   cal/mol     cal/K/mol   cal/K/mol   J/K/mol
 298.15  VIB  0.761E+50            54638.759    352.392    350.144
         ROT  0.235E+10              888.752      2.981     45.860
         INT  0.179E+60            55527.512    355.373    396.005
         TR   0.623E+29             1481.254      4.968     47.972
         TOT                       57008.7655   360.3415   443.9768  1857.5989

       T/K    H(0)-H(T)+PV         H(T)/Eh          T*S/Eh         G(T)/Eh
   ------------------------------------------------------------------------
    298.15    0.908493E-01    0.115044E+01    0.210948E+00    0.939496E+00
   ------------------------------------------------------------------------

         :::::::::::::::::::::::::::::::::::::::::::::::::::::
         ::                  THERMODYNAMIC                  ::
         :::::::::::::::::::::::::::::::::::::::::::::::::::::
         :: total free energy        -283.586923336611 Eh   ::
         ::.................................................::
         :: total energy             -284.526419577933 Eh   ::
         :: zero point energy           1.059594694519 Eh   ::
         :: G(RRHO) w/o ZPVE           -0.120098453197 Eh   ::
         :: G(RRHO) contrib.            0.939496241322 Eh   ::
         :::::::::::::::::::::::::::::::::::::::::::::::::::::
imag cut-off (cm-1) :    5.00
 found            1  significant imaginary frequency
 writing imag mode distorted coords to xtbhess.xyz
 for further optimization.

optimized geometry written to: xtbopt.xyz


           -------------------------------------------------
          | TOTAL ENERGY             -284.526419577933 Eh   |
          | TOTAL ENTHALPY           -283.375975632833 Eh   |
          | TOTAL FREE ENERGY        -283.586923336611 Eh   |
          | GRADIENT NORM               0.000688326493 Eh/α |
          | HOMO-LUMO GAP               1.020073797123 eV   |
           -------------------------------------------------

------------------------------------------------------------------------
 * finished run on 2021/11/19 at 13:24:11.536     
------------------------------------------------------------------------
 total:
 * wall-time:     0 d,  0 h, 10 min, 10.774 sec
 *  cpu-time:     0 d,  0 h, 10 min, 10.772 sec
 * ratio c/w:     1.000 speedup
 SCF:
 * wall-time:     0 d,  0 h,  0 min,  8.882 sec
 *  cpu-time:     0 d,  0 h,  0 min,  8.882 sec
 * ratio c/w:     1.000 speedup
 ANC optimizer:
 * wall-time:     0 d,  0 h,  1 min,  2.586 sec
 *  cpu-time:     0 d,  0 h,  1 min,  2.578 sec
 * ratio c/w:     1.000 speedup
 analytical hessian:
 * wall-time:     0 d,  0 h,  8 min, 59.002 sec
 *  cpu-time:     0 d,  0 h,  8 min, 59.009 sec
 * ratio c/w:     1.000 speedup

