154
 energy: -284.526419578501 gnorm: 0.000688322705 xtb: 6.4.1 (bd6e46d)
Ni       21.73729302320657    0.00115581306834   -0.00851435855552
C        24.23539995421176   -3.41119736974133    0.05768079611738
C        25.18722177122744   -2.45085739688909    0.05353627884237
C        24.49809304673698   -1.19598865649923    0.02418985174934
C        25.16475212405150    0.03270054613209    0.00355879763706
C        24.47623709461946    1.24929435005882   -0.01283959174346
C        25.14218752698311    2.51686439615882   -0.02353875586602
C        24.17283687629588    3.45951298341279   -0.01698324537006
C        22.92269078693793    2.76074977666322   -0.00479368547362
N        23.12360809623435    1.40605319731223   -0.00511921370569
C        21.70205667136428    3.40333330133433    0.00950468605368
C        20.49480554335338    2.73583745811678    0.00880348066411
C        19.22705694307425    3.40745050678656    0.01457403661485
C        18.28063362839464    2.44427139733538   -0.00742326466318
C        18.97439788664291    1.18827819058454   -0.02425727863739
N        20.32635014390684    1.38041022508507   -0.01112433607014
C        18.32739800221388   -0.03023224748324   -0.05443865335400
C        18.99703290941581   -1.23681899671112   -0.05950770186194
C        18.32696412549748   -2.50552175405223   -0.08281147415086
C        19.29083824496713   -3.45127163705638   -0.06199655088003
C        20.54550170911633   -2.75631535956938   -0.02815255057523
N        20.35201666081374   -1.40410479962019   -0.03021554526644
C        21.76447606937757   -3.40119518062211    0.00689743729101
C        22.97271565696312   -2.73587469553992    0.02891806350602
N        23.14870062191310   -1.37775224831911    0.01265464854676
H        24.35399421456165   -4.47712657428619    0.07652922848259
H        26.25459939980340   -2.55576645085818    0.06840765061966
H        26.20744421021204    2.64160752154086   -0.03271358824617
H        24.27179904175845    4.52753570426529   -0.02041162692291
H        21.69228033136406    4.48253090026417    0.01770276839263
H        19.10593545978630    4.47329690536509    0.03165444668847
H        17.21269939543819    2.54663956478485   -0.01177150863356
H        17.24844797943227   -0.04004500168347   -0.07132408254019
H        17.26143148627585   -2.62756475771246   -0.10981906124591
H        19.18957545543984   -4.51932476270944   -0.06870941094303
H        21.77467306849300   -4.48039486739362    0.01414867868063
Ni       62.03922519266378    0.03771541428257   -0.00663959807970
C        59.55008612566607    3.40584316662078    0.58349561526134
C        58.59573320189987    2.46388830097717    0.40988318696765
C        59.28162792952697    1.22467981337515    0.19924630282313
C        58.61179162810460    0.01381351009223    0.00075963142842
C        59.29700255436816   -1.18927718492481   -0.19214568864225
C        58.62769052092011   -2.44008593622385   -0.38643253276550
C        59.59452129616075   -3.37163771250970   -0.54679637743267
C        60.84645219085702   -2.68261383006561   -0.45123050770992
N        60.64917980186951   -1.34553004302882   -0.23026624625996
C        62.06512137456263   -3.31571412445484   -0.58160315874279
C        63.27379823682486   -2.65618818444601   -0.49763312129990
C        64.53922326963948   -3.31592148683102   -0.64451724848283
C        65.48818672971457   -2.36611139936259   -0.49877524977613
C        64.79832406297203   -1.13052928458014   -0.26140065432854
N        63.44606707237937   -1.32095198087557   -0.26649677157421
C        65.44913377132924    0.06759550875253   -0.04897445374766
C        64.78324718035327    1.25289063916848    0.18734480328263
C        65.45726561468206    2.49798178413934    0.42060790783661
C        64.49591808288938    3.42794664917554    0.60746007354852
C        63.23888034588226    2.74750246003939    0.48511167045788
N        63.42850212029438    1.41864955802733    0.23186387781045
C        62.02132277843747    3.38538091493684    0.60147996656364
C        60.81105752148969    2.73557157033501    0.47494467338739
N        60.63161114152601    1.39883502193601    0.23707330109003
H        59.43432167436978    4.45610004133530    0.76778936579048
H        57.52862345963880    2.57131325836044    0.42164427125843
H        57.56211630735400   -2.56213524761680   -0.39520338345780
H        59.49271473265620   -4.42593754115126   -0.71595332666927
H        62.07200148796815   -4.37983872439575   -0.76162757817517
H        64.65716017504478   -4.36535582844320   -0.83348925283401
H        66.55552176020237   -2.46552775456201   -0.54142250899836
H        66.52809630856024    0.07737071036608   -0.06471565733166
H        66.52343644679863    2.61642779577726    0.43458889150052
H        64.60033819899496    4.47672077688327    0.80781518023235
H        62.01399372356956    4.44671814167625    0.79724335351823
C        26.56222878238268    0.04399280237269    0.00285875260194
C        27.77977158948421    0.05958442592353    0.00272835687364
C        29.12197524461055    0.06546165140181   -0.00113133038789
C        30.33972561447053    0.06833254680035   -0.00504828249813
C        39.99959826523404    0.05233097495746   -0.01758507328783
C        41.21747857279177    0.04421598008562   -0.01738446871601
C        42.55928432980734    0.03573231984327   -0.01755402978846
C        43.77713898840521    0.02565897629166   -0.01863141286260
C        53.43658365790061   -0.01219542365242   -0.01049539347092
C        54.65427439606047   -0.00766334689249   -0.00717415572703
C        55.99660929685002   -0.00624597578004   -0.00359133536229
C        57.21414516500472    0.00664240884382   -0.00131452729700
Ni       35.16984992085165    0.06102337487688   -0.01536214625272
C        32.69442693411244   -3.34595724559271    0.39446251180066
C        31.73469613135417   -2.39918667861147    0.28845415707089
C        32.41370001020795   -1.14804840638130    0.13568358344655
C        31.73668262865747    0.06703508418497   -0.00805041422202
C        32.41714217523876    1.27950056341652   -0.15587960903276
C        31.74173383350010    2.53266994538747   -0.30841540487195
C        32.70429915581148    3.47583853401341   -0.42083708889688
C        33.95885178746754    2.79119359630700   -0.33584940431903
N        33.76807247492814    1.44452888228992   -0.17502705828738
C        35.17479884707612    3.43800483503697   -0.40637571190629
C        36.38878126199199    2.78886445759099   -0.32547792742819
C        37.64538250226175    3.47130581653598   -0.39767897861270
C        38.60511969870114    2.52491277627485   -0.28836501532112
C        37.92605194918573    1.27206138665658   -0.15052581737717
N        36.57565111923351    1.44064683579207   -0.17261020831017
C        38.60293383489592    0.05575540994387   -0.01735404626168
C        37.92229918500508   -1.15863991150976    0.11535331863933
C        38.59770886757060   -2.41391143018795    0.24946808645088
C        37.63520807905080   -3.35761309762420    0.35758404921092
C        36.38070105069307   -2.67112922851177    0.28874771108312
N        36.57150099647444   -1.32314936316837    0.13855078590315
C        35.16486511441216   -3.31652766019802    0.37096604157296
C        33.95090672209607   -2.66540715454590    0.30580724233399
N        33.76414058618195   -1.31775343351595    0.14867623792932
H        32.58488184526109   -4.40540566852217    0.52064714104573
H        30.66824128672852   -2.51108621968294    0.30855520189050
H        30.67550247131456    2.64821217115044   -0.32445016193018
H        32.59771425274617    4.53544934924411   -0.54911400553742
H        35.17636195152544    4.51011839124781   -0.53116027206629
H        37.75502968319731    4.53169779003914   -0.51625918294558
H        39.67166612961388    2.63806861148226   -0.29761231570348
H        39.66385317020258   -2.53046199721910    0.25706373285049
H        37.74177390781777   -4.41857427285205    0.47343143749950
H        35.16318929051317   -4.38891590920142    0.49327436397719
Ni       48.60665599580780    0.00556504608371   -0.01871949158295
C        46.12305251544173   -3.39436228356538    0.39871692855560
C        45.16567928833692   -2.44481881635085    0.29604949206043
C        45.84772899528364   -1.19639284473475    0.13457385190830
C        45.17380175379908    0.01917050282542   -0.01913327249564
C        45.85745512293708    1.22918328215172   -0.17405142819586
C        45.18532941190809    2.48266218975276   -0.33760583870686
C        46.15017614055040    3.42434839790194   -0.44239142896167
C        47.40285940739421    2.73847318297902   -0.34162232513659
N        47.20864870912411    1.39209612180456   -0.18171268158033
C        48.62009550148479    3.38459201989882   -0.39080020143030
C        49.83221699297126    2.73376653410659   -0.29539698440804
C        51.09024436233213    3.41560428935524   -0.34284231924469
C        52.04761596785018    2.46659886490446   -0.23549300096412
C        51.36563195153401    1.21268870072916   -0.12395713614706
N        50.01565597533212    1.38364895284711   -0.15679789166806
C        52.03950557992666   -0.00755597977416   -0.01398357153542
C        51.35602993106392   -1.22261560425093    0.09253416949512
C        52.02823845398848   -2.48182673272189    0.20399371505100
C        51.06340913972247   -3.42379640060354    0.30655787516415
C        49.81066744537335   -2.73237260910794    0.25671913623951
N        50.00471888613717   -1.38344470098029    0.12094227352074
C        48.59334405888676   -3.37394150328946    0.34872467942727
C        47.38118654435046   -2.71823213060256    0.29945332784273
N        47.19763083759565   -1.37008343342350    0.14194301254071
H        46.01082006511335   -4.45314907427328    0.52845479177886
H        44.09895290939921   -2.55332156917990    0.32283719920030
H        44.11954437716473    2.59958297323658   -0.36464926346370
H        46.04634558407668    4.48371599526981   -0.57429828574559
H        48.62444530386045    4.45735770493561   -0.50965483712272
H        51.20241076283641    4.47732520701425   -0.44567327055027
H        53.11427784499398    2.57850129905844   -0.23179386544001
H        53.09409164128176   -2.60165675863176    0.20314778095105
H        51.16731374012368   -4.48654478678178    0.40787432513745
H        48.58917382983994   -4.44692178860376    0.46571076697492
