154
 energy: -283.274471551549 gnorm: 0.745050703130 xtb: 6.4.1 (bd6e46d)
Ni       20.26066600000000    0.03832100000000   -0.01103500000000
C        22.58965700000000   -3.10847200000000    1.31165400000000
C        23.50576400000000   -2.16426500000000    1.26137200000000
C        23.09458500000000   -1.11036100000000    0.34008000000000
C        23.71345500000000    0.01398600000000   -0.00633000000000
C        23.00941300000000    1.23393400000000   -0.37043500000000
C        23.33752400000000    2.19398900000000   -1.21790900000000
C        22.30274400000000    3.21027400000000   -1.23480700000000
C        21.36647600000000    2.83381200000000   -0.38791500000000
N        21.76846600000000    1.60080100000000    0.17590200000000
C        20.10540200000000    3.47881100000000   -0.00876300000000
C        19.01018400000000    2.84402900000000    0.34199700000000
C        17.93655900000000    3.16198500000000    1.31102500000000
C        17.09899600000000    2.16523100000000    1.23385900000000
C        17.53729300000000    1.16154800000000    0.25340700000000
N        18.64223200000000    1.60040100000000   -0.23088500000000
C        16.92645900000000   -0.09172300000000   -0.16014100000000
C        17.59061900000000   -1.19622900000000   -0.41456600000000
C        17.21677100000000   -2.25917100000000   -1.37209300000000
C        18.16551800000000   -3.15292700000000   -1.28307400000000
C        19.15124200000000   -2.71547700000000   -0.30019600000000
N        18.79819600000000   -1.56967200000000    0.19660100000000
C        20.38213000000000   -3.37154700000000    0.14552500000000
C        21.50517100000000   -2.72568600000000    0.41264600000000
N        21.83377100000000   -1.47824500000000   -0.18575800000000
H        22.64991900000000   -4.01825300000000    1.92920000000000
H        24.42209200000000   -2.20421400000000    1.83942000000000
H        24.26488900000000    2.21078400000000   -1.81905200000000
H        22.31964300000000    4.11496300000000   -1.84742800000000
H        20.05767900000000    4.57361400000000   -0.01254100000000
H        17.88373700000000    4.04071000000000    1.93601700000000
H        16.18736600000000    2.12956100000000    1.85118300000000
H        15.82820800000000   -0.08881200000000   -0.25941200000000
H        16.34791500000000   -2.31163600000000   -2.02104300000000
H        18.16267200000000   -4.06923500000000   -1.88183300000000
H        20.34664700000000   -4.46734900000000    0.25745000000000
Ni       63.49624800000000   -0.00905500000000   -0.01546800000000
C        61.16725700000000    2.83773700000000    1.86803700000000
C        60.25114900000001    1.91924800000000    1.64346300000000
C        60.66232900000000    1.05455100000000    0.54264900000000
C        60.04345800000000    0.01398600000000   -0.00633000000000
C        60.74750100000000   -1.11723900000000   -0.59043300000000
C        60.41939000000000   -1.90341100000000   -1.60130000000000
C        61.45417000000000   -2.89892000000000   -1.80644000000000
C        62.39043800000001   -2.68610400000000   -0.90441000000000
N        61.98844800000000   -1.57909200000000   -0.12163800000000
C        63.65151200000000   -3.39024500000000   -0.65149600000000
C        64.74673000000000   -2.83155200000000   -0.18906300000000
C        65.82035500000001   -3.32375800000000    0.70415900000000
C        66.65791800000000   -2.32999100000000    0.81324400000000
C        66.21962000000001   -1.16184200000000    0.03600900000000
N        65.11468200000000   -1.50323400000000   -0.52129000000000
C        66.83045500000000    0.14639300000000   -0.13786100000000
C        66.16629500000001    1.27892700000000   -0.18296700000000
C        66.54014300000000    2.50105300000000   -0.92668200000000
C        65.59139600000000    3.36278000000000   -0.67340300000000
C        64.60567200000000    2.75058500000000    0.21126000000000
N        64.95871800000000    1.53250600000000    0.48687000000000
C        63.37478400000000    3.31258000000000    0.77095400000000
C        62.25174300000000    2.62837500000000    0.91362200000000
N        61.92314300000001    1.51360000000000    0.09418700000000
H        61.10699500000000    3.61716100000000    2.64364100000000
H        59.33482200000000    1.85126700000000    2.21888900000000
H        59.49202500000000   -1.80839400000000   -2.19512400000000
H        61.43727100000000   -3.67425500000000   -2.57626000000000
H        63.69923500000000   -4.46534300000000   -0.85831000000000
H        65.87317700000000   -4.30317400000000    1.15528600000000
H        67.56954800000000   -2.40946300000000    1.42647000000000
H        67.92870600000001    0.16194900000000   -0.23594800000000
H        67.40899899999999    2.67299600000000   -1.55463500000000
H        65.59424199999999    4.37426100000000   -1.09178100000000
H        63.41026700000000    4.36859600000000    1.08422300000000
C        26.60815900000000    0.01195000000000   -0.00744200000000
C        27.81613600000000    0.01940500000000   -0.00574700000000
C        29.23490400000000    0.02010200000000   -0.00061000000000
C        30.45042000000000    0.01195000000000   -0.00744200000000
C        39.95831000000000    0.01195000000000   -0.00744200000000
C        41.16628700000000    0.01940500000000   -0.00574700000000
C        42.58505400000001    0.02010200000000   -0.00061000000000
C        43.80057100000000    0.01195000000000   -0.00744200000000
C        53.30846000000000    0.01195000000000   -0.00744200000000
C        54.51643700000001    0.01940500000000   -0.00574700000000
C        55.93520500000000    0.02010200000000   -0.00061000000000
C        57.15072100000000    0.01195000000000   -0.00744200000000
Ni       35.23900200000000    0.03208600000000    0.00469700000000
C        32.95919100000000   -3.22936200000000   -0.90496900000000
C        32.00298200000000   -2.33001100000000   -1.00699500000000
C        32.39535600000000   -1.16770600000000   -0.20448000000000
C        31.76023900000000   -0.01643400000000    0.00778700000000
C        32.44569600000000    1.25816600000000    0.23401600000000
C        32.11040600000000    2.33676600000000    0.93825600000000
C        33.13494700000000    3.35608200000000    0.84767500000000
C        34.08554500000000    2.85915800000000    0.07431000000000
N        33.70855100000000    1.54255300000000   -0.34183300000000
C        35.33268400000000    3.47085900000000   -0.34255600000000
C        36.43423600000000    2.80360200000000   -0.67432700000000
C        37.42778200000000    3.05558700000000   -1.70849700000000
C        38.32166600000000    2.09472800000000   -1.60701300000000
C        37.94196700000001    1.18284400000000   -0.50303600000000
N        36.84705200000000    1.63216300000000    0.00433100000000
C        38.59917400000000   -0.01643400000000    0.00778700000000
C        37.97576300000001   -1.08561600000000    0.46930300000000
C        38.35447600000000   -2.01773100000000    1.54477900000000
C        37.41380700000001   -2.93187700000000    1.63064500000000
C        36.40550600000001   -2.63609800000000    0.63321800000000
N        36.74328000000000   -1.58272100000000   -0.01607700000000
C        35.15311200000001   -3.34310600000000    0.30202500000000
C        34.03923600000001   -2.74640900000000   -0.04531700000000
N        33.65712400000000   -1.46365200000000    0.37236600000000
H        32.95953600000000   -4.22043500000000   -1.39620400000000
H        31.09444700000000   -2.45170500000000   -1.58814400000000
H        31.18555400000000    2.45511700000000    1.51518200000000
H        33.16224200000000    4.34524700000000    1.30432500000000
H        35.41862400000000    4.56823700000000   -0.40457800000000
H        37.46045500000000    3.86180300000000   -2.43532100000000
H        39.21472700000000    1.98175900000000   -2.24078700000000
H        39.26922600000000   -1.94332500000000    2.15494900000000
H        37.43285300000000   -3.74548500000000    2.33891200000000
H        35.19159700000000   -4.44306500000000    0.36106100000000
Ni       48.58915200000000    0.03208600000000    0.00469700000000
C        46.30934100000001   -3.22936200000000   -0.90496900000000
C        45.35313200000000   -2.33001100000000   -1.00699500000000
C        45.74550600000000   -1.16770600000000   -0.20448000000000
C        45.11039000000000   -0.01643400000000    0.00778700000000
C        45.79584700000000    1.25816600000000    0.23401600000000
C        45.46055700000000    2.33676600000000    0.93825600000000
C        46.48509800000001    3.35608200000000    0.84767500000000
C        47.43569500000000    2.85915800000000    0.07431000000000
N        47.05870100000000    1.54255300000000   -0.34183300000000
C        48.68283500000000    3.47085900000000   -0.34255600000000
C        49.78438600000000    2.80360200000000   -0.67432700000000
C        50.77793300000000    3.05558700000000   -1.70849700000000
C        51.67181600000000    2.09472800000000   -1.60701300000000
C        51.29211800000000    1.18284400000000   -0.50303600000000
N        50.19720300000000    1.63216300000000    0.00433100000000
C        51.94932500000001   -0.01643400000000    0.00778700000000
C        51.32591300000001   -1.08561600000000    0.46930300000000
C        51.70462600000000   -2.01773100000000    1.54477900000000
C        50.76395700000000   -2.93187700000000    1.63064500000000
C        49.75565600000000   -2.63609800000000    0.63321800000000
N        50.09343100000000   -1.58272100000000   -0.01607700000000
C        48.50326300000000   -3.34310600000000    0.30202500000000
C        47.38938600000001   -2.74640900000000   -0.04531700000000
N        47.00727400000000   -1.46365200000000    0.37236600000000
H        46.30968600000000   -4.22043500000000   -1.39620400000000
H        44.44459800000001   -2.45170500000000   -1.58814400000000
H        44.53570400000001    2.45511700000000    1.51518200000000
H        46.51239300000001    4.34524700000000    1.30432500000000
H        48.76877500000000    4.56823700000000   -0.40457800000000
H        50.81060500000000    3.86180300000000   -2.43532100000000
H        52.56487700000000    1.98175900000000   -2.24078700000000
H        52.61937600000000   -1.94332500000000    2.15494900000000
H        50.78300400000000   -3.74548500000000    2.33891200000000
H        48.54174700000000   -4.44306500000000    0.36106100000000
154
 energy: -283.542511248406 gnorm: 0.410393035812 xtb: 6.4.1 (bd6e46d)
Ni       20.27079259267907    0.03605051774128   -0.00970448170424
C        22.59121155767305   -3.11825963374839    1.30174385661599
C        23.52128260192872   -2.16380267588146    1.25766898228456
C        23.08875684577086   -1.11250242155121    0.34647170772123
C        23.69222023069283    0.03729833458875   -0.00750698600529
C        22.99468724537777    1.22814878520373   -0.36339986204456
C        23.35083406448220    2.22410523545203   -1.23574384991678
C        22.33523763440309    3.21225639999687   -1.24853671665687
C        21.35901522804381    2.80689803978583   -0.38167623567668
N        21.73627459023977    1.57265073562072    0.17315857047283
C        20.12567111673700    3.47711770666598   -0.00856433194839
C        19.00084647525472    2.82688786357508    0.34281679956332
C        17.93615291248009    3.17054550688250    1.29213223805646
C        17.07156479389409    2.15825027013943    1.23656088592748
C        17.53358607703088    1.16076630216816    0.27139343000520
N        18.68515392312328    1.57069200872206   -0.20524530043222
C        16.91324723980958   -0.06927558755065   -0.15326901096547
C        17.59469325674812   -1.19870931650582   -0.41985184501738
C        17.20729959995066   -2.26033206740073   -1.35654083543884
C        18.17248291034485   -3.17553173872595   -1.27991830002855
C        19.16222905072267   -2.72320485851254   -0.30947861035536
N        18.81792456836672   -1.53879526043094    0.16441117182280
C        20.36384780328867   -3.37893063933560    0.13787651923146
C        21.51019364264267   -2.70914404079457    0.41610179829112
N        21.82017783570073   -1.46483277309247   -0.15172825364448
H        22.64069205846687   -4.01266260228974    1.92017798736380
H        24.42757541688971   -2.19375906745072    1.83650802826615
H        24.26281618536875    2.22094854424985   -1.82140899909683
H        22.32798047411661    4.11130871690299   -1.84879744308284
H        20.07591684066798    4.56879304475931   -0.00485441825184
H        17.89150300788990    4.03904792184684    1.92867269899425
H        16.18175264641392    2.11938850933652    1.85019889269491
H        15.82889471660071   -0.07911367995419   -0.26600711893504
H        16.34980561053204   -2.30144779971843   -2.01250097089676
H        18.17476334077860   -4.07422631594500   -1.87813914022171
H        20.34119967920295   -4.46352880462568    0.25808955647219
Ni       63.48612484824588   -0.00706143272811   -0.01374652214952
C        61.16571726060189    2.84919006510447    1.86011910619763
C        60.23564834100051    1.91948347745279    1.63973069990392
C        60.66812472218594    1.05547323161462    0.54932830900594
C        60.06444577491106   -0.00875225272362   -0.01163243922468
C        60.76221488685538   -1.11286484285218   -0.58245378231504
C        60.40608263767690   -1.92968893003840   -1.62436547794003
C        61.42170302143676   -2.89833141423900   -1.82028419875578
C        62.39790333710098   -2.66083191789953   -0.89330332766594
N        62.02061975972628   -1.55088619378480   -0.11915455691326
C        63.63123787435137   -3.38863023324299   -0.65098601057704
C        64.75606562723952   -2.81485805958790   -0.18507100310322
C        65.82075501850424   -3.32866154226638    0.68400055144721
C        66.68534589622645   -2.32362363969186    0.81719302350411
C        66.22332891438819   -1.16441231550575    0.05382738354030
N        65.07176007330433   -1.47880692175568   -0.49058650607348
C        66.84366462286657    0.12305931701479   -0.13527059892110
C        66.16221746582227    1.28234399101806   -0.18769991622881
C        66.54961052367943    2.49930740437991   -0.91118415327199
C        65.58443007954219    3.38440811467192   -0.66610743545759
C        64.59468192046621    2.75989986807911    0.20357468489870
N        64.93899114448453    1.50813842129928    0.44951730308026
C        63.39306325396034    3.32125712003485    0.76480234209233
C        62.24671262979162    2.61147365000217    0.91394043673547
N        61.93672908130214    1.49407014454372    0.12516647381205
H        61.11621933431671    3.61334304238274    2.63373662689151
H        59.32934273640980    1.84156108320772    2.21408926975415
H        59.49410984501865   -1.81792563581664   -2.19933410853643
H        61.42894630439832   -3.67041582403899   -2.57693687876449
H        63.68100570604407   -4.46204391445958   -0.84987110337528
H        65.86541181425466   -4.30018007050716    1.14837609568363
H        67.57516263487254   -2.39928348633453    1.42738897302669
H        67.92801837887968    0.15364345030606   -0.24422790842404
H        67.40710672445904    2.66139952744471   -1.54813053282692
H        65.58214823631813    4.37848059868878   -1.08722425378010
H        63.41570935099372    4.36472593902430    1.08413930854419
C        26.59594672144522    0.01224783293324   -0.00600330749639
C        27.81713281083879    0.01965321976745   -0.00599487336935
C        29.20300543027392    0.02121446036336   -0.00075044091121
C        30.42186270953017    0.02182435829053   -0.01020218197801
C        39.97677256835815    0.02064767937510   -0.00331238561378
C        41.19132303291919    0.02040392304375   -0.00414837726525
C        42.55902218433148    0.02101412244099   -0.00126427285582
C        43.77512722305708    0.02154755299992   -0.01134125877076
C        53.33112690114301    0.02094153037845   -0.00306982836989
C        54.54799488663954    0.02015424974424   -0.00446288316870
C        55.93692469078732    0.01922900297629   -0.00083873647182
C        57.15794452159069    0.01147560339778   -0.00705789908218
Ni       35.23116232002910    0.03402382709309    0.00336782825166
C        32.95954143666381   -3.24951518123913   -0.89624430910552
C        31.99744603253649   -2.32976624004906   -0.99748939402216
C        32.42542250029248   -1.18195286486363   -0.20864697661073
C        31.77701779635245    0.00478440756415    0.00638046833786
C        32.47845274656338    1.26170387024341    0.23214834912818
C        32.10066022702497    2.36534112720968    0.94928587088286
C        33.10854062608166    3.35776016552388    0.85498514972626
C        34.09798003673581    2.83618576742694    0.07095298515017
N        33.74206297510613    1.52238473696228   -0.32359076025404
C        35.31701361505753    3.47036936561078   -0.34480262564784
C        36.44206565246797    2.79017924923507   -0.67524108185138
C        37.43626854194707    3.06402910605728   -1.69381610399091
C        38.34393767218182    2.08312414439492   -1.60512341755444
C        37.94029499702949    1.18070343096127   -0.52131442913063
N        36.80370862141245    1.60458458302604   -0.01941764605782
C        38.60310062584016    0.00109349987286   -0.00143786690945
C        37.95789171168560   -1.09781798888183    0.47753857355253
C        38.36750013346317   -2.01834540834325    1.53311174404975
C        37.41030543308573   -2.94946941986551    1.62954286753938
C        36.39292896392917   -2.64167302233419    0.64298001225893
N        36.71892283005432   -1.54031641257472    0.00107318723441
C        35.17402287487709   -3.35147134038687    0.31190606780442
C        34.02854628346299   -2.73318566162220   -0.05371257844472
N        33.67860401768579   -1.44329562745206    0.33325919085742
H        32.96517315030943   -4.21748707312520   -1.39208596239239
H        31.09561941431523   -2.44024718616172   -1.58267686409258
H        31.18471682590302    2.46019505503099    1.51666427247857
H        33.14953755933463    4.33900891735003    1.30690506771951
H        35.39897638804911    4.56176827936745   -0.41129326816377
H        37.45267414189456    3.86002445542417   -2.42599753727803
H        39.21614285942055    1.97408164846126   -2.23746925342454
H        39.26344186023918   -1.93755829591657    2.14568875218411
H        37.42461423453091   -3.75254164437416    2.33974504517283
H        35.19852456453547   -4.44109730939131    0.35838141849497
Ni       48.58050432344599    0.03369337600586    0.00322289841078
C        46.30935802573499   -3.24933137336949   -0.89652300664129
C        45.34722823608944   -2.33043575136582   -0.99685087324121
C        45.77586422893322   -1.18167483254071   -0.20792028544005
C        45.12919482203281    0.00439707333682    0.00615002516387
C        45.82863338519861    1.26221948984002    0.23221615186740
C        45.45064386850395    2.36525432286210    0.94915578886652
C        46.45878268239598    3.35754101732729    0.85512921493580
C        47.44837251919384    2.83597002635990    0.07097471125357
N        47.09299525710382    1.52250811873234   -0.32325829726322
C        48.66726108210779    3.47027369656767   -0.34479985012783
C        49.79238620103297    2.79025662115756   -0.67519005887717
C        50.78648762065853    3.06422887033490   -1.69364044489825
C        51.69390655280348    2.08294324215260   -1.60538742400103
C        51.29023715993279    1.18010425301857   -0.52210979344515
N        50.15449518720829    1.60419518574510   -0.01966619466492
C        51.95539074712347    0.00064356421277   -0.00129486636306
C        51.30886335295960   -1.09742412993346    0.47773951108157
C        51.71756095401889   -2.01794576951235    1.53321511249011
C        50.76045367599285   -2.94951337636394    1.62923799054332
C        49.74356404409851   -2.64112009928077    0.64340674778465
N        50.06943593387685   -1.53990081652759    0.00173111897319
C        48.52370891150111   -3.35150380664954    0.31166061067495
C        47.37931196962477   -2.73316793733473   -0.05336631925590
N        47.03011676487366   -1.44304954027112    0.33320074935141
H        46.31517030652902   -4.21744215590708   -1.39210898699599
H        44.44578571625621   -2.44034378407798   -1.58279005299726
H        44.53484566404509    2.46018001283227    1.51677325248517
H        46.49959796904565    4.33902340340979    1.30671993360177
H        48.74906918692794    4.56172670276801   -0.41147210531515
H        50.80282236671653    3.86009460582496   -2.42597633353495
H        52.56629576026372    1.97406717801248   -2.23738520010781
H        52.61363356248588   -1.93760367850423    2.14557019440882
H        50.77462570565642   -3.75247430261651    2.33966879933653
H        48.54866134866607   -4.44109288111153    0.35788966412423
154
 energy: -283.705887820231 gnorm: 0.176342636229 xtb: 6.4.1 (bd6e46d)
Ni       20.27905408661776    0.03573924303806   -0.00665802146314
C        22.59031043066965   -3.12339708759677    1.28876914366062
C        23.53433367798354   -2.16234415759979    1.25136773428176
C        23.07752818094361   -1.11185872618552    0.35918644715834
C        23.65924549504824    0.06383673694197   -0.01023963810039
C        22.97742181879706    1.21876261887224   -0.36072573750142
C        23.35784960686282    2.25466286118723   -1.24532093430705
C        22.36950985225960    3.20991510380440   -1.24998606118226
C        21.35041840106326    2.77670910669574   -0.37402081568706
N        21.70121043627913    1.54248758296242    0.15150190223561
C        20.14917452890431    3.46761239029104   -0.00906364465928
C        19.00201866445947    2.79898045719156    0.35178717542532
C        17.94143628093871    3.17144816990916    1.26686364361615
C        17.04796892021604    2.15481666687868    1.22884858251725
C        17.53092057510413    1.15721924715329    0.29220924774249
N        18.73597447729243    1.53404779135990   -0.16479573946685
C        16.90633885438656   -0.04721557112610   -0.14443439585596
C        17.60629985863891   -1.19365925901398   -0.43433450817451
C        17.20450986204717   -2.25851893530263   -1.33694674051967
C        18.17573604484731   -3.19456926050012   -1.26800749243851
C        19.17517948900623   -2.72721459417024   -0.32092506486445
N        18.84284460273715   -1.49552604596257    0.11806578426155
C        20.34621040773392   -3.37944415537864    0.12891365451851
C        21.50955831509769   -2.68558189587353    0.42415649838523
N        21.80229821259962   -1.45052844610729   -0.11035752270499
H        22.62984601686260   -4.00699029862680    1.90606350900496
H        24.43545826104442   -2.18156573739600    1.82924295268135
H        24.26051973107081    2.22948197853103   -1.82017712508833
H        22.33275596252516    4.10563396129964   -1.84410559297215
H        20.09530738539073    4.55631849571722   -0.00360154313496
H        17.89985028886112    4.03368662159142    1.91367375058927
H        16.17520620124546    2.10846016701295    1.84392248412551
H        15.83169808797076   -0.07230368099763   -0.26569594541288
H        16.35377566290157   -2.29064999024999   -1.99812604437017
H        18.18756775857083   -4.08039335725914   -1.86914878832772
H        20.34016153658922   -4.45639981428478    0.25321451153019
Ni       63.47785845226772   -0.00731158996254   -0.01070851622936
C        61.16663145371465    2.85665501596025    1.84829717468166
C        60.22260829880400    1.91922561401501    1.63322935537690
C        60.67939807076115    1.05245062275925    0.56168899284454
C        60.09728814952744   -0.03434869589794   -0.01918316817977
C        60.77952736654707   -1.10413792051256   -0.57808214542830
C        60.39906876450138   -1.95794922998136   -1.63941025348425
C        61.38744867277316   -2.89578209710457   -1.82126536115298
C        62.40651505000912   -2.63261185594666   -0.88018530575951
N        62.05569849372813   -1.51719164938739   -0.13485817300766
C        63.60772906767775   -3.37920834781102   -0.64970194806721
C        64.75489419991774   -2.78910078112324   -0.17106813886834
C        65.81546301980022   -3.32485037129568    0.65901356967993
C        66.70894221127453   -2.31880667879137    0.81024873739998
C        66.22599555868801   -1.16478894576286    0.07493782588240
N        65.02093377537521   -1.45031233863474   -0.44403848805448
C        66.85057139857284    0.09974325228997   -0.13069396146698
C        66.15060914939177    1.28006854320149   -0.20288815659215
C        66.55239532867941    2.49388372407105   -0.89229830292452
C        65.58117699545546    3.40090406454604   -0.65090293040741
C        64.58172814629357    2.76596749392284    0.19304197552108
N        64.91407068395121    1.47422150666687    0.39592478808343
C        63.41069761545997    3.32342965905584    0.75605184982668
C        62.24734988817026    2.58682636376966    0.91745714760330
N        61.95462142684931    1.47231802298692    0.16315562550500
H        61.12706208722936    3.61040475545040    2.61877852150383
H        59.32146762133731    1.83096901677689    2.20466610462905
H        59.49642096378367   -1.82655517595477   -2.19969912741947
H        61.42416845405400   -3.66572382791474   -2.57126507346478
H        63.66162096139995   -4.45002697601819   -0.84632162923497
H        65.85706477395497   -4.29211818483853    1.13464728549338
H        67.58170935045645   -2.38736845630126    1.42324745647252
H        67.92521385553258    0.14689428460975   -0.24520020632241
H        67.40313342455704    2.64811235152734   -1.53604039438016
H        65.56933998729775    4.38286722268375   -1.07728681285916
H        63.41673938524656    4.35863333841430    1.07798043340748
C        26.58850427337124    0.01358297807650   -0.00543456219913
C        27.81597861848878    0.01984224135332   -0.00656913317344
C        29.17721130234572    0.02097028468664    0.00014678266007
C        30.40242448355423    0.03167818680078   -0.01056303946437
C        39.98960643852443    0.02304724709368   -0.00344360913410
C        41.21136959366740    0.01888748144561   -0.00298026830043
C        42.54233780179479    0.02139889382054   -0.00066083315627
C        43.76470245023788    0.03215510262956   -0.01223611644719
C        53.35280205749107    0.02360116830091   -0.00297805133475
C        54.57617679552392    0.01941202766616   -0.00240259269543
C        55.93965400918378    0.01850333763070   -0.00168318790813
C        57.16589576849570    0.01067645432255   -0.00690328919733
Ni       35.22654427319699    0.03666722427789    0.00030565648912
C        32.96415536912478   -3.26451376801569   -0.88430331014755
C        31.99578033295797   -2.32474437477553   -0.98386271425565
C        32.45500679630655   -1.18627234870149   -0.21808110849021
C        31.79001831735559    0.02999206889124    0.00556104029110
C        32.51370160540836    1.25959177880824    0.23008767709378
C        32.09476461508813    2.39369412315198    0.95223804538364
C        33.08062374061470    3.35413193469622    0.85348896571124
C        34.11227220066083    2.80985543326451    0.06842362779609
N        33.77715317937826    1.49900468688589   -0.28475890957294
C        35.29775967434102    3.46409923036336   -0.34646670676237
C        36.44141038626611    2.76599502591939   -0.68304975553364
C        37.44142159693719    3.06630951422787   -1.67451236252366
C        38.36349060132676    2.07262848432489   -1.59299723110035
C        37.93876372881269    1.17361144090411   -0.54135351728908
N        36.75255639659228    1.56922763894440   -0.05543447551578
C        38.60577836350107    0.01812720447929   -0.01209447837190
C        37.93513727002027   -1.10065321834215    0.49092388742964
C        38.37308677320608   -2.01486155499275    1.51663341960743
C        37.40809521368541   -2.96493259000415    1.61782434990660
C        36.37777882362303   -2.64389690510022    0.65436757696692
N        36.69149728261392   -1.48482810539817    0.03305327486733
C        35.19442946327103   -3.35150558045172    0.32213977430830
C        34.02671520707326   -2.71686611522525   -0.06946007810938
N        33.70176992792150   -1.42234995405410    0.28276568496340
H        32.97152649592634   -4.21555929172357   -1.38266527682385
H        31.09766918542458   -2.42591971362688   -1.57073682527991
H        31.18404039289356    2.46267926204093    1.51382941614900
H        33.13762710901929    4.32981872760423    1.30508154077130
H        35.37665184787419    4.54977439557809   -0.41246773423216
H        37.44424075300938    3.85724822487815   -2.40915294831498
H        39.21873588153314    1.96598480034011   -2.22914150237307
H        39.25579672612313   -1.93241671259334    2.13084318859981
H        37.41498570078794   -3.76028636873152    2.33427916491154
H        35.20112884795140   -4.43452294661126    0.36095692172243
Ni       48.57547874243546    0.03610967697154    0.00013017437878
C        46.31382075337316   -3.26444672304860   -0.88492563540345
C        45.34558313369372   -2.32609004117983   -0.98255911553768
C        45.80752594296602   -1.18654905611627   -0.21643229942242
C        45.14826094284383    0.02952634686341    0.00527913293638
C        45.86550921709291    1.26085896528570    0.22979477532683
C        45.44484302983558    2.39398686225096    0.95162100802280
C        46.43102931760588    3.35394610020380    0.85392486408071
C        47.46319797264681    2.80985874496421    0.06839855245939
N        47.12960778657184    1.49976488509507   -0.28455055916470
C        48.64817548964094    3.46383097321011   -0.34634398797973
C        49.79221625725599    2.76571671994007   -0.68310740057125
C        50.79170301149431    3.06658045162920   -1.67399366601313
C        51.71332001713371    2.07179027301730   -1.59387008740606
C        51.29006782048666    1.17216433784385   -0.54296851321366
N        50.10506891903356    1.56812007762097   -0.05574740591424
C        51.96360557740435    0.01725656341251   -0.01187615664043