      -----------------------------------------------------------      
     |                   =====================                   |     
     |                           x T B                           |     
     |                   =====================                   |     
     |                         S. Grimme                         |     
     |          Mulliken Center for Theoretical Chemistry        |     
     |                    University of Bonn                     |     
      -----------------------------------------------------------      

   * xtb version 6.4.1 (bd6e46d) compiled by 'conda@4901f00b25ba' on 2021-06-10

   xtb is free software: you can redistribute it and/or modify it under
   the terms of the GNU Lesser General Public License as published by
   the Free Software Foundation, either version 3 of the License, or
   (at your option) any later version.
   
   xtb is distributed in the hope that it will be useful,
   but WITHOUT ANY WARRANTY; without even the implied warranty of
   MERCHANTABILITY or FITNESS FOR A PARTICULAR PURPOSE.  See the
   GNU Lesser General Public License for more details.
   
   Cite this work as:
   * C. Bannwarth, E. Caldeweyher, S. Ehlert, A. Hansen, P. Pracht,
     J. Seibert, S. Spicher, S. Grimme, WIREs Comput. Mol. Sci., 2020, 11,
     e01493. DOI: 10.1002/wcms.1493
   
   for GFN2-xTB:
   * C. Bannwarth, S. Ehlert and S. Grimme., J. Chem. Theory Comput., 2019,
     15, 1652-1671. DOI: 10.1021/acs.jctc.8b01176
   for GFN1-xTB:
   * S. Grimme, C. Bannwarth, P. Shushkov, J. Chem. Theory Comput., 2017,
     13, 1989-2009. DOI: 10.1021/acs.jctc.7b00118
   for GFN0-xTB:
   * P. Pracht, E. Caldeweyher, S. Ehlert, S. Grimme, ChemRxiv, 2019, preprint.
     DOI: 10.26434/chemrxiv.8326202.v1
   for GFN-FF:
   * S. Spicher and S. Grimme, Angew. Chem. Int. Ed., 2020, 59, 15665-15673.
     DOI: 10.1002/anie.202004239
   
   for DFT-D4:
   * E. Caldeweyher, C. Bannwarth and S. Grimme, J. Chem. Phys., 2017,
     147, 034112. DOI: 10.1063/1.4993215
   * E. Caldeweyher, S. Ehlert, A. Hansen, H. Neugebauer, S. Spicher,
     C. Bannwarth and S. Grimme, J. Chem. Phys., 2019, 150, 154122.
     DOI: 10.1063/1.5090222
   * E. Caldeweyher, J.-M. Mewes, S. Ehlert and S. Grimme, Phys. Chem. Chem. Phys.
     2020, 22, 8499-8512. DOI: 10.1039/D0CP00502A
   
   for sTDA-xTB:
   * S. Grimme and C. Bannwarth, J. Chem. Phys., 2016, 145, 054103.
     DOI: 10.1063/1.4959605
   
   in the mass-spec context:
   * V. Asgeirsson, C. Bauer and S. Grimme, Chem. Sci., 2017, 8, 4879.
     DOI: 10.1039/c7sc00601b
   * J. Koopman and S. Grimme, ACS Omega 2019, 4, 12, 15120-15133.
     DOI: 10.1021/acsomega.9b02011
   
   for metadynamics refer to:
   * S. Grimme, J. Chem. Theory Comput., 2019, 155, 2847-2862
     DOI: 10.1021/acs.jctc.9b00143
   
   for SPH calculations refer to:
   * S. Spicher and S. Grimme, J. Chem. Theory Comput., 2021, 17, 1701-1714
     DOI: 10.1021/acs.jctc.0c01306
   
   with help from (in alphabetical order)
   P. Atkinson, C. Bannwarth, F. Bohle, G. Brandenburg, E. Caldeweyher
   M. Checinski, S. Dohm, S. Ehlert, S. Ehrlich, I. Gerasimov, J. Koopman
   C. Lavigne, S. Lehtola, F. März, M. Müller, F. Musil, H. Neugebauer
   J. Pisarek, C. Plett, P. Pracht, J. Seibert, P. Shushkov, S. Spicher
   M. Stahn, M. Steiner, T. Strunk, J. Stückrath, T. Rose, and J. Unsleber
   
 * started run on 2021/11/19 at 13:24:11.887     

           -------------------------------------------------
          |                Calculation Setup                |
           -------------------------------------------------

          program call               : /home/jeff/miniconda3/bin/xtb input_structure_1.xyz --gfn 2 --ohess normal --parallel 1 --etemp 300 --chrg 0 --uhf 0 -I det_control.in
          hostname                   : jelfscompute1
          coordinate file            : input_structure_1.xyz
          omp threads                :                     1
          number of atoms            :                   154
          number of electrons        :                   526
          charge                     :                     0
          spin                       :                   0.0
          first test random number   :      0.91559305192907

   ID    Z sym.   atoms
    1   27 Co     1, 37, 85, 120
    2    6 C      2-9, 11-15, 17-21, 23, 24, 38-45, 47-51, 53-57, 59, 60,
                  73-84, 86-93, 95-99, 101-105, 107, 108, 121-128, 130-134,
                  136-140, 142, 143
    3    7 N      10, 16, 22, 25, 46, 52, 58, 61, 94, 100, 106, 109, 129,
                  135, 141, 144
    4    1 H      26-36, 62-72, 110-119, 145-154

molecular fragmentation (1/2 indicates fragments):
111111111111111111111111111111111111222222222222222222222222222222222222
222222222222222222222222222222222222222222222222222222222222222222222222
2222222222
# atoms in fragment 1/2:    36   118
 fragment masses (1/2) :      366.26     1240.90
CMA distance (Bohr)    :  52.934
constraining FC (au)   :  0.0500

           -------------------------------------------------
          |                 G F N 2 - x T B                 |
           -------------------------------------------------

        Reference                      10.1021/acs.jctc.8b01176
      * Hamiltonian:
        H0-scaling (s, p, d)           1.850000    2.230000    2.230000
        zeta-weighting                 0.500000
      * Dispersion:
        s8                             2.700000
        a1                             0.520000
        a2                             5.000000
        s9                             5.000000
      * Repulsion:
        kExp                           1.500000    1.000000
        rExp                           1.000000
      * Coulomb:
        alpha                          2.000000
        third order                    shell-resolved
        anisotropic                    true
        a3                             3.000000
        a5                             4.000000
        cn-shift                       1.200000
        cn-exp                         4.000000
        max-rad                        5.000000


          ...................................................
          :                      SETUP                      :
          :.................................................:
          :  # basis functions                 514          :
          :  # atomic orbitals                 510          :
          :  # shells                          270          :
          :  # electrons                       526          :
          :  max. iterations                   250          :
          :  Hamiltonian                  GFN2-xTB          :
          :  restarted?                      false          :
          :  GBSA solvation                  false          :
          :  PC potential                    false          :
          :  electronic temp.          300.0000000     K    :
          :  accuracy                    1.0000000          :
          :  -> integral cutoff          0.2500000E+02      :
          :  -> integral neglect         0.1000000E-07      :
          :  -> SCF convergence          0.1000000E-05 Eh   :
          :  -> wf. convergence          0.1000000E-03 e    :
          :  Broyden damping             0.4000000          :
          ...................................................

 iter      E             dE          RMSdq      gap      omega  full diag
   1   -281.3069035 -0.281307E+03  0.885E+00    0.09       0.0  T
   2   -248.5888475  0.327181E+02  0.132E+01    0.12       1.0  T
   3   -265.6498995 -0.170611E+02  0.803E+00    0.10       1.0  T
   4   -255.8430060  0.980689E+01  0.863E+00    0.11       1.0  T
   5   -233.9583749  0.218846E+02  0.800E+00    0.06       1.0  T
   6   -265.9307723 -0.319724E+02  0.512E+00    0.02       1.0  T
   7   -270.2265209 -0.429575E+01  0.546E+00    0.03       1.0  T
   8   -280.8221748 -0.105957E+02  0.427E+00    0.20       1.0  T
   9   -279.3595362  0.146264E+01  0.375E+00    0.01       1.0  T
  10   -282.3498357 -0.299030E+01  0.339E+00    0.21       1.0  T
  11   -282.2875903  0.622454E-01  0.315E+00    0.10       1.0  T
  12   -282.4439415 -0.156351E+00  0.294E+00    0.07       1.0  T
  13   -282.6699045 -0.225963E+00  0.294E+00    0.12       1.0  T
  14   -282.7722927 -0.102388E+00  0.280E+00    0.07       1.0  T
  15   -282.7795812 -0.728848E-02  0.279E+00    0.08       1.0  T
  16   -282.7736420  0.593922E-02  0.280E+00    0.09       1.0  T
  17   -281.1825319  0.159111E+01  0.289E+00    0.08       1.0  T
  18   -281.6463005 -0.463769E+00  0.260E+00    0.06       1.0  T
  19   -280.3907014  0.125560E+01  0.313E+00    0.03       1.0  T
  20   -282.1753005 -0.178460E+01  0.211E+00    0.02       1.0  T
  21   -280.8691270  0.130617E+01  0.316E+00    0.03       1.0  T
  22   -277.8593523  0.300977E+01  0.437E+00    0.05       1.0  T
  23   -279.5552666 -0.169591E+01  0.360E+00    0.05       1.0  T
  24   -280.9597128 -0.140445E+01  0.288E+00    0.01       1.0  T
  25   -280.3209052  0.638808E+00  0.317E+00    0.02       1.0  T
  26   -282.1255661 -0.180466E+01  0.224E+00    0.01       1.0  T
  27   -282.3617059 -0.236140E+00  0.210E+00    0.02       1.0  T
  28   -282.9339618 -0.572256E+00  0.160E+00    0.02       1.0  T
  29   -283.1686201 -0.234658E+00  0.137E+00    0.02       1.0  T
  30   -283.1672791  0.134092E-02  0.138E+00    0.02       1.0  T
  31   -279.9616036  0.320568E+01  0.414E+00    0.03       1.0  T
  32   -281.1906559 -0.122905E+01  0.334E+00    0.02       1.0  T
  33   -280.5542013  0.636455E+00  0.376E+00    0.03       1.0  T
  34   -282.2368183 -0.168262E+01  0.261E+00    0.02       1.0  T
  35   -282.5049701 -0.268152E+00  0.238E+00    0.01       1.0  T
  36   -282.2959463  0.209024E+00  0.245E+00    0.02       1.0  T
  37   -282.9058515 -0.609905E+00  0.186E+00    0.03       1.0  T
  38   -282.9845502 -0.786988E-01  0.183E+00    0.01       1.0  T
  39   -280.5190974  0.246545E+01  0.355E+00    0.02       1.0  T
  40   -281.3090857 -0.789988E+00  0.312E+00    0.02       1.0  T
  41   -281.6665561 -0.357470E+00  0.292E+00    0.02       1.0  T
  42   -281.8812697 -0.214714E+00  0.279E+00    0.02       1.0  T
  43   -282.2543941 -0.373124E+00  0.250E+00    0.02       1.0  T
  44   -282.3885349 -0.134141E+00  0.239E+00    0.02       1.0  T
  45   -282.1997307  0.188804E+00  0.253E+00    0.02       1.0  T
  46   -283.5225239 -0.132279E+01  0.915E-01    0.00       1.0  T
  47   -283.3274546  0.195069E+00  0.131E+00    0.02       1.0  T
  48   -283.6238149 -0.296360E+00  0.595E-01    0.00       1.0  T
  49   -283.5143577  0.109457E+00  0.900E-01    0.00       1.0  T
  50   -283.4488923  0.654655E-01  0.998E-01    0.00       1.0  T
  51   -283.5492950 -0.100403E+00  0.757E-01    0.01       1.0  T
  52   -283.5817087 -0.324137E-01  0.667E-01    0.02       1.0  T
  53   -283.5388525  0.428562E-01  0.773E-01    0.02       1.0  T
  54   -283.5331282  0.572427E-02  0.785E-01    0.01       1.0  T
  55   -283.5370076 -0.387943E-02  0.775E-01    0.01       1.0  T
  56   -283.5360307  0.976956E-03  0.777E-01    0.01       1.0  T
  57   -283.5364691 -0.438425E-03  0.773E-01    0.01       1.0  T
  58   -283.6019471 -0.654780E-01  0.593E-01    0.01       1.0  T
  59   -283.6306627 -0.287156E-01  0.496E-01    0.00       1.0  T
  60   -283.6437623 -0.130996E-01  0.434E-01    0.00       1.0  T
  61   -283.6778390 -0.340767E-01  0.231E-01    0.02       1.0  T
  62   -283.6640915  0.137476E-01  0.321E-01    0.02       1.0  T
  63   -283.6579353  0.615611E-02  0.342E-01    0.01       1.0  T
  64   -283.6609893 -0.305395E-02  0.292E-01    0.01       1.0  T
  65   -283.6706264 -0.963706E-02  0.224E-01    0.01       1.0  T
  66   -283.6767763 -0.614995E-02  0.161E-01    0.01       1.0  T
  67   -283.6813073 -0.453097E-02  0.151E-01    0.02       1.0  T
  68   -283.6711405  0.101668E-01  0.268E-01    0.01       1.0  T
  69   -283.6644125  0.672794E-02  0.318E-01    0.01       1.0  T
  70   -283.6815775 -0.171649E-01  0.154E-01    0.01       1.0  T
  71   -283.6826660 -0.108854E-02  0.127E-01    0.01       1.0  T
  72   -283.6830414 -0.375373E-03  0.107E-01    0.01       1.0  T
  73   -283.6840642 -0.102282E-02  0.671E-02    0.01       1.0  T
  74   -283.6829722  0.109205E-02  0.888E-02    0.01       1.0  T
  75   -283.6840129 -0.104069E-02  0.595E-02    0.01       1.0  T
  76   -283.6841227 -0.109797E-03  0.507E-02    0.01       1.0  T
  77   -283.6843982 -0.275524E-03  0.356E-02    0.02       1.0  T
  78   -283.6844109 -0.127263E-04  0.339E-02    0.02       1.0  T
  79   -283.6844486 -0.377098E-04  0.300E-02    0.02       1.0  T
  80   -283.6846197 -0.171123E-03  0.155E-02    0.02       1.0  T
  81   -283.6846075  0.121908E-04  0.166E-02    0.02       1.0  T
  82   -283.6846385 -0.309246E-04  0.124E-02    0.02       1.0  T
  83   -283.6846577 -0.192575E-04  0.887E-03    0.02       1.0  T
  84   -283.6846414  0.163160E-04  0.116E-02    0.02       1.0  T
  85   -283.6846451 -0.369705E-05  0.111E-02    0.02       1.0  T
  86   -283.6846589 -0.137409E-04  0.814E-03    0.02       1.0  T
  87   -283.6846576  0.123520E-05  0.843E-03    0.02       1.0  T
  88   -283.6846657 -0.812790E-05  0.614E-03    0.02       1.3  T
  89   -283.6846673 -0.153901E-05  0.544E-03    0.02       1.5  T
  90   -283.6846691 -0.185138E-05  0.448E-03    0.02       1.8  T
  91   -283.6846713 -0.214122E-05  0.298E-03    0.02       2.7  T
  92   -283.6846726 -0.132758E-05  0.174E-03    0.02       4.6  T
  93   -283.6846732 -0.615767E-06  0.715E-04    0.02      11.3  T
  94   -283.6846733 -0.622442E-07  0.413E-04    0.02      19.5  T

   *** convergence criteria satisfied after 94 iterations ***

         #    Occupation            Energy/Eh            Energy/eV
      -------------------------------------------------------------
         1        2.0000           -0.6832338             -18.5917
       ...           ...                  ...                  ...
       257        1.8402           -0.3478412              -9.4652
       258        1.7671           -0.3474447              -9.4545
       259        1.7662           -0.3474406              -9.4543
       260        1.6795           -0.3470932              -9.4449
       261        1.6738           -0.3470732              -9.4443
       262        1.5680           -0.3467444              -9.4354
       263        1.5675           -0.3467429              -9.4354 (HOMO)
       264        1.3139           -0.3461369              -9.4189 (LUMO)
       265        1.2563           -0.3460177              -9.4156
       266        0.0001           -0.3363276              -9.1519
       267        0.0001           -0.3362937              -9.1510
       268                         -0.3192512              -8.6873
       ...                                ...                  ...
       510                          1.6153422              43.9557
      -------------------------------------------------------------
                  HL-Gap            0.0006060 Eh            0.0165 eV
             Fermi-level           -0.3455196 Eh           -9.4021 eV

 SCC (total)                   0 d,  0 h,  0 min,  5.834 sec
 SCC setup                      ...        0 min,  0.004 sec (  0.075%)
 Dispersion                     ...        0 min,  0.009 sec (  0.157%)
 classical contributions        ...        0 min,  0.001 sec (  0.019%)
 integral evaluation            ...        0 min,  0.080 sec (  1.373%)
 iterations                     ...        0 min,  5.514 sec ( 94.517%)
 molecular gradient             ...        0 min,  0.218 sec (  3.741%)
 printout                       ...        0 min,  0.007 sec (  0.119%)

         :::::::::::::::::::::::::::::::::::::::::::::::::::::
         ::                     SUMMARY                     ::
         :::::::::::::::::::::::::::::::::::::::::::::::::::::
         :: total energy            -278.616470667119 Eh    ::
         :: gradient norm              0.750784437605 Eh/a0 ::
         :: HOMO-LUMO gap              0.016491358039 eV    ::
         ::.................................................::
         :: SCC energy              -283.684673283152 Eh    ::
         :: -> isotropic ES            0.102553334315 Eh    ::
         :: -> anisotropic ES          0.031419625325 Eh    ::
         :: -> anisotropic XC          0.187760015265 Eh    ::
         :: -> dispersion             -0.235033051684 Eh    ::
         :: repulsion energy           5.067909227478 Eh    ::
         :: add. restraining           0.000000000000 Eh    ::
         :: total charge               0.000000000307 e     ::
         :::::::::::::::::::::::::::::::::::::::::::::::::::::

      ----------------------------------------------------------- 
     |                   =====================                   |
     |                        A N C O P T                        |
     |                   =====================                   |
     |               Approximate Normal Coordinate               |
     |                Rational Function Optimizer                |
      ----------------------------------------------------------- 

          ...................................................
          :                      SETUP                      :
          :.................................................:
          :   optimization level            normal          :
          :   max. optcycles                   462          :
          :   ANC micro-cycles                  20          :
          :   degrees of freedom               456          :
          :.................................................:
          :   RF solver                   davidson          :
          :   write xtbopt.log                true          :
          :   linear?                        false          :
          :   energy convergence         0.5000000E-05 Eh   :
          :   grad. convergence          0.1000000E-02 Eh/α :
          :   maximium RF displ.         1.0000000          :
          :   Hlow (freq-cutoff)         0.1000000E-01      :
          :   Hmax (freq-cutoff)         5.0000000          :
          :   S6 in model hess.         20.0000000          :
          ...................................................

generating ANC from model Hessian ...
Using Lindh-Hessian (1995)
 Shifting diagonal of input Hessian by    1.0124424357260908E-002
 Lowest  eigenvalues of input Hessian
    0.010000    0.010039    0.010094    0.010097    0.010101    0.010107
    0.010107    0.010112    0.010115    0.010117    0.010120    0.000000
    0.000000    0.000000    0.000000    0.000000    0.000000    0.010135
 Highest eigenvalues
    2.239936    2.250060    2.576437    2.785520    2.844620    2.909723


........................................................................
.............................. CYCLE    1 ..............................
........................................................................
   1   -283.6846732 -0.283685E+03  0.731E-04    0.02       0.0  T
   2   -283.6834694  0.120378E-02  0.705E-02    0.01       1.0  T
   3   -283.6846706 -0.120118E-02  0.334E-03    0.02       2.4  T
   4   -283.6845808  0.897931E-04  0.191E-02    0.02       1.0  T
   5   -283.6846456 -0.647733E-04  0.105E-02    0.02       1.0  T
   6   -283.6846379  0.766276E-05  0.116E-02    0.02       1.0  T
   7   -283.6846724 -0.344889E-04  0.180E-03    0.02       4.5  T
   8   -283.6846706  0.181043E-05  0.305E-03    0.02       2.6  T
   9   -283.6846724 -0.179877E-05  0.180E-03    0.02       4.5  T
  10   -283.6846733 -0.918363E-06  0.241E-04    0.02      33.4  T
  11   -283.6846733 -0.115653E-07  0.121E-04    0.02      66.8  T
     SCC iter.                  ...        0 min,  0.643 sec
     gradient                   ...        0 min,  0.218 sec
 * total energy  :  -278.6164707 Eh     change       -0.2771719E-07 Eh
   gradient norm :     0.7507852 Eh/α   predicted     0.0000000E+00 (-100.00%)
   displ. norm   :     0.5861522 α      lambda       -0.3449224E+00
   maximum displ.:     0.1645336 α      in ANC's #158, #157, #156, ...

........................................................................
.............................. CYCLE    2 ..............................
........................................................................
   1   -283.6742500 -0.283674E+03  0.457E-01    0.02       0.0  T
   2   -282.6399297  0.103432E+01  0.204E+00    0.01       1.0  T
   3   -283.2267322 -0.586802E+00  0.138E+00    0.02       1.0  T
   4   -280.6518173  0.257491E+01  0.358E+00    0.04       1.0  T
   5   -278.5196441  0.213217E+01  0.455E+00    0.03       1.0  T
   6   -282.3992783 -0.387963E+01  0.221E+00    0.02       1.0  T
   7   -283.3780830 -0.978805E+00  0.119E+00    0.01       1.0  T
   8   -279.7606466  0.361744E+01  0.376E+00    0.04       1.0  T
   9   -283.1177396 -0.335709E+01  0.154E+00    0.03       1.0  T
  10   -283.4636655 -0.345926E+00  0.955E-01    0.01       1.0  T
  11   -283.6653927 -0.201727E+00  0.324E-01    0.01       1.0  T
  12   -283.4532382  0.212155E+00  0.989E-01    0.00       1.0  T
  13   -283.1587743  0.294464E+00  0.142E+00    0.02       1.0  T
  14   -283.5207425 -0.361968E+00  0.818E-01    0.00       1.0  T
  15   -283.4290461  0.916964E-01  0.984E-01    0.01       1.0  T
  16   -283.4213104  0.773573E-02  0.101E+00    0.01       1.0  T
  17   -283.5129428 -0.916324E-01  0.818E-01    0.01       1.0  T
  18   -283.2588507  0.254092E+00  0.128E+00    0.02       1.0  T
  19   -283.6345007 -0.375650E+00  0.488E-01    0.01       1.0  T
  20   -283.6719749 -0.374741E-01  0.333E-01    0.01       1.0  T
  21   -283.6701473  0.182755E-02  0.346E-01    0.01       1.0  T
  22   -283.6682973  0.185003E-02  0.362E-01    0.02       1.0  T
  23   -283.6524680  0.158293E-01  0.440E-01    0.02       1.0  T
  24   -283.6464319  0.603605E-02  0.468E-01    0.02       1.0  T
  25   -283.6751947 -0.287628E-01  0.319E-01    0.02       1.0  T
  26   -283.6797276 -0.453286E-02  0.284E-01    0.02       1.0  T
  27   -283.6865928 -0.686519E-02  0.221E-01    0.02       1.0  T
  28   -283.6886605 -0.206772E-02  0.198E-01    0.01       1.0  T
  29   -283.6906305 -0.196996E-02  0.178E-01    0.02       1.0  T
  30   -283.6922539 -0.162343E-02  0.156E-01    0.02       1.0  T
  31   -283.6950521 -0.279825E-02  0.108E-01    0.01       1.0  T
  32   -283.6960292 -0.977008E-03  0.847E-02    0.01       1.0  T
  33   -283.6960507 -0.215220E-04  0.827E-02    0.01       1.0  T
  34   -283.6966033 -0.552588E-03  0.644E-02    0.01       1.0  T
  35   -283.6970773 -0.474045E-03  0.454E-02    0.01       1.0  T
  36   -283.6972416 -0.164255E-03  0.366E-02    0.01       1.0  T
  37   -283.6974102 -0.168645E-03  0.257E-02    0.01       1.0  T
  38   -283.6974622 -0.519562E-04  0.204E-02    0.01       1.0  T
  39   -283.6975142 -0.520286E-04  0.139E-02    0.02       1.0  T
  40   -283.6975301 -0.158576E-04  0.110E-02    0.02       1.0  T
  41   -283.6975369 -0.686584E-05  0.928E-03    0.02       1.0  T
  42   -283.6975438 -0.684398E-05  0.706E-03    0.02       1.1  T
  43   -283.6975475 -0.375642E-05  0.517E-03    0.02       1.6  T
  44   -283.6975512 -0.369321E-05  0.268E-03    0.02       3.0  T
  45   -283.6975514 -0.235012E-06  0.220E-03    0.02       3.7  T
  46   -283.6975524 -0.964430E-06  0.594E-04    0.02      13.6  T
  47   -283.6975524 -0.375575E-07  0.295E-04    0.02      27.3  T
     SCC iter.                  ...        0 min,  2.730 sec
     gradient                   ...        0 min,  0.218 sec
 * total energy  :  -278.8914408 Eh     change       -0.2749701E+00 Eh
   gradient norm :     0.4161171 Eh/α   predicted    -0.2317862E+00 ( -15.70%)
   displ. norm   :     0.6866227 α      lambda       -0.2247932E+00
   maximum displ.:     0.2181033 α      in ANC's #158, #157, #156, ...

........................................................................
.............................. CYCLE    3 ..............................
........................................................................
   1   -283.7288552 -0.283729E+03  0.532E-01    0.01       0.0  T
   2   -281.3609460  0.236791E+01  0.259E+00    0.01       1.0  T
   3   -281.8405026 -0.479557E+00  0.280E+00    0.02       1.0  T
   4   -283.3482316 -0.150773E+01  0.125E+00    0.00       1.0  T
   5   -279.3051124  0.404312E+01  0.410E+00    0.03       1.0  T
   6   -281.6017009 -0.229659E+01  0.289E+00    0.03       1.0  T
   7   -281.4119416  0.189759E+00  0.300E+00    0.03       1.0  T
   8   -283.3408984 -0.192896E+01  0.130E+00    0.02       1.0  T
   9   -280.8326831  0.250822E+01  0.321E+00    0.02       1.0  T
  10   -283.6794384 -0.284676E+01  0.596E-01    0.01       1.0  T
  11   -282.8332954  0.846143E+00  0.190E+00    0.02       1.0  T
  12   -283.5041182 -0.670823E+00  0.103E+00    0.00       1.0  T
  13   -283.6905470 -0.186429E+00  0.569E-01    0.01       1.0  T
  14   -283.5067923  0.183755E+00  0.955E-01    0.01       1.0  T
  15   -283.5839928 -0.772005E-01  0.873E-01    0.01       1.0  T
  16   -283.6905545 -0.106562E+00  0.556E-01    0.01       1.0  T
  17   -283.6802008  0.103537E-01  0.579E-01    0.01       1.0  T
  18   -283.7490438 -0.688430E-01  0.278E-01    0.01       1.0  T
  19   -283.7583387 -0.929485E-02  0.194E-01    0.01       1.0  T
  20   -283.7572668  0.107188E-02  0.200E-01    0.01       1.0  T
  21   -283.7619848 -0.471799E-02  0.122E-01    0.01       1.0  T
  22   -283.7617289  0.255863E-03  0.121E-01    0.01       1.0  T
  23   -283.7583335  0.339542E-02  0.175E-01    0.01       1.0  T
  24   -283.7624487 -0.411521E-02  0.112E-01    0.01       1.0  T
  25   -283.7613501  0.109861E-02  0.119E-01    0.01       1.0  T
  26   -283.7630568 -0.170672E-02  0.853E-02    0.01       1.0  T
  27   -283.7634307 -0.373891E-03  0.749E-02    0.01       1.0  T
  28   -283.7626060  0.824670E-03  0.911E-02    0.01       1.0  T
  29   -283.7631047 -0.498680E-03  0.793E-02    0.01       1.0  T
  30   -283.7637531 -0.648381E-03  0.648E-02    0.01       1.0  T
  31   -283.7638288 -0.756758E-04  0.605E-02    0.01       1.0  T
  32   -283.7638834 -0.546308E-04  0.578E-02    0.01       1.0  T
  33   -283.7640625 -0.179085E-03  0.503E-02    0.01       1.0  T
  34   -283.7644443 -0.381850E-03  0.298E-02    0.01       1.0  T
  35   -283.7645519 -0.107580E-03  0.189E-02    0.01       1.0  T
  36   -283.7645886 -0.367189E-04  0.125E-02    0.01       1.0  T
  37   -283.7645869  0.175089E-05  0.120E-02    0.01       1.0  T
  38   -283.7646008 -0.139542E-04  0.976E-03    0.01       1.0  T
  39   -283.7646041 -0.331851E-05  0.902E-03    0.01       1.0  T
  40   -283.7646164 -0.122868E-04  0.598E-03    0.01       1.3  T
  41   -283.7646248 -0.841928E-05  0.232E-03    0.01       3.5  T
  42   -283.7646258 -0.943796E-06  0.122E-03    0.01       6.6  T
  43   -283.7646259 -0.116535E-06  0.980E-04    0.01       8.2  T
  44   -283.7646261 -0.235054E-06  0.337E-04    0.01      23.9  T
     SCC iter.                  ...        0 min,  2.564 sec
     gradient                   ...        0 min,  0.218 sec
 * total energy  :  -279.0622185 Eh     change       -0.1707776E+00 Eh
   gradient norm :     0.1825370 Eh/α   predicted    -0.1653861E+00 (  -3.16%)
   displ. norm   :     0.7560225 α      lambda       -0.1196853E+00
   maximum displ.:     0.2466876 α      in ANC's #158, #157, #156, ...

........................................................................
.............................. CYCLE    4 ..............................
........................................................................
   1   -283.8254574 -0.283825E+03  0.531E-01    0.01       0.0  T
   2   -279.4967238  0.432873E+01  0.318E+00    0.02       1.0  T
   3   -281.3855840 -0.188886E+01  0.311E+00    0.03       1.0  T
   4   -281.1409988  0.244585E+00  0.333E+00    0.03       1.0  T
   5   -282.8430165 -0.170202E+01  0.199E+00    0.02       1.0  T
   6   -280.6984624  0.214455E+01  0.347E+00    0.01       1.0  T
   7   -282.9386995 -0.224024E+01  0.189E+00    0.00       1.0  T
   8   -283.2389721 -0.300273E+00  0.155E+00    0.01       1.0  T
   9   -283.1290019  0.109970E+00  0.168E+00    0.02       1.0  T
  10   -282.5161846  0.612817E+00  0.212E+00    0.02       1.0  T
  11   -283.6925253 -0.117634E+01  0.818E-01    0.01       1.0  T
  12   -283.5171455  0.175380E+00  0.113E+00    0.00       1.0  T
  13   -283.6600040 -0.142859E+00  0.894E-01    0.01       1.0  T
  14   -283.6957721 -0.357682E-01  0.807E-01    0.01       1.0  T
  15   -283.8625675 -0.166795E+00  0.152E-01    0.00       1.0  T
  16   -283.8346745  0.278930E-01  0.346E-01    0.00       1.0  T
  17   -283.7911464  0.435281E-01  0.549E-01    0.00       1.0  T
  18   -283.7930373 -0.189089E-02  0.526E-01    0.01       1.0  T
  19   -283.8490082 -0.559710E-01  0.257E-01    0.01       1.0  T
  20   -283.8519685 -0.296025E-02  0.233E-01    0.01       1.0  T
  21   -283.8615532 -0.958478E-02  0.120E-01    0.00       1.0  T
  22   -283.8598977  0.165553E-02  0.153E-01    0.01       1.0  T
  23   -283.8606456 -0.747891E-03  0.134E-01    0.00       1.0  T
  24   -283.8621293 -0.148367E-02  0.113E-01    0.00       1.0  T
  25   -283.8613063  0.822972E-03  0.123E-01    0.00       1.0  T
  26   -283.8608219  0.484428E-03  0.132E-01    0.00       1.0  T
  27   -283.8647662 -0.394428E-02  0.509E-02    0.00       1.0  T
  28   -283.8651914 -0.425208E-03  0.300E-02    0.00       1.0  T
  29   -283.8651926 -0.123473E-05  0.296E-02    0.00       1.0  T
  30   -283.8652409 -0.482652E-04  0.252E-02    0.00       1.0  T
  31   -283.8653049 -0.640583E-04  0.185E-02    0.00       1.0  T
  32   -283.8653068 -0.190443E-05  0.179E-02    0.00       1.0  T
  33   -283.8653079 -0.106251E-05  0.174E-02    0.00       1.0  T
  34   -283.8653501 -0.422053E-04  0.111E-02    0.00       1.0  T
  35   -283.8653649 -0.148065E-04  0.753E-03    0.00       1.1  T
  36   -283.8653671 -0.222099E-05  0.618E-03    0.00       1.3  T
  37   -283.8653695 -0.240199E-05  0.401E-03    0.00       2.0  T
  38   -283.8653678  0.170778E-05  0.376E-03    0.00       2.1  T
  39   -283.8653673  0.498982E-06  0.398E-03    0.00       2.0  T
  40   -283.8653688 -0.146551E-05  0.278E-03    0.00       2.9  T
  41   -283.8653690 -0.259531E-06  0.249E-03    0.00       3.2  T
  42   -283.8653698 -0.765438E-06  0.183E-03    0.00       4.4  T
  43   -283.8653703 -0.517926E-06  0.107E-03    0.00       7.5  T
  44   -283.8653705 -0.219145E-06  0.523E-04    0.00      15.4  T
  45   -283.8653706 -0.210857E-07  0.463E-04    0.00      17.4  T
     SCC iter.                  ...        0 min,  2.620 sec
     gradient                   ...        0 min,  0.218 sec
 * total energy  :  -279.1608995 Eh     change       -0.9868106E-01 Eh
   gradient norm :     0.1130080 Eh/α   predicted    -0.9404709E-01 (  -4.70%)
   displ. norm   :     0.8060692 α      lambda       -0.8451524E-01
   maximum displ.:     0.2400048 α      in ANC's #158, #84, #157, ...

........................................................................
.............................. CYCLE    5 ..............................
........................................................................
   1   -283.9193047 -0.283919E+03  0.552E-01    0.01       0.0  T
   2   -279.4581182  0.446119E+01  0.316E+00    0.05       1.0  T
   3   -281.6487356 -0.219062E+01  0.294E+00    0.03       1.0  T
   4   -282.7357310 -0.108700E+01  0.226E+00    0.01       1.0  T
   5   -282.6840816  0.516494E-01  0.218E+00    0.02       1.0  T
   6   -279.8053171  0.287876E+01  0.390E+00    0.03       1.0  T
   7   -282.6898070 -0.288449E+01  0.217E+00    0.03       1.0  T
   8   -283.3503423 -0.660535E+00  0.142E+00    0.02       1.0  T
   9   -283.6778130 -0.327471E+00  0.105E+00    0.01       1.0  T
  10   -283.7360619 -0.582489E-01  0.877E-01    0.00       1.0  T
  11   -283.7049869  0.310750E-01  0.983E-01    0.00       1.0  T
  12   -283.5103919  0.194595E+00  0.128E+00    0.02       1.0  T
  13   -283.8187827 -0.308391E+00  0.729E-01    0.02       1.0  T
  14   -283.7885092  0.302735E-01  0.748E-01    0.02       1.0  T
  15   -283.8946863 -0.106177E+00  0.524E-01    0.00       1.0  T
  16   -283.8896912  0.499507E-02  0.533E-01    0.01       1.0  T
  17   -283.8783499  0.113413E-01  0.556E-01    0.01       1.0  T
  18   -283.9517972 -0.734473E-01  0.201E-01    0.01       1.0  T
  19   -283.9307878  0.210094E-01  0.343E-01    0.01       1.0  T
  20   -283.9486877 -0.178998E-01  0.233E-01    0.01       1.0  T
  21   -283.9498874 -0.119976E-02  0.208E-01    0.00       1.0  T
  22   -283.9567607 -0.687324E-02  0.127E-01    0.01       1.0  T
  23   -283.9583728 -0.161215E-02  0.979E-02    0.01       1.0  T
  24   -283.9563930  0.197978E-02  0.124E-01    0.00       1.0  T
  25   -283.9573710 -0.978011E-03  0.108E-01    0.00       1.0  T
  26   -283.9598671 -0.249605E-02  0.473E-02    0.00       1.0  T
  27   -283.9596231  0.243936E-03  0.527E-02    0.00       1.0  T
  28   -283.9597753 -0.152163E-03  0.471E-02    0.00       1.0  T
  29   -283.9601087 -0.333351E-03  0.312E-02    0.00       1.0  T
  30   -283.9602760 -0.167347E-03  0.163E-02    0.00       1.0  T
  31   -283.9602691  0.687891E-05  0.159E-02    0.00       1.0  T
  32   -283.9602713 -0.218168E-05  0.143E-02    0.00       1.0  T
  33   -283.9602725 -0.121808E-05  0.130E-02    0.00       1.0  T
  34   -283.9603013 -0.287285E-04  0.593E-03    0.00       1.4  T
  35   -283.9603045 -0.327206E-05  0.445E-03    0.00       1.8  T
  36   -283.9603075 -0.292741E-05  0.244E-03    0.00       3.3  T
  37   -283.9603083 -0.857910E-06  0.151E-03    0.00       5.3  T
  38   -283.9603088 -0.525810E-06  0.591E-04    0.00      13.6  T
  39   -283.9603085  0.308472E-06  0.124E-03    0.00       6.5  T
  40   -283.9603087 -0.164328E-06  0.890E-04    0.00       9.1  T
     SCC iter.                  ...        0 min,  2.325 sec
     gradient                   ...        0 min,  0.219 sec
 * total energy  :  -279.2332485 Eh     change       -0.7234896E-01 Eh
   gradient norm :     0.0926049 Eh/α   predicted    -0.6971535E-01 (  -3.64%)
   displ. norm   :     0.8206330 α      lambda       -0.6368115E-01
   maximum displ.:     0.2811660 α      in ANC's #84, #82, #81, ...

........................................................................
.............................. CYCLE    6 ..............................
........................................................................
   1   -284.0139632 -0.284014E+03  0.525E-01    0.01       0.0  T
   2   -280.1419408  0.387202E+01  0.295E+00    0.08       1.0  T
   3   -283.0817470 -0.293981E+01  0.181E+00    0.01       1.0  T
   4   -283.7185577 -0.636811E+00  0.117E+00    0.01       1.0  T
   5   -280.5723680  0.314619E+01  0.381E+00    0.01       1.0  T
   6   -283.1761258 -0.260376E+01  0.184E+00    0.02       1.0  T
   7   -282.3973476  0.778778E+00  0.254E+00    0.02       1.0  T
   8   -283.4884404 -0.109109E+01  0.145E+00    0.01       1.0  T
   9   -283.7907011 -0.302261E+00  0.967E-01    0.00       1.0  T
  10   -283.6839970  0.106704E+00  0.105E+00    0.01       1.0  T
  11   -283.9196868 -0.235690E+00  0.707E-01    0.00       1.0  T
  12   -283.7989919  0.120695E+00  0.979E-01    0.00       1.0  T
  13   -283.9635436 -0.164552E+00  0.566E-01    0.01       1.0  T
  14   -284.0193083 -0.557646E-01  0.278E-01    0.01       1.0  T
  15   -283.9808657  0.384425E-01  0.503E-01    0.00       1.0  T
  16   -283.9447263  0.361394E-01  0.625E-01    0.02       1.0  T
  17   -284.0442353 -0.995090E-01  0.113E-01    0.00       1.0  T
  18   -284.0377182  0.651710E-02  0.195E-01    0.01       1.0  T
  19   -284.0399569 -0.223867E-02  0.174E-01    0.00       1.0  T
  20   -284.0395287  0.428126E-03  0.179E-01    0.00       1.0  T
  21   -284.0413341 -0.180540E-02  0.156E-01    0.00       1.0  T
  22   -284.0301172  0.112169E-01  0.247E-01    0.01       1.0  T
  23   -284.0373972 -0.727996E-02  0.184E-01    0.01       1.0  T
  24   -284.0431811 -0.578387E-02  0.119E-01    0.00       1.0  T
  25   -284.0465573 -0.337620E-02  0.476E-02    0.00       1.0  T
  26   -284.0465090  0.482629E-04  0.481E-02    0.00       1.0  T
  27   -284.0465320 -0.230157E-04  0.447E-02    0.00       1.0  T
  28   -284.0467200 -0.188006E-03  0.351E-02    0.00       1.0  T
  29   -284.0467038  0.162485E-04  0.350E-02    0.00       1.0  T
  30   -284.0467582 -0.543971E-04  0.300E-02    0.00       1.0  T
  31   -284.0467446  0.135611E-04  0.289E-02    0.00       1.0  T
  32   -284.0468403 -0.957303E-04  0.198E-02    0.00       1.0  T
  33   -284.0468797 -0.393779E-04  0.137E-02    0.00       1.0  T
  34   -284.0468937 -0.139810E-04  0.102E-02    0.00       1.0  T
  35   -284.0469124 -0.186603E-04  0.441E-03    0.00       1.8  T
  36   -284.0469143 -0.190190E-05  0.254E-03    0.00       3.2  T
  37   -284.0469111  0.315218E-05  0.419E-03    0.00       1.9  T
  38   -284.0469127 -0.154322E-05  0.326E-03    0.00       2.5  T
  39   -284.0469146 -0.195014E-05  0.182E-03    0.00       4.4  T
  40   -284.0469147 -0.576984E-07  0.179E-03    0.00       4.5  T
  41   -284.0469152 -0.505158E-06  0.112E-03    0.00       7.2  T
  42   -284.0469154 -0.226611E-06  0.614E-04    0.00      13.1  T
  43   -284.0469155 -0.605202E-07  0.386E-04    0.00      20.8  T
     SCC iter.                  ...        0 min,  2.506 sec
     gradient                   ...        0 min,  0.219 sec
 * total energy  :  -279.2879313 Eh     change       -0.5468285E-01 Eh
   gradient norm :     0.0719254 Eh/α   predicted    -0.5328327E-01 (  -2.56%)
   displ. norm   :     0.8133943 α      lambda       -0.4673985E-01
   maximum displ.:     0.3045459 α      in ANC's #84, #82, #81, ...

........................................................................
.............................. CYCLE    7 ..............................
........................................................................
   1   -284.0985043 -0.284099E+03  0.448E-01    0.01       0.0  T
   2   -281.7306825  0.236782E+01  0.246E+00    0.02       1.0  T
   3   -282.8866871 -0.115600E+01  0.212E+00    0.02       1.0  T
   4   -283.0677173 -0.181030E+00  0.208E+00    0.01       1.0  T
   5   -282.8537265  0.213991E+00  0.224E+00    0.02       1.0  T
   6   -281.1844092  0.166932E+01  0.365E+00    0.01       1.0  T
   7   -283.2313784 -0.204697E+01  0.191E+00    0.01       1.0  T
   8   -283.7089789 -0.477601E+00  0.127E+00    0.01       1.0  T
   9   -284.0146922 -0.305713E+00  0.640E-01    0.01       1.0  T
  10   -283.5203607  0.494331E+00  0.133E+00    0.04       1.0  T
  11   -283.9128235 -0.392463E+00  0.920E-01    0.02       1.0  T
  12   -283.6786387  0.234185E+00  0.129E+00    0.00       1.0  T
  13   -283.9813236 -0.302685E+00  0.717E-01    0.01       1.0  T
  14   -284.0748048 -0.934812E-01  0.438E-01    0.01       1.0  T
  15   -283.7457451  0.329060E+00  0.118E+00    0.01       1.0  T
  16   -284.0521184 -0.306373E+00  0.514E-01    0.01       1.0  T
  17   -284.0437413  0.837711E-02  0.524E-01    0.00       1.0  T
  18   -284.0450967 -0.135534E-02  0.483E-01    0.01       1.0  T
  19   -284.0851861 -0.400894E-01  0.350E-01    0.00       1.0  T
  20   -284.0985573 -0.133712E-01  0.295E-01    0.00       1.0  T
  21   -284.0983618  0.195437E-03  0.291E-01    0.00       1.0  T
  22   -284.1084939 -0.101320E-01  0.183E-01    0.00       1.0  T
  23   -284.1126557 -0.416185E-02  0.147E-01    0.00       1.0  T
  24   -284.1117357  0.920038E-03  0.159E-01    0.00       1.0  T
  25   -284.1147918 -0.305609E-02  0.126E-01    0.00       1.0  T
  26   -284.1175817 -0.278999E-02  0.884E-02    0.00       1.0  T
  27   -284.1189831 -0.140136E-02  0.554E-02    0.00       1.0  T
  28   -284.1196198 -0.636657E-03  0.359E-02    0.00       1.0  T
  29   -284.1197897 -0.169943E-03  0.292E-02    0.00       1.0  T
  30   -284.1197419  0.477593E-04  0.317E-02    0.00       1.0  T
  31   -284.1199195 -0.177521E-03  0.217E-02    0.00       1.0  T
  32   -284.1199942 -0.746893E-04  0.137E-02    0.00       1.0  T
  33   -284.1200128 -0.186787E-04  0.101E-02    0.00       1.0  T
  34   -284.1200248 -0.120124E-04  0.660E-03    0.00       1.2  T
  35   -284.1200265 -0.166408E-05  0.560E-03    0.00       1.4  T
  36   -284.1200279 -0.139353E-05  0.487E-03    0.00       1.7  T
  37   -284.1200290 -0.106726E-05  0.449E-03    0.00       1.8  T
  38   -284.1200288  0.155236E-06  0.442E-03    0.00       1.8  T
  39   -284.1200295 -0.666939E-06  0.406E-03    0.00       2.0  T
  40   -284.1200308 -0.129901E-05  0.344E-03    0.00       2.3  T
  41   -284.1200319 -0.114135E-05  0.268E-03    0.00       3.0  T
  42   -284.1200325 -0.550057E-06  0.226E-03    0.00       3.6  T
  43   -284.1200332 -0.678149E-06  0.161E-03    0.00       5.0  T
  44   -284.1200336 -0.492835E-06  0.885E-04    0.00       9.1  T
  45   -284.1200338 -0.164674E-06  0.467E-04    0.00      17.2  T
     SCC iter.                  ...        0 min,  2.612 sec
     gradient                   ...        0 min,  0.219 sec
 * total energy  :  -279.3274947 Eh     change       -0.3956334E-01 Eh
   gradient norm :     0.0501624 Eh/α   predicted    -0.3883174E-01 (  -1.85%)
   displ. norm   :     0.7922797 α      lambda       -0.3207574E-01
   maximum displ.:     0.2958688 α      in ANC's #84, #25, #82, ...

........................................................................
.............................. CYCLE    8 ..............................
........................................................................
   1   -284.1586903 -0.284159E+03  0.365E-01    0.00       0.0  T
   2   -282.9908818  0.116781E+01  0.200E+00    0.05       1.0  T
   3   -282.6565216  0.334360E+00  0.247E+00    0.02       1.0  T
   4   -283.0535999 -0.397078E+00  0.213E+00    0.02       1.0  T
   5   -282.7771075  0.276492E+00  0.251E+00    0.01       1.0  T
   6   -281.4931823  0.128393E+01  0.355E+00    0.01       1.0  T
   7   -282.6221119 -0.112893E+01  0.255E+00    0.01       1.0  T
   8   -283.7796702 -0.115756E+01  0.114E+00    0.01       1.0  T
   9   -283.2751090  0.504561E+00  0.184E+00    0.03       1.0  T
  10   -283.6173378 -0.342229E+00  0.149E+00    0.02       1.0  T
  11   -283.9731047 -0.355767E+00  0.872E-01    0.00       1.0  T
  12   -284.0297884 -0.566837E-01  0.714E-01    0.01       1.0  T
  13   -283.6755009  0.354288E+00  0.138E+00    0.03       1.0  T
  14   -284.1539272 -0.478426E+00  0.282E-01    0.01       1.0  T
  15   -284.0505955  0.103332E+00  0.705E-01    0.01       1.0  T
  16   -284.0670230 -0.164276E-01  0.617E-01    0.02       1.0  T
  17   -284.1257132 -0.586901E-01  0.439E-01    0.01       1.0  T
  18   -284.1229341  0.277907E-02  0.393E-01    0.01       1.0  T
  19   -284.1428933 -0.199591E-01  0.325E-01    0.01       1.0  T
  20   -284.1465038 -0.361050E-02  0.299E-01    0.00       1.0  T
  21   -284.1542174 -0.771359E-02  0.243E-01    0.00       1.0  T
  22   -284.1621606 -0.794329E-02  0.190E-01    0.01       1.0  T
  23   -284.1652432 -0.308258E-02  0.154E-01    0.01       1.0  T
  24   -284.1694591 -0.421587E-02  0.737E-02    0.00       1.0  T
  25   -284.1700266 -0.567499E-03  0.532E-02    0.00       1.0  T
  26   -284.1696681  0.358512E-03  0.690E-02    0.00       1.0  T
  27   -284.1700692 -0.401162E-03  0.534E-02    0.00       1.0  T
  28   -284.1698693  0.199961E-03  0.593E-02    0.00       1.0  T
  29   -284.1700382 -0.168887E-03  0.521E-02    0.00       1.0  T
  30   -284.1701225 -0.843104E-04  0.484E-02    0.00       1.0  T
  31   -284.1702332 -0.110704E-03  0.419E-02    0.00       1.0  T
  32   -284.1703451 -0.111879E-03  0.345E-02    0.00       1.0  T
  33   -284.1703877 -0.426655E-04  0.306E-02    0.00       1.0  T
  34   -284.1704483 -0.606172E-04  0.240E-02    0.00       1.0  T
  35   -284.1704793 -0.310028E-04  0.195E-02    0.00       1.0  T
  36   -284.1705126 -0.332472E-04  0.139E-02    0.00       1.0  T
  37   -284.1705205 -0.792567E-05  0.117E-02    0.00       1.0  T
  38   -284.1705398 -0.192605E-04  0.517E-03    0.00       1.6  T
  39   -284.1705428 -0.305818E-05  0.288E-03    0.00       2.8  T
  40   -284.1705435 -0.694580E-06  0.203E-03    0.00       4.0  T
  41   -284.1705438 -0.286213E-06  0.142E-03    0.00       5.7  T
  42   -284.1705442 -0.388038E-06  0.467E-04    0.00      17.3  T
  43   -284.1705442 -0.261082E-07  0.251E-04    0.00      32.1  T
     SCC iter.                  ...        0 min,  2.497 sec
     gradient                   ...        0 min,  0.220 sec
 * total energy  :  -279.3540477 Eh     change       -0.2655302E-01 Eh
   gradient norm :     0.0342479 Eh/α   predicted    -0.2610500E-01 (  -1.69%)
   displ. norm   :     0.7754979 α      lambda       -0.2079077E-01
   maximum displ.:     0.4074817 α      in ANC's #25, #84, #82, ...

........................................................................
.............................. CYCLE    9 ..............................
........................................................................
   1   -284.1931158 -0.284193E+03  0.302E-01    0.00       0.0  T
   2   -283.1937685  0.999347E+00  0.200E+00    0.01       1.0  T
   3   -282.9303757  0.263393E+00  0.222E+00    0.03       1.0  T
   4   -282.8543082  0.760674E-01  0.244E+00    0.00       1.0  T
   5   -281.8007541  0.105355E+01  0.340E+00    0.01       1.0  T
   6   -283.1905376 -0.138978E+01  0.211E+00    0.00       1.0  T
   7   -283.1788775  0.116601E-01  0.173E+00    0.00       1.0  T
   8   -283.9475006 -0.768623E+00  0.109E+00    0.01       1.0  T
   9   -283.6513229  0.296178E+00  0.143E+00    0.02       1.0  T
  10   -283.8036791 -0.152356E+00  0.123E+00    0.03       1.0  T
  11   -284.1351000 -0.331421E+00  0.530E-01    0.00       1.0  T
  12   -283.9953601  0.139740E+00  0.921E-01    0.03       1.0  T
  13   -284.1741584 -0.178798E+00  0.323E-01    0.01       1.0  T
  14   -284.1865863 -0.124279E-01  0.237E-01    0.00       1.0  T
  15   -284.1659264  0.206599E-01  0.381E-01    0.01       1.0  T
  16   -284.1542256  0.117008E-01  0.427E-01    0.02       1.0  T
  17   -284.1821828 -0.279572E-01  0.273E-01    0.01       1.0  T
  18   -284.1876946 -0.551177E-02  0.231E-01    0.00       1.0  T
  19   -284.1845016  0.319299E-02  0.257E-01    0.01       1.0  T
  20   -284.1759064  0.859522E-02  0.313E-01    0.00       1.0  T
  21   -284.1908787 -0.149724E-01  0.191E-01    0.00       1.0  T
  22   -284.1920518 -0.117305E-02  0.182E-01    0.00       1.0  T
  23   -284.1937026 -0.165082E-02  0.160E-01    0.00       1.0  T
  24   -284.1946516 -0.948962E-03  0.146E-01    0.00       1.0  T
  25   -284.1957451 -0.109357E-02  0.126E-01    0.00       1.0  T
  26   -284.1975939 -0.184877E-02  0.856E-02    0.00       1.0  T
  27   -284.1985097 -0.915760E-03  0.524E-02    0.00       1.0  T
  28   -284.1986460 -0.136349E-03  0.436E-02    0.00       1.0  T
  29   -284.1988095 -0.163462E-03  0.337E-02    0.00       1.0  T
  30   -284.1989412 -0.131749E-03  0.225E-02    0.00       1.0  T
  31   -284.1989829 -0.416557E-04  0.177E-02    0.00       1.0  T
  32   -284.1990315 -0.486350E-04  0.133E-02    0.00       1.0  T
  33   -284.1990337 -0.221928E-05  0.126E-02    0.00       1.0  T
  34   -284.1990620 -0.282683E-04  0.565E-03    0.00       1.4  T
  35   -284.1990681 -0.611942E-05  0.278E-03    0.00       2.9  T
  36   -284.1990657  0.245715E-05  0.428E-03    0.00       1.9  T
  37   -284.1990659 -0.254602E-06  0.397E-03    0.00       2.0  T
  38   -284.1990689 -0.297875E-05  0.200E-03    0.00       4.0  T
  39   -284.1990694 -0.537334E-06  0.136E-03    0.00       5.9  T
  40   -284.1990698 -0.321948E-06  0.798E-04    0.00      10.1  T
  41   -284.1990697  0.384300E-07  0.891E-04    0.00       9.0  T
     SCC iter.                  ...        0 min,  2.386 sec
     gradient                   ...        0 min,  0.219 sec
 * total energy  :  -279.3712551 Eh     change       -0.1720746E-01 Eh
   gradient norm :     0.0260147 Eh/α   predicted    -0.1664717E-01 (  -3.26%)
   displ. norm   :     0.8022078 α      lambda       -0.1465222E-01
   maximum displ.:     0.5258104 α      in ANC's #25, #12, #23, ...

........................................................................
.............................. CYCLE   10 ..............................
........................................................................
   1   -284.2102268 -0.284210E+03  0.271E-01    0.00       0.0  T
   2   -282.0691498  0.214108E+01  0.299E+00    0.01       1.0  T
   3   -282.5256695 -0.456520E+00  0.268E+00    0.02       1.0  T
   4   -283.8731297 -0.134746E+01  0.131E+00    0.01       1.0  T
   5   -281.9833628  0.188977E+01  0.329E+00    0.00       1.0  T
   6   -283.0195551 -0.103619E+01  0.220E+00    0.00       1.0  T
   7   -283.9355763 -0.916021E+00  0.120E+00    0.00       1.0  T
   8   -283.6964662  0.239110E+00  0.132E+00    0.03       1.0  T
   9   -283.3340492  0.362417E+00  0.187E+00    0.03       1.0  T
  10   -283.9515798 -0.617531E+00  0.109E+00    0.00       1.0  T
  11   -284.0583221 -0.106742E+00  0.834E-01    0.01       1.0  T
  12   -283.9856515  0.726707E-01  0.962E-01    0.02       1.0  T
  13   -284.0814496 -0.957981E-01  0.783E-01    0.00       1.0  T
  14   -284.0383097  0.431399E-01  0.883E-01    0.01       1.0  T
  15   -284.1628514 -0.124542E+00  0.504E-01    0.00       1.0  T
  16   -284.1859548 -0.231034E-01  0.373E-01    0.01       1.0  T
  17   -284.1691882  0.167665E-01  0.465E-01    0.00       1.0  T
  18   -284.1808828 -0.116946E-01  0.394E-01    0.01       1.0  T
  19   -284.1850623 -0.417948E-02  0.375E-01    0.00       1.0  T
  20   -284.1913804 -0.631815E-02  0.338E-01    0.00       1.0  T
  21   -284.1935988 -0.221834E-02  0.321E-01    0.00       1.0  T
  22   -284.1962392 -0.264044E-02  0.302E-01    0.00       1.0  T
  23   -284.2081261 -0.118869E-01  0.184E-01    0.00       1.0  T
  24   -284.2116542 -0.352808E-02  0.139E-01    0.00       1.0  T
  25   -284.2142244 -0.257019E-02  0.848E-02    0.00       1.0  T
  26   -284.2153478 -0.112341E-02  0.465E-02    0.00       1.0  T
  27   -284.2157834 -0.435580E-03  0.174E-02    0.00       1.0  T
  28   -284.2158344 -0.510361E-04  0.110E-02    0.00       1.0  T
  29   -284.2158095  0.249722E-04  0.146E-02    0.00       1.0  T
  30   -284.2158238 -0.143736E-04  0.125E-02    0.00       1.0  T
  31   -284.2158505 -0.266682E-04  0.712E-03    0.00       1.1  T
  32   -284.2158625 -0.119884E-04  0.120E-03    0.00       6.7  T
  33   -284.2158626 -0.115957E-06  0.922E-04    0.00       8.7  T
  34   -284.2158615  0.108258E-05  0.229E-03    0.00       3.5  T
  35   -284.2158623 -0.729732E-06  0.155E-03    0.00       5.2  T
  36   -284.2158626 -0.301347E-06  0.107E-03    0.00       7.5  T
  37   -284.2158628 -0.203084E-06  0.495E-04    0.00      16.3  T
     SCC iter.                  ...        0 min,  2.152 sec
     gradient                   ...        0 min,  0.219 sec
 * total energy  :  -279.3841670 Eh     change       -0.1291190E-01 Eh
   gradient norm :     0.0244791 Eh/α   predicted    -0.1204074E-01 (  -6.75%)
   displ. norm   :     0.8787979 α      lambda       -0.1364679E-01
   maximum displ.:     0.6085254 α      in ANC's #25, #12, #23, ...

........................................................................
.............................. CYCLE   11 ..............................
........................................................................
   1   -284.2180769 -0.284218E+03  0.300E-01    0.00       0.0  T
   2   -277.9345236  0.628355E+01  0.479E+00    0.03       1.0  T
   3   -282.4239195 -0.448940E+01  0.279E+00    0.02       1.0  T
   4   -283.6367360 -0.121282E+01  0.171E+00    0.01       1.0  T
   5   -283.1933099  0.443426E+00  0.225E+00    0.01       1.0  T
   6   -283.6536957 -0.460386E+00  0.155E+00    0.01       1.0  T
   7   -283.8254885 -0.171793E+00  0.143E+00    0.00       1.0  T
   8   -283.4078518  0.417637E+00  0.193E+00    0.00       1.0  T
   9   -283.0293340  0.378518E+00  0.238E+00    0.01       1.0  T
  10   -282.2825635  0.746771E+00  0.284E+00    0.00       1.0  T
  11   -283.4464670 -0.116390E+01  0.180E+00    0.01       1.0  T
  12   -283.8048317 -0.358365E+00  0.138E+00    0.00       1.0  T
  13   -283.9208130 -0.115981E+00  0.115E+00    0.03       1.0  T
  14   -284.1307134 -0.209900E+00  0.686E-01    0.01       1.0  T
  15   -284.1161709  0.145424E-01  0.712E-01    0.01       1.0  T
  16   -284.2231318 -0.106961E+00  0.183E-01    0.00       1.0  T
  17   -284.1515184  0.716134E-01  0.625E-01    0.00       1.0  T
  18   -284.1437392  0.777923E-02  0.664E-01    0.00       1.0  T
  19   -284.1660497 -0.223105E-01  0.579E-01    0.01       1.0  T
  20   -284.1513631  0.146866E-01  0.660E-01    0.01       1.0  T
  21   -284.1884910 -0.371279E-01  0.472E-01    0.01       1.0  T
  22   -284.2102312 -0.217402E-01  0.295E-01    0.00       1.0  T
  23   -284.2062335  0.399771E-02  0.314E-01    0.00       1.0  T
  24   -284.2204111 -0.141776E-01  0.190E-01    0.00       1.0  T
  25   -284.2222108 -0.179967E-02  0.182E-01    0.00       1.0  T
  26   -284.2194533  0.275749E-02  0.207E-01    0.00       1.0  T
  27   -284.2247114 -0.525810E-02  0.127E-01    0.00       1.0  T
  28   -284.2274491 -0.273772E-02  0.625E-02    0.00       1.0  T
  29   -284.2282201 -0.770972E-03  0.311E-02    0.00       1.0  T
  30   -284.2282016  0.184317E-04  0.335E-02    0.00       1.0  T
  31   -284.2278182  0.383396E-03  0.524E-02    0.00       1.0  T
  32   -284.2275231  0.295128E-03  0.629E-02    0.00       1.0  T
  33   -284.2281055 -0.582411E-03  0.390E-02    0.00       1.0  T
  34   -284.2284516 -0.346117E-03  0.111E-02    0.00       1.0  T
  35   -284.2284405  0.111324E-04  0.133E-02    0.00       1.0  T
  36   -284.2284578 -0.172975E-04  0.948E-03    0.00       1.0  T
  37   -284.2284707 -0.129465E-04  0.616E-03    0.00       1.3  T
  38   -284.2284757 -0.494521E-05  0.394E-03    0.00       2.0  T
  39   -284.2284776 -0.190398E-05  0.272E-03    0.00       3.0  T
  40   -284.2284782 -0.638495E-06  0.212E-03    0.00       3.8  T
  41   -284.2284787 -0.450308E-06  0.148E-03    0.00       5.5  T
  42   -284.2284788 -0.113065E-06  0.125E-03    0.00       6.4  T
  43   -284.2284788  0.394671E-07  0.131E-03    0.00       6.2  T
  44   -284.2284790 -0.195732E-06  0.878E-04    0.00       9.2  T
  45   -284.2284791 -0.111250E-06  0.490E-04    0.00      16.4  T
     SCC iter.                  ...        0 min,  2.614 sec
     gradient                   ...        0 min,  0.220 sec
 * total energy  :  -279.3969949 Eh     change       -0.1282785E-01 Eh
   gradient norm :     0.0282015 Eh/α   predicted    -0.1209303E-01 (  -5.73%)
   displ. norm   :     0.9344637 α      lambda       -0.1536112E-01
   maximum displ.:     0.6432316 α      in ANC's #25, #12, #23, ...

........................................................................
.............................. CYCLE   12 ..............................
........................................................................
   1   -284.2244061 -0.284224E+03  0.343E-01    0.00       0.0  T
   2   -278.1907562  0.603365E+01  0.461E+00    0.00       1.0  T
   3   -282.4720951 -0.428134E+01  0.279E+00    0.02       1.0  T
   4   -282.4034776  0.686175E-01  0.300E+00    0.01       1.0  T
   5   -283.3074430 -0.903965E+00  0.203E+00    0.03       1.0  T
   6   -283.3996034 -0.921604E-01  0.215E+00    0.01       1.0  T
   7   -283.5522802 -0.152677E+00  0.169E+00    0.03       1.0  T
   8   -282.7569869  0.795293E+00  0.253E+00    0.01       1.0  T
   9   -283.8800673 -0.112308E+01  0.133E+00    0.01       1.0  T
  10   -284.1952568 -0.315190E+00  0.453E-01    0.00       1.0  T
  11   -283.9949106  0.200346E+00  0.109E+00    0.00       1.0  T
  12   -284.2154574 -0.220547E+00  0.362E-01    0.00       1.0  T
  13   -284.2199746 -0.451714E-02  0.315E-01    0.00       1.0  T
  14   -284.2130359  0.693870E-02  0.354E-01    0.00       1.0  T
  15   -284.1932316  0.198043E-01  0.457E-01    0.00       1.0  T
  16   -284.2318020 -0.385705E-01  0.219E-01    0.01       1.0  T
  17   -284.2342162 -0.241414E-02  0.189E-01    0.01       1.0  T
  18   -284.2341345  0.816823E-04  0.183E-01    0.00       1.0  T
  19   -284.2405723 -0.643778E-02  0.843E-02    0.01       1.0  T
  20   -284.2375322  0.304004E-02  0.142E-01    0.00       1.0  T
  21   -284.2405831 -0.305086E-02  0.813E-02    0.01       1.0  T
  22   -284.2401394  0.443696E-03  0.897E-02    0.01       1.0  T
  23   -284.2410856 -0.946196E-03  0.635E-02    0.01       1.0  T
  24   -284.2409948  0.907456E-04  0.664E-02    0.01       1.0  T
  25   -284.2415886 -0.593722E-03  0.429E-02    0.01       1.0  T
  26   -284.2417617 -0.173141E-03  0.322E-02    0.01       1.0  T
  27   -284.2418175 -0.558103E-04  0.277E-02    0.01       1.0  T
  28   -284.2418040  0.135259E-04  0.286E-02    0.01       1.0  T
  29   -284.2418442 -0.402190E-04  0.248E-02    0.01       1.0  T
  30   -284.2418939 -0.497091E-04  0.192E-02    0.01       1.0  T
  31   -284.2419293 -0.353549E-04  0.140E-02    0.01       1.0  T
  32   -284.2419433 -0.139831E-04  0.111E-02    0.01       1.0  T
  33   -284.2419620 -0.187536E-04  0.636E-03    0.01       1.3  T
  34   -284.2419706 -0.862074E-05  0.201E-03    0.01       4.0  T
  35   -284.2419713 -0.648827E-06  0.118E-03    0.01       6.8  T
  36   -284.2419715 -0.179938E-06  0.724E-04    0.01      11.1  T
  37   -284.2419715 -0.824948E-07  0.348E-04    0.01      23.2  T
     SCC iter.                  ...        0 min,  2.154 sec
     gradient                   ...        0 min,  0.219 sec
 * total energy  :  -279.4127046 Eh     change       -0.1570974E-01 Eh
   gradient norm :     0.0334317 Eh/α   predicted    -0.1438739E-01 (  -8.42%)
   displ. norm   :     0.9141649 α      lambda       -0.1726780E-01
   maximum displ.:     0.6221172 α      in ANC's #25, #12, #13, ...

........................................................................
.............................. CYCLE   13 ..............................
........................................................................
   1   -284.2129895 -0.284213E+03  0.361E-01    0.00       0.0  T
   2   -278.5244771  0.568851E+01  0.444E+00    0.02       1.0  T
   3   -282.4498390 -0.392536E+01  0.280E+00    0.03       1.0  T
   4   -282.1416546  0.308184E+00  0.312E+00    0.02       1.0  T
   5   -283.6629380 -0.152128E+01  0.165E+00    0.00       1.0  T
   6   -283.6989293 -0.359914E-01  0.162E+00    0.01       1.0  T
   7   -283.6619080  0.370214E-01  0.156E+00    0.00       1.0  T
   8   -283.4685417  0.193366E+00  0.183E+00    0.01       1.0  T
   9   -283.8194603 -0.350919E+00  0.135E+00    0.01       1.0  T
  10   -284.1275399 -0.308080E+00  0.700E-01    0.01       1.0  T
  11   -284.0986791  0.288608E-01  0.766E-01    0.00       1.0  T
  12   -284.1594862 -0.608071E-01  0.570E-01    0.00       1.0  T
  13   -284.1374513  0.220349E-01  0.654E-01    0.00       1.0  T
  14   -284.1744480 -0.369967E-01  0.517E-01    0.00       1.0  T
  15   -284.1830682 -0.862026E-02  0.477E-01    0.00       1.0  T
  16   -284.2315609 -0.484927E-01  0.113E-01    0.00       1.0  T
  17   -284.2333629 -0.180204E-02  0.694E-02    0.01       1.0  T
  18   -284.2306073  0.275564E-02  0.128E-01    0.00       1.0  T
  19   -284.2323829 -0.177560E-02  0.953E-02    0.01       1.0  T
  20   -284.2329273 -0.544440E-03  0.815E-02    0.01       1.0  T
  21   -284.2327471  0.180289E-03  0.852E-02    0.01       1.0  T
  22   -284.2335240 -0.776965E-03  0.601E-02    0.01       1.0  T
  23   -284.2340686 -0.544613E-03  0.322E-02    0.01       1.0  T
  24   -284.2341093 -0.406792E-04  0.284E-02    0.01       1.0  T
  25   -284.2341662 -0.568539E-04  0.234E-02    0.01       1.0  T
  26   -284.2342208 -0.546328E-04  0.158E-02    0.01       1.0  T
  27   -284.2341988  0.220315E-04  0.188E-02    0.01       1.0  T
  28   -284.2342230 -0.242161E-04  0.153E-02    0.01       1.0  T
  29   -284.2342599 -0.369247E-04  0.788E-03    0.01       1.0  T
  30   -284.2342722 -0.123033E-04  0.240E-03    0.01       3.4  T
  31   -284.2342730 -0.837772E-06  0.143E-03    0.01       5.6  T
  32   -284.2342733 -0.204793E-06  0.101E-03    0.01       8.0  T
  33   -284.2342734 -0.155800E-06  0.527E-04    0.01      15.3  T
  34   -284.2342734 -0.267750E-07  0.404E-04    0.01      20.0  T
     SCC iter.                  ...        0 min,  1.976 sec
     gradient                   ...        0 min,  0.219 sec
 * total energy  :  -279.4317634 Eh     change       -0.1905878E-01 Eh
   gradient norm :     0.0462665 Eh/α   predicted    -0.1584924E-01 ( -16.84%)
   displ. norm   :     0.8794186 α      lambda       -0.2188906E-01
   maximum displ.:     0.5571296 α      in ANC's #25, #12, #28, ...

........................................................................
.............................. CYCLE   14 ..............................
........................................................................
   1   -284.2067668 -0.284207E+03  0.393E-01    0.00       0.0  T
   2   -280.7242105  0.348256E+01  0.351E+00    0.01       1.0  T
   3   -282.3406884 -0.161648E+01  0.288E+00    0.02       1.0  T
   4   -282.1478586  0.192830E+00  0.302E+00    0.02       1.0  T
   5   -283.0046712 -0.856813E+00  0.225E+00    0.02       1.0  T
   6   -284.0273044 -0.102263E+01  0.993E-01    0.00       1.0  T
   7   -284.0179864  0.931797E-02  0.959E-01    0.01       1.0  T
   8   -283.8872987  0.130688E+00  0.123E+00    0.00       1.0  T
   9   -283.7382658  0.149033E+00  0.149E+00    0.02       1.0  T
  10   -283.7508678 -0.126020E-01  0.147E+00    0.02       1.0  T
  11   -283.5751064  0.175761E+00  0.170E+00    0.00       1.0  T
  12   -283.7304803 -0.155374E+00  0.150E+00    0.01       1.0  T
  13   -283.9069265 -0.176446E+00  0.125E+00    0.01       1.0  T
  14   -283.9498809 -0.429544E-01  0.116E+00    0.01       1.0  T
  15   -284.1365122 -0.186631E+00  0.685E-01    0.01       1.0  T
  16   -284.1063136  0.301986E-01  0.752E-01    0.02       1.0  T
  17   -284.1103147 -0.400110E-02  0.736E-01    0.01       1.0  T
  18   -284.1618673 -0.515526E-01  0.545E-01    0.01       1.0  T
  19   -284.1907974 -0.289300E-01  0.433E-01    0.01       1.0  T
  20   -284.1544745  0.363228E-01  0.591E-01    0.01       1.0  T
  21   -284.1880836 -0.336090E-01  0.438E-01    0.01       1.0  T
  22   -284.2107619 -0.226784E-01  0.309E-01    0.01       1.0  T
  23   -284.2277966 -0.170347E-01  0.135E-01    0.01       1.0  T
  24   -284.2299880 -0.219136E-02  0.918E-02    0.00       1.0  T
  25   -284.2301046 -0.116675E-03  0.878E-02    0.00       1.0  T
  26   -284.2302353 -0.130676E-03  0.837E-02    0.00       1.0  T
  27   -284.2310887 -0.853336E-03  0.569E-02    0.00       1.0  T
  28   -284.2312905 -0.201855E-03  0.474E-02    0.00       1.0  T
  29   -284.2316279 -0.337414E-03  0.271E-02    0.00       1.0  T
  30   -284.2317744 -0.146441E-03  0.838E-03    0.00       1.0  T
  31   -284.2317194  0.549817E-04  0.178E-02    0.00       1.0  T
  32   -284.2317874 -0.680566E-04  0.368E-03    0.00       2.2  T
  33   -284.2317867  0.772862E-06  0.350E-03    0.00       2.3  T
  34   -284.2317886 -0.194627E-05  0.221E-03    0.00       3.6  T
  35   -284.2317873  0.126514E-05  0.322E-03    0.00       2.5  T
  36   -284.2317891 -0.179729E-05  0.177E-03    0.00       4.6  T
  37   -284.2317887  0.477517E-06  0.233E-03    0.00       3.5  T
  38   -284.2317896 -0.915247E-06  0.108E-03    0.00       7.5  T
  39   -284.2317898 -0.230295E-06  0.317E-04    0.00      25.4  T
  40   -284.2317898 -0.112273E-07  0.227E-04    0.00      35.5  T
     SCC iter.                  ...        0 min,  2.324 sec
     gradient                   ...        0 min,  0.219 sec
 * total energy  :  -279.4566147 Eh     change       -0.2485128E-01 Eh
   gradient norm :     0.0612893 Eh/α   predicted    -0.1940879E-01 ( -21.90%)
   displ. norm   :     0.8508934 α      lambda       -0.2911105E-01
   maximum displ.:     0.4968398 α      in ANC's #25, #12, #28, ...

........................................................................
.............................. CYCLE   15 ..............................
........................................................................
   1   -284.2053595 -0.284205E+03  0.376E-01    0.00       0.0  T
   2   -281.7016707  0.250369E+01  0.303E+00    0.00       1.0  T
   3   -282.3564358 -0.654765E+00  0.285E+00    0.03       1.0  T
   4   -282.2554539  0.100982E+00  0.287E+00    0.02       1.0  T
   5   -283.6134460 -0.135799E+01  0.157E+00    0.01       1.0  T
   6   -284.0064508 -0.393005E+00  0.984E-01    0.01       1.0  T
   7   -283.8026221  0.203829E+00  0.140E+00    0.01       1.0  T
   8   -283.8697454 -0.671233E-01  0.126E+00    0.00       1.0  T
   9   -283.8787930 -0.904758E-02  0.124E+00    0.01       1.0  T
  10   -283.6258375  0.252956E+00  0.157E+00    0.02       1.0  T
  11   -283.8999163 -0.274079E+00  0.119E+00    0.02       1.0  T
  12   -283.9756125 -0.756962E-01  0.106E+00    0.02       1.0  T
  13   -283.9872582 -0.116458E-01  0.104E+00    0.02       1.0  T
  14   -284.0219288 -0.346706E-01  0.955E-01    0.03       1.0  T
  15   -284.2017305 -0.179802E+00  0.346E-01    0.02       1.0  T
  16   -284.1995660  0.216442E-02  0.360E-01    0.02       1.0  T
  17   -284.1964470  0.311900E-02  0.395E-01    0.01       1.0  T
  18   -284.1931325  0.331458E-02  0.390E-01    0.02       1.0  T
  19   -284.1761738  0.169587E-01  0.484E-01    0.00       1.0  T
  20   -284.2023155 -0.261417E-01  0.340E-01    0.00       1.0  T
  21   -284.2238063 -0.214909E-01  0.114E-01    0.00       1.0  T
  22   -284.2230211  0.785252E-03  0.127E-01    0.00       1.0  T
  23   -284.2256495 -0.262845E-02  0.690E-02    0.00       1.0  T
  24   -284.2260927 -0.443154E-03  0.524E-02    0.00       1.0  T
  25   -284.2264672 -0.374536E-03  0.331E-02    0.00       1.0  T
  26   -284.2264807 -0.134952E-04  0.321E-02    0.00       1.0  T
  27   -284.2266829 -0.202210E-03  0.128E-02    0.00       1.0  T
  28   -284.2267070 -0.240734E-04  0.651E-03    0.00       1.2  T
  29   -284.2266980  0.901036E-05  0.926E-03    0.00       1.0  T
  30   -284.2267106 -0.125745E-04  0.495E-03    0.00       1.6  T
  31   -284.2267154 -0.487593E-05  0.188E-03    0.00       4.3  T
  32   -284.2267162 -0.768008E-06  0.174E-04    0.00      46.3  T
  33   -284.2267161  0.128336E-06  0.761E-04    0.00      10.6  T
     SCC iter.                  ...        0 min,  1.913 sec
     gradient                   ...        0 min,  0.219 sec
 * total energy  :  -279.4887365 Eh     change       -0.3212175E-01 Eh
   gradient norm :     0.0737023 Eh/α   predicted    -0.2509402E-01 ( -21.88%)
   displ. norm   :     0.8397232 α      lambda       -0.3602425E-01
   maximum displ.:     0.4601173 α      in ANC's #25, #12, #28, ...

........................................................................
.............................. CYCLE   16 ..............................
........................................................................
   1   -284.2083102 -0.284208E+03  0.335E-01    0.00       0.0  T
   2   -283.1398347  0.106848E+01  0.222E+00    0.02       1.0  T
   3   -282.3128117  0.827023E+00  0.288E+00    0.03       1.0  T
   4   -283.8194980 -0.150669E+01  0.136E+00    0.00       1.0  T
   5   -282.3653064  0.145419E+01  0.282E+00    0.02       1.0  T
   6   -284.0344414 -0.166914E+01  0.889E-01    0.04       1.0  T
   7   -283.9657035  0.687380E-01  0.107E+00    0.02       1.0  T
   8   -283.6120596  0.353644E+00  0.167E+00    0.03       1.0  T
   9   -283.9626936 -0.350634E+00  0.110E+00    0.03       1.0  T
  10   -284.1259884 -0.163295E+00  0.666E-01    0.00       1.0  T
  11   -284.1345127 -0.852432E-02  0.620E-01    0.02       1.0  T
  12   -284.1626977 -0.281849E-01  0.524E-01    0.00       1.0  T
  13   -284.2140365 -0.513388E-01  0.219E-01    0.01       1.0  T
  14   -284.2065109  0.752553E-02  0.282E-01    0.01       1.0  T
  15   -284.2184205 -0.119095E-01  0.159E-01    0.00       1.0  T
  16   -284.2216631 -0.324265E-02  0.113E-01    0.00       1.0  T
  17   -284.2225963 -0.933177E-03  0.908E-02    0.00       1.0  T
  18   -284.2235297 -0.933449E-03  0.600E-02    0.01       1.0  T
  19   -284.2242723 -0.742561E-03  0.200E-02    0.01       1.0  T
  20   -284.2242395  0.328529E-04  0.237E-02    0.00       1.0  T
  21   -284.2242174  0.220021E-04  0.251E-02    0.00       1.0  T
  22   -284.2243459 -0.128442E-03  0.959E-03    0.00       1.0  T
  23   -284.2243663 -0.204095E-04  0.185E-03    0.00       4.4  T
  24   -284.2243663  0.319088E-07  0.183E-03    0.00       4.4  T
  25   -284.2243664 -0.115401E-06  0.165E-03    0.00       4.9  T
  26   -284.2243667 -0.320115E-06  0.112E-03    0.00       7.2  T
  27   -284.2243669 -0.183249E-06  0.686E-04    0.00      11.7  T
  28   -284.2243670 -0.106406E-06  0.870E-05    0.00      92.6  T
     SCC iter.                  ...        0 min,  1.624 sec
     gradient                   ...        0 min,  0.218 sec
 * total energy  :  -279.5265848 Eh     change       -0.3784837E-01 Eh
   gradient norm :     0.0779106 Eh/α   predicted    -0.3071312E-01 ( -18.85%)
   displ. norm   :     0.8413646 α      lambda       -0.3854883E-01
   maximum displ.:     0.4576483 α      in ANC's #25, #12, #28, ...

........................................................................
.............................. CYCLE   17 ..............................
........................................................................
   1   -284.2127220 -0.284213E+03  0.311E-01    0.00       0.0  T
   2   -283.2809841  0.931738E+00  0.208E+00    0.03       1.0  T
   3   -282.6080157  0.672968E+00  0.266E+00    0.04       1.0  T
   4   -282.4750326  0.132983E+00  0.268E+00    0.03       1.0  T
   5   -283.8974737 -0.142244E+01  0.122E+00    0.02       1.0  T
   6   -282.4091465  0.148833E+01  0.274E+00    0.02       1.0  T
   7   -283.9045405 -0.149539E+01  0.118E+00    0.00       1.0  T
   8   -283.5995545  0.304986E+00  0.163E+00    0.02       1.0  T
   9   -284.0726620 -0.473107E+00  0.819E-01    0.01       1.0  T
  10   -284.1687113 -0.960493E-01  0.496E-01    0.02       1.0  T
  11   -284.1837866 -0.150753E-01  0.427E-01    0.02       1.0  T
  12   -284.0324721  0.151314E+00  0.932E-01    0.02       1.0  T
  13   -284.2225056 -0.190033E+00  0.123E-01    0.00       1.0  T
  14   -284.2083754  0.141302E-01  0.276E-01    0.01       1.0  T
  15   -284.2134561 -0.508070E-02  0.232E-01    0.01       1.0  T
  16   -284.2228821 -0.942599E-02  0.114E-01    0.01       1.0  T
  17   -284.2234806 -0.598453E-03  0.102E-01    0.01       1.0  T
  18   -284.2257615 -0.228092E-02  0.284E-02    0.00       1.0  T
  19   -284.2259289 -0.167413E-03  0.852E-03    0.01       1.0  T
  20   -284.2259032  0.256368E-04  0.127E-02    0.00       1.0  T
  21   -284.2258649  0.383335E-04  0.176E-02    0.01       1.0  T
  22   -284.2258969 -0.319811E-04  0.131E-02    0.01       1.0  T
  23   -284.2259064 -0.947534E-05  0.114E-02    0.01       1.0  T
  24   -284.2259161 -0.970545E-05  0.939E-03    0.01       1.0  T
  25   -284.2259325 -0.163982E-04  0.433E-03    0.00       1.9  T
  26   -284.2259353 -0.281433E-05  0.239E-03    0.01       3.4  T
  27   -284.2259356 -0.315190E-06  0.205E-03    0.01       3.9  T
  28   -284.2259359 -0.292563E-06  0.171E-03    0.01       4.7  T
  29   -284.2259364 -0.528878E-06  0.760E-04    0.01      10.6  T
  30   -284.2259366 -0.131208E-06  0.127E-04    0.01      63.6  T
     SCC iter.                  ...        0 min,  1.743 sec
     gradient                   ...        0 min,  0.219 sec
 * total energy  :  -279.5620968 Eh     change       -0.3551198E-01 Eh
   gradient norm :     0.0732926 Eh/α   predicted    -0.3291867E-01 (  -7.30%)
   displ. norm   :     0.8817211 α      lambda       -0.4523432E-01
   maximum displ.:     0.4088025 α      in ANC's #12, #25, #28, ...

........................................................................
.............................. CYCLE   18 ..............................
........................................................................
   1   -284.1971489 -0.284197E+03  0.420E-01    0.00       0.0  T
   2   -283.3689663  0.828183E+00  0.196E+00    0.08       1.0  T
   3   -282.0945074  0.127446E+01  0.304E+00    0.00       1.0  T
   4   -282.4395862 -0.345079E+00  0.271E+00    0.03       1.0  T
   5   -283.9942712 -0.155469E+01  0.102E+00    0.00       1.0  T
   6   -282.9464196  0.104785E+01  0.228E+00    0.02       1.0  T
   7   -284.0145488 -0.106813E+01  0.923E-01    0.02       1.0  T
   8   -282.4358759  0.157867E+01  0.268E+00    0.03       1.0  T
   9   -283.9565526 -0.152068E+01  0.108E+00    0.02       1.0  T
  10   -284.1193007 -0.162748E+00  0.672E-01    0.01       1.0  T
  11   -284.0792826  0.400181E-01  0.785E-01    0.02       1.0  T
  12   -284.1787811 -0.994985E-01  0.461E-01    0.01       1.0  T
  13   -284.2150654 -0.362843E-01  0.223E-01    0.00       1.0  T
  14   -284.2185619 -0.349655E-02  0.186E-01    0.00       1.0  T
  15   -284.2183476  0.214323E-03  0.185E-01    0.00       1.0  T
  16   -284.2184566 -0.108980E-03  0.178E-01    0.00       1.0  T
  17   -284.2226928 -0.423619E-02  0.110E-01    0.00       1.0  T
  18   -284.2135080  0.918480E-02  0.221E-01    0.00       1.0  T
  19   -284.2245748 -0.110668E-01  0.409E-02    0.00       1.0  T
  20   -284.2206386  0.393617E-02  0.135E-01    0.00       1.0  T
  21   -284.2228418 -0.220314E-02  0.930E-02    0.00       1.0  T
  22   -284.2245361 -0.169431E-02  0.411E-02    0.00       1.0  T
  23   -284.2248468 -0.310698E-03  0.195E-02    0.00       1.0  T
  24   -284.2249011 -0.543361E-04  0.125E-02    0.00       1.0  T
  25   -284.2249060 -0.488951E-05  0.117E-02    0.00       1.0  T
  26   -284.2249162 -0.101758E-04  0.972E-03    0.00       1.0  T
  27   -284.2249339 -0.177117E-04  0.485E-03    0.00       1.7  T
  28   -284.2249366 -0.270846E-05  0.332E-03    0.00       2.4  T
  29   -284.2249380 -0.138650E-05  0.206E-03    0.00       3.9  T
  30   -284.2249388 -0.796145E-06  0.839E-04    0.00       9.6  T
  31   -284.2249389 -0.148680E-06  0.236E-04    0.00      34.1  T
     SCC iter.                  ...        0 min,  1.806 sec
     gradient                   ...        0 min,  0.219 sec
 * total energy  :  -279.6011895 Eh     change       -0.3909267E-01 Eh
   gradient norm :     0.0974247 Eh/α   predicted    -0.4020048E-01 (   2.83%)
   displ. norm   :     0.8304386 α      lambda       -0.4441536E-01
   maximum displ.:     0.3783897 α      in ANC's #12, #25, #13, ...

........................................................................
.............................. CYCLE   19 ..............................
........................................................................
   1   -284.2140829 -0.284214E+03  0.256E-01    0.00       0.0  T
   2   -283.3945432  0.819540E+00  0.193E+00    0.01       1.0  T
   3   -283.2110865  0.183457E+00  0.209E+00    0.01       1.0  T
   4   -282.3984150  0.812671E+00  0.272E+00    0.03       1.0  T
   5   -283.9437310 -0.154532E+01  0.107E+00    0.04       1.0  T
   6   -284.0753368 -0.131606E+00  0.765E-01    0.01       1.0  T
   7   -284.1403738 -0.650370E-01  0.587E-01    0.00       1.0  T
   8   -284.0532703  0.871035E-01  0.829E-01    0.00       1.0  T
   9   -284.2094865 -0.156216E+00  0.220E-01    0.00       1.0  T
  10   -284.1642405  0.452460E-01  0.477E-01    0.01       1.0  T
  11   -284.2161017 -0.518612E-01  0.146E-01    0.00       1.0  T
  12   -284.2180373 -0.193556E-02  0.107E-01    0.00       1.0  T
  13   -284.2189095 -0.872215E-03  0.874E-02    0.01       1.0  T
  14   -284.2192001 -0.290659E-03  0.805E-02    0.00       1.0  T
  15   -284.2206274 -0.142725E-02  0.289E-02    0.00       1.0  T
  16   -284.2208051 -0.177737E-03  0.116E-02    0.00       1.0  T
  17   -284.2208203 -0.151827E-04  0.815E-03    0.00       1.0  T
  18   -284.2208296 -0.926237E-05  0.499E-03    0.00       1.6  T
  19   -284.2208332 -0.366937E-05  0.292E-03    0.00       2.8  T
  20   -284.2208348 -0.160176E-05  0.137E-03    0.00       5.9  T
  21   -284.2208352 -0.403783E-06  0.413E-04    0.00      19.5  T
  22   -284.2208352 -0.108364E-07  0.328E-04    0.00      24.6  T
     SCC iter.                  ...        0 min,  1.285 sec
     gradient                   ...        0 min,  0.218 sec
 * total energy  :  -279.6357846 Eh     change       -0.3459511E-01 Eh
   gradient norm :     0.0836967 Eh/α   predicted    -0.3752275E-01 (   8.46%)
   displ. norm   :     0.7556437 α      lambda       -0.3002788E-01
   maximum displ.:     0.4489662 α      in ANC's #12, #25, #13, ...

........................................................................
.............................. CYCLE   20 ..............................
........................................................................
   1   -284.2656160 -0.284266E+03  0.279E-01    0.01       0.0  T
   2   -282.9711715  0.129444E+01  0.230E+00    0.00       1.0  T
   3   -282.3592469  0.611925E+00  0.285E+00    0.03       1.0  T
   4   -282.3550718  0.417508E-02  0.287E+00    0.04       1.0  T
   5   -284.0985773 -0.174351E+01  0.867E-01    0.02       1.0  T
   6   -282.8847046  0.121387E+01  0.238E+00    0.03       1.0  T
   7   -284.1278445 -0.124314E+01  0.809E-01    0.04       1.0  T
   8   -283.8175413  0.310303E+00  0.136E+00    0.02       1.0  T
   9   -284.2613549 -0.443814E+00  0.256E-01    0.01       1.0  T
  10   -284.2051299  0.562250E-01  0.540E-01    0.01       1.0  T
  11   -284.2495947 -0.444648E-01  0.341E-01    0.00       1.0  T
  12   -284.2369603  0.126344E-01  0.408E-01    0.00       1.0  T
  13   -284.2499194 -0.129591E-01  0.336E-01    0.00       1.0  T
  14   -284.2753510 -0.254316E-01  0.937E-02    0.00       1.0  T
  15   -284.2762572 -0.906270E-03  0.695E-02    0.00       1.0  T
  16   -284.2762144  0.428592E-04  0.702E-02    0.00       1.0  T
  17   -284.2757655  0.448858E-03  0.811E-02    0.00       1.0  T
  18   -284.2756665  0.990175E-04  0.822E-02    0.00       1.0  T
  19   -284.2764656 -0.799100E-03  0.581E-02    0.00       1.0  T
  20   -284.2768973 -0.431721E-03  0.394E-02    0.00       1.0  T
  21   -284.2769036 -0.629193E-05  0.387E-02    0.00       1.0  T
  22   -284.2771205 -0.216899E-03  0.246E-02    0.00       1.0  T
  23   -284.2772518 -0.131276E-03  0.903E-03    0.00       1.0  T
  24   -284.2772695 -0.176817E-04  0.327E-03    0.00       2.5  T
  25   -284.2772714 -0.189017E-05  0.165E-03    0.00       4.9  T
  26   -284.2772709  0.420779E-06  0.199E-03    0.00       4.0  T
  27   -284.2772712 -0.273005E-06  0.169E-03    0.00       4.8  T
  28   -284.2772718 -0.557352E-06  0.799E-04    0.00      10.1  T
  29   -284.2772716  0.156693E-06  0.111E-03    0.00       7.3  T
  30   -284.2772719 -0.245317E-06  0.463E-04    0.00      17.4  T
     SCC iter.                  ...        0 min,  1.750 sec
     gradient                   ...        0 min,  0.219 sec
 * total energy  :  -279.6612447 Eh     change       -0.2546014E-01 Eh
   gradient norm :     0.0608830 Eh/α   predicted    -0.2358686E-01 (  -7.36%)
   displ. norm   :     0.7965830 α      lambda       -0.2812625E-01
   maximum displ.:     0.4792055 α      in ANC's #12, #25, #13, ...
 * RMSD in coord.:     0.9698857 α      energy gain  -0.1044774E+01 Eh

generating ANC from model Hessian ...
Using Lindh-Hessian (1995)
 Shifting diagonal of input Hessian by    1.0009449935874810E-002
 Lowest  eigenvalues of input Hessian
    0.010000    0.010004    0.010007    0.010008    0.010009    0.000000
    0.000000    0.000000    0.000000    0.000000    0.000000    0.010011
    0.010022    0.010025    0.010028    0.010044    0.010068    0.010104
 Highest eigenvalues
    2.123816    2.126581    2.314518    2.470849    2.565756    2.798201


........................................................................
[...]
 113:  7.57 114:  0.21 115:  8.85 116:  1.89 117:****** 118:192.41 119:****** 120: 12.60
 121:****** 122:  3.64 123:  3.68 124: 25.96 125:  0.76 126: 10.54 127:  2.10 128:  2.18
 129:  1.01 130:  7.10 131:  1.30 132: 28.46 133:401.70 134:  1.01 135: 45.66 136:107.27
 137:  0.79 138:  1.34 139:  1.22 140:  0.09 141:  2.04 142:  0.48 143: 13.08 144: 13.70
 145: 21.44 146: 39.70 147:  7.13 148:  1.73 149:863.01 150: 15.90 151:****** 152: 45.19
 153: 88.22 154:172.60 155:****** 156: 26.99 157:859.79 158: 39.12 159: 54.16 160:254.67
 161: 22.02 162:  2.51 163:  1.76 164: 48.46 165: 89.99 166:  5.22 167:412.30 168:779.43
 169: 13.41 170:  8.75 171:  0.03 172:231.37 173:305.11 174:261.56 175:174.38 176:  5.41
 177:206.96 178:  0.60 179:  0.06 180: 57.19 181: 29.66 182:  4.71 183: 25.09 184:******
 185:532.10 186:  2.16 187:  0.67 188:  0.84 189:  1.78 190: 52.57 191: 15.38 192:  1.79
 193:****** 194:  3.25 195:  1.08 196:  1.01 197:****** 198:109.28 199:****** 200:  0.37
 201:  9.52 202:  7.82 203:485.93 204: 16.27 205: 55.83 206:  4.79 207:  0.32 208:  1.52
 209:  0.13 210: 13.08 211:  0.04 212:  0.33 213: 57.36 214: 44.97 215:336.92 216: 24.55
 217: 84.67 218:124.55 219: 12.76 220:  0.31 221:  0.64 222:  4.61 223: 59.21 224:******
 225: 25.90 226:  8.20 227: 57.49 228: 20.00 229: 14.43 230: 45.95 231:  0.84 232:  0.24
 233: 38.68 234:107.08 235:486.61 236: 30.25 237: 74.61 238:129.24 239:189.25 240: 29.00
 241:101.62 242: 53.59 243:  0.24 244:  1.27 245:  7.48 246: 11.90 247: 56.85 248: 30.31
 249:431.89 250: 35.20 251:133.51 252: 12.30 253:425.70 254:  2.28 255:****** 256: 35.92
 257:  2.11 258:****** 259:183.66 260:  1.65 261:  3.65 262: 99.02 263: 47.61 264: 46.01
 265: 20.04 266:106.89 267:****** 268: 70.30 269:  0.78 270:  0.62 271:  0.20 272:  0.05
 273:****** 274:  0.63 275:  1.05 276:  1.22 277:157.76 278: 23.72 279:126.01 280: 59.46
 281:  0.28 282:  2.20 283: 27.37 284: 29.22 285:  0.64 286: 52.55 287:  4.25 288:  3.68
 289:****** 290:  8.37 291:  0.78 292:307.72 293:  0.63 294: 18.10 295:  1.97 296:  5.84
 297:448.11 298:  2.31 299:214.80 300: 47.82 301:****** 302:176.43 303:****** 304:932.90
 305:356.81 306: 31.95 307: 15.58 308:  4.44 309: 22.19 310:  1.08 311:  0.19 312:  1.37
 313:253.83 314: 40.32 315: 20.15 316:  5.90 317:  3.34 318:  0.19 319:****** 320: 64.11
 321:  5.47 322:  6.05 323: 80.28 324:****** 325:180.10 326: 49.76 327: 30.32 328:  1.41
 329:  0.32 330:  7.36 331:  7.22 332: 10.32 333:  9.96 334:  2.84 335: 26.36 336: 13.31
 337:  1.55 338: 12.75 339:****** 340:  0.48 341:  0.42 342:  3.41 343:  1.59 344:  0.79
 345:  4.66 346:385.09 347: 21.52 348:  4.23 349: 15.58 350:455.12 351:450.89 352:  1.03
 353:  0.25 354:  0.88 355:355.78 356:****** 357: 31.77 358:  1.77 359:628.69 360:233.47
 361:  0.20 362:  0.45 363:****** 364:160.24 365:122.79 366:  3.93 367:  1.45 368:  0.64
 369:  2.12 370:  2.57 371:****** 372:514.68 373:****** 374:201.19 375:572.57 376: 11.77
 377:839.84 378:176.47 379:  0.34 380:  3.34 381:  1.46 382:  0.24 383:  0.07 384:131.92
 385:****** 386:552.70 387:503.92 388:****** 389:  3.05 390:  0.94 391:870.82 392:114.11
 393: 11.30 394:  5.08 395:  3.60 396: 10.12 397: 34.34 398: 34.61 399:109.25 400: 39.81
 401:  0.31 402: 69.69 403:  0.02 404:172.63 405:  3.78 406:  7.12 407:****** 408:141.92
 409: 15.88 410: 14.68 411:  5.57 412:  0.93 413:  2.48 414:  6.91 415:141.67 416: 28.18
 417:248.94 418:282.06 419:423.27 420:140.17 421: 54.26 422:514.13 423:  4.15 424: 39.90
 425:****** 426:****** 427:139.65 428:152.46 429:****** 430:283.48 431: 37.82 432: 28.01
 433:100.06 434:239.48 435:876.66 436:****** 437:****** 438:****** 439:****** 440:440.65
 441:****** 442:****** 443: 11.29 444:651.66 445:****** 446:****** 447: 61.95 448:165.16
 449:  6.19 450:****** 451:  3.55 452: 55.47 453:433.00 454:571.58 455:420.56 456:******
 457:****** 458:344.75 459:****** 460:764.23 461:****** 462:******
 Raman intensities (amu)
   1:  0.00   2:  0.00   3:  0.00   4:  0.00   5:  0.00   6:  0.00   7:  0.00   8:  0.00
   9:  0.00  10:  0.00  11:  0.00  12:  0.00  13:  0.00  14:  0.00  15:  0.00  16:  0.00
  17:  0.00  18:  0.00  19:  0.00  20:  0.00  21:  0.00  22:  0.00  23:  0.00  24:  0.00
  25:  0.00  26:  0.00  27:  0.00  28:  0.00  29:  0.00  30:  0.00  31:  0.00  32:  0.00
  33:  0.00  34:  0.00  35:  0.00  36:  0.00  37:  0.00  38:  0.00  39:  0.00  40:  0.00
  41:  0.00  42:  0.00  43:  0.00  44:  0.00  45:  0.00  46:  0.00  47:  0.00  48:  0.00
  49:  0.00  50:  0.00  51:  0.00  52:  0.00  53:  0.00  54:  0.00  55:  0.00  56:  0.00
  57:  0.00  58:  0.00  59:  0.00  60:  0.00  61:  0.00  62:  0.00  63:  0.00  64:  0.00
  65:  0.00  66:  0.00  67:  0.00  68:  0.00  69:  0.00  70:  0.00  71:  0.00  72:  0.00
  73:  0.00  74:  0.00  75:  0.00  76:  0.00  77:  0.00  78:  0.00  79:  0.00  80:  0.00
  81:  0.00  82:  0.00  83:  0.00  84:  0.00  85:  0.00  86:  0.00  87:  0.00  88:  0.00
  89:  0.00  90:  0.00  91:  0.00  92:  0.00  93:  0.00  94:  0.00  95:  0.00  96:  0.00
  97:  0.00  98:  0.00  99:  0.00 100:  0.00 101:  0.00 102:  0.00 103:  0.00 104:  0.00
 105:  0.00 106:  0.00 107:  0.00 108:  0.00 109:  0.00 110:  0.00 111:  0.00 112:  0.00
 113:  0.00 114:  0.00 115:  0.00 116:  0.00 117:  0.00 118:  0.00 119:  0.00 120:  0.00
 121:  0.00 122:  0.00 123:  0.00 124:  0.00 125:  0.00 126:  0.00 127:  0.00 128:  0.00
 129:  0.00 130:  0.00 131:  0.00 132:  0.00 133:  0.00 134:  0.00 135:  0.00 136:  0.00
 137:  0.00 138:  0.00 139:  0.00 140:  0.00 141:  0.00 142:  0.00 143:  0.00 144:  0.00
 145:  0.00 146:  0.00 147:  0.00 148:  0.00 149:  0.00 150:  0.00 151:  0.00 152:  0.00
Refinement of some symmetry elements was terminated before convergence was reached.
Some symmetry elements may remain unidentified.
Molecule has no symmetry elements
It seems to be the C1 point group
 153:  0.00 154:  0.00 155:  0.00 156:  0.00 157:  0.00 158:  0.00 159:  0.00 160:  0.00
 161:  0.00 162:  0.00 163:  0.00 164:  0.00 165:  0.00 166:  0.00 167:  0.00 168:  0.00
 169:  0.00 170:  0.00 171:  0.00 172:  0.00 173:  0.00 174:  0.00 175:  0.00 176:  0.00
 177:  0.00 178:  0.00 179:  0.00 180:  0.00 181:  0.00 182:  0.00 183:  0.00 184:  0.00
 185:  0.00 186:  0.00 187:  0.00 188:  0.00 189:  0.00 190:  0.00 191:  0.00 192:  0.00
 193:  0.00 194:  0.00 195:  0.00 196:  0.00 197:  0.00 198:  0.00 199:  0.00 200:  0.00
 201:  0.00 202:  0.00 203:  0.00 204:  0.00 205:  0.00 206:  0.00 207:  0.00 208:  0.00
 209:  0.00 210:  0.00 211:  0.00 212:  0.00 213:  0.00 214:  0.00 215:  0.00 216:  0.00
 217:  0.00 218:  0.00 219:  0.00 220:  0.00 221:  0.00 222:  0.00 223:  0.00 224:  0.00
 225:  0.00 226:  0.00 227:  0.00 228:  0.00 229:  0.00 230:  0.00 231:  0.00 232:  0.00
 233:  0.00 234:  0.00 235:  0.00 236:  0.00 237:  0.00 238:  0.00 239:  0.00 240:  0.00
 241:  0.00 242:  0.00 243:  0.00 244:  0.00 245:  0.00 246:  0.00 247:  0.00 248:  0.00
 249:  0.00 250:  0.00 251:  0.00 252:  0.00 253:  0.00 254:  0.00 255:  0.00 256:  0.00
 257:  0.00 258:  0.00 259:  0.00 260:  0.00 261:  0.00 262:  0.00 263:  0.00 264:  0.00
 265:  0.00 266:  0.00 267:  0.00 268:  0.00 269:  0.00 270:  0.00 271:  0.00 272:  0.00
 273:  0.00 274:  0.00 275:  0.00 276:  0.00 277:  0.00 278:  0.00 279:  0.00 280:  0.00
 281:  0.00 282:  0.00 283:  0.00 284:  0.00 285:  0.00 286:  0.00 287:  0.00 288:  0.00
 289:  0.00 290:  0.00 291:  0.00 292:  0.00 293:  0.00 294:  0.00 295:  0.00 296:  0.00
 297:  0.00 298:  0.00 299:  0.00 300:  0.00 301:  0.00 302:  0.00 303:  0.00 304:  0.00
 305:  0.00 306:  0.00 307:  0.00 308:  0.00 309:  0.00 310:  0.00 311:  0.00 312:  0.00
 313:  0.00 314:  0.00 315:  0.00 316:  0.00 317:  0.00 318:  0.00 319:  0.00 320:  0.00
 321:  0.00 322:  0.00 323:  0.00 324:  0.00 325:  0.00 326:  0.00 327:  0.00 328:  0.00
 329:  0.00 330:  0.00 331:  0.00 332:  0.00 333:  0.00 334:  0.00 335:  0.00 336:  0.00
 337:  0.00 338:  0.00 339:  0.00 340:  0.00 341:  0.00 342:  0.00 343:  0.00 344:  0.00
 345:  0.00 346:  0.00 347:  0.00 348:  0.00 349:  0.00 350:  0.00 351:  0.00 352:  0.00
 353:  0.00 354:  0.00 355:  0.00 356:  0.00 357:  0.00 358:  0.00 359:  0.00 360:  0.00
 361:  0.00 362:  0.00 363:  0.00 364:  0.00 365:  0.00 366:  0.00 367:  0.00 368:  0.00
 369:  0.00 370:  0.00 371:  0.00 372:  0.00 373:  0.00 374:  0.00 375:  0.00 376:  0.00
 377:  0.00 378:  0.00 379:  0.00 380:  0.00 381:  0.00 382:  0.00 383:  0.00 384:  0.00
 385:  0.00 386:  0.00 387:  0.00 388:  0.00 389:  0.00 390:  0.00 391:  0.00 392:  0.00
 393:  0.00 394:  0.00 395:  0.00 396:  0.00 397:  0.00 398:  0.00 399:  0.00 400:  0.00
 401:  0.00 402:  0.00 403:  0.00 404:  0.00 405:  0.00 406:  0.00 407:  0.00 408:  0.00
 409:  0.00 410:  0.00 411:  0.00 412:  0.00 413:  0.00 414:  0.00 415:  0.00 416:  0.00
 417:  0.00 418:  0.00 419:  0.00 420:  0.00 421:  0.00 422:  0.00 423:  0.00 424:  0.00
 425:  0.00 426:  0.00 427:  0.00 428:  0.00 429:  0.00 430:  0.00 431:  0.00 432:  0.00
 433:  0.00 434:  0.00 435:  0.00 436:  0.00 437:  0.00 438:  0.00 439:  0.00 440:  0.00
 441:  0.00 442:  0.00 443:  0.00 444:  0.00 445:  0.00 446:  0.00 447:  0.00 448:  0.00
 449:  0.00 450:  0.00 451:  0.00 452:  0.00 453:  0.00 454:  0.00 455:  0.00 456:  0.00
 457:  0.00 458:  0.00 459:  0.00 460:  0.00 461:  0.00 462:  0.00
 output can be read by thermo (or use thermo option).
 writing <g98.out> molden fake output.
 recommended (thermochemical) frequency scaling factor: 1.0
           -------------------------------------------------
          |             Thermodynamic Functions             |
           -------------------------------------------------

c1  symmetry found (for desy threshold:  0.10E+00) used in thermo
 inverting freq            1   13.208214814233534     
 inverting freq            2   13.062910043282578     
 inverting freq            3   5.3699412275059606     
 inverting freq            4   3.1992792460986048     

          ...................................................
          :                      SETUP                      :
          :.................................................:
          :  # frequencies                         456      :
          :  # imaginary freq.                       0      :
          :  linear?                             false      :
          :  only rotor calc.                    false      :
          :  symmetry                               c1      :
          :  rotational number                       1      :
          :  scaling factor                  1.0000000      :
          :  rotor cutoff                   50.0000000 cm⁻¹ :
          :  imag. cutoff                  -20.0000000 cm⁻¹ :
          :.................................................:

    mode    ω/cm⁻¹     T·S(HO)/kcal·mol⁻¹    T·S(FR)/kcal·mol⁻¹   T·S(vib)
   ------------------------------------------------------------------------
       1     13.21    -2.22367 (  0.48%)    -1.45090 ( 99.52%)    -1.45465
       2     13.06    -2.23022 (  0.46%)    -1.45418 ( 99.54%)    -1.45778
       3      5.37    -2.75684 (  0.01%)    -1.71752 ( 99.99%)    -1.71766
       4      3.20    -3.06367 (  0.00%)    -1.87094 (100.00%)    -1.87096
       5      1.27    -3.61119 (  0.00%)    -2.14469 (100.00%)    -2.14470
       6      2.13    -3.30353 (  0.00%)    -1.99087 (100.00%)    -1.99088
       7      3.56    -3.00022 (  0.00%)    -1.83922 (100.00%)    -1.83925
       8      5.13    -2.78353 (  0.01%)    -1.73087 ( 99.99%)    -1.73099
       9      5.72    -2.71916 (  0.02%)    -1.69868 ( 99.98%)    -1.69886
      10      9.69    -2.40734 (  0.14%)    -1.54276 ( 99.86%)    -1.54398
      11     10.36    -2.36765 (  0.18%)    -1.52291 ( 99.82%)    -1.52446
      12     12.17    -2.27213 (  0.35%)    -1.47514 ( 99.65%)    -1.47793
      13     12.69    -2.24760 (  0.41%)    -1.46287 ( 99.59%)    -1.46611
      14     20.74    -1.95661 (  2.87%)    -1.31730 ( 97.13%)    -1.33567
      15     21.52    -1.93458 (  3.32%)    -1.30628 ( 96.68%)    -1.32713
      16     23.05    -1.89409 (  4.32%)    -1.28601 ( 95.68%)    -1.31226
      17     23.13    -1.89194 (  4.38%)    -1.28493 ( 95.62%)    -1.31151
      18     26.88    -1.80303 (  7.71%)    -1.24043 ( 92.29%)    -1.28379
      19     35.13    -1.64462 ( 19.60%)    -1.16107 ( 80.40%)    -1.25586
      20     35.65    -1.63600 ( 20.54%)    -1.15675 ( 79.46%)    -1.25518
      21     38.85    -1.58530 ( 26.70%)    -1.13133 ( 73.30%)    -1.25255
      22     42.29    -1.53507 ( 33.86%)    -1.10614 ( 66.14%)    -1.25137
      23     42.83    -1.52759 ( 35.00%)    -1.10238 ( 65.00%)    -1.25122
      24     50.74    -1.42763 ( 51.47%)    -1.05219 ( 48.53%)    -1.24543
      25     76.99    -1.18248 ( 84.90%)    -0.92866 ( 15.10%)    -1.14416
      26     80.33    -1.15766 ( 86.95%)    -0.91610 ( 13.05%)    -1.12613
      27     90.90    -1.08542 ( 91.61%)    -0.87946 (  8.39%)    -1.06815
      28     97.87    -1.04241 ( 93.62%)    -0.85758 (  6.38%)    -1.03062
      29    100.73    -1.02570 ( 94.28%)    -0.84907 (  5.72%)    -1.01559
      30    100.92    -1.02459 ( 94.32%)    -0.84850 (  5.68%)    -1.01458
      31    103.62    -1.00928 ( 94.86%)    -0.84069 (  5.14%)    -1.00061
      32    110.79    -0.97050 ( 96.02%)    -0.82086 (  3.98%)    -0.96454
      33    112.80    -0.96006 ( 96.28%)    -0.81552 (  3.72%)    -0.95469
      34    117.64    -0.93581 ( 96.84%)    -0.80307 (  3.16%)    -0.93161
      35    117.74    -0.93536 ( 96.85%)    -0.80284 (  3.15%)    -0.93118
      36    119.14    -0.92851 ( 96.99%)    -0.79933 (  3.01%)    -0.92462
      37    119.22    -0.92814 ( 97.00%)    -0.79914 (  3.00%)    -0.92427
      38    123.27    -0.90888 ( 97.36%)    -0.78923 (  2.64%)    -0.90572
      39    140.05    -0.83577 ( 98.40%)    -0.75143 (  1.60%)    -0.83442
      40    147.97    -0.80447 ( 98.71%)    -0.73514 (  1.29%)    -0.80357
      41    151.91    -0.78954 ( 98.84%)    -0.72734 (  1.16%)    -0.78882
      42    153.88    -0.78226 ( 98.90%)    -0.72353 (  1.10%)    -0.78161
      43    155.69    -0.77564 ( 98.95%)    -0.72007 (  1.05%)    -0.77505
      44    163.66    -0.74748 ( 99.14%)    -0.70528 (  0.86%)    -0.74712
      45    177.29    -0.70266 ( 99.37%)    -0.68158 (  0.63%)    -0.70253
      46    189.07    -0.66692 ( 99.51%)    -0.66251 (  0.49%)    -0.66690
      47    189.22    -0.66650 ( 99.51%)    -0.66229 (  0.49%)    -0.66648
      48    189.40    -0.66597 ( 99.52%)    -0.66200 (  0.48%)    -0.66595
      49    189.61    -0.66538 ( 99.52%)    -0.66168 (  0.48%)    -0.66536
      50    202.72    -0.62858 ( 99.63%)    -0.64187 (  0.37%)    -0.62863
      51    224.34    -0.57359 ( 99.75%)    -0.61186 (  0.25%)    -0.57368
      52    226.05    -0.56949 ( 99.76%)    -0.60960 (  0.24%)    -0.56958
      53    226.34    -0.56880 ( 99.76%)    -0.60922 (  0.24%)    -0.56890
      54    226.44    -0.56858 ( 99.76%)    -0.60909 (  0.24%)    -0.56867
      55    226.72    -0.56791 ( 99.76%)    -0.60873 (  0.24%)    -0.56801
      56    226.79    -0.56773 ( 99.76%)    -0.60863 (  0.24%)    -0.56783
      57    226.86    -0.56757 ( 99.76%)    -0.60854 (  0.24%)    -0.56767
      58    231.29    -0.55720 ( 99.78%)    -0.60281 (  0.22%)    -0.55730
      59    231.43    -0.55689 ( 99.78%)    -0.60263 (  0.22%)    -0.55699
      60    236.34    -0.54568 ( 99.80%)    -0.59641 (  0.20%)    -0.54578
      61    240.09    -0.53734 ( 99.81%)    -0.59175 (  0.19%)    -0.53744
      62    240.35    -0.53675 ( 99.81%)    -0.59143 (  0.19%)    -0.53686
      63    241.99    -0.53316 ( 99.82%)    -0.58942 (  0.18%)    -0.53326
      64    243.20    -0.53050 ( 99.82%)    -0.58793 (  0.18%)    -0.53061
      65    243.23    -0.53044 ( 99.82%)    -0.58790 (  0.18%)    -0.53055
      66    248.36    -0.51943 ( 99.84%)    -0.58171 (  0.16%)    -0.51953
      67    248.97    -0.51814 ( 99.84%)    -0.58099 (  0.16%)    -0.51825
      68    249.03    -0.51801 ( 99.84%)    -0.58092 (  0.16%)    -0.51811
      69    249.75    -0.51649 ( 99.84%)    -0.58006 (  0.16%)    -0.51659
      70    250.32    -0.51531 ( 99.84%)    -0.57939 (  0.16%)    -0.51541
      71    251.14    -0.51357 ( 99.84%)    -0.57842 (  0.16%)    -0.51368
      72    262.86    -0.48977 ( 99.87%)    -0.56491 (  0.13%)    -0.48987
      73    264.08    -0.48736 ( 99.87%)    -0.56353 (  0.13%)    -0.48746
      74    265.44    -0.48471 ( 99.87%)    -0.56202 (  0.13%)    -0.48481
      75    265.59    -0.48441 ( 99.87%)    -0.56184 (  0.13%)    -0.48451
      76    265.80    -0.48400 ( 99.87%)    -0.56161 (  0.13%)    -0.48409
      77    265.90    -0.48381 ( 99.88%)    -0.56150 (  0.12%)    -0.48390
      78    266.79    -0.48209 ( 99.88%)    -0.56051 (  0.12%)    -0.48218
      79    266.82    -0.48203 ( 99.88%)    -0.56048 (  0.12%)    -0.48212
      80    268.43    -0.47892 ( 99.88%)    -0.55870 (  0.12%)    -0.47902
      81    290.52    -0.43855 ( 99.91%)    -0.53526 (  0.09%)    -0.43863
      82    292.60    -0.43497 ( 99.91%)    -0.53316 (  0.09%)    -0.43505
      83    294.06    -0.43246 ( 99.92%)    -0.53168 (  0.08%)    -0.43254
   ------------------------------------------------------------------------

   temp. (K)  partition function   enthalpy   heat capacity  entropy
                                   cal/mol     cal/K/mol   cal/K/mol   J/K/mol
 298.15  VIB  0.163E+50            54565.436    352.284    347.896
         ROT  0.234E+10              888.752      2.981     45.857
         INT  0.383E+59            55454.189    355.265    393.752
         TR   0.623E+29             1481.254      4.968     47.974
         TOT                       56935.4426   360.2330   441.7263  1848.1830

       T/K    H(0)-H(T)+PV         H(T)/Eh          T*S/Eh         G(T)/Eh
   ------------------------------------------------------------------------
    298.15    0.907324E-01    0.115048E+01    0.209878E+00    0.940600E+00
   ------------------------------------------------------------------------

         :::::::::::::::::::::::::::::::::::::::::::::::::::::
         ::                  THERMODYNAMIC                  ::
         :::::::::::::::::::::::::::::::::::::::::::::::::::::
         :: total free energy        -278.958840774352 Eh   ::
         ::.................................................::
         :: total energy             -279.899440993157 Eh   ::
         :: zero point energy           1.059746247628 Eh   ::
         :: G(RRHO) w/o ZPVE           -0.119146028823 Eh   ::
         :: G(RRHO) contrib.            0.940600218804 Eh   ::
         :::::::::::::::::::::::::::::::::::::::::::::::::::::
imag cut-off (cm-1) :    5.00
 found            3  significant imaginary frequencies
 writing imag mode distorted coords to xtbhess.xyz
 for further optimization.

optimized geometry written to: xtbopt.xyz


           -------------------------------------------------
          | TOTAL ENERGY             -279.899440993157 Eh   |
          | TOTAL ENTHALPY           -278.748962342348 Eh   |
          | TOTAL FREE ENERGY        -278.958840774352 Eh   |
          | GRADIENT NORM               0.000608067612 Eh/α |
          | HOMO-LUMO GAP               0.000518805396 eV   |
           -------------------------------------------------

------------------------------------------------------------------------
 * finished run on 2021/11/19 at 13:40:26.726     
------------------------------------------------------------------------
 total:
 * wall-time:     0 d,  0 h, 16 min, 14.839 sec
 *  cpu-time:     0 d,  0 h, 16 min, 14.837 sec
 * ratio c/w:     1.000 speedup
 SCF:
 * wall-time:     0 d,  0 h,  0 min,  5.835 sec
 *  cpu-time:     0 d,  0 h,  0 min,  5.835 sec
 * ratio c/w:     1.000 speedup
 ANC optimizer:
 * wall-time:     0 d,  0 h,  1 min, 54.521 sec
 *  cpu-time:     0 d,  0 h,  1 min, 54.509 sec
 * ratio c/w:     1.000 speedup
 analytical hessian:
 * wall-time:     0 d,  0 h, 14 min, 14.190 sec
 *  cpu-time:     0 d,  0 h, 14 min, 14.200 sec
 * ratio c/w:     1.000 speedup

