154
 energy: -278.616470694836 gnorm: 0.750785215138 xtb: 6.4.1 (bd6e46d)
Co       20.26066600000000    0.03832100000000   -0.01103500000000
C        22.58965700000000   -3.10847200000000    1.31165400000000
C        23.50576400000000   -2.16426500000000    1.26137200000000
C        23.09458500000000   -1.11036100000000    0.34008000000000
C        23.71345500000000    0.01398600000000   -0.00633000000000
C        23.00941300000000    1.23393400000000   -0.37043500000000
C        23.33752400000000    2.19398900000000   -1.21790900000000
C        22.30274400000000    3.21027400000000   -1.23480700000000
C        21.36647600000000    2.83381200000000   -0.38791500000000
N        21.76846600000000    1.60080100000000    0.17590200000000
C        20.10540200000000    3.47881100000000   -0.00876300000000
C        19.01018400000000    2.84402900000000    0.34199700000000
C        17.93655900000000    3.16198500000000    1.31102500000000
C        17.09899600000000    2.16523100000000    1.23385900000000
C        17.53729300000000    1.16154800000000    0.25340700000000
N        18.64223200000000    1.60040100000000   -0.23088500000000
C        16.92645900000000   -0.09172300000000   -0.16014100000000
C        17.59061900000000   -1.19622900000000   -0.41456600000000
C        17.21677100000000   -2.25917100000000   -1.37209300000000
C        18.16551800000000   -3.15292700000000   -1.28307400000000
C        19.15124200000000   -2.71547700000000   -0.30019600000000
N        18.79819600000000   -1.56967200000000    0.19660100000000
C        20.38213000000000   -3.37154700000000    0.14552500000000
C        21.50517100000000   -2.72568600000000    0.41264600000000
N        21.83377100000000   -1.47824500000000   -0.18575800000000
H        22.64991900000000   -4.01825300000000    1.92920000000000
H        24.42209200000000   -2.20421400000000    1.83942000000000
H        24.26488900000000    2.21078400000000   -1.81905200000000
H        22.31964300000000    4.11496300000000   -1.84742800000000
H        20.05767900000000    4.57361400000000   -0.01254100000000
H        17.88373700000000    4.04071000000000    1.93601700000000
H        16.18736600000000    2.12956100000000    1.85118300000000
H        15.82820800000000   -0.08881200000000   -0.25941200000000
H        16.34791500000000   -2.31163600000000   -2.02104300000000
H        18.16267200000000   -4.06923500000000   -1.88183300000000
H        20.34664700000000   -4.46734900000000    0.25745000000000
Co       63.49624800000000   -0.00905500000000   -0.01546800000000
C        61.16725700000000    2.83773700000000    1.86803700000000
C        60.25114900000001    1.91924800000000    1.64346300000000
C        60.66232900000000    1.05455100000000    0.54264900000000
C        60.04345800000000    0.01398600000000   -0.00633000000000
C        60.74750100000000   -1.11723900000000   -0.59043300000000
C        60.41939000000000   -1.90341100000000   -1.60130000000000
C        61.45417000000000   -2.89892000000000   -1.80644000000000
C        62.39043800000001   -2.68610400000000   -0.90441000000000
N        61.98844800000000   -1.57909200000000   -0.12163800000000
C        63.65151200000000   -3.39024500000000   -0.65149600000000
C        64.74673000000000   -2.83155200000000   -0.18906300000000
C        65.82035500000001   -3.32375800000000    0.70415900000000
C        66.65791800000000   -2.32999100000000    0.81324400000000
C        66.21962000000001   -1.16184200000000    0.03600900000000
N        65.11468200000000   -1.50323400000000   -0.52129000000000
C        66.83045500000000    0.14639300000000   -0.13786100000000
C        66.16629500000001    1.27892700000000   -0.18296700000000
C        66.54014300000000    2.50105300000000   -0.92668200000000
C        65.59139600000000    3.36278000000000   -0.67340300000000
C        64.60567200000000    2.75058500000000    0.21126000000000
N        64.95871800000000    1.53250600000000    0.48687000000000
C        63.37478400000000    3.31258000000000    0.77095400000000
C        62.25174300000000    2.62837500000000    0.91362200000000
N        61.92314300000001    1.51360000000000    0.09418700000000
H        61.10699500000000    3.61716100000000    2.64364100000000
H        59.33482200000000    1.85126700000000    2.21888900000000
H        59.49202500000000   -1.80839400000000   -2.19512400000000
H        61.43727100000000   -3.67425500000000   -2.57626000000000
H        63.69923500000000   -4.46534300000000   -0.85831000000000
H        65.87317700000000   -4.30317400000000    1.15528600000000
H        67.56954800000000   -2.40946300000000    1.42647000000000
H        67.92870600000001    0.16194900000000   -0.23594800000000
H        67.40899899999999    2.67299600000000   -1.55463500000000
H        65.59424199999999    4.37426100000000   -1.09178100000000
H        63.41026700000000    4.36859600000000    1.08422300000000
C        26.60815900000000    0.01195000000000   -0.00744200000000
C        27.81613600000000    0.01940500000000   -0.00574700000000
C        29.23490400000000    0.02010200000000   -0.00061000000000
C        30.45042000000000    0.01195000000000   -0.00744200000000
C        39.95831000000000    0.01195000000000   -0.00744200000000
C        41.16628700000000    0.01940500000000   -0.00574700000000
C        42.58505400000001    0.02010200000000   -0.00061000000000
C        43.80057100000000    0.01195000000000   -0.00744200000000
C        53.30846000000000    0.01195000000000   -0.00744200000000
C        54.51643700000001    0.01940500000000   -0.00574700000000
C        55.93520500000000    0.02010200000000   -0.00061000000000
C        57.15072100000000    0.01195000000000   -0.00744200000000
Co       35.23900200000000    0.03208600000000    0.00469700000000
C        32.95919100000000   -3.22936200000000   -0.90496900000000
C        32.00298200000000   -2.33001100000000   -1.00699500000000
C        32.39535600000000   -1.16770600000000   -0.20448000000000
C        31.76023900000000   -0.01643400000000    0.00778700000000
C        32.44569600000000    1.25816600000000    0.23401600000000
C        32.11040600000000    2.33676600000000    0.93825600000000
C        33.13494700000000    3.35608200000000    0.84767500000000
C        34.08554500000000    2.85915800000000    0.07431000000000
N        33.70855100000000    1.54255300000000   -0.34183300000000
C        35.33268400000000    3.47085900000000   -0.34255600000000
C        36.43423600000000    2.80360200000000   -0.67432700000000
C        37.42778200000000    3.05558700000000   -1.70849700000000
C        38.32166600000000    2.09472800000000   -1.60701300000000
C        37.94196700000001    1.18284400000000   -0.50303600000000
N        36.84705200000000    1.63216300000000    0.00433100000000
C        38.59917400000000   -0.01643400000000    0.00778700000000
C        37.97576300000001   -1.08561600000000    0.46930300000000
C        38.35447600000000   -2.01773100000000    1.54477900000000
C        37.41380700000001   -2.93187700000000    1.63064500000000
C        36.40550600000001   -2.63609800000000    0.63321800000000
N        36.74328000000000   -1.58272100000000   -0.01607700000000
C        35.15311200000001   -3.34310600000000    0.30202500000000
C        34.03923600000001   -2.74640900000000   -0.04531700000000
N        33.65712400000000   -1.46365200000000    0.37236600000000
H        32.95953600000000   -4.22043500000000   -1.39620400000000
H        31.09444700000000   -2.45170500000000   -1.58814400000000
H        31.18555400000000    2.45511700000000    1.51518200000000
H        33.16224200000000    4.34524700000000    1.30432500000000
H        35.41862400000000    4.56823700000000   -0.40457800000000
H        37.46045500000000    3.86180300000000   -2.43532100000000
H        39.21472700000000    1.98175900000000   -2.24078700000000
H        39.26922600000000   -1.94332500000000    2.15494900000000
H        37.43285300000000   -3.74548500000000    2.33891200000000
H        35.19159700000000   -4.44306500000000    0.36106100000000
Co       48.58915200000000    0.03208600000000    0.00469700000000
C        46.30934100000001   -3.22936200000000   -0.90496900000000
C        45.35313200000000   -2.33001100000000   -1.00699500000000
C        45.74550600000000   -1.16770600000000   -0.20448000000000
C        45.11039000000000   -0.01643400000000    0.00778700000000
C        45.79584700000000    1.25816600000000    0.23401600000000
C        45.46055700000000    2.33676600000000    0.93825600000000
C        46.48509800000001    3.35608200000000    0.84767500000000
C        47.43569500000000    2.85915800000000    0.07431000000000
N        47.05870100000000    1.54255300000000   -0.34183300000000
C        48.68283500000000    3.47085900000000   -0.34255600000000
C        49.78438600000000    2.80360200000000   -0.67432700000000
C        50.77793300000000    3.05558700000000   -1.70849700000000
C        51.67181600000000    2.09472800000000   -1.60701300000000
C        51.29211800000000    1.18284400000000   -0.50303600000000
N        50.19720300000000    1.63216300000000    0.00433100000000
C        51.94932500000001   -0.01643400000000    0.00778700000000
C        51.32591300000001   -1.08561600000000    0.46930300000000
C        51.70462600000000   -2.01773100000000    1.54477900000000
C        50.76395700000000   -2.93187700000000    1.63064500000000
C        49.75565600000000   -2.63609800000000    0.63321800000000
N        50.09343100000000   -1.58272100000000   -0.01607700000000
C        48.50326300000000   -3.34310600000000    0.30202500000000
C        47.38938600000001   -2.74640900000000   -0.04531700000000
N        47.00727400000000   -1.46365200000000    0.37236600000000
H        46.30968600000000   -4.22043500000000   -1.39620400000000
H        44.44459800000001   -2.45170500000000   -1.58814400000000
H        44.53570400000001    2.45511700000000    1.51518200000000
H        46.51239300000001    4.34524700000000    1.30432500000000
H        48.76877500000000    4.56823700000000   -0.40457800000000
H        50.81060500000000    3.86180300000000   -2.43532100000000
H        52.56487700000000    1.98175900000000   -2.24078700000000
H        52.61937600000000   -1.94332500000000    2.15494900000000
H        50.78300400000000   -3.74548500000000    2.33891200000000
H        48.54174700000000   -4.44306500000000    0.36106100000000
154
 energy: -278.891440840502 gnorm: 0.416117121556 xtb: 6.4.1 (bd6e46d)
Co       20.27311011719170    0.03519857305454   -0.01032836231486
C        22.59072281137105   -3.11751035794094    1.30171772857820
C        23.52122738476930   -2.16368198025495    1.25703075369106
C        23.08866835975655   -1.11201872230914    0.34638432302737
C        23.68999225283319    0.03649813951550   -0.00737687772857
C        22.99432931144813    1.22860797548201   -0.36248684899207
C        23.35001789281270    2.22333052647152   -1.23557330554469
C        22.33465445425947    3.21208933733866   -1.24792907782797
C        21.35937178526530    2.80674733530352   -0.38106649208214
N        21.73459420037250    1.57007060704427    0.17256365754529
C        20.12579594548676    3.47610810373459   -0.00896472159352
C        19.00081482886890    2.82618291902847    0.34244328207423
C        17.93678163446303    3.16990845176718    1.29227692606910
C        17.07171681370702    2.15804807763212    1.23598341469563
C        17.53333801740411    1.16057208269430    0.27118488867498
N        18.68616647968858    1.56984946480299   -0.20556223171958
C        16.91410018860809   -0.06887924790827   -0.15297063281601
C        17.59553658709822   -1.19851121774354   -0.41994965219771
C        17.20812043630917   -2.25966903690032   -1.35665831669137
C        18.17271978088981   -3.17546150523331   -1.27898880750900
C        19.16263035832085   -2.72325673176773   -0.30908907215947
N        18.81837322323054   -1.53687565450586    0.16445449385515
C        20.36339482012921   -3.37753897242664    0.13753076178367
C        21.50994161839256   -2.70781854308277    0.41595660920017
N        21.81764132086257   -1.46352531823690   -0.15148668389911
H        22.64074490334721   -4.01252247820303    1.91995232653595
H        24.42747997992943   -2.19389958815248    1.83621328618397
H        24.26259632923386    2.22074470216480   -1.82101214838637
H        22.32764460771413    4.11118182780908   -1.84859086170488
H        20.07570503817399    4.56815724460410   -0.00512155365748
H        17.89146772821368    4.03891099046395    1.92851174041937
H        16.18190905006453    2.11957452482976    1.84993771776481
H        15.82946586703662   -0.07931930628102   -0.26531458128000
H        16.35002118628020   -2.30148835804523   -2.01232813178661
H        18.17462393929688   -4.07407701525808   -1.87776573650802
H        20.34141648395673   -4.46268343137729    0.25739170881128
Co       63.48381390670144   -0.00610607374662   -0.01420280486127
C        61.16620240855190    2.84845964525078    1.85995377543160
C        60.23570163296071    1.91948273822763    1.63908316754112
C        60.66822737454913    1.05501150791527    0.54915765732322
C        60.06675725897015   -0.00798514637076   -0.01138498285986
C        60.76258301815794   -1.11348651693249   -0.58164163535773
C        60.40690031639987   -1.92896026039613   -1.62406762368083
C        61.42227853405437   -2.89827869725735   -1.81966052828909
C        62.39754523229856   -2.66079423643943   -0.89267188854572
N        62.02229478147506   -1.54826881724329   -0.11924452730961
C        63.63111517462432   -3.38756151427896   -0.65119304013046
C        64.75609889274655   -2.81409585112560   -0.18530828451282
C        65.82012750308778   -3.32806292170634    0.68426306038947
C        66.68519607800577   -2.32332022508933    0.81666248688363
C        66.22357856114283   -1.16418284869511    0.05365770302537
N        65.07075047383972   -1.47792123775130   -0.49074258431047
C        66.84281278011795    0.12261430441897   -0.13505113249752
C        66.16137420586237    1.28216853599802   -0.18783487690478
C        66.54879076295401    2.49867769306124   -0.91142326306104
C        65.58419356888371    3.38416664358506   -0.66520645252268
C        64.59428212159474    2.75987944253272    0.20396666854186
N        64.93854624970032    1.50624535872623    0.44920392915096
C        63.39351853638698    3.31995473475233    0.76420633115610
C        62.24696576408588    2.61020167281831    0.91355214550543
N        61.93926069811322    1.49276555258269    0.12515465924797
H        61.11616768009425    3.61324772053732    2.63349074469478
H        59.32943655644517    1.84174651330647    2.21382515997182
H        59.49432559240009   -1.81780172477758   -2.19890395601590
H        61.42927937826857   -3.67032975780664   -2.57671016739620
H        63.68121626654012   -4.46136752027563   -0.85001528736085
H        65.86544686441741   -4.30001576213652    1.14824405733781
H        67.57500679465130   -2.39941832547650    1.42709855185688
H        67.92744834507872    0.15371678720026   -0.24350795911721
H        67.40689198475849    2.66140741418649   -1.54795377383230
H        65.58228823940385    4.37826516507333   -1.08688529530872
H        63.41549477788099    4.36402557200371    1.08329890777738
C        26.59580908310871    0.01229801507225   -0.00587505051379
C        27.81806662945383    0.01965897911843   -0.00596080915488
C        29.20347849046107    0.02115212454557   -0.00076721838316
C        30.42275745758189    0.02162961348027   -0.01034900202920
C        39.97626254649188    0.02041680436513   -0.00383739117544
C        41.19128985347115    0.02039736803781   -0.00400413502526
C        42.55914670704941    0.02097206380394   -0.00127548036209
C        43.77561988945429    0.02133605260072   -0.01160035965971
C        53.33020392984290    0.02083145226945   -0.00337831042967
C        54.54761213017050    0.02018756330420   -0.00443248156887
C        55.93590537250704    0.01925440747338   -0.00089595039255
C        57.15811874685916    0.01137514647934   -0.00684803395442
Co       35.22865088696854    0.03367765479679    0.00416241970089
C        32.96023877911270   -3.24866231852099   -0.89639730713314
C        31.99735518085665   -2.32934291160192   -0.99677306159013
C        32.42550892057473   -1.18172224086603   -0.20868346076993
C        31.77779783946539    0.00442219834883    0.00599630537762
C        32.47879803252836    1.26182583178637    0.23136268752762
C        32.10135003539448    2.36437690104335    0.94906729043973
C        33.10937916214628    3.35754266820700    0.85451600930470
C        34.09758220482709    2.83649853022479    0.07019276292552
N        33.74366134799816    1.52045464346023   -0.32273713253233
C        35.31703542982397    3.46971937930933   -0.34450006200975
C        36.44204368275529    2.78991089070843   -0.67485099803993
C        37.43560449237406    3.06350502141555   -1.69371678447548
C        38.34367854506246    2.08283965723560   -1.60460467527581
C        37.94057655148627    1.18047468612202   -0.52122167290522
N        36.80280566468139    1.60367729207638   -0.01875427918660
C        38.60269303690519    0.00131942330136   -0.00178227248899
C        37.95762474573895   -1.09765273106902    0.47757257440240
C        38.36670524417085   -2.01740232593045    1.53296572173194
C        37.40980878047014   -2.94943220908481    1.62857961074693
C        36.39262503711763   -2.64192360518815    0.64301795648135
N        36.71785041436558   -1.53820300691808    0.00109081546048
C        35.17430269794283   -3.35052992970199    0.31217089837213
C        34.02862479523902   -2.73281898842450   -0.05347470984536
N        33.68081440247997   -1.44278573684545    0.33285757046864
H        32.96510370321940   -4.21724948900340   -1.39171250987352
H        31.09563965211219   -2.44027044861319   -1.58234109230138
H        31.18508515006163    2.45984551683145    1.51632397065524
H        33.14999741937116    4.33885528751405    1.30668251416800
H        35.39927453058463    4.56129454215672   -0.41108360170546
H        37.45270150756824    3.85989655288359   -2.42577718680359
H        39.21597040750417    1.97423681517164   -2.23711934039738
H        39.26324567101820   -1.93756845385383    2.14536038971562
H        37.42462093127650   -3.75234347060296    2.33919780752607
H        35.19849554944921   -4.44038013405240    0.35850508828048
Co       48.57828415731019    0.03356836908672    0.00405204417040
C        46.30976339247569   -3.24873020526903   -0.89640310117554
C        45.34728466169805   -2.33012297012593   -0.99628954339145
C        45.77585715165718   -1.18142376646292   -0.20761061520657
C        45.12978401395345    0.00392324506602    0.00578122544031
C        45.82908880673615    1.26232491829985    0.23135653850023
C        45.45152756875027    2.36435368324304    0.94907127908989
C        46.45951099054292    3.35750859697878    0.85449067250464
C        47.44794296033338    2.83648156503367    0.07011048233504
N        47.09406432476310    1.52054785385358   -0.32262489160770
C        48.66715330210324    3.46961296492196   -0.34432096480883
C        49.79243449035616    2.78992040206546   -0.67483831280086
C        50.78571547883747    3.06360703284900   -1.69364203108074
C        51.69369608752538    2.08262273494925   -1.60490160372926
C        51.29057734793837    1.17996434754612   -0.52214293036945
N        50.15366819428043    1.60343659696734   -0.01896583988164
C        51.95483004593051    0.00075885316008   -0.00151412546436
C        51.30866934586602   -1.09722998584008    0.47790233543619
C        51.71704116408355   -2.01714339782513    1.53289617624293
C        50.75979311476330   -2.94910534371851    1.62863954245522
C        49.74337914134963   -2.64119452597085    0.64343672175508
N        50.06813513725829   -1.53822650489976    0.00161188829518
C        48.52369992105063   -3.35066329278976    0.31152903943477
C        47.37944823191341   -2.73302727832192   -0.05305232153097
N        47.03185105119992   -1.44242489597812    0.33301548796216
H        46.31510176319221   -4.21724042836807   -1.39183087681997
H        44.44585153453895   -2.44039293719631   -1.58251979016218
H        44.53524343833538    2.45985995067782    1.51642845758217
H        46.50006683850245    4.33891681712431    1.30654574936576
H        48.74939360309193    4.56125547311703   -0.41105836334527
H        50.80283945992695    3.85995350374311   -2.42575250416514
H        52.56614880944031    1.97423004327395   -2.23704886728202
H        52.61351461620747   -1.93762117349263    2.14524689849588
H        50.77465635845536   -3.75222929649932    2.33913589997152
H        48.54862017454117   -4.44043901485055    0.35772275601122
154
 energy: -279.062218463680 gnorm: 0.182537019305 xtb: 6.4.1 (bd6e46d)
Co       20.28345334917156    0.03458835232169   -0.00770397957952
C        22.58904807907324   -3.12175364414179    1.28854113781391
C        23.53391736087286   -2.16189306622712    1.24997622330087
C        23.07770861913254   -1.11100824141057    0.35856614542442
C        23.65395615787112    0.06280279690799   -0.00963875984513
C        22.97673752108000    1.21884013267183   -0.35964334868829
C        23.35637870669983    2.25276804428702   -1.24489437716079
C        22.36796103550660    3.20913490411044   -1.24882028677906
C        21.35008912773058    2.77554197590625   -0.37356556087073
N        21.69765059401545    1.53670472868160    0.15004115525031
C        20.14919594372484    3.46536692279870   -0.00983763425803
C        19.00160774807706    2.79766660558467    0.35098787901713
C        17.94268160787992    3.17028642517093    1.26732752214541
C        17.04840889678445    2.15441957703029    1.22771584741836
C        17.53062328398928    1.15704038555409    0.29150558662300
N        18.73756004056473    1.53294373965750   -0.16532397436690
C        16.90839859504960   -0.04653117570493   -0.14382491774877
C        17.60802386951187   -1.19348903885234   -0.43431400743767
C        17.20601659456537   -2.25715715468044   -1.33720039232881
C        18.17630183987899   -3.19418231233428   -1.26646260810481
C        19.17550073044555   -2.72749074136788   -0.31997552045865
N        18.84382282588167   -1.49240257972448    0.11785051612706
C        20.34531390842203   -3.37662932054412    0.12842344586402
C        21.50864566652994   -2.68242778677259    0.42413007777854
N        21.79595200088999   -1.44630293584931   -0.10874778263871
H        22.62989200695325   -4.00645399433465    1.90547964240067
H        24.43497165985638   -2.18188839173551    1.82845174493577
H        24.26008269468046    2.22893908388213   -1.81900357683036
H        22.33208429788521    4.10529317557751   -1.84322637227797
H        20.09476397524031    4.55481574992615   -0.00398588605871
H        17.89969854194585    4.03342598167154    1.91353716535139
H        16.17566469523926    2.10885564399568    1.84341104976582
H        15.83314049466721   -0.07285829361346   -0.26431294600981
H        16.35428599369572   -2.29075548254709   -1.99790421573670
H        18.18711795487687   -4.07995205259908   -1.86840982707119
H        20.34088381772105   -4.45455434301462    0.25172097783719
Co       63.47350315760719   -0.00600189694626   -0.01152879332888
C        61.16790292812657    2.85509413061122    1.84776852554579
C        60.22301684187727    1.91904941617985    1.63176385912392
C        60.67919479032332    1.05174433150755    0.56093096270200
C        60.10240013349437   -0.03343453946662   -0.01842841690067
C        60.78021436805992   -1.10440749451908   -0.57705695133011
C        60.40053951027489   -1.95617182611908   -1.63863453080183
C        61.38901280541857   -2.89524546076042   -1.81997936604652
C        62.40682980535097   -2.63162019570941   -0.87950163830567
N        62.05921567701683   -1.51128946773902   -0.13524045981885
C        63.60769854751214   -3.37689154645765   -0.65003271767728
C        64.75530062315384   -2.78767212207591   -0.17159344036264
C        65.81421188488709   -3.32379189416849    0.65967688252400
C        66.70850092680024   -2.31819027272220    0.80921543007391
C        66.22632704670497   -1.16448655245945    0.07428101352277
N        65.01935722926609   -1.44913690605982   -0.44436332060637
C        66.84853362647863    0.09895239595563   -0.13022248892054
C        66.14890527741679    1.27989711247658   -0.20291261079078
C        66.55088822418747    2.49257535510257   -0.89279789470936
C        65.58059930358779    3.40023060514783   -0.64944815227013
C        64.58140783509251    2.76608481728692    0.19402484058622
N        64.91308580146521    1.47118811310805    0.39512575897671
C        63.41159099275803    3.32079422795021    0.75504718019590
C        62.24824331537840    2.58380288947329    0.91683940498815
N        61.96090436804096    1.46792751521616    0.16399261581672
H        61.12702392112254    3.60998880136198    2.61811154005438
H        59.32195414098847    1.83142550773984    2.20395012296212
H        59.49686133355006   -1.82623582403555   -2.19844966393494
H        61.42484491127870   -3.66556063187669   -2.57033770030727
H        63.66217821366881   -4.44849513006279   -0.84643938226150
H        65.85720924759029   -4.29183033061869    1.13456456092154
H        67.58125179037236   -2.38765819746783    1.42267262893802
H        67.92378675497696    0.14718365375206   -0.24372909589647
H        67.40262196792352    2.64816849343427   -1.53580028025571
H        65.56978568499952    4.38229024265923   -1.07664052660082
H        63.41603420382943    4.35711814450116    1.07619204798831
C        26.58907783793273    0.01355473605371   -0.00533384984991
C        27.82002478529260    0.01979348531633   -0.00637560506445
C        29.17818281330906    0.02087769830718    0.00012896450303
C        30.40507402544529    0.03120318706410   -0.01083530653509
C        39.98852697847873    0.02272254427535   -0.00419672321751
C        41.21132494358205    0.01888935460737   -0.00276903395297
C        42.54212429128097    0.02130884329713   -0.00069380969277
C        43.76543275474893    0.03162487378340   -0.01276937831519
C        53.35003867789829    0.02352994402067   -0.00340944462397
C        54.57503040280529    0.01952758332887   -0.00236031058961
C        55.93570150402899    0.01859406316420   -0.00178677128109
C        57.16501803577943    0.01057866878040   -0.00654930246400
Co       35.22206504899410    0.03601970355576    0.00220730529622
C        32.96579091128937   -3.26286928792811   -0.88441405952930
C        31.99596539005767   -2.32368333250498   -0.98253747149090
C        32.45526927012320   -1.18629991050143   -0.21816429299149
C        31.79119291413661    0.02923125991123    0.00496245929681
C        32.51430521054524    1.25976015997111    0.22929379807759
C        32.09599321376973    2.39130643510549    0.95187376164609
C        33.08285545238039    3.35331939476286    0.85272873778276
C        34.11225153269227    2.80975628455420    0.06770473221491
N        33.78078206603806    1.49461585774334   -0.28297256429961
C        35.29819263878526    3.46266083663623   -0.34596857861113
C        36.44170471185668    2.76554351093337   -0.68216631700287
C        37.44002774498626    3.06543503173706   -1.67425389683314
C        38.36256294721504    2.07179627310847   -1.59207310469543
C        37.93880249418446    1.17355627333977   -0.54093672356613
N        36.75043880059613    1.56704015786765   -0.05447878710474
C        38.60508535432607    0.01846763893989   -0.01261184959646
C        37.93463972728296   -1.10069130331026    0.49072372229048
C        38.37163939377981   -2.01290619845177    1.51613588265060
C        37.40680673405633   -2.96441123118413    1.61606786567276
C        36.37744398361985   -2.64407213966780    0.65431778792545
N        36.68881824145311   -1.48057434836389    0.03344519446186
C        35.19490512860182   -3.34952702269132    0.32258321536376
C        34.02677365286485   -2.71587028486582   -0.06901075809910
N        33.70686535694508   -1.41962013878566    0.28048021729118
H        32.97143810915333   -4.21491351754837   -1.38182973277579
H        31.09796208793554   -2.42608031667053   -1.56995570061976
H        31.18472353775219    2.46193679406291    1.51287463656268
H        33.13865115914131    4.32947859936970    1.30417899442020
H        35.37749970313083    4.54873751704100   -0.41231574816017
H        37.44436396842068    3.85694885701488   -2.40879642158428
H        39.21817155565932    1.96627487955363   -2.22839639281109
H        39.25529434555101   -1.93245007343034    2.13019988074265
H        37.41506928495623   -3.75963022983786    2.33311638704137
H        35.20101177195929   -4.43301365328639    0.36103488969711
Co       48.57151713143441    0.03578790989775    0.00202347982850
C        46.31474758211091   -3.26323079215561   -0.88443976194684
C        45.34589685965593   -2.32530951663931   -0.98143356935064
C        45.80740301434345   -1.18632761483773   -0.21564600996411
C        45.14872624337585    0.02852099513940    0.00472295907203
C        45.86608414522707    1.26088371674621    0.22864443899930
C        45.44640454355221    2.39169163995541    0.95150845162901
C        46.43295768900770    3.35346896400932    0.85269772119723
C        47.46316457088913    2.81024945901563    0.06733833410798
N        47.13214266641198    1.49507096481474   -0.28312262821601
C        48.64824713834292    3.46236923760292   -0.34535349970764
C        49.79261759507994    2.76513773954971   -0.68229823652386
C        50.78992296566074    3.06541166269037   -1.67405999230557
C        51.71247962867948    2.07089153790530   -1.59294762967134
C        51.28996733673899    1.17226332825220   -0.54303564142536
N        50.10290676583551    1.56638216395038   -0.05471274587995
C        51.96237628168807    0.01738991546447   -0.01222542995902