      -----------------------------------------------------------      
     |                   =====================                   |     
     |                           x T B                           |     
     |                   =====================                   |     
     |                         S. Grimme                         |     
     |          Mulliken Center for Theoretical Chemistry        |     
     |                    University of Bonn                     |     
      -----------------------------------------------------------      

   * xtb version 6.4.1 (bd6e46d) compiled by 'conda@4901f00b25ba' on 2021-06-10

   xtb is free software: you can redistribute it and/or modify it under
   the terms of the GNU Lesser General Public License as published by
   the Free Software Foundation, either version 3 of the License, or
   (at your option) any later version.
   
   xtb is distributed in the hope that it will be useful,
   but WITHOUT ANY WARRANTY; without even the implied warranty of
   MERCHANTABILITY or FITNESS FOR A PARTICULAR PURPOSE.  See the
   GNU Lesser General Public License for more details.
   
   Cite this work as:
   * C. Bannwarth, E. Caldeweyher, S. Ehlert, A. Hansen, P. Pracht,
     J. Seibert, S. Spicher, S. Grimme, WIREs Comput. Mol. Sci., 2020, 11,
     e01493. DOI: 10.1002/wcms.1493
   
   for GFN2-xTB:
   * C. Bannwarth, S. Ehlert and S. Grimme., J. Chem. Theory Comput., 2019,
     15, 1652-1671. DOI: 10.1021/acs.jctc.8b01176
   for GFN1-xTB:
   * S. Grimme, C. Bannwarth, P. Shushkov, J. Chem. Theory Comput., 2017,
     13, 1989-2009. DOI: 10.1021/acs.jctc.7b00118
   for GFN0-xTB:
   * P. Pracht, E. Caldeweyher, S. Ehlert, S. Grimme, ChemRxiv, 2019, preprint.
     DOI: 10.26434/chemrxiv.8326202.v1
   for GFN-FF:
   * S. Spicher and S. Grimme, Angew. Chem. Int. Ed., 2020, 59, 15665-15673.
     DOI: 10.1002/anie.202004239
   
   for DFT-D4:
   * E. Caldeweyher, C. Bannwarth and S. Grimme, J. Chem. Phys., 2017,
     147, 034112. DOI: 10.1063/1.4993215
   * E. Caldeweyher, S. Ehlert, A. Hansen, H. Neugebauer, S. Spicher,
     C. Bannwarth and S. Grimme, J. Chem. Phys., 2019, 150, 154122.
     DOI: 10.1063/1.5090222
   * E. Caldeweyher, J.-M. Mewes, S. Ehlert and S. Grimme, Phys. Chem. Chem. Phys.
     2020, 22, 8499-8512. DOI: 10.1039/D0CP00502A
   
   for sTDA-xTB:
   * S. Grimme and C. Bannwarth, J. Chem. Phys., 2016, 145, 054103.
     DOI: 10.1063/1.4959605
   
   in the mass-spec context:
   * V. Asgeirsson, C. Bauer and S. Grimme, Chem. Sci., 2017, 8, 4879.
     DOI: 10.1039/c7sc00601b
   * J. Koopman and S. Grimme, ACS Omega 2019, 4, 12, 15120-15133.
     DOI: 10.1021/acsomega.9b02011
   
   for metadynamics refer to:
   * S. Grimme, J. Chem. Theory Comput., 2019, 155, 2847-2862
     DOI: 10.1021/acs.jctc.9b00143
   
   for SPH calculations refer to:
   * S. Spicher and S. Grimme, J. Chem. Theory Comput., 2021, 17, 1701-1714
     DOI: 10.1021/acs.jctc.0c01306
   
   with help from (in alphabetical order)
   P. Atkinson, C. Bannwarth, F. Bohle, G. Brandenburg, E. Caldeweyher
   M. Checinski, S. Dohm, S. Ehlert, S. Ehrlich, I. Gerasimov, J. Koopman
   C. Lavigne, S. Lehtola, F. März, M. Müller, F. Musil, H. Neugebauer
   J. Pisarek, C. Plett, P. Pracht, J. Seibert, P. Shushkov, S. Spicher
   M. Stahn, M. Steiner, T. Strunk, J. Stückrath, T. Rose, and J. Unsleber
   
 * started run on 2021/11/21 at 07:50:32.138     

           -------------------------------------------------
          |                Calculation Setup                |
           -------------------------------------------------

          program call               : /home/jeff/miniconda3/bin/xtb input_structure_1.xyz --gfn 2 --ohess normal --parallel 1 --etemp 300 --chrg 0 --uhf 0 -I det_control.in
          hostname                   : jelfscompute1
          coordinate file            : input_structure_1.xyz
          omp threads                :                     1
          number of atoms            :                   332
          number of electrons        :                  1066
          charge                     :                     0
          spin                       :                   0.0
          first test random number   :      0.75307355938390

   ID    Z sym.   atoms
    1    6 C      1-8, 10-14, 16-20, 22, 23, 38-45, 47-51, 53-57, 59, 60,
                  75-124, 126-130, 132-136, 138, 139, 153-160, 162-166,
                  168-172, 174, 175, 189-196, 198-202, 204-208, 210, 211,
                  225-232, 234-238, 240-244, 246, 247, 261-268, 270-274,
                  276-280, 282, 283, 297-304, 306-310, 312-316, 318, 319
    2    7 N      9, 15, 21, 24, 46, 52, 58, 61, 125, 131, 137, 140, 161,
                  167, 173, 176, 197, 203, 209, 212, 233, 239, 245, 248, 269,
                  275, 281, 284, 305, 311, 317, 320
    3    1 H      25-37, 62-74, 141-152, 177-188, 213-224, 249-260, 285-296,
                  321-332

molecular fragmentation (1/2 indicates fragments):
111111111111111111111111111111111111122222222222222222222222222222222222
222222222222222222222222222222222222222222222222222222222222222222222222
222222222222222222222222222222222222222222222222222222222222222222222222
222222222222222222222222222222222222222222222222222222222222222222222222
22222222222222222222222222222222222222222222
# atoms in fragment 1/2:    37   295
 fragment masses (1/2) :      309.34     2663.82
CMA distance (Bohr)    : 118.799
constraining FC (au)   :  0.0500

           -------------------------------------------------
          |                 G F N 2 - x T B                 |
           -------------------------------------------------

        Reference                      10.1021/acs.jctc.8b01176
      * Hamiltonian:
        H0-scaling (s, p, d)           1.850000    2.230000    2.230000
        zeta-weighting                 0.500000
      * Dispersion:
        s8                             2.700000
        a1                             0.520000
        a2                             5.000000
        s9                             5.000000
      * Repulsion:
        kExp                           1.500000    1.000000
        rExp                           1.000000
      * Coulomb:
        alpha                          2.000000
        third order                    shell-resolved
        anisotropic                    true
        a3                             3.000000
        a5                             4.000000
        cn-shift                       1.200000
        cn-exp                         4.000000
        max-rad                        5.000000


          ...................................................
          :                      SETUP                      :
          :.................................................:
          :  # basis functions                1034          :
          :  # atomic orbitals                1034          :
          :  # shells                          566          :
          :  # electrons                      1066          :
          :  max. iterations                   250          :
          :  Hamiltonian                  GFN2-xTB          :
          :  restarted?                      false          :
          :  GBSA solvation                  false          :
          :  PC potential                    false          :
          :  electronic temp.          300.0000000     K    :
          :  accuracy                    1.0000000          :
          :  -> integral cutoff          0.2500000E+02      :
          :  -> integral neglect         0.1000000E-07      :
          :  -> SCF convergence          0.1000000E-05 Eh   :
          :  -> wf. convergence          0.1000000E-03 e    :
          :  Broyden damping             0.4000000          :
          ...................................................

 iter      E             dE          RMSdq      gap      omega  full diag
   1   -583.1470336 -0.583147E+03  0.615E+00    0.07       0.0  T
   2   -542.3673458  0.407797E+02  0.543E+00    0.09       1.0  T
   3   -127.2704225  0.415097E+03  0.119E+01    0.06       1.0  T
   4   -175.8429189 -0.485725E+02  0.113E+01    0.05       1.0  T
   5   -543.4380505 -0.367595E+03  0.489E+00    0.04       1.0  T
   6   -565.8463736 -0.224083E+02  0.362E+00    0.07       1.0  T
   7   -551.8192485  0.140271E+02  0.383E+00    0.01       1.0  T
   8   -578.6288870 -0.268096E+02  0.250E+00    0.01       1.0  T
   9   -580.9540929 -0.232521E+01  0.223E+00    0.04       1.0  T
  10   -582.2482102 -0.129412E+01  0.190E+00    0.12       1.0  T
  11   -583.4946648 -0.124645E+01  0.159E+00    0.06       1.0  T
  12   -583.8902838 -0.395619E+00  0.142E+00    0.05       1.0  T
  13   -584.4215292 -0.531245E+00  0.126E+00    0.12       1.0  T
  14   -584.3773039  0.442253E-01  0.107E+00    0.08       1.0  T
  15   -584.2666746  0.110629E+00  0.104E+00    0.03       1.0  T
  16   -583.1978810  0.106879E+01  0.116E+00    0.01       1.0  T
  17   -584.7387672 -0.154089E+01  0.655E-01    0.12       1.0  T
  18   -583.8781775  0.860590E+00  0.925E-01    0.11       1.0  T
  19   -584.8539937 -0.975816E+00  0.479E-01    0.15       1.0  T
  20   -584.8803526 -0.263589E-01  0.390E-01    0.15       1.0  T
  21   -584.5713327  0.309020E+00  0.554E-01    0.02       1.0  T
  22   -584.9079395 -0.336607E+00  0.297E-01    0.16       1.0  T
  23   -584.9211568 -0.132173E-01  0.268E-01    0.10       1.0  T
  24   -584.9142910  0.686587E-02  0.252E-01    0.18       1.0  T
  25   -584.9422268 -0.279359E-01  0.181E-01    0.14       1.0  T
  26   -584.9501897 -0.796281E-02  0.155E-01    0.11       1.0  T
  27   -584.9618044 -0.116147E-01  0.117E-01    0.09       1.0  T
  28   -584.9498376  0.119668E-01  0.127E-01    0.04       1.0  T
  29   -584.9550009 -0.516329E-02  0.114E-01    0.04       1.0  T
  30   -584.9635883 -0.858737E-02  0.650E-02    0.06       1.0  T
  31   -584.9587528  0.483548E-02  0.790E-02    0.05       1.0  T
  32   -584.9625594 -0.380659E-02  0.596E-02    0.06       1.0  T
  33   -584.9657160 -0.315661E-02  0.390E-02    0.07       1.0  T
  34   -584.9655661  0.149915E-03  0.421E-02    0.08       1.0  T
  35   -584.9659270 -0.360950E-03  0.369E-02    0.08       1.0  T
  36   -584.9664925 -0.565478E-03  0.240E-02    0.07       1.0  T
  37   -584.9665355 -0.430382E-04  0.229E-02    0.07       1.0  T
  38   -584.9665750 -0.394305E-04  0.231E-02    0.08       1.0  T
  39   -584.9666313 -0.563289E-04  0.209E-02    0.08       1.0  T
  40   -584.9666034  0.278649E-04  0.204E-02    0.08       1.0  T
  41   -584.9666774 -0.739955E-04  0.173E-02    0.08       1.0  T
  42   -584.9666942 -0.168367E-04  0.159E-02    0.08       1.0  T
  43   -584.9667158 -0.215514E-04  0.142E-02    0.08       1.0  T
  44   -584.9667232 -0.744468E-05  0.133E-02    0.08       1.0  T
  45   -584.9667710 -0.477931E-04  0.108E-02    0.08       1.0  T
  46   -584.9668500 -0.789265E-04  0.351E-03    0.08       1.6  T
  47   -584.9668563 -0.634886E-05  0.949E-04    0.08       5.8  T
  48   -584.9668565 -0.216656E-06  0.697E-04    0.08       7.9  T
  49   -584.9668565  0.779127E-07  0.672E-04    0.08       8.2  T

   *** convergence criteria satisfied after 49 iterations ***

         #    Occupation            Energy/Eh            Energy/eV
      -------------------------------------------------------------
         1        2.0000           -0.6937646             -18.8783
       ...           ...                  ...                  ...
       527        2.0000           -0.3503369              -9.5332
       528        2.0000           -0.3458027              -9.4098
       529        2.0000           -0.3447529              -9.3812
       530        2.0000           -0.3447410              -9.3809
       531        1.9999           -0.3408555              -9.2751
       532        1.9842           -0.3357922              -9.1374
       533        1.4789           -0.3321897              -9.0393 (HOMO)
       534        0.2685           -0.3294279              -8.9642 (LUMO)
       535        0.2667           -0.3294205              -8.9640
       536        0.0018           -0.3245532              -8.8315
       537        0.0000           -0.3194595              -8.6929
       538                         -0.3146470              -8.5620
       ...                                ...                  ...
      1034                          2.0175381              54.9000
      -------------------------------------------------------------
                  HL-Gap            0.0027618 Eh            0.0752 eV
             Fermi-level           -0.3311988 Eh           -9.0124 eV

 SCC (total)                   0 d,  0 h,  0 min, 19.419 sec
 SCC setup                      ...        0 min,  0.020 sec (  0.101%)
 Dispersion                     ...        0 min,  0.039 sec (  0.200%)
 classical contributions        ...        0 min,  0.003 sec (  0.015%)
 integral evaluation            ...        0 min,  0.274 sec (  1.410%)
 iterations                     ...        0 min, 18.400 sec ( 94.751%)
 molecular gradient             ...        0 min,  0.634 sec (  3.264%)
 printout                       ...        0 min,  0.050 sec (  0.260%)

         :::::::::::::::::::::::::::::::::::::::::::::::::::::
         ::                     SUMMARY                     ::
         :::::::::::::::::::::::::::::::::::::::::::::::::::::
         :: total energy            -572.546310810556 Eh    ::
         :: gradient norm              1.932091976409 Eh/a0 ::
         :: HOMO-LUMO gap              0.075152128243 eV    ::
         ::.................................................::
         :: SCC energy              -584.966856452545 Eh    ::
         :: -> isotropic ES            0.313577348657 Eh    ::
         :: -> anisotropic ES         -0.020255626795 Eh    ::
         :: -> anisotropic XC          0.455524017387 Eh    ::
         :: -> dispersion             -0.456932294603 Eh    ::
         :: repulsion energy          12.424850449459 Eh    ::
         :: add. restraining           0.000000000000 Eh    ::
         :: total charge              -0.000000000025 e     ::
         :::::::::::::::::::::::::::::::::::::::::::::::::::::

      ----------------------------------------------------------- 
     |                   =====================                   |
     |                        A N C O P T                        |
     |                   =====================                   |
     |               Approximate Normal Coordinate               |
     |                Rational Function Optimizer                |
      ----------------------------------------------------------- 

          ...................................................
          :                      SETUP                      :
          :.................................................:
          :   optimization level            normal          :
          :   max. optcycles                   996          :
          :   ANC micro-cycles                  20          :
          :   degrees of freedom               990          :
          :.................................................:
          :   RF solver                   davidson          :
          :   write xtbopt.log                true          :
          :   linear?                        false          :
          :   energy convergence         0.5000000E-05 Eh   :
          :   grad. convergence          0.1000000E-02 Eh/α :
          :   maximium RF displ.         1.0000000          :
          :   Hlow (freq-cutoff)         0.1000000E-01      :
          :   Hmax (freq-cutoff)         5.0000000          :
          :   S6 in model hess.         20.0000000          :
          ...................................................

generating ANC from model Hessian ...
Using Lindh-Hessian (1995)
 Shifting diagonal of input Hessian by    1.0167710251867646E-002
 Lowest  eigenvalues of input Hessian
    0.010000    0.010025    0.010154    0.010155    0.010156    0.010157
    0.010158    0.010166    0.010166    0.010166    0.010166    0.010167
    0.010167    0.010167    0.000000    0.000000    0.000000    0.000000
 Highest eigenvalues
    3.328866    3.334022    3.334022    3.334024    3.334025    3.334025


........................................................................
.............................. CYCLE    1 ..............................
........................................................................
   1   -584.9668567 -0.584967E+03  0.488E-04    0.08       0.0  T
   2   -584.9666567  0.200015E-03  0.125E-02    0.07       1.0  T
   3   -584.9668564 -0.199668E-03  0.773E-04    0.08       7.1  T
   4   -584.9668560  0.343375E-06  0.952E-04    0.07       5.8  T
   5   -584.9668570 -0.953653E-06  0.158E-04    0.07      34.8  T
     SCC iter.                  ...        0 min,  1.906 sec
     gradient                   ...        0 min,  0.637 sec
 * total energy  :  -572.5463113 Eh     change       -0.5077837E-06 Eh
   gradient norm :     1.9320957 Eh/α   predicted     0.0000000E+00 (-100.00%)
   displ. norm   :     0.6432254 α      lambda       -0.1159388E+01
   maximum displ.:     0.2296974 α      in ANC's #790, #972, #620, ...

........................................................................
.............................. CYCLE    2 ..............................
........................................................................
   1   -585.1543239 -0.585154E+03  0.309E-01    0.15       0.0  T
   2   -583.9196265  0.123470E+01  0.110E+00    0.14       1.0  T
   3   -585.0968025 -0.117718E+01  0.358E-01    0.27       1.0  T
   4   -585.1700012 -0.731987E-01  0.217E-01    0.12       1.0  T
   5   -584.9897801  0.180221E+00  0.571E-01    0.14       1.0  T
   6   -585.0539628 -0.641827E-01  0.331E-01    0.02       1.0  T
   7   -584.5414900  0.512473E+00  0.714E-01    0.11       1.0  T
   8   -585.1591793 -0.617689E+00  0.169E-01    0.05       1.0  T
   9   -585.1748254 -0.156461E-01  0.109E-01    0.08       1.0  T
  10   -585.1829215 -0.809615E-02  0.672E-02    0.09       1.0  T
  11   -585.1854480 -0.252642E-02  0.488E-02    0.09       1.0  T
  12   -585.1876863 -0.223831E-02  0.113E-02    0.08       1.0  T
  13   -585.1870924  0.593896E-03  0.232E-02    0.07       1.0  T
  14   -585.1877408 -0.648435E-03  0.712E-03    0.08       1.0  T
  15   -585.1877785 -0.377136E-04  0.324E-03    0.08       1.7  T
  16   -585.1877643  0.142466E-04  0.448E-03    0.08       1.2  T
  17   -585.1877748 -0.105231E-04  0.362E-03    0.08       1.5  T
  18   -585.1877764 -0.165001E-05  0.298E-03    0.08       1.8  T
  19   -585.1877798 -0.340077E-05  0.212E-03    0.08       2.6  T
  20   -585.1877841 -0.423847E-05  0.989E-04    0.08       5.5  T
  21   -585.1877845 -0.398693E-06  0.723E-04    0.08       7.6  T
  22   -585.1877850 -0.553802E-06  0.265E-04    0.08      20.7  T
     SCC iter.                  ...        0 min,  8.273 sec
     gradient                   ...        0 min,  0.639 sec
 * total energy  :  -573.3598144 Eh     change       -0.8135031E+00 Eh
   gradient norm :     0.8189602 Eh/α   predicted    -0.8195405E+00 (   0.74%)
   displ. norm   :     0.6280403 α      lambda       -0.4501542E+00
   maximum displ.:     0.1888861 α      in ANC's #620, #790, #481, ...

........................................................................
.............................. CYCLE    3 ..............................
........................................................................
   1   -585.3728166 -0.585373E+03  0.246E-01    0.09       0.0  T
   2   -584.6269703  0.745846E+00  0.833E-01    0.07       1.0  T
   3   -585.3255493 -0.698579E+00  0.334E-01    0.21       1.0  T
   4   -585.2953268  0.302225E-01  0.354E-01    0.12       1.0  T
   5   -585.1804564  0.114870E+00  0.421E-01    0.03       1.0  T
   6   -584.6772177  0.503239E+00  0.815E-01    0.11       1.0  T
   7   -585.3495907 -0.672373E+00  0.247E-01    0.07       1.0  T
   8   -585.1981997  0.151391E+00  0.360E-01    0.02       1.0  T
   9   -585.3663611 -0.168161E+00  0.156E-01    0.11       1.0  T
  10   -585.3747032 -0.834210E-02  0.108E-01    0.09       1.0  T
  11   -585.3809517 -0.624853E-02  0.644E-02    0.08       1.0  T
  12   -585.3830528 -0.210112E-02  0.225E-02    0.07       1.0  T
  13   -585.3825566  0.496166E-03  0.264E-02    0.06       1.0  T
  14   -585.3830287 -0.472007E-03  0.184E-02    0.06       1.0  T
  15   -585.3830492 -0.205771E-04  0.175E-02    0.06       1.0  T
  16   -585.3833325 -0.283251E-03  0.807E-03    0.07       1.0  T
  17   -585.3833703 -0.378101E-04  0.545E-03    0.07       1.0  T
  18   -585.3833869 -0.165605E-04  0.382E-03    0.07       1.4  T
  19   -585.3833999 -0.130045E-04  0.191E-03    0.07       2.9  T
  20   -585.3834028 -0.290621E-05  0.889E-04    0.07       6.2  T
  21   -585.3834034 -0.663765E-06  0.427E-04    0.07      12.9  T
  22   -585.3834036 -0.155145E-06  0.219E-04    0.07      25.1  T
     SCC iter.                  ...        0 min,  8.294 sec
     gradient                   ...        0 min,  0.641 sec
 * total energy  :  -573.7014770 Eh     change       -0.3416626E+00 Eh
   gradient norm :     0.3938257 Eh/α   predicted    -0.3138553E+00 (  -8.14%)
   displ. norm   :     0.6644765 α      lambda       -0.2211207E+00
   maximum displ.:     0.1871475 α      in ANC's #513, #620, #481, ...

........................................................................
.............................. CYCLE    4 ..............................
........................................................................
   1   -585.5904019 -0.585590E+03  0.228E-01    0.10       0.0  T
   2   -584.5062632  0.108414E+01  0.992E-01    0.14       1.0  T
   3   -585.5737795 -0.106752E+01  0.247E-01    0.13       1.0  T
   4   -585.5045211  0.692584E-01  0.372E-01    0.09       1.0  T
   5   -585.1917202  0.312801E+00  0.582E-01    0.09       1.0  T
   6   -584.9951495  0.196571E+00  0.747E-01    0.10       1.0  T
   7   -585.5751178 -0.579968E+00  0.203E-01    0.08       1.0  T
   8   -585.5635722  0.115457E-01  0.195E-01    0.05       1.0  T
   9   -585.5856220 -0.220498E-01  0.155E-01    0.09       1.0  T
  10   -585.5849034  0.718562E-03  0.133E-01    0.07       1.0  T
  11   -585.6002149 -0.153115E-01  0.504E-02    0.08       1.0  T
  12   -585.6018305 -0.161557E-02  0.179E-02    0.06       1.0  T
  13   -585.6019207 -0.902414E-04  0.127E-02    0.06       1.0  T
  14   -585.6018553  0.654089E-04  0.135E-02    0.06       1.0  T
  15   -585.6020279 -0.172568E-03  0.635E-03    0.06       1.0  T
  16   -585.6020660 -0.380743E-04  0.300E-03    0.07       1.8  T
  17   -585.6020741 -0.818719E-05  0.142E-03    0.07       3.9  T
  18   -585.6020762 -0.202834E-05  0.460E-04    0.07      11.9  T
  19   -585.6020762  0.777391E-08  0.492E-04    0.07      11.1  T
  20   -585.6020763 -0.139683E-06  0.183E-04    0.07      30.0  T
     SCC iter.                  ...        0 min,  7.520 sec
     gradient                   ...        0 min,  0.638 sec
 * total energy  :  -573.8649369 Eh     change       -0.1634599E+00 Eh
   gradient norm :     0.1782252 Eh/α   predicted    -0.1593760E+00 (  -2.50%)
   displ. norm   :     0.7446739 α      lambda       -0.1097854E+00
   maximum displ.:     0.2614963 α      in ANC's #216, #127, #89, ...

........................................................................
.............................. CYCLE    5 ..............................
........................................................................
   1   -585.7036181 -0.585704E+03  0.210E-01    0.14       0.0  T
   2   -584.4889726  0.121465E+01  0.105E+00    0.14       1.0  T
   3   -585.7147819 -0.122581E+01  0.133E-01    0.09       1.0  T
   4   -585.6236487  0.911332E-01  0.340E-01    0.03       1.0  T
   5   -585.1380584  0.485590E+00  0.666E-01    0.10       1.0  T
   6   -585.4681786 -0.330120E+00  0.479E-01    0.03       1.0  T
   7   -585.7012253 -0.233047E+00  0.161E-01    0.13       1.0  T
   8   -585.6972814  0.394388E-02  0.128E-01    0.08       1.0  T
   9   -585.7123872 -0.151058E-01  0.820E-02    0.09       1.0  T
  10   -585.7172490 -0.486183E-02  0.406E-02    0.08       1.0  T
  11   -585.7184484 -0.119945E-02  0.198E-02    0.08       1.0  T
  12   -585.7188620 -0.413551E-03  0.116E-02    0.08       1.0  T
  13   -585.7188981 -0.361514E-04  0.896E-03    0.08       1.0  T
  14   -585.7189715 -0.734065E-04  0.338E-03    0.07       1.6  T
  15   -585.7189816 -0.100299E-04  0.186E-03    0.07       2.9  T
  16   -585.7189820 -0.474265E-06  0.146E-03    0.07       3.8  T
  17   -585.7189828 -0.782627E-06  0.991E-04    0.07       5.5  T
  18   -585.7189833 -0.444406E-06  0.479E-04    0.07      11.5  T
     SCC iter.                  ...        0 min,  6.791 sec
     gradient                   ...        0 min,  0.636 sec
 * total energy  :  -573.9548275 Eh     change       -0.8989054E-01 Eh
   gradient norm :     0.1193062 Eh/α   predicted    -0.8533328E-01 (  -5.07%)
   displ. norm   :     0.8229332 α      lambda       -0.7730254E-01
   maximum displ.:     0.2891932 α      in ANC's #216, #89, #127, ...

........................................................................
.............................. CYCLE    6 ..............................
........................................................................
   1   -585.7352640 -0.585735E+03  0.193E-01    0.17       0.0  T
   2   -584.4928269  0.124244E+01  0.104E+00    0.14       1.0  T
   3   -585.7440776 -0.125125E+01  0.123E-01    0.11       1.0  T
   4   -585.6365767  0.107501E+00  0.426E-01    0.09       1.0  T
   5   -585.5474302  0.891465E-01  0.378E-01    0.03       1.0  T
   6   -585.2624048  0.285025E+00  0.604E-01    0.08       1.0  T
   7   -585.7411615 -0.478757E+00  0.824E-02    0.11       1.0  T
   8   -585.7437227 -0.256115E-02  0.836E-02    0.12       1.0  T
   9   -585.7446697 -0.947055E-03  0.560E-02    0.09       1.0  T
  10   -585.7482964 -0.362666E-02  0.280E-02    0.09       1.0  T
  11   -585.7488462 -0.549798E-03  0.163E-02    0.09       1.0  T
  12   -585.7491631 -0.316880E-03  0.741E-03    0.09       1.0  T
  13   -585.7491828 -0.197078E-04  0.429E-03    0.09       1.3  T
  14   -585.7491778  0.493218E-05  0.394E-03    0.09       1.4  T
  15   -585.7491830 -0.520301E-05  0.334E-03    0.09       1.6  T
  16   -585.7491867 -0.361751E-05  0.281E-03    0.09       2.0  T
  17   -585.7491938 -0.709756E-05  0.153E-03    0.09       3.6  T
  18   -585.7491963 -0.251101E-05  0.618E-04    0.09       8.9  T
  19   -585.7491965 -0.223448E-06  0.429E-04    0.09      12.8  T
  20   -585.7491966 -0.146355E-06  0.250E-04    0.09      22.0  T
     SCC iter.                  ...        0 min,  7.521 sec
     gradient                   ...        0 min,  0.638 sec
 * total energy  :  -574.0220952 Eh     change       -0.6726772E-01 Eh
   gradient norm :     0.0874955 Eh/α   predicted    -0.6482665E-01 (  -3.63%)
   displ. norm   :     0.8750014 α      lambda       -0.6159690E-01
   maximum displ.:     0.3245854 α      in ANC's #89, #127, #216, ...

........................................................................
.............................. CYCLE    7 ..............................
........................................................................
   1   -585.7270020 -0.585727E+03  0.171E-01    0.20       0.0  T
   2   -584.4750723  0.125193E+01  0.100E+00    0.13       1.0  T
   3   -585.7211129 -0.124604E+01  0.184E-01    0.15       1.0  T
   4   -585.6808818  0.402311E-01  0.306E-01    0.18       1.0  T
   5   -585.7276962 -0.468144E-01  0.950E-02    0.07       1.0  T
   6   -585.7363042 -0.860796E-02  0.318E-02    0.10       1.0  T
   7   -585.6939912  0.423129E-01  0.171E-01    0.04       1.0  T
   8   -585.7372513 -0.432600E-01  0.163E-02    0.11       1.0  T
   9   -585.7368929  0.358327E-03  0.218E-02    0.10       1.0  T
  10   -585.7373244 -0.431498E-03  0.106E-02    0.10       1.0  T
  11   -585.7373048  0.196407E-04  0.997E-03    0.10       1.0  T
  12   -585.7373352 -0.303919E-04  0.689E-03    0.10       1.0  T
  13   -585.7373782 -0.429887E-04  0.309E-03    0.11       1.8  T
  14   -585.7373828 -0.466679E-05  0.182E-03    0.11       3.0  T
  15   -585.7373835 -0.624104E-06  0.107E-03    0.11       5.1  T
  16   -585.7373839 -0.455003E-06  0.590E-04    0.11       9.3  T
  17   -585.7373841 -0.212149E-06  0.433E-04    0.11      12.7  T
     SCC iter.                  ...        0 min,  6.413 sec
     gradient                   ...        0 min,  0.635 sec
 * total energy  :  -574.0779446 Eh     change       -0.5584945E-01 Eh
   gradient norm :     0.0666100 Eh/α   predicted    -0.5437860E-01 (  -2.63%)
   displ. norm   :     0.9147160 α      lambda       -0.5325846E-01
   maximum displ.:     0.3832718 α      in ANC's #89, #127, #81, ...

........................................................................
.............................. CYCLE    8 ..............................
........................................................................
   1   -585.7058459 -0.585706E+03  0.165E-01    0.26       0.0  T
   2   -584.5384526  0.116739E+01  0.925E-01    0.13       1.0  T
   3   -585.6829464 -0.114449E+01  0.246E-01    0.24       1.0  T
   4   -585.6913947 -0.844833E-02  0.198E-01    0.24       1.0  T
   5   -585.7116789 -0.202842E-01  0.644E-02    0.17       1.0  T
   6   -585.7124665 -0.787634E-03  0.361E-02    0.16       1.0  T
   7   -585.7120015  0.465071E-03  0.358E-02    0.13       1.0  T
   8   -585.7129898 -0.988351E-03  0.248E-02    0.14       1.0  T
   9   -585.7136340 -0.644153E-03  0.133E-02    0.15       1.0  T
  10   -585.7136414 -0.745373E-05  0.128E-02    0.14       1.0  T
  11   -585.7137164 -0.749624E-04  0.754E-03    0.13       1.0  T
  12   -585.7137338 -0.173549E-04  0.481E-03    0.13       1.1  T
  13   -585.7137538 -0.200539E-04  0.192E-03    0.14       2.9  T
  14   -585.7137554 -0.160596E-05  0.728E-04    0.14       7.5  T
  15   -585.7137557 -0.293124E-06  0.379E-04    0.14      14.5  T
  16   -585.7137559 -0.148642E-06  0.169E-04    0.14      32.5  T
     SCC iter.                  ...        0 min,  6.038 sec
     gradient                   ...        0 min,  0.637 sec
 * total energy  :  -574.1280211 Eh     change       -0.5007649E-01 Eh
   gradient norm :     0.0573748 Eh/α   predicted    -0.4891010E-01 (  -2.33%)
   displ. norm   :     0.9501904 α      lambda       -0.4987511E-01
   maximum displ.:     0.4152137 α      in ANC's #89, #127, #81, ...

........................................................................
.............................. CYCLE    9 ..............................
........................................................................
   1   -585.6821774 -0.585682E+03  0.175E-01    0.35       0.0  T
   2   -585.5383764  0.143801E+00  0.359E-01    0.03       1.0  T
   3   -585.6737735 -0.135397E+00  0.154E-01    0.47       1.0  T
   4   -585.6734167  0.356786E-03  0.170E-01    0.38       1.0  T
   5   -585.6824892 -0.907248E-02  0.903E-02    0.45       1.0  T
   6   -585.6864557 -0.396654E-02  0.463E-02    0.34       1.0  T
   7   -585.6870545 -0.598808E-03  0.398E-02    0.32       1.0  T
   8   -585.6873093 -0.254833E-03  0.357E-02    0.31       1.0  T
   9   -585.6876455 -0.336124E-03  0.301E-02    0.28       1.0  T
  10   -585.6879316 -0.286116E-03  0.210E-02    0.26       1.0  T
  11   -585.6881741 -0.242478E-03  0.144E-02    0.24       1.0  T
  12   -585.6883854 -0.211356E-03  0.392E-03    0.19       1.4  T
  13   -585.6883744  0.109710E-04  0.484E-03    0.19       1.1  T
  14   -585.6883983 -0.238457E-04  0.151E-03    0.19       3.6  T
  15   -585.6883990 -0.682690E-06  0.106E-03    0.20       5.2  T
  16   -585.6883995 -0.565627E-06  0.603E-04    0.20       9.1  T
  17   -585.6883998 -0.216777E-06  0.242E-04    0.20      22.7  T
     SCC iter.                  ...        0 min,  6.414 sec
     gradient                   ...        0 min,  0.635 sec
 * total energy  :  -574.1768862 Eh     change       -0.4886512E-01 Eh
   gradient norm :     0.0596501 Eh/α   predicted    -0.4745275E-01 (  -2.89%)
   displ. norm   :     0.9826015 α      lambda       -0.5126055E-01
   maximum displ.:     0.4166550 α      in ANC's #89, #127, #81, ...

........................................................................
.............................. CYCLE   10 ..............................
........................................................................
   1   -585.6537229 -0.585654E+03  0.195E-01    0.51       0.0  T
   2   -585.6334043  0.203186E-01  0.235E-01    0.36       1.0  T
   3   -585.6499343 -0.165301E-01  0.157E-01    0.45       1.0  T
   4   -585.6563995 -0.646524E-02  0.684E-02    0.50       1.0  T
   5   -585.6578137 -0.141412E-02  0.414E-02    0.42       1.0  T
   6   -585.6585103 -0.696622E-03  0.704E-03    0.44       1.0  T
   7   -585.6585205 -0.102284E-04  0.513E-03    0.44       1.1  T
   8   -585.6585245 -0.393737E-05  0.394E-03    0.44       1.4  T
   9   -585.6585291 -0.465701E-05  0.190E-03    0.44       2.9  T
  10   -585.6585304 -0.129203E-05  0.636E-04    0.44       8.6  T
  11   -585.6585305 -0.135389E-06  0.308E-04    0.44      17.8  T
  12   -585.6585306 -0.165745E-07  0.195E-04    0.44      28.1  T
     SCC iter.                  ...        0 min,  4.525 sec
     gradient                   ...        0 min,  0.635 sec
 * total energy  :  -574.2289199 Eh     change       -0.5203368E-01 Eh
   gradient norm :     0.0686772 Eh/α   predicted    -0.5037648E-01 (  -3.18%)
   displ. norm   :     0.9739308 α      lambda       -0.5335016E-01
   maximum displ.:     0.3947225 α      in ANC's #89, #127, #81, ...

........................................................................
.............................. CYCLE   11 ..............................
........................................................................
   1   -585.6266767 -0.585627E+03  0.182E-01    0.58       0.0  T
   2   -585.6206735  0.600316E-02  0.157E-01    0.57       1.0  T
   3   -585.6227931 -0.211958E-02  0.143E-01    0.58       1.0  T
   4   -585.6291308 -0.633765E-02  0.379E-02    0.58       1.0  T
   5   -585.6291754 -0.446904E-04  0.262E-02    0.58       1.0  T
   6   -585.6295041 -0.328637E-03  0.582E-03    0.58       1.0  T
   7   -585.6295164 -0.122898E-04  0.326E-03    0.58       1.7  T
   8   -585.6295191 -0.271862E-05  0.177E-03    0.58       3.1  T
   9   -585.6295196 -0.514327E-06  0.110E-03    0.58       5.0  T
  10   -585.6295200 -0.402920E-06  0.551E-04    0.58      10.0  T
  11   -585.6295201 -0.835647E-07  0.278E-04    0.58      19.7  T
     SCC iter.                  ...        0 min,  4.169 sec
     gradient                   ...        0 min,  0.638 sec
 * total energy  :  -574.2841114 Eh     change       -0.5519150E-01 Eh
   gradient norm :     0.0844130 Eh/α   predicted    -0.5197753E-01 (  -5.82%)
   displ. norm   :     0.9525395 α      lambda       -0.5768069E-01
   maximum displ.:     0.3591065 α      in ANC's #89, #38, #81, ...

........................................................................
.............................. CYCLE   12 ..............................
........................................................................
   1   -585.6020870 -0.585602E+03  0.163E-01    0.60       0.0  T
   2   -585.6000896  0.199734E-02  0.126E-01    0.60       1.0  T
   3   -585.5999640  0.125616E-03  0.114E-01    0.60       1.0  T
   4   -585.6038198 -0.385584E-02  0.263E-02    0.60       1.0  T
   5   -585.6038768 -0.570014E-04  0.125E-02    0.60       1.0  T
   6   -585.6039547 -0.778860E-04  0.556E-03    0.60       1.0  T
   7   -585.6039670 -0.122579E-04  0.244E-03    0.60       2.2  T
   8   -585.6039679 -0.883301E-06  0.137E-03    0.60       4.0  T
   9   -585.6039682 -0.349937E-06  0.582E-04    0.60       9.4  T
  10   -585.6039683 -0.106708E-06  0.319E-04    0.60      17.2  T
     SCC iter.                  ...        0 min,  3.809 sec
     gradient                   ...        0 min,  0.633 sec
 * total energy  :  -574.3437187 Eh     change       -0.5960727E-01 Eh
   gradient norm :     0.0986191 Eh/α   predicted    -0.5500811E-01 (  -7.72%)
   displ. norm   :     0.9307450 α      lambda       -0.6168548E-01
   maximum displ.:     0.3277467 α      in ANC's #89, #38, #104, ...

........................................................................
.............................. CYCLE   13 ..............................
........................................................................
   1   -585.5865854 -0.585587E+03  0.131E-01    0.62       0.0  T
   2   -585.5855413  0.104407E-02  0.108E-01    0.62       1.0  T
   3   -585.5858648 -0.323499E-03  0.796E-02    0.62       1.0  T
   4   -585.5875282 -0.166344E-02  0.248E-02    0.62       1.0  T
   5   -585.5876472 -0.118971E-03  0.141E-02    0.62       1.0  T
   6   -585.5877611 -0.113916E-03  0.442E-03    0.62       1.2  T
   7   -585.5877655 -0.437762E-05  0.226E-03    0.62       2.4  T
   8   -585.5877664 -0.951081E-06  0.112E-03    0.62       4.9  T
   9   -585.5877666 -0.171605E-06  0.521E-04    0.62      10.5  T
  10   -585.5877667 -0.839397E-07  0.197E-04    0.62      27.8  T
     SCC iter.                  ...        0 min,  3.787 sec
     gradient                   ...        0 min,  0.639 sec
 * total energy  :  -574.4066673 Eh     change       -0.6294856E-01 Eh
   gradient norm :     0.1075194 Eh/α   predicted    -0.5756142E-01 (  -8.56%)
   displ. norm   :     0.9134535 α      lambda       -0.6250224E-01
   maximum displ.:     0.3111635 α      in ANC's #89, #38, #104, ...

........................................................................
.............................. CYCLE   14 ..............................
........................................................................
   1   -585.5809951 -0.585581E+03  0.106E-01    0.64       0.0  T
   2   -585.5798146  0.118054E-02  0.105E-01    0.64       1.0  T
   3   -585.5815095 -0.169488E-02  0.515E-02    0.64       1.0  T
   4   -585.5816109 -0.101428E-03  0.241E-02    0.64       1.0  T
   5   -585.5818513 -0.240440E-03  0.988E-03    0.64       1.0  T
   6   -585.5819000 -0.486251E-04  0.362E-03    0.64       1.5  T
   7   -585.5819021 -0.212016E-05  0.209E-03    0.64       2.6  T
   8   -585.5819028 -0.682434E-06  0.983E-04    0.64       5.6  T
   9   -585.5819030 -0.214999E-06  0.480E-04    0.64      11.4  T
     SCC iter.                  ...        0 min,  3.397 sec
     gradient                   ...        0 min,  0.638 sec
 * total energy  :  -574.4639762 Eh     change       -0.5730890E-01 Eh
   gradient norm :     0.1000659 Eh/α   predicted    -0.5732701E-01 (   0.03%)
   displ. norm   :     0.8677241 α      lambda       -0.6202513E-01
   maximum displ.:     0.2791410 α      in ANC's #38, #104, #89, ...

........................................................................
.............................. CYCLE   15 ..............................
........................................................................
   1   -585.6826747 -0.585683E+03  0.129E-01    0.59       0.0  T
   2   -585.6811317  0.154294E-02  0.117E-01    0.60       1.0  T
   3   -585.6824997 -0.136800E-02  0.669E-02    0.60       1.0  T
   4   -585.6834060 -0.906246E-03  0.261E-02    0.60       1.0  T
   5   -585.6836814 -0.275420E-03  0.993E-03    0.60       1.0  T
   6   -585.6837265 -0.451369E-04  0.315E-03    0.60       1.7  T
   7   -585.6837284 -0.182978E-05  0.180E-03    0.60       3.0  T
   8   -585.6837288 -0.387074E-06  0.100E-03    0.60       5.5  T
   9   -585.6837291 -0.303913E-06  0.375E-04    0.60      14.6  T
     SCC iter.                  ...        0 min,  3.393 sec
     gradient                   ...        0 min,  0.637 sec
 * total energy  :  -574.5100832 Eh     change       -0.4610706E-01 Eh
   gradient norm :     0.0976559 Eh/α   predicted    -0.5436357E-01 (  17.91%)
   displ. norm   :     0.7941209 α      lambda       -0.4626991E-01
   maximum displ.:     0.3696533 α      in ANC's #89, #38, #81, ...

........................................................................
.............................. CYCLE   16 ..............................
........................................................................
   1   -585.7461137 -0.585746E+03  0.919E-02    0.59       0.0  T
   2   -585.7460817  0.319823E-04  0.616E-02    0.59       1.0  T
   3   -585.7448314  0.125030E-02  0.540E-02    0.59       1.0  T
   4   -585.7461691 -0.133774E-02  0.189E-02    0.59       1.0  T
   5   -585.7463070 -0.137895E-03  0.453E-03    0.59       1.2  T
   6   -585.7463130 -0.597006E-05  0.208E-03    0.59       2.6  T
   7   -585.7463144 -0.144044E-05  0.103E-03    0.59       5.3  T
   8   -585.7463145 -0.100064E-06  0.564E-04    0.59       9.7  T
   9   -585.7463147 -0.104251E-06  0.247E-04    0.59      22.2  T
     SCC iter.                  ...        0 min,  3.391 sec
     gradient                   ...        0 min,  0.637 sec
 * total energy  :  -574.5522967 Eh     change       -0.4221345E-01 Eh
   gradient norm :     0.0691127 Eh/α   predicted    -0.3772458E-01 ( -10.63%)
   displ. norm   :     0.8944451 α      lambda       -0.4457447E-01
   maximum displ.:     0.3897087 α      in ANC's #89, #38, #81, ...

........................................................................
.............................. CYCLE   17 ..............................
........................................................................
   1   -585.8279229 -0.585828E+03  0.101E-01    0.60       0.0  T
   2   -585.8278341  0.888312E-04  0.659E-02    0.60       1.0  T
   3   -585.8257875  0.204659E-02  0.653E-02    0.60       1.0  T
   4   -585.8279954 -0.220790E-02  0.143E-02    0.60       1.0  T
   5   -585.8280711 -0.756832E-04  0.446E-03    0.60       1.2  T
   6   -585.8280777 -0.664516E-05  0.172E-03    0.60       3.2  T
   7   -585.8280785 -0.743952E-06  0.950E-04    0.60       5.8  T
   8   -585.8280785 -0.320985E-07  0.606E-04    0.60       9.0  T
     SCC iter.                  ...        0 min,  3.044 sec
     gradient                   ...        0 min,  0.635 sec
 * total energy  :  -574.5926145 Eh     change       -0.4031777E-01 Eh
   gradient norm :     0.0538367 Eh/α   predicted    -0.4011774E-01 (  -0.50%)
   displ. norm   :     0.9304639 α      lambda       -0.3880255E-01
   maximum displ.:     0.4307892 α      in ANC's #89, #38, #81, ...

........................................................................
.............................. CYCLE   18 ..............................
........................................................................
   1   -585.8865272 -0.585887E+03  0.970E-02    0.62       0.0  T
   2   -585.8863718  0.155464E-03  0.649E-02    0.61       1.0  T
   3   -585.8843008  0.207096E-02  0.680E-02    0.62       1.0  T
   4   -585.8866026 -0.230179E-02  0.114E-02    0.62       1.0  T
   5   -585.8866632 -0.606251E-04  0.361E-03    0.61       1.5  T
   6   -585.8866681 -0.489590E-05  0.147E-03    0.61       3.7  T
   7   -585.8866684 -0.259532E-06  0.873E-04    0.61       6.3  T
   8   -585.8866685 -0.104256E-06  0.541E-04    0.61      10.1  T
     SCC iter.                  ...        0 min,  3.035 sec
     gradient                   ...        0 min,  0.637 sec
 * total energy  :  -574.6278379 Eh     change       -0.3522341E-01 Eh
   gradient norm :     0.0502401 Eh/α   predicted    -0.3619822E-01 (   2.77%)
   displ. norm   :     0.9392474 α      lambda       -0.3609980E-01
   maximum displ.:     0.4402703 α      in ANC's #89, #38, #81, ...

........................................................................
.............................. CYCLE   19 ..............................
........................................................................
   1   -585.9508297 -0.585951E+03  0.105E-01    0.63       0.0  T
   2   -585.9505903  0.239475E-03  0.721E-02    0.63       1.0  T
   3   -585.9486404  0.194986E-02  0.722E-02    0.63       1.0  T
   4   -585.9509316 -0.229121E-02  0.140E-02    0.63       1.0  T
   5   -585.9510282 -0.965663E-04  0.415E-03    0.63       1.3  T
   6   -585.9510354 -0.720360E-05  0.158E-03    0.63       3.5  T
   7   -585.9510356 -0.195482E-06  0.974E-04    0.63       5.6  T
   8   -585.9510357 -0.159174E-06  0.591E-04    0.63       9.3  T
     SCC iter.                  ...        0 min,  3.022 sec
     gradient                   ...        0 min,  0.636 sec
 * total energy  :  -574.6592887 Eh     change       -0.3145084E-01 Eh
   gradient norm :     0.0491537 Eh/α   predicted    -0.3397327E-01 (   8.02%)
   displ. norm   :     0.9176468 α      lambda       -0.3148129E-01
   maximum displ.:     0.4594928 α      in ANC's #89, #81, #38, ...

........................................................................
.............................. CYCLE   20 ..............................
........................................................................
   1   -586.0222186 -0.586022E+03  0.992E-02    0.65       0.0  T
   2   -586.0221253  0.932739E-04  0.623E-02    0.65       1.0  T
   3   -586.0200852  0.204009E-02  0.654E-02    0.65       1.0  T
   4   -586.0222681 -0.218290E-02  0.102E-02    0.65       1.0  T
   5   -586.0223159 -0.478050E-04  0.322E-03    0.65       1.7  T
   6   -586.0223200 -0.407696E-05  0.127E-03    0.65       4.3  T
   7   -586.0223201 -0.816086E-07  0.847E-04    0.65       6.5  T
   8   -586.0223203 -0.205836E-06  0.408E-04    0.65      13.4  T
     SCC iter.                  ...        0 min,  3.041 sec
     gradient                   ...        0 min,  0.638 sec
 * total energy  :  -574.6880198 Eh     change       -0.2873111E-01 Eh
   gradient norm :     0.0435323 Eh/α   predicted    -0.2899544E-01 (   0.92%)
   displ. norm   :     0.9405150 α      lambda       -0.2893148E-01
   maximum displ.:     0.4971018 α      in ANC's #89, #81, #38, ...
 * RMSD in coord.:     0.7628010 α      energy gain  -0.2141709E+01 Eh

generating ANC from model Hessian ...
Using Lindh-Hessian (1995)
 Shifting diagonal of input Hessian by    1.0000292865480851E-002
 Lowest  eigenvalues of input Hessian
    0.010000    0.010000    0.010000    0.000000    0.000000    0.000000
    0.000000    0.000000    0.000000    0.010001    0.010001    0.010001
    0.010002    0.010003    0.010005    0.010005    0.010007    0.010008
 Highest eigenvalues
    2.825350    3.068533    3.068538    3.073862    3.073886    3.073891


........................................................................
.............................. CYCLE   21 ..............................
........................................................................
   1   -586.0580077 -0.586058E+03  0.106E-01    0.66       0.0  T
   2   -586.0579130  0.946203E-04  0.673E-02    0.66       1.0  T
   3   -586.0557547  0.215837E-02  0.661E-02    0.66       1.0  T
   4   -586.0580668 -0.231215E-02  0.105E-02    0.66       1.0  T
   5   -586.0581224 -0.555886E-04  0.310E-03    0.66       1.8  T
   6   -586.0581257 -0.335290E-05  0.146E-03    0.66       3.8  T
   7   -586.0581261 -0.309221E-06  0.867E-04    0.66       6.3  T
   8   -586.0581262 -0.189147E-06  0.436E-04    0.66      12.6  T
     SCC iter.                  ...        0 min,  3.045 sec
     gradient                   ...        0 min,  0.637 sec
 * total energy  :  -574.7133145 Eh     change       -0.2529474E-01 Eh
   gradient norm :     0.0486249 Eh/α   predicted     0.0000000E+00 (-100.00%)
   displ. norm   :     0.7418314 α      lambda       -0.2127201E-01
   maximum displ.:     0.2929967 α      in ANC's #86, #87, #92, ...

........................................................................
.............................. CYCLE   22 ..............................
........................................................................
   1   -586.1022742 -0.586102E+03  0.809E-02    0.66       0.0  T
   2   -586.1022281  0.461487E-04  0.503E-02    0.66       1.0  T
   3   -586.1008331  0.139493E-02  0.496E-02    0.66       1.0  T
   4   -586.1023013 -0.146820E-02  0.604E-03    0.66       1.0  T
   5   -586.1023190 -0.176913E-04  0.220E-03    0.66       2.5  T
   6   -586.1023209 -0.182182E-05  0.950E-04    0.66       5.8  T
   7   -586.1023209 -0.790005E-07  0.574E-04    0.66       9.6  T
   8   -586.1023210 -0.873006E-07  0.270E-04    0.66      20.3  T
     SCC iter.                  ...        0 min,  3.021 sec
     gradient                   ...        0 min,  0.637 sec
 * total energy  :  -574.7332209 Eh     change       -0.1990638E-01 Eh
   gradient norm :     0.0315928 Eh/α   predicted    -0.1648945E-01 ( -17.16%)
   displ. norm   :     0.9369886 α      lambda       -0.2380919E-01
   maximum displ.:     0.3943413 α      in ANC's #86, #87, #92, ...

........................................................................
.............................. CYCLE   23 ..............................
........................................................................
   1   -586.1428758 -0.586143E+03  0.103E-01    0.67       0.0  T
   2   -586.1428166  0.592126E-04  0.631E-02    0.67       1.0  T
   3   -586.1407665  0.205014E-02  0.590E-02    0.67       1.0  T
   4   -586.1429154 -0.214890E-02  0.726E-03    0.67       1.0  T
   5   -586.1429403 -0.248834E-04  0.267E-03    0.67       2.1  T
   6   -586.1429429 -0.261637E-05  0.121E-03    0.67       4.5  T
   7   -586.1429431 -0.172108E-06  0.717E-04    0.67       7.7  T
   8   -586.1429432 -0.138298E-06  0.322E-04    0.67      17.1  T
     SCC iter.                  ...        0 min,  3.020 sec
     gradient                   ...        0 min,  0.634 sec
 * total energy  :  -574.7550000 Eh     change       -0.2177907E-01 Eh
   gradient norm :     0.0270824 Eh/α   predicted    -0.2235818E-01 (   2.66%)
   displ. norm   :     0.9501251 α      lambda       -0.2194093E-01
   maximum displ.:     0.3864227 α      in ANC's #86, #92, #87, ...

........................................................................
.............................. CYCLE   24 ..............................
........................................................................
   1   -586.1712666 -0.586171E+03  0.120E-01    0.68       0.0  T
   2   -586.1712339  0.326583E-04  0.721E-02    0.68       1.0  T
   3   -586.1694438  0.179012E-02  0.525E-02    0.68       1.0  T
   4   -586.1713019 -0.185813E-02  0.657E-03    0.68       1.0  T
   5   -586.1713204 -0.185124E-04  0.271E-03    0.68       2.0  T
   6   -586.1713228 -0.240085E-05  0.140E-03    0.68       3.9  T
   7   -586.1713231 -0.302245E-06  0.793E-04    0.68       6.9  T
   8   -586.1713233 -0.178136E-06  0.341E-04    0.68      16.1  T
     SCC iter.                  ...        0 min,  3.041 sec
     gradient                   ...        0 min,  0.633 sec
 * total energy  :  -574.7744197 Eh     change       -0.1941969E-01 Eh
   gradient norm :     0.0310177 Eh/α   predicted    -0.2087397E-01 (   7.49%)
   displ. norm   :     0.9237461 α      lambda       -0.1923099E-01
   maximum displ.:     0.3917559 α      in ANC's #86, #87, #92, ...

........................................................................
.............................. CYCLE   25 ..............................
........................................................................
   1   -586.1968949 -0.586197E+03  0.105E-01    0.69       0.0  T
   2   -586.1968836  0.112761E-04  0.625E-02    0.69       1.0  T
   3   -586.1958315  0.105219E-02  0.409E-02    0.69       1.0  T
   4   -586.1969219 -0.109046E-02  0.643E-03    0.69       1.0  T
   5   -586.1969396 -0.176756E-04  0.236E-03    0.69       2.3  T
   6   -586.1969412 -0.162205E-05  0.120E-03    0.69       4.6  T
   7   -586.1969414 -0.195582E-06  0.686E-04    0.69       8.0  T
   8   -586.1969415 -0.130610E-06  0.331E-04    0.69      16.6  T
     SCC iter.                  ...        0 min,  3.041 sec
     gradient                   ...        0 min,  0.637 sec
 * total energy  :  -574.7921235 Eh     change       -0.1770378E-01 Eh
   gradient norm :     0.0271888 Eh/α   predicted    -0.1782047E-01 (   0.66%)
   displ. norm   :     0.9299491 α      lambda       -0.1702226E-01
   maximum displ.:     0.4244377 α      in ANC's #86, #87, #92, ...

........................................................................
.............................. CYCLE   26 ..............................
........................................................................
   1   -586.2269118 -0.586227E+03  0.992E-02    0.70       0.0  T
   2   -586.2268995  0.123439E-04  0.589E-02    0.70       1.0  T
   3   -586.2258623  0.103722E-02  0.420E-02    0.70       1.0  T
   4   -586.2269410 -0.107872E-02  0.679E-03    0.70       1.0  T
   5   -586.2269605 -0.195282E-04  0.224E-03    0.70       2.5  T
   6   -586.2269618 -0.129228E-05  0.120E-03    0.70       4.6  T
   7   -586.2269620 -0.180037E-06  0.696E-04    0.70       7.9  T
   8   -586.2269621 -0.143663E-06  0.306E-04    0.70      17.9  T
     SCC iter.                  ...        0 min,  3.018 sec
     gradient                   ...        0 min,  0.636 sec
 * total energy  :  -574.8077361 Eh     change       -0.1561262E-01 Eh
   gradient norm :     0.0204748 Eh/α   predicted    -0.1587161E-01 (   1.66%)
   displ. norm   :     0.9378170 α      lambda       -0.1528816E-01
   maximum displ.:     0.3849492 α      in ANC's #86, #92, #87, ...

........................................................................
.............................. CYCLE   27 ..............................
........................................................................
   1   -586.2448607 -0.586245E+03  0.118E-01    0.71       0.0  T
   2   -586.2448489  0.117999E-04  0.698E-02    0.71       1.0  T
   3   -586.2437352  0.111367E-02  0.439E-02    0.71       1.0  T
   4   -586.2448909 -0.115571E-02  0.637E-03    0.71       1.0  T
   5   -586.2449073 -0.164428E-04  0.233E-03    0.71       2.4  T
   6   -586.2449085 -0.112952E-05  0.139E-03    0.71       3.9  T
   7   -586.2449088 -0.274376E-06  0.757E-04    0.71       7.3  T
   8   -586.2449089 -0.197555E-06  0.295E-04    0.71      18.6  T
     SCC iter.                  ...        0 min,  3.013 sec
     gradient                   ...        0 min,  0.635 sec
 * total energy  :  -574.8213129 Eh     change       -0.1357683E-01 Eh
   gradient norm :     0.0205706 Eh/α   predicted    -0.1436706E-01 (   5.82%)
   displ. norm   :     0.9172722 α      lambda       -0.1319303E-01
   maximum displ.:     0.4193935 α      in ANC's #86, #87, #92, ...

........................................................................
.............................. CYCLE   28 ..............................
........................................................................
   1   -586.2676933 -0.586268E+03  0.101E-01    0.72       0.0  T
   2   -586.2676876  0.569072E-05  0.599E-02    0.72       1.0  T
   3   -586.2669079  0.779693E-03  0.354E-02    0.72       1.0  T
   4   -586.2677158 -0.807901E-03  0.554E-03    0.72       1.0  T
   5   -586.2677285 -0.126756E-04  0.200E-03    0.72       2.7  T
   6   -586.2677293 -0.766028E-06  0.121E-03    0.72       4.5  T
   7   -586.2677295 -0.221379E-06  0.653E-04    0.72       8.4  T
   8   -586.2677297 -0.164921E-06  0.240E-04    0.72      22.9  T
     SCC iter.                  ...        0 min,  3.044 sec
     gradient                   ...        0 min,  0.637 sec
 * total energy  :  -574.8330666 Eh     change       -0.1175364E-01 Eh
   gradient norm :     0.0178973 Eh/α   predicted    -0.1214675E-01 (   3.34%)
   displ. norm   :     0.9090264 α      lambda       -0.1115368E-01
   maximum displ.:     0.4030220 α      in ANC's #86, #87, #92, ...

........................................................................
.............................. CYCLE   29 ..............................
........................................................................
   1   -586.2853899 -0.586285E+03  0.102E-01    0.73       0.0  T
   2   -586.2853875  0.241163E-05  0.599E-02    0.73       1.0  T
   3   -586.2848040  0.583521E-03  0.297E-02    0.73       1.0  T
   4   -586.2854083 -0.604355E-03  0.457E-03    0.73       1.2  T
   5   -586.2854170 -0.864638E-05  0.180E-03    0.73       3.1  T
   6   -586.2854175 -0.494814E-06  0.115E-03    0.73       4.8  T
   7   -586.2854177 -0.248696E-06  0.565E-04    0.73       9.7  T
   8   -586.2854178 -0.122023E-06  0.208E-04    0.73      26.4  T
     SCC iter.                  ...        0 min,  3.032 sec
     gradient                   ...        0 min,  0.636 sec
 * total energy  :  -574.8428247 Eh     change       -0.9758134E-02 Eh
   gradient norm :     0.0180317 Eh/α   predicted    -0.1018514E-01 (   4.38%)
   displ. norm   :     0.9096300 α      lambda       -0.1021216E-01
   maximum displ.:     0.3756535 α      in ANC's #86, #92, #46, ...

........................................................................
.............................. CYCLE   30 ..............................
........................................................................
   1   -586.2966221 -0.586297E+03  0.118E-01    0.73       0.0  T
   2   -586.2966232 -0.115801E-05  0.699E-02    0.73       1.0  T
   3   -586.2961657  0.457507E-03  0.262E-02    0.73       1.0  T
   4   -586.2966397 -0.473954E-03  0.396E-03    0.73       1.4  T
   5   -586.2966452 -0.550174E-05  0.201E-03    0.73       2.7  T
   6   -586.2966458 -0.583944E-06  0.128E-03    0.73       4.3  T
   7   -586.2966461 -0.359357E-06  0.569E-04    0.73       9.7  T
   8   -586.2966462 -0.121228E-06  0.206E-04    0.73      26.6  T
     SCC iter.                  ...        0 min,  3.021 sec
     gradient                   ...        0 min,  0.639 sec
 * total energy  :  -574.8511399 Eh     change       -0.8315150E-02 Eh
   gradient norm :     0.0214658 Eh/α   predicted    -0.9330996E-02 (  12.22%)
   displ. norm   :     0.8573841 α      lambda       -0.8113095E-02
   maximum displ.:     0.3670374 α      in ANC's #86, #92, #87, ...

........................................................................
.............................. CYCLE   31 ..............................
........................................................................
   1   -586.3181195 -0.586318E+03  0.944E-02    0.74       0.0  T
   2   -586.3181219 -0.238723E-05  0.557E-02    0.74       1.0  T
   3   -586.3178042  0.317626E-03  0.225E-02    0.74       1.0  T
   4   -586.3181348 -0.330561E-03  0.324E-03    0.74       1.7  T
   5   -586.3181383 -0.351802E-05  0.164E-03    0.74       3.3  T
   6   -586.3181387 -0.423084E-06  0.102E-03    0.74       5.4  T
   7   -586.3181389 -0.188137E-06  0.495E-04    0.74      11.1  T
   8   -586.3181390 -0.961994E-07  0.182E-04    0.74      30.2  T
     SCC iter.                  ...        0 min,  3.034 sec
     gradient                   ...        0 min,  0.634 sec
 * total energy  :  -574.8580542 Eh     change       -0.6914364E-02 Eh
   gradient norm :     0.0145209 Eh/α   predicted    -0.7038548E-02 (   1.80%)
   displ. norm   :     0.8710019 α      lambda       -0.6850149E-02
   maximum displ.:     0.3432678 α      in ANC's #86, #92, #46, ...

........................................................................
.............................. CYCLE   32 ..............................
........................................................................
   1   -586.3314477 -0.586331E+03  0.103E-01    0.74       0.0  T
   2   -586.3314510 -0.327320E-05  0.609E-02    0.74       1.0  T
   3   -586.3311786  0.272380E-03  0.223E-02    0.74       1.0  T
   4   -586.3314632 -0.284631E-03  0.290E-03    0.74       1.9  T
   5   -586.3314659 -0.264678E-05  0.151E-03    0.74       3.6  T
   6   -586.3314662 -0.299974E-06  0.942E-04    0.74       5.8  T
   7   -586.3314663 -0.146790E-06  0.491E-04    0.74      11.2  T
     SCC iter.                  ...        0 min,  2.664 sec
     gradient                   ...        0 min,  0.638 sec
 * total energy  :  -574.8635329 Eh     change       -0.5478682E-02 Eh
   gradient norm :     0.0143493 Eh/α   predicted    -0.6023494E-02 (   9.94%)
   displ. norm   :     0.8407225 α      lambda       -0.5733536E-02
   maximum displ.:     0.3325428 α      in ANC's #86, #46, #92, ...

........................................................................
.............................. CYCLE   33 ..............................
........................................................................
   1   -586.3468753 -0.586347E+03  0.954E-02    0.74       0.0  T
   2   -586.3468812 -0.590364E-05  0.564E-02    0.74       1.0  T
   3   -586.3467188  0.162347E-03  0.181E-02    0.74       1.0  T
   4   -586.3468883 -0.169508E-03  0.307E-03    0.74       1.8  T
   5   -586.3468913 -0.293815E-05  0.152E-03    0.74       3.6  T
   6   -586.3468916 -0.346783E-06  0.974E-04    0.74       5.6  T
   7   -586.3468918 -0.179414E-06  0.520E-04    0.74      10.5  T
     SCC iter.                  ...        0 min,  2.636 sec
     gradient                   ...        0 min,  0.638 sec
 * total energy  :  -574.8680500 Eh     change       -0.4517109E-02 Eh
   gradient norm :     0.0151179 Eh/α   predicted    -0.4893042E-02 (   8.32%)
   displ. norm   :     0.8300907 α      lambda       -0.4737778E-02
   maximum displ.:     0.3584837 α      in ANC's #46, #86, #92, ...

........................................................................
.............................. CYCLE   34 ..............................
........................................................................
   1   -586.3552372 -0.586355E+03  0.112E-01    0.74       0.0  T
   2   -586.3552430 -0.576286E-05  0.668E-02    0.74       1.0  T
   3   -586.3550328  0.210192E-03  0.214E-02    0.74       1.0  T
   4   -586.3552521 -0.219323E-03  0.339E-03    0.74       1.6  T
   5   -586.3552550 -0.284696E-05  0.186E-03    0.74       3.0  T
   6   -586.3552555 -0.500833E-06  0.122E-03    0.74       4.5  T
   7   -586.3552558 -0.348901E-06  0.581E-04    0.74       9.4  T
   8   -586.3552560 -0.139888E-06  0.198E-04    0.74      27.7  T
     SCC iter.                  ...        0 min,  3.025 sec
     gradient                   ...        0 min,  0.635 sec
 * total energy  :  -574.8709496 Eh     change       -0.2899573E-02 Eh
   gradient norm :     0.0220462 Eh/α   predicted    -0.4001163E-02 (  37.99%)
   displ. norm   :     0.7133111 α      lambda       -0.4006799E-02
   maximum displ.:     0.2950443 α      in ANC's #46, #86, #92, ...

........................................................................
.............................. CYCLE   35 ..............................
........................................................................
   1   -586.3686683 -0.586369E+03  0.846E-02    0.74       0.0  T
   2   -586.3686701 -0.182907E-05  0.503E-02    0.74       1.0  T
   3   -586.3684440  0.226092E-03  0.223E-02    0.74       1.0  T
   4   -586.3686794 -0.235343E-03  0.303E-03    0.74       1.8  T
   5   -586.3686818 -0.238391E-05  0.170E-03    0.74       3.2  T
   6   -586.3686826 -0.787337E-06  0.920E-04    0.74       6.0  T
   7   -586.3686827 -0.139551E-06  0.488E-04    0.74      11.3  T
     SCC iter.                  ...        0 min,  2.657 sec
     gradient                   ...        0 min,  0.640 sec
 * total energy  :  -574.8737491 Eh     change       -0.2799535E-02 Eh
   gradient norm :     0.0144258 Eh/α   predicted    -0.3022758E-02 (   7.97%)
   displ. norm   :     0.7282044 α      lambda       -0.2797571E-02
   maximum displ.:     0.3534215 α      in ANC's #46, #86, #78, ...

........................................................................
.............................. CYCLE   36 ..............................
........................................................................
   1   -586.3764153 -0.586376E+03  0.882E-02    0.74       0.0  T
   2   -586.3764182 -0.281395E-05  0.524E-02    0.74       1.0  T
   3   -586.3762486  0.169559E-03  0.194E-02    0.74       1.0  T
   4   -586.3764244 -0.175824E-03  0.300E-03    0.74       1.8  T
   5   -586.3764272 -0.276070E-05  0.162E-03    0.74       3.4  T
   6   -586.3764279 -0.758036E-06  0.842E-04    0.74       6.5  T
   7   -586.3764280 -0.980232E-07  0.471E-04    0.74      11.6  T
     SCC iter.                  ...        0 min,  2.637 sec
     gradient                   ...        0 min,  0.639 sec
 * total energy  :  -574.8752312 Eh     change       -0.1482096E-02 Eh
   gradient norm :     0.0158178 Eh/α   predicted    -0.2140535E-02 (  44.43%)
   displ. norm   :     0.6418418 α      lambda       -0.2629537E-02
   maximum displ.:     0.3450490 α      in ANC's #46, #71, #86, ...

........................................................................
.............................. CYCLE   37 ..............................
........................................................................
   1   -586.3888874 -0.586389E+03  0.725E-02    0.74       0.0  T
   2   -586.3888862  0.122812E-05  0.433E-02    0.74       1.0  T
   3   -586.3886409  0.245273E-03  0.234E-02    0.74       1.0  T
   4   -586.3888939 -0.253005E-03  0.290E-03    0.74       1.9  T
   5   -586.3888969 -0.297142E-05  0.149E-03    0.74       3.7  T
   6   -586.3888977 -0.754109E-06  0.719E-04    0.74       7.6  T
   7   -586.3888977 -0.441131E-07  0.439E-04    0.74      12.5  T
     SCC iter.                  ...        0 min,  2.659 sec
     gradient                   ...        0 min,  0.637 sec
 * total energy  :  -574.8768713 Eh     change       -0.1640069E-02 Eh
   gradient norm :     0.0136133 Eh/α   predicted    -0.1856406E-02 (  13.19%)
   displ. norm   :     0.6307346 α      lambda       -0.1797265E-02
   maximum displ.:     0.3420010 α      in ANC's #46, #26, #55, ...

........................................................................
.............................. CYCLE   38 ..............................
........................................................................
   1   -586.3963094 -0.586396E+03  0.785E-02    0.74       0.0  T
   2   -586.3963092  0.190160E-06  0.468E-02    0.74       1.0  T
   3   -586.3960801  0.229156E-03  0.227E-02    0.74       1.0  T
   4   -586.3963184 -0.238356E-03  0.273E-03    0.74       2.0  T
   5   -586.3963204 -0.194779E-05  0.152E-03    0.74       3.6  T
   6   -586.3963211 -0.694751E-06  0.760E-04    0.74       7.2  T
   7   -586.3963211 -0.648998E-07  0.426E-04    0.74      12.9  T
     SCC iter.                  ...        0 min,  2.665 sec
     gradient                   ...        0 min,  0.640 sec
 * total energy  :  -574.8776968 Eh     change       -0.8254992E-03 Eh
   gradient norm :     0.0213895 Eh/α   predicted    -0.1256135E-02 (  52.17%)
   displ. norm   :     0.5746914 α      lambda       -0.1996732E-02
   maximum displ.:     0.3615457 α      in ANC's #46, #26, #71, ...

........................................................................
.............................. CYCLE   39 ..............................
........................................................................
   1   -586.4025532 -0.586403E+03  0.752E-02    0.74       0.0  T
   2   -586.4025547 -0.153702E-05  0.451E-02    0.74       1.0  T
   3   -586.4023815  0.173178E-03  0.192E-02    0.74       1.0  T
   4   -586.4025610 -0.179422E-03  0.279E-03    0.74       2.0  T
   5   -586.4025632 -0.222341E-05  0.145E-03    0.74       3.8  T
   6   -586.4025637 -0.566473E-06  0.770E-04    0.74       7.1  T
   7   -586.4025638 -0.743265E-07  0.418E-04    0.74      13.1  T
     SCC iter.                  ...        0 min,  2.639 sec
     gradient                   ...        0 min,  0.638 sec
 * total energy  :  -574.8785704 Eh     change       -0.8736009E-03 Eh
   gradient norm :     0.0228690 Eh/α   predicted    -0.1328097E-02 (  52.03%)
   displ. norm   :     0.4838800 α      lambda       -0.1817225E-02
   maximum displ.:     0.2785079 α      in ANC's #46, #26, #55, ...

........................................................................
.............................. CYCLE   40 ..............................
........................................................................
   1   -586.4107776 -0.586411E+03  0.762E-02    0.74       0.0  T
   2   -586.4107792 -0.161729E-05  0.455E-02    0.74       1.0  T
   3   -586.4106633  0.115952E-03  0.157E-02    0.74       1.0  T
   4   -586.4107825 -0.119240E-03  0.256E-03    0.74       2.1  T
   5   -586.4107847 -0.219532E-05  0.129E-03    0.74       4.3  T
   6   -586.4107852 -0.454918E-06  0.678E-04    0.74       8.1  T
   7   -586.4107852 -0.452527E-07  0.375E-04    0.74      14.6  T
     SCC iter.                  ...        0 min,  2.660 sec
     gradient                   ...        0 min,  0.639 sec
 * total energy  :  -574.8793446 Eh     change       -0.7742097E-03 Eh
   gradient norm :     0.0176153 Eh/α   predicted    -0.1121363E-02 (  44.84%)
   displ. norm   :     0.4877377 α      lambda       -0.1805827E-02
   maximum displ.:     0.2887726 α      in ANC's #46, #26, #55, ...

........................................................................
.............................. CYCLE   41 ..............................
........................................................................
   1   -586.4149829 -0.586415E+03  0.820E-02    0.74       0.0  T
   2   -586.4149843 -0.140366E-05  0.491E-02    0.74       1.0  T
   3   -586.4148554  0.128898E-03  0.170E-02    0.74       1.0  T
   4   -586.4149872 -0.131791E-03  0.272E-03    0.74       2.0  T
   5   -586.4149899 -0.272447E-05  0.138E-03    0.74       4.0  T
   6   -586.4149904 -0.558250E-06  0.731E-04    0.74       7.5  T
   7   -586.4149905 -0.601894E-07  0.376E-04    0.74      14.6  T
     SCC iter.                  ...        0 min,  2.654 sec
     gradient                   ...        0 min,  0.638 sec
 * total energy  :  -574.8798579 Eh     change       -0.5132908E-03 Eh
   gradient norm :     0.0186687 Eh/α   predicted    -0.1117710E-02 ( 117.75%)
   displ. norm   :     0.4244246 α      lambda       -0.1643361E-02
   maximum displ.:     0.2620720 α      in ANC's #46, #26, #55, ...

........................................................................
.............................. CYCLE   42 ..............................
........................................................................
   1   -586.4174376 -0.586417E+03  0.641E-02    0.74       0.0  T
   2   -586.4174368  0.825405E-06  0.382E-02    0.74       1.0  T
   3   -586.4172972  0.139515E-03  0.174E-02    0.74       1.0  T
   4   -586.4174417 -0.144488E-03  0.201E-03    0.74       2.7  T
   5   -586.4174431 -0.136171E-05  0.112E-03    0.74       4.9  T
   6   -586.4174435 -0.417425E-06  0.543E-04    0.74      10.1  T
   7   -586.4174436 -0.374687E-07  0.287E-04    0.74      19.1  T
     SCC iter.                  ...        0 min,  2.631 sec
     gradient                   ...        0 min,  0.636 sec
 * total energy  :  -574.8808905 Eh     change       -0.1032661E-02 Eh
   gradient norm :     0.0112649 Eh/α   predicted    -0.9697032E-03 (  -6.10%)
   displ. norm   :     0.5658945 α      lambda       -0.1155625E-02
   maximum displ.:     0.3524924 α      in ANC's #46, #26, #55, ...
 * RMSD in coord.:     0.7975197 α      energy gain  -0.1928707E+00 Eh

generating ANC from model Hessian ...
Using Lindh-Hessian (1995)
 Shifting diagonal of input Hessian by    1.0006891859815804E-002
 Lowest  eigenvalues of input Hessian
    0.010000    0.010001    0.010002    0.000000    0.000000    0.000000
    0.000000    0.000000    0.000000    0.010007    0.010007    0.010008
    0.010008    0.010009    0.010010    0.010010    0.010011    0.010011
 Highest eigenvalues
    3.028866    3.040103    3.042554    3.049543    3.060651    3.060714


........................................................................
.............................. CYCLE   43 ..............................
........................................................................
   1   -586.4169557 -0.586417E+03  0.561E-02    0.74       0.0  T
   2   -586.4169556  0.927408E-07  0.335E-02    0.74       1.0  T
   3   -586.4168320  0.123666E-03  0.163E-02    0.74       1.0  T
   4   -586.4169612 -0.129213E-03  0.185E-03    0.74       3.0  T
   5   -586.4169620 -0.850517E-06  0.103E-03    0.74       5.3  T
   6   -586.4169623 -0.258466E-06  0.584E-04    0.74       9.4  T
   7   -586.4169624 -0.619397E-07  0.314E-04    0.74      17.5  T
     SCC iter.                  ...        0 min,  2.662 sec
     gradient                   ...        0 min,  0.635 sec
 * total energy  :  -574.8814829 Eh     change       -0.5923642E-03 Eh
   gradient norm :     0.0162124 Eh/α   predicted     0.0000000E+00 (-100.00%)
   displ. norm   :     0.1665692 α      lambda       -0.5983672E-03
   maximum displ.:     0.0579438 α      in ANC's #51, #27, #28, ...

........................................................................
.............................. CYCLE   44 ..............................
........................................................................
   1   -586.4132904 -0.586413E+03  0.442E-02    0.74       0.0  T
   2   -586.4132909 -0.582051E-06  0.264E-02    0.74       1.0  T
   3   -586.4132629  0.280344E-04  0.718E-03    0.74       1.0  T
   4   -586.4132919 -0.289943E-04  0.124E-03    0.74       4.4  T
   5   -586.4132925 -0.547983E-06  0.608E-04    0.74       9.0  T
   6   -586.4132925 -0.745924E-07  0.367E-04    0.74      14.9  T
     SCC iter.                  ...        0 min,  2.291 sec
     gradient                   ...        0 min,  0.639 sec
 * total energy  :  -574.8817964 Eh     change       -0.3134549E-03 Eh
   gradient norm :     0.0063838 Eh/α   predicted    -0.3075678E-03 (  -1.88%)
   displ. norm   :     0.2652718 α      lambda       -0.6167083E-03
   maximum displ.:     0.1029123 α      in ANC's #27, #28, #36, ...

........................................................................
.............................. CYCLE   45 ..............................
........................................................................
   1   -586.4117184 -0.586412E+03  0.346E-02    0.74       0.0  T
   2   -586.4117187 -0.248851E-06  0.207E-02    0.74       1.0  T
   3   -586.4116698  0.488443E-04  0.900E-03    0.74       1.0  T
   4   -586.4117199 -0.501228E-04  0.171E-03    0.74       3.2  T
   5   -586.4117211 -0.120844E-05  0.700E-04    0.74       7.8  T
   6   -586.4117213 -0.113422E-06  0.393E-04    0.74      14.0  T
   7   -586.4117213 -0.209332E-07  0.201E-04    0.74      27.4  T
     SCC iter.                  ...        0 min,  2.639 sec
     gradient                   ...        0 min,  0.639 sec
 * total energy  :  -574.8821447 Eh     change       -0.3483012E-03 Eh
   gradient norm :     0.0146566 Eh/α   predicted    -0.3300564E-03 (  -5.24%)
   displ. norm   :     0.3882966 α      lambda       -0.7218663E-03
   maximum displ.:     0.1609149 α      in ANC's #51, #27, #28, ...

........................................................................
.............................. CYCLE   46 ..............................
........................................................................
   1   -586.4097583 -0.586410E+03  0.487E-02    0.74       0.0  T
   2   -586.4097581  0.139332E-06  0.290E-02    0.74       1.0  T
   3   -586.4096817  0.764127E-04  0.110E-02    0.74       1.0  T
   4   -586.4097610 -0.793094E-04  0.159E-03    0.74       3.4  T
   5   -586.4097618 -0.787229E-06  0.872E-04    0.74       6.3  T
   6   -586.4097619 -0.135484E-06  0.520E-04    0.74      10.6  T
     SCC iter.                  ...        0 min,  2.285 sec
     gradient                   ...        0 min,  0.638 sec
 * total energy  :  -574.8824752 Eh     change       -0.3305468E-03 Eh
   gradient norm :     0.0167935 Eh/α   predicted    -0.4153535E-03 (  25.66%)
   displ. norm   :     0.4143619 α      lambda       -0.8693598E-03
   maximum displ.:     0.1667165 α      in ANC's #27, #51, #28, ...

........................................................................
.............................. CYCLE   47 ..............................
........................................................................
   1   -586.4103366 -0.586410E+03  0.451E-02    0.74       0.0  T
   2   -586.4103359  0.750930E-06  0.270E-02    0.74       1.0  T
   3   -586.4102409  0.949853E-04  0.133E-02    0.74       1.0  T
   4   -586.4103396 -0.986721E-04  0.161E-03    0.74       3.4  T
   5   -586.4103403 -0.786611E-06  0.899E-04    0.74       6.1  T
   6   -586.4103405 -0.202800E-06  0.473E-04    0.74      11.6  T
     SCC iter.                  ...        0 min,  2.258 sec
     gradient                   ...        0 min,  0.639 sec
 * total energy  :  -574.8829843 Eh     change       -0.5090821E-03 Eh
   gradient norm :     0.0108330 Eh/α   predicted    -0.5093190E-03 (   0.05%)
   displ. norm   :     0.4597034 α      lambda       -0.8738977E-03
   maximum displ.:     0.1879050 α      in ANC's #27, #28, #36, ...

........................................................................
.............................. CYCLE   48 ..............................
........................................................................
   1   -586.4137595 -0.586414E+03  0.585E-02    0.74       0.0  T
   2   -586.4137597 -0.195251E-06  0.348E-02    0.74       1.0  T
   3   -586.4136890  0.706952E-04  0.122E-02    0.74       1.0  T
   4   -586.4137625 -0.735229E-04  0.162E-03    0.74       3.4  T
   5   -586.4137633 -0.786504E-06  0.857E-04    0.74       6.4  T
   6   -586.4137634 -0.144208E-06  0.512E-04    0.74      10.7  T
     SCC iter.                  ...        0 min,  2.278 sec
     gradient                   ...        0 min,  0.637 sec
 * total energy  :  -574.8833827 Eh     change       -0.3983982E-03 Eh
   gradient norm :     0.0123711 Eh/α   predicted    -0.5292919E-03 (  32.85%)
   displ. norm   :     0.4282815 α      lambda       -0.7075979E-03
   maximum displ.:     0.2022575 α      in ANC's #51, #27, #28, ...

........................................................................
.............................. CYCLE   49 ..............................
........................................................................
   1   -586.4173089 -0.586417E+03  0.428E-02    0.74       0.0  T
   2   -586.4173086  0.296060E-06  0.254E-02    0.74       1.0  T
   3   -586.4172542  0.543871E-04  0.109E-02    0.74       1.0  T
   4   -586.4173108 -0.566243E-04  0.117E-03    0.74       4.7  T
   5   -586.4173112 -0.379756E-06  0.687E-04    0.74       8.0  T
   6   -586.4173113 -0.123622E-06  0.358E-04    0.74      15.3  T
     SCC iter.                  ...        0 min,  2.286 sec
     gradient                   ...        0 min,  0.636 sec
 * total energy  :  -574.8838490 Eh     change       -0.4663303E-03 Eh
   gradient norm :     0.0100759 Eh/α   predicted    -0.4186978E-03 ( -10.21%)
   displ. norm   :     0.5444870 α      lambda       -0.8266978E-03
   maximum displ.:     0.2389060 α      in ANC's #27, #51, #28, ...

........................................................................
.............................. CYCLE   50 ..............................
........................................................................
   1   -586.4200694 -0.586420E+03  0.574E-02    0.74       0.0  T
   2   -586.4200698 -0.396191E-06  0.341E-02    0.74       1.0  T
   3   -586.4200050  0.647364E-04  0.118E-02    0.74       1.0  T
   4   -586.4200727 -0.676640E-04  0.136E-03    0.74       4.0  T
   5   -586.4200731 -0.374508E-06  0.878E-04    0.74       6.3  T
   6   -586.4200733 -0.187138E-06  0.494E-04    0.74      11.1  T
     SCC iter.                  ...        0 min,  2.267 sec
     gradient                   ...        0 min,  0.638 sec
[...]
 841:  0.00 842:  0.00 843:  0.00 844:  0.00 845:  0.00 846:  0.00 847:  0.00 848:  0.00
 849:  0.00 850:  0.00 851:  0.00 852:  0.00 853:  0.00 854:  0.00 855:  0.00 856:  0.00
 857:  0.00 858:  0.00 859:  0.00 860:  0.00 861:  0.00 862:  0.00 863:  0.00 864:  0.00
 865:  0.00 866:  0.00 867:  0.00 868:  0.00 869:  0.00 870:  0.00 871:  0.00 872:  0.00
 873:  0.00 874:  0.00 875:  0.00 876:  0.00 877:  0.00 878:  0.00 879:  0.00 880:  0.00
 881:  0.00 882:  0.00 883:  0.00 884:  0.00 885:  0.00 886:  0.00 887:  0.00 888:  0.00
 889:  0.00 890:  0.00 891:  0.00 892:  0.00 893:  0.00 894:  0.00 895:  0.00 896:  0.00
 897:  0.00 898:  0.00 899:  0.00 900:  0.00 901:  0.00 902:  0.00 903:  0.00 904:  0.00
 905:  0.00 906:  0.00 907:  0.00 908:  0.00 909:  0.00 910:  0.00 911:  0.00 912:  0.00
 913:  0.00 914:  0.00 915:  0.00 916:  0.00 917:  0.00 918:  0.00 919:  0.00 920:  0.00
 921:  0.00 922:  0.00 923:  0.00 924:  0.00 925:  0.00 926:  0.00 927:  0.00 928:  0.00
 929:  0.00 930:  0.00 931:  0.00 932:  0.00 933:  0.00 934:  0.00 935:  0.00 936:  0.00
 937:  0.00 938:  0.00 939:  0.00 940:  0.00 941:  0.00 942:  0.00 943:  0.00 944:  0.00
 945:  0.00 946:  0.00 947:  0.00 948:  0.00 949:  0.00 950:  0.00 951:  0.00 952:  0.00
 953:  0.00 954:  0.00 955:  0.00 956:  0.00 957:  0.00 958:  0.00 959:  0.00 960:  0.00
 961:  0.00 962:  0.00 963:  0.00 964:  0.00 965:  0.00 966:  0.00 967:  0.00 968:  0.00
 969:  0.00 970:  0.00 971:  0.00 972:  0.00 973:  0.00 974:  0.00 975:  0.00 976:  0.00
 977:  0.00 978:  0.00 979:  0.00 980:  0.00 981:  0.00 982:  0.00 983:  0.00 984:  0.00
 985:  0.00 986:  0.00 987:  0.00 988:  0.00 989:  0.00 990:  0.00 991:  0.00 992:  0.00
 993:  0.00 994:  0.00 995:  0.00 996:  0.00
 output can be read by thermo (or use thermo option).
 writing <g98.out> molden fake output.
 recommended (thermochemical) frequency scaling factor: 1.0
           -------------------------------------------------
          |             Thermodynamic Functions             |
           -------------------------------------------------
 symmetry recognition skipped because # atoms >         200
 inverting freq            1   5.1186805140507863     
 inverting freq            2   4.0356365130210490     
 inverting freq            3   3.6041589547181934     
 inverting freq            4   3.0777939808351231     
 inverting freq            5   2.6742566138711319     
 inverting freq            6   2.1544488115623235     

          ...................................................
          :                      SETUP                      :
          :.................................................:
          :  # frequencies                         989      :
          :  # imaginary freq.                       0      :
          :  linear?                             false      :
          :  only rotor calc.                    false      :
          :  symmetry                               C1      :
          :  rotational number                       1      :
          :  scaling factor                  1.0000000      :
          :  rotor cutoff                   50.0000000 cm⁻¹ :
          :  imag. cutoff                  -20.0000000 cm⁻¹ :
          :.................................................:

    mode    ω/cm⁻¹     T·S(HO)/kcal·mol⁻¹    T·S(FR)/kcal·mol⁻¹   T·S(vib)
   ------------------------------------------------------------------------
       1      5.12    -2.78523 (  0.01%)    -1.73172 ( 99.99%)    -1.73184
       2      4.04    -2.92608 (  0.00%)    -1.80215 (100.00%)    -1.80220
       3      3.60    -2.99307 (  0.00%)    -1.83565 (100.00%)    -1.83568
       4      3.08    -3.08661 (  0.00%)    -1.88242 (100.00%)    -1.88243
       5      2.67    -3.16987 (  0.00%)    -1.92405 (100.00%)    -1.92406
       6      2.15    -3.29793 (  0.00%)    -1.98808 (100.00%)    -1.98808
       7      1.15    -3.67090 (  0.00%)    -2.17457 (100.00%)    -2.17457
       8      2.16    -3.29655 (  0.00%)    -1.98739 (100.00%)    -1.98739
       9      2.67    -3.17119 (  0.00%)    -1.92471 (100.00%)    -1.92472
      10      3.32    -3.04113 (  0.00%)    -1.85968 (100.00%)    -1.85970
      11      4.65    -2.84211 (  0.01%)    -1.76017 ( 99.99%)    -1.76025
      12      4.84    -2.81799 (  0.01%)    -1.74811 ( 99.99%)    -1.74820
      13      5.52    -2.74083 (  0.01%)    -1.70952 ( 99.99%)    -1.70968
      14      6.25    -2.66710 (  0.02%)    -1.67266 ( 99.98%)    -1.67290
      15      6.64    -2.63108 (  0.03%)    -1.65464 ( 99.97%)    -1.65495
      16      7.14    -2.58782 (  0.04%)    -1.63301 ( 99.96%)    -1.63341
      17      7.50    -2.55904 (  0.05%)    -1.61862 ( 99.95%)    -1.61910
      18      7.84    -2.53254 (  0.06%)    -1.60537 ( 99.94%)    -1.60593
      19      8.02    -2.51893 (  0.07%)    -1.59857 ( 99.93%)    -1.59918
      20      8.13    -2.51110 (  0.07%)    -1.59465 ( 99.93%)    -1.59529
      21      9.08    -2.44542 (  0.11%)    -1.56180 ( 99.89%)    -1.56277
      22     10.08    -2.38400 (  0.16%)    -1.53109 ( 99.84%)    -1.53249
      23     11.57    -2.30210 (  0.29%)    -1.49013 ( 99.71%)    -1.49245
      24     13.63    -2.20499 (  0.55%)    -1.44156 ( 99.45%)    -1.44576
      25     14.30    -2.17679 (  0.66%)    -1.42746 ( 99.34%)    -1.43243
      26     16.24    -2.10142 (  1.10%)    -1.38975 ( 98.90%)    -1.39758
      27     17.21    -2.06679 (  1.39%)    -1.37243 ( 98.61%)    -1.38205
      28     18.21    -2.03334 (  1.73%)    -1.35569 ( 98.27%)    -1.36742
      29     19.25    -2.00060 (  2.15%)    -1.33931 ( 97.85%)    -1.35353
      30     19.83    -1.98293 (  2.42%)    -1.33047 ( 97.58%)    -1.34623
      31     22.19    -1.91653 (  3.73%)    -1.29724 ( 96.27%)    -1.32036
      32     22.54    -1.90729 (  3.96%)    -1.29262 ( 96.04%)    -1.31698
      33     24.92    -1.84782 (  5.81%)    -1.26285 ( 94.19%)    -1.29684
      34     25.31    -1.83858 (  6.16%)    -1.25822 ( 93.84%)    -1.29399
      35     27.10    -1.79826 (  7.94%)    -1.23804 ( 92.06%)    -1.28252
      36     28.44    -1.76965 (  9.47%)    -1.22371 ( 90.53%)    -1.27543
      37     30.23    -1.73357 ( 11.78%)    -1.20564 ( 88.22%)    -1.26785
      38     32.81    -1.68501 ( 15.65%)    -1.18131 ( 84.35%)    -1.26014
      39     35.58    -1.63710 ( 20.42%)    -1.15731 ( 79.58%)    -1.25527
      40     38.67    -1.58797 ( 26.35%)    -1.13267 ( 73.65%)    -1.25265
      41     40.92    -1.55459 ( 30.96%)    -1.11593 ( 69.04%)    -1.25176
      42     41.24    -1.54996 ( 31.64%)    -1.11361 ( 68.36%)    -1.25166
      43     41.29    -1.54927 ( 31.74%)    -1.11326 ( 68.26%)    -1.25165
      44     41.37    -1.54814 ( 31.91%)    -1.11270 ( 68.09%)    -1.25163
      45     41.79    -1.54216 ( 32.79%)    -1.10969 ( 67.21%)    -1.25151
      46     41.84    -1.54147 ( 32.90%)    -1.10935 ( 67.10%)    -1.25150
      47     42.05    -1.53850 ( 33.34%)    -1.10786 ( 66.66%)    -1.25144
      48     42.62    -1.53050 ( 34.56%)    -1.10384 ( 65.44%)    -1.25128
      49     42.78    -1.52831 ( 34.89%)    -1.10275 ( 65.11%)    -1.25124
      50     43.38    -1.52010 ( 36.17%)    -1.09863 ( 63.83%)    -1.25106
      51     47.49    -1.46669 ( 44.86%)    -1.07182 ( 55.14%)    -1.24898
      52     50.72    -1.42790 ( 51.43%)    -1.05233 ( 48.57%)    -1.24546
      53     51.75    -1.41598 ( 53.44%)    -1.04634 ( 46.56%)    -1.24388
      54     56.04    -1.36912 ( 61.21%)    -1.02278 ( 38.79%)    -1.23476
      55     59.11    -1.33772 ( 66.14%)    -1.00697 ( 33.86%)    -1.22572
      56     61.83    -1.31120 ( 70.05%)    -0.99362 ( 29.95%)    -1.21609
      57     65.23    -1.27981 ( 74.33%)    -0.97780 ( 25.67%)    -1.20229
      58     65.74    -1.27518 ( 74.93%)    -0.97547 ( 25.07%)    -1.20004
      59     68.00    -1.25531 ( 77.38%)    -0.96545 ( 22.62%)    -1.18976
      60     70.42    -1.23484 ( 79.73%)    -0.95511 ( 20.27%)    -1.17814
      61     74.87    -1.19885 ( 83.41%)    -0.93694 ( 16.59%)    -1.15540
      62     79.26    -1.16547 ( 86.33%)    -0.92005 ( 13.67%)    -1.13192
      63     83.15    -1.13751 ( 88.43%)    -0.90589 ( 11.57%)    -1.11072
      64     83.91    -1.13213 ( 88.81%)    -0.90316 ( 11.19%)    -1.10650
      65     85.10    -1.12393 ( 89.35%)    -0.89901 ( 10.65%)    -1.09998
      66     85.52    -1.12105 ( 89.54%)    -0.89755 ( 10.46%)    -1.09766
      67     86.66    -1.11334 ( 90.02%)    -0.89364 (  9.98%)    -1.09142
      68     86.87    -1.11191 ( 90.11%)    -0.89291 (  9.89%)    -1.09025
      69     88.64    -1.10015 ( 90.81%)    -0.88694 (  9.19%)    -1.08054
      70     90.30    -1.08929 ( 91.41%)    -0.88143 (  8.59%)    -1.07143
      71     91.67    -1.08052 ( 91.87%)    -0.87697 (  8.13%)    -1.06397
      72     92.51    -1.07519 ( 92.14%)    -0.87427 (  7.86%)    -1.05940
      73     92.75    -1.07368 ( 92.21%)    -0.87350 (  7.79%)    -1.05809
      74     93.76    -1.06740 ( 92.52%)    -0.87030 (  7.48%)    -1.05265
      75     95.36    -1.05755 ( 92.97%)    -0.86529 (  7.03%)    -1.04404
      76     95.67    -1.05564 ( 93.06%)    -0.86432 (  6.94%)    -1.04236
      77     96.28    -1.05193 ( 93.22%)    -0.86243 (  6.78%)    -1.03908
      78     97.41    -1.04518 ( 93.51%)    -0.85899 (  6.49%)    -1.03309
      79     99.26    -1.03421 ( 93.95%)    -0.85340 (  6.05%)    -1.02327
      80    102.66    -1.01463 ( 94.67%)    -0.84342 (  5.33%)    -1.00551
      81    103.57    -1.00954 ( 94.85%)    -0.84082 (  5.15%)    -1.00085
      82    109.10    -0.97939 ( 95.77%)    -0.82541 (  4.23%)    -0.97288
      83    111.11    -0.96881 ( 96.06%)    -0.82000 (  3.94%)    -0.96295
      84    112.06    -0.96390 ( 96.19%)    -0.81749 (  3.81%)    -0.95832
      85    112.36    -0.96236 ( 96.23%)    -0.81669 (  3.77%)    -0.95686
      86    112.48    -0.96173 ( 96.24%)    -0.81637 (  3.76%)    -0.95627
      87    113.24    -0.95782 ( 96.34%)    -0.81437 (  3.66%)    -0.95256
      88    113.45    -0.95676 ( 96.36%)    -0.81382 (  3.64%)    -0.95156
      89    114.22    -0.95287 ( 96.46%)    -0.81183 (  3.54%)    -0.94787
      90    114.72    -0.95034 ( 96.52%)    -0.81054 (  3.48%)    -0.94547
      91    115.46    -0.94660 ( 96.60%)    -0.80861 (  3.40%)    -0.94191
      92    116.56    -0.94114 ( 96.73%)    -0.80581 (  3.27%)    -0.93671
      93    117.88    -0.93463 ( 96.87%)    -0.80247 (  3.13%)    -0.93049
      94    118.97    -0.92933 ( 96.97%)    -0.79975 (  3.03%)    -0.92541
      95    119.67    -0.92596 ( 97.04%)    -0.79801 (  2.96%)    -0.92218
      96    119.76    -0.92553 ( 97.05%)    -0.79780 (  2.95%)    -0.92177
      97    138.00    -0.84417 ( 98.31%)    -0.75579 (  1.69%)    -0.84267
      98    141.62    -0.82941 ( 98.47%)    -0.74812 (  1.53%)    -0.82816
      99    141.63    -0.82939 ( 98.47%)    -0.74811 (  1.53%)    -0.82815
     100    142.04    -0.82773 ( 98.49%)    -0.74725 (  1.51%)    -0.82652
     101    142.20    -0.82707 ( 98.49%)    -0.74691 (  1.51%)    -0.82587
     102    142.43    -0.82615 ( 98.50%)    -0.74643 (  1.50%)    -0.82496
     103    142.69    -0.82514 ( 98.51%)    -0.74590 (  1.49%)    -0.82396
     104    142.93    -0.82416 ( 98.52%)    -0.74540 (  1.48%)    -0.82300
     105    143.09    -0.82352 ( 98.53%)    -0.74506 (  1.47%)    -0.82237
     106    144.84    -0.81660 ( 98.60%)    -0.74146 (  1.40%)    -0.81555
     107    147.50    -0.80626 ( 98.70%)    -0.73607 (  1.30%)    -0.80535
     108    148.77    -0.80141 ( 98.74%)    -0.73354 (  1.26%)    -0.80055
     109    150.60    -0.79448 ( 98.80%)    -0.72992 (  1.20%)    -0.79370
     110    153.22    -0.78470 ( 98.88%)    -0.72481 (  1.12%)    -0.78403
     111    154.39    -0.78037 ( 98.91%)    -0.72255 (  1.09%)    -0.77974
     112    156.71    -0.77196 ( 98.97%)    -0.71814 (  1.03%)    -0.77140
     113    160.35    -0.75898 ( 99.06%)    -0.71133 (  0.94%)    -0.75854
     114    163.12    -0.74933 ( 99.13%)    -0.70625 (  0.87%)    -0.74895
     115    165.20    -0.74220 ( 99.17%)    -0.70250 (  0.83%)    -0.74187
     116    176.32    -0.70571 ( 99.36%)    -0.68320 (  0.64%)    -0.70557
     117    179.19    -0.69674 ( 99.40%)    -0.67843 (  0.60%)    -0.69663
     118    180.03    -0.69411 ( 99.41%)    -0.67703 (  0.59%)    -0.69401
     119    181.15    -0.69067 ( 99.42%)    -0.67519 (  0.58%)    -0.69058
     120    181.80    -0.68868 ( 99.43%)    -0.67414 (  0.57%)    -0.68860
     121    181.97    -0.68817 ( 99.43%)    -0.67386 (  0.57%)    -0.68808
     122    182.82    -0.68558 ( 99.44%)    -0.67249 (  0.56%)    -0.68551
     123    184.06    -0.68182 ( 99.46%)    -0.67047 (  0.54%)    -0.68175
     124    184.22    -0.68132 ( 99.46%)    -0.67021 (  0.54%)    -0.68126
     125    184.71    -0.67987 ( 99.47%)    -0.66944 (  0.53%)    -0.67981
     126    184.96    -0.67910 ( 99.47%)    -0.66903 (  0.53%)    -0.67905
     127    185.06    -0.67880 ( 99.47%)    -0.66886 (  0.53%)    -0.67875
     128    185.10    -0.67868 ( 99.47%)    -0.66880 (  0.53%)    -0.67862
     129    185.20    -0.67838 ( 99.47%)    -0.66864 (  0.53%)    -0.67833
     130    185.24    -0.67829 ( 99.47%)    -0.66859 (  0.53%)    -0.67823
     131    185.71    -0.67687 ( 99.48%)    -0.66783 (  0.52%)    -0.67682
     132    186.96    -0.67314 ( 99.49%)    -0.66584 (  0.51%)    -0.67311
     133    195.00    -0.64989 ( 99.57%)    -0.65337 (  0.43%)    -0.64990
     134    197.13    -0.64391 ( 99.59%)    -0.65015 (  0.41%)    -0.64394
     135    197.41    -0.64314 ( 99.59%)    -0.64973 (  0.41%)    -0.64316
     136    200.59    -0.63435 ( 99.62%)    -0.64499 (  0.38%)    -0.63440
     137    200.84    -0.63369 ( 99.62%)    -0.64463 (  0.38%)    -0.63373
     138    200.93    -0.63342 ( 99.62%)    -0.64449 (  0.38%)    -0.63347
     139    201.01    -0.63323 ( 99.62%)    -0.64439 (  0.38%)    -0.63327
     140    201.04    -0.63313 ( 99.62%)    -0.64433 (  0.38%)    -0.63318
     141    201.19    -0.63273 ( 99.62%)    -0.64411 (  0.38%)    -0.63277
     142    201.99    -0.63055 ( 99.63%)    -0.64294 (  0.37%)    -0.63060
     143    202.45    -0.62930 ( 99.63%)    -0.64226 (  0.37%)    -0.62935
     144    203.04    -0.62771 ( 99.63%)    -0.64140 (  0.37%)    -0.62776
     145    206.82    -0.61763 ( 99.66%)    -0.63594 (  0.34%)    -0.61770
     146    212.13    -0.60384 ( 99.69%)    -0.62843 (  0.31%)    -0.60391
     147    217.74    -0.58969 ( 99.72%)    -0.62070 (  0.28%)    -0.58977
     148    222.83    -0.57720 ( 99.75%)    -0.61385 (  0.25%)    -0.57730
     149    226.59    -0.56821 ( 99.76%)    -0.60889 (  0.24%)    -0.56830
     150    246.86    -0.52263 ( 99.83%)    -0.58352 (  0.17%)    -0.52274
     151    251.56    -0.51271 ( 99.84%)    -0.57793 (  0.16%)    -0.51281
     152    257.67    -0.50015 ( 99.86%)    -0.57082 (  0.14%)    -0.50025
     153    260.94    -0.49358 ( 99.87%)    -0.56708 (  0.13%)    -0.49368
     154    262.87    -0.48974 ( 99.87%)    -0.56489 (  0.13%)    -0.48984
     155    264.20    -0.48713 ( 99.87%)    -0.56340 (  0.13%)    -0.48723
     156    264.75    -0.48606 ( 99.87%)    -0.56279 (  0.13%)    -0.48616
     157    264.82    -0.48592 ( 99.87%)    -0.56271 (  0.13%)    -0.48602
     158    264.92    -0.48573 ( 99.87%)    -0.56260 (  0.13%)    -0.48583
     159    265.01    -0.48554 ( 99.87%)    -0.56249 (  0.13%)    -0.48564
     160    265.14    -0.48529 ( 99.87%)    -0.56235 (  0.13%)    -0.48539
     161    265.19    -0.48520 ( 99.87%)    -0.56230 (  0.13%)    -0.48530
     162    265.51    -0.48457 ( 99.87%)    -0.56193 (  0.13%)    -0.48466
     163    265.67    -0.48425 ( 99.87%)    -0.56176 (  0.13%)    -0.48435
     164    266.08    -0.48346 ( 99.88%)    -0.56130 (  0.12%)    -0.48356
     165    267.74    -0.48024 ( 99.88%)    -0.55946 (  0.12%)    -0.48034
     166    268.61    -0.47858 ( 99.88%)    -0.55850 (  0.12%)    -0.47867
     167    268.88    -0.47805 ( 99.88%)    -0.55820 (  0.12%)    -0.47814
     168    269.21    -0.47742 ( 99.88%)    -0.55783 (  0.12%)    -0.47751
     169    271.70    -0.47268 ( 99.89%)    -0.55511 (  0.11%)    -0.47277
     170    273.38    -0.46950 ( 99.89%)    -0.55328 (  0.11%)    -0.46959
     171    274.76    -0.46693 ( 99.89%)    -0.55180 (  0.11%)    -0.46702
     172    275.86    -0.46487 ( 99.89%)    -0.55060 (  0.11%)    -0.46497
     173    279.69    -0.45782 ( 99.90%)    -0.54652 (  0.10%)    -0.45791
     174    280.74    -0.45592 ( 99.90%)    -0.54542 (  0.10%)    -0.45601
     175    284.60    -0.44897 ( 99.90%)    -0.54137 (  0.10%)    -0.44906
     176    286.64    -0.44535 ( 99.91%)    -0.53925 (  0.09%)    -0.44544
     177    289.15    -0.44094 ( 99.91%)    -0.53667 (  0.09%)    -0.44103
     178    291.56    -0.43676 ( 99.91%)    -0.53421 (  0.09%)    -0.43684
     179    292.21    -0.43564 ( 99.91%)    -0.53355 (  0.09%)    -0.43573
     180    293.63    -0.43320 ( 99.92%)    -0.53212 (  0.08%)    -0.43329
     181    298.68    -0.42465 ( 99.92%)    -0.52706 (  0.08%)    -0.42473
     182    298.71    -0.42461 ( 99.92%)    -0.52704 (  0.08%)    -0.42469
   ------------------------------------------------------------------------

   temp. (K)  partition function   enthalpy   heat capacity  entropy
                                   cal/mol     cal/K/mol   cal/K/mol   J/K/mol
 298.15  VIB  0.103+114           122058.340    766.140    795.754
         ROT  0.365E+11              888.752      2.981     51.314
         INT  0.375+124           122947.092    769.121    847.068
         TR   0.157E+30             1481.254      4.968     49.807
         TOT                      124428.3459   774.0895   896.8748  3752.5241

       T/K    H(0)-H(T)+PV         H(T)/Eh          T*S/Eh         G(T)/Eh
   ------------------------------------------------------------------------
    298.15    0.198289E+00    0.253522E+01    0.426134E+00    0.210908E+01
   ------------------------------------------------------------------------

         :::::::::::::::::::::::::::::::::::::::::::::::::::::
         ::                  THERMODYNAMIC                  ::
         :::::::::::::::::::::::::::::::::::::::::::::::::::::
         :: total free energy        -572.785535123155 Eh   ::
         ::.................................................::
         :: total energy             -574.894619939059 Eh   ::
         :: zero point energy           2.336929771361 Eh   ::
         :: G(RRHO) w/o ZPVE           -0.227844955457 Eh   ::
         :: G(RRHO) contrib.            2.109084815904 Eh   ::
         :::::::::::::::::::::::::::::::::::::::::::::::::::::
imag cut-off (cm-1) :    5.00
 found            1  significant imaginary frequency
 writing imag mode distorted coords to xtbhess.xyz
 for further optimization.

optimized geometry written to: xtbopt.xyz


           -------------------------------------------------
          | TOTAL ENERGY             -574.894619939059 Eh   |
          | TOTAL ENTHALPY           -572.359400976796 Eh   |
          | TOTAL FREE ENERGY        -572.785535123155 Eh   |
          | GRADIENT NORM               0.000525431911 Eh/α |
          | HOMO-LUMO GAP               0.741486784928 eV   |
           -------------------------------------------------

------------------------------------------------------------------------
 * finished run on 2021/11/21 at 09:17:00.592     
------------------------------------------------------------------------
 total:
 * wall-time:     0 d,  1 h, 26 min, 28.454 sec
 *  cpu-time:     0 d,  1 h, 26 min, 28.503 sec
 * ratio c/w:     1.000 speedup
 SCF:
 * wall-time:     0 d,  0 h,  0 min, 19.425 sec
 *  cpu-time:     0 d,  0 h,  0 min, 19.425 sec
 * ratio c/w:     1.000 speedup
 ANC optimizer:
 * wall-time:     0 d,  0 h,  8 min, 12.465 sec
 *  cpu-time:     0 d,  0 h,  8 min, 12.465 sec
 * ratio c/w:     1.000 speedup
 analytical hessian:
 * wall-time:     0 d,  1 h, 17 min, 55.964 sec
 *  cpu-time:     0 d,  1 h, 17 min, 56.013 sec
 * ratio c/w:     1.000 speedup

