332
 energy: -572.546311318340 gnorm: 1.932095674587 xtb: 6.4.1 (bd6e46d)
C        49.16574600000000    3.50931800000000    0.78872400000000
C        50.05572400000000    2.56905900000000    0.59052900000000
C        49.39422300000000    1.30898400000000    0.28972200000000
C        49.75266100000000    0.00332200000000    0.00104000000000
C        48.92748200000000   -1.12775000000000   -0.08417600000000
C        49.38304800000001   -2.33647400000000    0.49713100000000
C        48.41035300000000   -3.26902100000000    0.29697600000000
C        47.37926000000000   -2.60132000000000   -0.40601100000000
N        47.71598500000001   -1.32046000000000   -0.62292500000000
C        46.22129900000000   -3.32743500000000   -0.73772800000000
C        44.90319800000000   -2.88473900000000   -0.62419400000000
C        43.59085200000000   -3.48687400000000   -0.72117300000000
C        42.66922400000000   -2.54022600000000   -0.51508800000000
C        43.36611000000000   -1.29439600000000   -0.27835700000000
N        44.68718300000000   -1.57414700000000   -0.35804300000000
C        42.96686800000000    0.00760200000000   -0.01035400000000
C        43.79948000000000    1.14427800000000    0.06555500000000
C        43.36533700000000    2.34626700000000   -0.54458600000000
C        44.36085000000000    3.26265600000000   -0.35263000000000
C        45.37500100000000    2.58941300000000    0.37130100000000
N        45.00980400000001    1.32159100000000    0.61012500000000
C        46.54464200000000    3.29636900000000    0.69280100000000
C        47.85989600000000    2.89284400000000    0.62278500000000
N        48.04951800000000    1.58174100000000    0.32638300000000
H        49.33301100000001    4.53786200000000    1.02731400000000
H        51.12598300000000    2.69239600000000    0.63954700000000
H        50.34356900000000   -2.52217700000000    1.01570800000000
H        48.44723500000000   -4.32563000000000    0.62230300000000
H        47.11270000000000   -0.55305000000000   -1.17044500000000
H        46.30969000000000   -4.36286200000000   -1.11607500000000
H        43.39217600000001   -4.54757400000000   -0.92991700000000
H        41.59981400000001   -2.73216000000000   -0.53432100000000
H        41.89192500000000    0.09687100000000    0.12739100000000
H        42.41168200000001    2.53782500000000   -1.07338300000000
H        44.34642800000001    4.31288500000000   -0.69907100000000
H        45.60312900000000    0.56414700000000    1.18212200000000
H        46.47613400000000    4.35377400000000    1.04951700000000
C       156.20871700000001   -3.49430500000000    0.82509400000000
C       155.31873999999999   -2.55615400000000    0.61714400000000
C       155.98024100000001   -1.29927200000000    0.30326700000000
C       155.62180300000003    0.00332200000000    0.00104000000000
C       156.44698099999999    1.13344800000000   -0.09591800000000
C       155.99141599999999    2.34814400000000    0.47280400000000
C       156.96411000000001    3.27856100000000    0.26297400000000
C       157.99520400000000    2.60359500000000   -0.43304100000000
N       157.65847900000003    1.32055200000000   -0.63664000000000
C       159.15316400000000    3.32622700000000   -0.77228100000000
C       160.47126499999999    2.88473400000000   -0.65415500000000
C       161.78361200000003    3.48582800000000   -0.75738300000000
C       162.70523900000003    2.54137200000000   -0.54147700000000
C       162.00835400000003    1.29806800000000   -0.29182000000000
N       160.68727999999999    1.57697700000000   -0.37440700000000
C       162.40759600000004   -0.00107600000000   -0.01030900000000
C       161.57498300000003   -1.13690300000000    0.07740100000000
C       162.00912700000003   -2.34516400000000   -0.52022300000000
C       161.01361399999999   -3.25951000000000   -0.31876000000000
C       159.99946299999999   -2.57878400000000    0.39814000000000
N       160.36465899999999   -1.30855000000000    0.62378400000000
C       158.82982100000004   -3.28236300000000    0.72696500000000
C       157.51456800000000   -2.87958700000000    0.65276200000000
N       157.32494500000001   -1.57163300000000    0.34275900000000
H       156.04145299999999   -4.52031500000000    1.07435400000000
H       154.24848100000000   -2.67897600000000    0.66744100000000
H       155.03089399999999    2.53922300000000    0.98942400000000
H       156.92722800000001    4.33849300000000    0.57731000000000
H       158.26176400000000    0.54749700000000   -1.17616000000000
H       159.06477400000000    4.35766800000000   -1.16136100000000
H       161.98228700000004    4.54430400000000   -0.97713200000000
H       163.77464900000001    2.73309600000000   -0.56270300000000
H       163.48253900000000   -0.08891000000000    0.12835600000000
H       162.96278100000001   -2.54220300000000   -1.04700200000000
H       161.02803499999999   -4.31328000000000   -0.65427500000000
H       159.77133500000002   -0.54520700000000    1.18788300000000
H       158.89832899999999   -4.33600600000000    1.09464300000000
C        52.66941700000000    0.01512200000000    0.00532500000000
C        53.88495000000000   -0.01022100000000   -0.00515500000000
C        55.30646700000000   -0.03164500000000   -0.00933100000000
C        56.51502900000000   -0.03385600000000   -0.00922500000000
C        57.93610400000000   -0.01489600000000   -0.00985300000000
C        59.14724600000001    0.01512200000000    0.00532500000000
C        68.26214400000001    0.01512200000000    0.00532500000000
C        69.47767700000001   -0.01022100000000   -0.00515500000000
C        70.89919400000001   -0.03164500000000   -0.00933100000000
C        72.10775500000000   -0.03385600000000   -0.00922500000000
C        73.52883100000000   -0.01489600000000   -0.00985300000000
C        74.73997300000001    0.01512200000000    0.00532500000000
C        83.85487000000001    0.01512200000000    0.00532500000000
C        85.07040300000000   -0.01022100000000   -0.00515500000000
C        86.49191999999999   -0.03164500000000   -0.00933100000000
C        87.70048199999999   -0.03385600000000   -0.00922500000000
C        89.12155700000001   -0.01489600000000   -0.00985300000000
C        90.33269900000001    0.01512200000000    0.00532500000000
C        99.44759700000002    0.01512200000000    0.00532500000000
C       100.66313000000001   -0.01022100000000   -0.00515500000000
C       102.08464700000002   -0.03164500000000   -0.00933100000000
C       103.29320800000001   -0.03385600000000   -0.00922500000000
C       104.71428400000001   -0.01489600000000   -0.00985300000000
C       105.92542600000000    0.01512200000000    0.00532500000000
C       115.04032400000000    0.01512200000000    0.00532500000000
C       116.25585599999999   -0.01022100000000   -0.00515500000000
C       117.67737300000000   -0.03164500000000   -0.00933100000000
C       118.88593500000000   -0.03385600000000   -0.00922500000000
C       120.30701000000002   -0.01489600000000   -0.00985300000000
C       121.51815200000000    0.01512200000000    0.00532500000000
C       130.63305000000000    0.01512200000000    0.00532500000000
C       131.84858299999999   -0.01022100000000   -0.00515500000000
C       133.27010000000001   -0.03164500000000   -0.00933100000000
C       134.47866200000001   -0.03385600000000   -0.00922500000000
C       135.89973700000002   -0.01489600000000   -0.00985300000000
C       137.11087900000001    0.01512200000000    0.00532500000000
C       146.22577700000002    0.01512200000000    0.00532500000000
C       147.44130999999999   -0.01022100000000   -0.00515500000000
C       148.86282700000004   -0.03164500000000   -0.00933100000000
C       150.07138800000001   -0.03385600000000   -0.00922500000000
C       151.49246299999999   -0.01489600000000   -0.00985300000000
C       152.70360600000004    0.01512200000000    0.00532500000000
C        60.91078000000000   -3.59335200000000    0.00049900000000
C        60.03623000000000   -2.59844700000000   -0.00980300000000
C        60.70769400000000   -1.31966400000000    0.00338700000000
C        60.31066300000000   -0.00407800000000   -0.00139200000000
C        61.12185500000000    1.14024500000000   -0.15551800000000
C        60.64282900000000    2.19276100000000   -0.96758300000000
C        61.62991500000000    3.13551400000000   -0.95905200000000
C        62.67718600000000    2.63371900000000   -0.14624900000000
N        62.33833300000000    1.42735200000000    0.32649600000000
C        63.83756300000000    3.41170200000000    0.00810000000000
C        65.15855200000000    2.95382900000000   -0.02129300000000
C        66.47112199999999    3.58196200000000   -0.08242000000000
C        67.38523400000000    2.62689800000000   -0.08500400000000
C        66.71168800000000    1.34002400000000   -0.02581400000000
N        65.39962900000000    1.62862300000000    0.00897500000000
C        67.11397100000001   -0.00407800000000   -0.00139200000000
C        66.28181700000000   -1.11786700000000    0.18088900000000
C        66.72177499999999   -2.14952500000000    1.04420000000000
C        65.72359299999999   -3.07286500000000    1.04882100000000
C        64.70067800000000   -2.59292700000000    0.19539200000000
N        65.06785499999999   -1.41168000000000   -0.31511600000000
C        63.54376800000000   -3.36833500000000    0.03832300000000
C        62.22299300000000   -2.94885700000000    0.02163800000000
N        62.04660200000000   -1.61065300000000    0.02253800000000
H        60.74226100000000   -4.65551900000000   -0.00490300000000
H        58.94840200000000   -2.78448300000000   -0.02682900000000
H        59.67875200000000    2.26813300000000   -1.50190000000000
H        61.59176800000001    4.10662900000000   -1.49149500000000
H        62.94601100000000    0.79025200000000    1.01512600000000
H        63.78246400000000    4.49796400000000    0.15221600000000
H        66.68954900000000    4.64995400000000   -0.12075100000000
H        68.46154900000001    2.77294200000000   -0.12463100000000
H        67.67578500000000   -2.21393600000000    1.60174800000000
H        65.74901199999999   -4.01818300000000    1.62414100000000
H        64.48077900000000   -0.79222400000000   -1.03876600000000
H        63.60448700000001   -4.48007500000000   -0.07580600000000
C        76.50350700000000   -3.59335200000000    0.00049900000000
C        75.62895700000000   -2.59844700000000   -0.00980300000000
C        76.30042000000000   -1.31966400000000    0.00338700000000
C        75.90338900000000   -0.00407800000000   -0.00139200000000
C        76.71458199999999    1.14024500000000   -0.15551800000000
C        76.23555600000000    2.19276100000000   -0.96758300000000
C        77.22264100000000    3.13551400000000   -0.95905200000000
C        78.26991200000001    2.63371900000000   -0.14624900000000
N        77.93105900000000    1.42735200000000    0.32649600000000
C        79.43029000000000    3.41170200000000    0.00810000000000
C        80.75127900000000    2.95382900000000   -0.02129300000000
C        82.06384900000000    3.58196200000000   -0.08242000000000
C        82.97796099999999    2.62689800000000   -0.08500400000000
C        82.30441399999999    1.34002400000000   -0.02581400000000
N        80.99235600000000    1.62862300000000    0.00897500000000
C        82.70669800000000   -0.00407800000000   -0.00139200000000
C        81.87454400000000   -1.11786700000000    0.18088900000000
C        82.31450200000000   -2.14952500000000    1.04420000000000
C        81.31632000000002   -3.07286500000000    1.04882100000000
C        80.29340400000000   -2.59292700000000    0.19539200000000
N        80.66058099999999   -1.41168000000000   -0.31511600000000
C        79.13649500000000   -3.36833500000000    0.03832300000000
C        77.81572000000000   -2.94885700000000    0.02163800000000
N        77.63932900000000   -1.61065300000000    0.02253800000000
H        76.33498700000000   -4.65551900000000   -0.00490300000000
H        74.54112900000000   -2.78448300000000   -0.02682900000000
H        75.27147800000000    2.26813300000000   -1.50190000000000
H        77.18449400000000    4.10662900000000   -1.49149500000000
H        78.53873800000001    0.79025200000000    1.01512600000000
H        79.37519000000000    4.49796400000000    0.15221600000000
H        82.28227500000000    4.64995400000000   -0.12075100000000
H        84.05427600000000    2.77294200000000   -0.12463100000000
H        83.26851200000000   -2.21393600000000    1.60174800000000
H        81.34173800000001   -4.01818300000000    1.62414100000000
H        80.07350500000000   -0.79222400000000   -1.03876600000000
H        79.19721300000000   -4.48007500000000   -0.07580600000000
C        92.09623300000000   -3.59335200000000    0.00049900000000
C        91.22168300000001   -2.59844700000000   -0.00980300000000
C        91.89314700000000   -1.31966400000000    0.00338700000000
C        91.49611600000000   -0.00407800000000   -0.00139200000000
C        92.30730800000001    1.14024500000000   -0.15551800000000
C        91.82828200000000    2.19276100000000   -0.96758300000000
C        92.81536800000001    3.13551400000000   -0.95905200000000
C        93.86263900000000    2.63371900000000   -0.14624900000000
N        93.52378600000002    1.42735200000000    0.32649600000000
C        95.02301600000000    3.41170200000000    0.00810000000000
C        96.34400500000000    2.95382900000000   -0.02129300000000
C        97.65657500000002    3.58196200000000   -0.08242000000000
C        98.57068800000002    2.62689800000000   -0.08500400000000
C        97.89714100000000    1.34002400000000   -0.02581400000000
N        96.58508300000001    1.62862300000000    0.00897500000000
C        98.29942400000000   -0.00407800000000   -0.00139200000000
C        97.46727000000000   -1.11786700000000    0.18088900000000
C        97.90722900000000   -2.14952500000000    1.04420000000000
C        96.90904600000000   -3.07286500000000    1.04882100000000
C        95.88613100000001   -2.59292700000000    0.19539200000000
N        96.25330800000000   -1.41168000000000   -0.31511600000000
C        94.72922100000000   -3.36833500000000    0.03832300000000
C        93.40844600000000   -2.94885700000000    0.02163800000000
N        93.23205500000000   -1.61065300000000    0.02253800000000
H        91.92771399999999   -4.65551900000000   -0.00490300000000
H        90.13385500000000   -2.78448300000000   -0.02682900000000
H        90.86420500000000    2.26813300000000   -1.50190000000000
H        92.77722100000000    4.10662900000000   -1.49149500000000
H        94.13146399999999    0.79025200000000    1.01512600000000
H        94.96791700000001    4.49796400000000    0.15221600000000
H        97.87500199999999    4.64995400000000   -0.12075100000000
H        99.64700200000001    2.77294200000000   -0.12463100000000
H        98.86123800000000   -2.21393600000000    1.60174800000000
H        96.93446500000000   -4.01818300000000    1.62414100000000
H        95.66623199999999   -0.79222400000000   -1.03876600000000
H        94.78994000000000   -4.48007500000000   -0.07580600000000
C       107.68896000000001   -3.59335200000000    0.00049900000000
C       106.81441000000000   -2.59844700000000   -0.00980300000000
C       107.48587300000001   -1.31966400000000    0.00338700000000
C       107.08884200000001   -0.00407800000000   -0.00139200000000
C       107.90003500000000    1.14024500000000   -0.15551800000000
C       107.42100900000001    2.19276100000000   -0.96758300000000
C       108.40809400000001    3.13551400000000   -0.95905200000000
C       109.45536500000000    2.63371900000000   -0.14624900000000
N       109.11651300000000    1.42735200000000    0.32649600000000
C       110.61574299999999    3.41170200000000    0.00810000000000
C       111.93673200000001    2.95382900000000   -0.02129300000000
C       113.24930200000000    3.58196200000000   -0.08242000000000
C       114.16341400000000    2.62689800000000   -0.08500400000000
C       113.48986700000002    1.34002400000000   -0.02581400000000
N       112.17780900000000    1.62862300000000    0.00897500000000
C       113.89215100000001   -0.00407800000000   -0.00139200000000
C       113.05999700000000   -1.11786700000000    0.18088900000000
C       113.49995500000000   -2.14952500000000    1.04420000000000
C       112.50177300000000   -3.07286500000000    1.04882100000000
C       111.47885700000000   -2.59292700000000    0.19539200000000
N       111.84603500000000   -1.41168000000000   -0.31511600000000
C       110.32194800000002   -3.36833500000000    0.03832300000000
C       109.00117299999999   -2.94885700000000    0.02163800000000
N       108.82478200000000   -1.61065300000000    0.02253800000000
H       107.52043999999999   -4.65551900000000   -0.00490300000000
H       105.72658200000001   -2.78448300000000   -0.02682900000000
H       106.45693100000000    2.26813300000000   -1.50190000000000
H       108.36994799999999    4.10662900000000   -1.49149500000000
H       109.72419100000002    0.79025200000000    1.01512600000000
H       110.56064300000000    4.49796400000000    0.15221600000000
H       113.46772900000001    4.64995400000000   -0.12075100000000
H       115.23972900000000    2.77294200000000   -0.12463100000000
H       114.45396500000001   -2.21393600000000    1.60174800000000
H       112.52719200000000   -4.01818300000000    1.62414100000000
H       111.25895800000001   -0.79222400000000   -1.03876600000000
H       110.38266600000000   -4.48007500000000   -0.07580600000000
C       123.28168599999999   -3.59335200000000    0.00049900000000
C       122.40713600000001   -2.59844700000000   -0.00980300000000
C       123.07859999999999   -1.31966400000000    0.00338700000000
C       122.68156900000000   -0.00407800000000   -0.00139200000000
C       123.49276100000002    1.14024500000000   -0.15551800000000
C       123.01373599999999    2.19276100000000   -0.96758300000000
C       124.00082100000002    3.13551400000000   -0.95905200000000
C       125.04809200000000    2.63371900000000   -0.14624900000000
N       124.70923900000000    1.42735200000000    0.32649600000000
C       126.20846899999999    3.41170200000000    0.00810000000000
C       127.52945900000000    2.95382900000000   -0.02129300000000
C       128.84202800000000    3.58196200000000   -0.08242000000000
C       129.75614100000001    2.62689800000000   -0.08500400000000
C       129.08259400000000    1.34002400000000   -0.02581400000000
N       127.77053600000002    1.62862300000000    0.00897500000000
C       129.48487800000001   -0.00407800000000   -0.00139200000000
C       128.65272300000001   -1.11786700000000    0.18088900000000
C       129.09268200000000   -2.14952500000000    1.04420000000000
C       128.09450000000001   -3.07286500000000    1.04882100000000
C       127.07158400000002   -2.59292700000000    0.19539200000000
N       127.43876100000000   -1.41168000000000   -0.31511600000000
C       125.91467500000000   -3.36833500000000    0.03832300000000
C       124.59389900000001   -2.94885700000000    0.02163800000000
N       124.41750900000001   -1.61065300000000    0.02253800000000
H       123.11316700000000   -4.65551900000000   -0.00490300000000
H       121.31930800000001   -2.78448300000000   -0.02682900000000
H       122.04965800000001    2.26813300000000   -1.50190000000000
H       123.96267400000001    4.10662900000000   -1.49149500000000
H       125.31691700000000    0.79025200000000    1.01512600000000
H       126.15337000000001    4.49796400000000    0.15221600000000
H       129.06045499999999    4.64995400000000   -0.12075100000000
H       130.83245600000001    2.77294200000000   -0.12463100000000
H       130.04669100000001   -2.21393600000000    1.60174800000000
H       128.11991800000001   -4.01818300000000    1.62414100000000
H       126.85168500000000   -0.79222400000000   -1.03876600000000
H       125.97539300000001   -4.48007500000000   -0.07580600000000
C       138.87441300000000   -3.59335200000000    0.00049900000000
C       137.99986300000000   -2.59844700000000   -0.00980300000000
C       138.67132699999999   -1.31966400000000    0.00338700000000
C       138.27429599999999   -0.00407800000000   -0.00139200000000
C       139.08548800000003    1.14024500000000   -0.15551800000000
C       138.60646199999999    2.19276100000000   -0.96758300000000
C       139.59354700000000    3.13551400000000   -0.95905200000000
C       140.64081899999999    2.63371900000000   -0.14624900000000
N       140.30196599999999    1.42735200000000    0.32649600000000
C       141.80119600000000    3.41170200000000    0.00810000000000
C       143.12218500000000    2.95382900000000   -0.02129300000000
C       144.43475500000000    3.58196200000000   -0.08242000000000
C       145.34886700000001    2.62689800000000   -0.08500400000000
C       144.67532100000000    1.34002400000000   -0.02581400000000
N       143.36326199999999    1.62862300000000    0.00897500000000
C       145.07760400000001   -0.00407800000000   -0.00139200000000
C       144.24545000000001   -1.11786700000000    0.18088900000000
C       144.68540800000000   -2.14952500000000    1.04420000000000
C       143.68722600000001   -3.07286500000000    1.04882100000000
C       142.66431000000003   -2.59292700000000    0.19539200000000
N       143.03148800000000   -1.41168000000000   -0.31511600000000
C       141.50740099999999   -3.36833500000000    0.03832300000000
C       140.18662600000002   -2.94885700000000    0.02163800000000
N       140.01023499999999   -1.61065300000000    0.02253800000000
H       138.70589300000000   -4.65551900000000   -0.00490300000000
H       136.91203500000000   -2.78448300000000   -0.02682900000000
H       137.64238399999999    2.26813300000000   -1.50190000000000
H       139.55540099999999    4.10662900000000   -1.49149500000000
H       140.90964399999999    0.79025200000000    1.01512600000000
H       141.74609599999999    4.49796400000000    0.15221600000000
H       144.65318199999999    4.64995400000000   -0.12075100000000
H       146.42518200000001    2.77294200000000   -0.12463100000000
H       145.63941800000001   -2.21393600000000    1.60174800000000
H       143.71264500000004   -4.01818300000000    1.62414100000000
H       142.44441100000000   -0.79222400000000   -1.03876600000000
H       141.56811900000000   -4.48007500000000   -0.07580600000000
332
 energy: -573.359814400423 gnorm: 0.818960234615 xtb: 6.4.1 (bd6e46d)
C        49.16003903728462    3.51266086784668    0.79012156902966
C        50.06532546296572    2.56377666266615    0.58835415263278
C        49.39095188662761    1.30885798513594    0.28762712569286
C        49.75051797025944    0.01059818455316    0.00232672158118
C        48.93928116753824   -1.12080277251303   -0.08084282090793
C        49.38817746989256   -2.33925033387757    0.49884076591328
C        48.41362104767787   -3.27164490631623    0.29440240932032
C        47.37408882622206   -2.60853780315113   -0.40918000169458
N        47.71140463844289   -1.31490287633706   -0.62627648507773
C        46.21275607064240   -3.33067275951468   -0.74127179700974
C        44.90193329616201   -2.87517705838625   -0.62697606808813
C        43.59121887072179   -3.49365584010842   -0.72377004423818
C        42.66515778801499   -2.54221263913848   -0.51458176959735
C        43.37398792904455   -1.29713070393780   -0.27467863982191
N        44.69453807442977   -1.56785493135690   -0.35634474536491
C        42.96415154878834   -0.00010439785902   -0.00900636934628
C        43.79106149729802    1.14018424985684    0.06421073062362
C        43.36139003329674    2.34837023228517   -0.54317093732700
C        44.35828577739270    3.26552213248216   -0.35051732749533
C        45.37969762345907    2.59785645189480    0.37283775653941
N        45.01586689162115    1.31564392029007    0.60992493006457
C        46.55014454989911    3.30436495469813    0.69794078793929
C        47.86043976148684    2.88197374789382    0.62355402508950
N        48.04791555506934    1.57542409237647    0.32633290217786
H        49.33199454407451    4.53993784676344    1.02792332197978
H        51.12846983103824    2.69077687409597    0.63912914007684
H        50.33900949558674   -2.51913804620516    1.01330778222898
H        48.44529985822643   -4.31941744712739    0.61983211520276
H        47.12165447474726   -0.56578051336242   -1.15958585946954
H        46.31118817624807   -4.36132855987746   -1.10963633916625
H        43.39356447770798   -4.54512509819539   -0.92952096449257
H        41.60042538144371   -2.72950723376770   -0.53366529391887
H        41.89190861510088    0.10024629953347    0.12333032025236
H        42.41690836550071    2.53468840318648   -1.07049575567147
H        44.34844287809868    4.30674000443706   -0.69669527055194
H        45.59391003130850    0.57628117839323    1.17032985755542
H        46.47297964993921    4.35176871371172    1.04401123201606
C       156.21442694407870   -3.49763193638765    0.82652703616817
C       155.30913075352930   -2.55089283409591    0.61491553816607
C       155.98349188669417   -1.29915107611188    0.30117385428964
C       155.62396368728989   -0.00385350603314    0.00238650145207
C       156.43520695020067    1.12653875501974   -0.09251500877982
C       155.98629046965152    2.35094091412017    0.47448756625037
C       156.96083942381529    3.28115789157370    0.26037553273225
C       158.00037959623828    2.61078198558922   -0.43628739792642
N       157.66307076620947    1.31496421468083   -0.63993447089584
C       159.16170532401333    3.32942820227488   -0.77585877000347
C       160.47253010307131    2.87514308486895   -0.65683856161193
C       161.78324475644331    3.49258326219449   -0.76004913112115
C       162.70930554431698    2.54336361937590   -0.54099169108247
C       162.00047630841738    1.30084104168404   -0.28817056849348
N       160.67992459455218    1.57070305677245   -0.37264269355774
C       162.41031253808657    0.00664391065241   -0.00904112243416
C       161.58340148404747   -1.13282334956410    0.07601374217508
C       162.01307362541334   -2.34725197837449   -0.51878622935504
C       161.01617765134239   -3.26235434085485   -0.31661738593453
C       159.99476589919925   -2.58721135296873    0.39976499037363
N       160.35859663643498   -1.30260515883938    0.62352252120267
C       158.82431763652548   -3.29030455479051    0.73218560917383
C       157.51402033395362   -2.86870523037501    0.65341389289550
N       157.32653513058906   -1.56531235625337    0.34264430231342
H       156.04247042785966   -4.52238481985918    1.07498392142200
H       154.24599813178446   -2.67736954781139    0.66700651242164
H       155.03545583765063    2.53615936596043    0.98705312925833
H       156.92916258185869    4.33225551511852    0.57490337386655
H       158.25281022766359    0.56034084929767   -1.16543495666712
H       159.06327596575247    4.35620253113959   -1.15490522810326
H       161.98089848918713    4.54185921736764   -0.97671021745519
H       163.77403756785884    2.73045016822659   -0.56201965448828
H       163.48255531209787   -0.09232733997378    0.12433059326294
H       162.95755452580278   -2.53903658980938   -1.04414783969484
H       161.02602008321932   -4.30711076430740   -0.65196380743100
H       159.78055400779911   -0.55746270510590    1.17621674448842
H       158.90148317061283   -4.33405797218983    1.08911543160059
C        52.66800011013243    0.01444648029118    0.00553662006581
C        53.89216826813750   -0.01060425809393   -0.00502356896921
C        55.29536317504460   -0.03132901158529   -0.00935152961685
C        56.52009795892541   -0.03373960945392   -0.00889086455294
C        57.89557564933803   -0.01352987439893   -0.00920091052095
C        59.09157211355544    0.02210980943596    0.00291325061440
C        68.32203244596397    0.01005116097505    0.00799946041392
C        69.52009929788511   -0.01329986340748   -0.00573355651832
C        70.89047207560678   -0.03070180205283   -0.00984359681829
C        72.11637472936323   -0.03349124755715   -0.00882906308660
C        73.48738619048328   -0.01373311441040   -0.00913973063741
C        74.68502984118575    0.02192457738326    0.00299960240788
C        83.91464688105293    0.01004402844265    0.00795308936808
C        85.11295682545911   -0.01330577848528   -0.00573191804808
C        86.48312155655582   -0.03070359984567   -0.00983438084283
C        87.70917339698076   -0.03349100383171   -0.00882828476154
C        89.08005629683514   -0.01373690787039   -0.00913996608177
C        90.27778381935624    0.02190509274348    0.00300345655966
C        99.50735310732261    0.01003701318548    0.00794850926630
C       100.70570251935186   -0.01330734695594   -0.00572980631186
C       102.07584091883874   -0.03070507944071   -0.00983296207146
C       103.30190783274834   -0.03349111369948   -0.00882699482518
C       104.67278221775456   -0.01373774511532   -0.00913988417180
C       105.87050798462008    0.02189617597439    0.00300142247445
C       115.10007059365140    0.01002890430622    0.00794864959736
C       116.29843456066735   -0.01330886623694   -0.00572786352215
C       117.66856946588464   -0.03070646826195   -0.00983298766056
C       118.89463369299598   -0.03349146095659   -0.00882424328366
C       120.26551927799559   -0.01373810976345   -0.00913957645152
C       121.46322181637501    0.02188873778835    0.00299494037422
C       130.69281296687640    0.01001169180765    0.00795789366206
C       131.89111602929623   -0.01331205660205   -0.00572528269277
C       133.26135547604179   -0.03071031494411   -0.00983581105358
C       134.48729689777218   -0.03349300271205   -0.00881134126341
C       135.85835791176697   -0.01373729983447   -0.00914229673974
C       137.05585474659478    0.02188183767126    0.00294801085594
C       146.28619866601355    0.00988382500333    0.00808284284600
C       147.48294303008845   -0.01339793775179   -0.00559447530123
C       148.85733063975286   -0.03060580815477   -0.00977629033048