 Entering Gaussian System
 *********************************************
 Gaussian 98:
 frequency output generated by the xtb code
 *********************************************
                         Standard orientation:
 --------------------------------------------------------------------
  Center     Atomic     Atomic              Coordinates (Angstroms)
  Number     Number      Type              X           Y           Z
 --------------------------------------------------------------------
    1         27             0       23.893720   -0.002742   -0.007810
    2          6             0       26.393321   -3.411097    0.053139
    3          6             0       27.344578   -2.450227    0.037650
    4          6             0       26.652805   -1.197743    0.013978
    5          6             0       27.316136    0.030944   -0.002447
    6          6             0       26.628793    1.246393   -0.003937
    7          6             0       27.295781    2.512444    0.001339
    8          6             0       26.325847    3.454443    0.018599
    9          6             0       25.077950    2.753458    0.019232
   10          7             0       25.274571    1.397311    0.004705
   11          6             0       23.857621    3.393324    0.027099
   12          6             0       22.652003    2.726975    0.005622
   13          6             0       21.385763    3.399345   -0.007485
   14          6             0       20.440369    2.435753   -0.046504
   15          6             0       21.136329    1.181969   -0.052199
   16          7             0       22.489651    1.369695   -0.019757
   17          6             0       20.492324   -0.036214   -0.080290
   18          6             0       21.160550   -1.241519   -0.064517
   19          6             0       20.489677   -2.508883   -0.072969
   20          6             0       21.453812   -3.453758   -0.034624
   21          6             0       22.706257   -2.756472   -0.007291
   22          7             0       22.517169   -1.402541   -0.026509
   23          6             0       23.924478   -3.398882    0.027919
   24          6             0       25.131903   -2.735037    0.035197
   25          7             0       25.301840   -1.375358    0.013624
   26          1             0       26.512161   -4.476903    0.072512
   27          1             0       28.412098   -2.554406    0.042624
   28          1             0       28.361043    2.637669   -0.005130
   29          1             0       26.423664    4.522518    0.028317
   30          1             0       23.847121    4.472557    0.042736
   31          1             0       21.264771    4.465186    0.008911
   32          1             0       19.372561    2.536768   -0.068064
   33          1             0       19.413475   -0.046868   -0.107867
   34          1             0       19.424240   -2.630921   -0.102013
   35          1             0       21.353998   -4.521884   -0.026385
   36          1             0       23.935087   -4.478121    0.043221
   37         27             0       87.800453    0.033741   -0.004815
   38          6             0       85.311883    3.386061    0.655851
   39          6             0       84.357625    2.447386    0.464311
   40          6             0       85.045497    1.216286    0.221337
   41          6             0       84.378457    0.011580   -0.009656
   42          6             0       85.061742   -1.187285   -0.222955
   43          6             0       84.390521   -2.432200   -0.440782
   44          6             0       85.357345   -3.365061   -0.593725
   45          6             0       86.607563   -2.678929   -0.472126
   46          7             0       86.415462   -1.341328   -0.244140
   47          6             0       87.825739   -3.313098   -0.583993
   48          6             0       89.033410   -2.656933   -0.489474
   49          6             0       90.297446   -3.319157   -0.628295
   50          6             0       91.245835   -2.367235   -0.493448
   51          6             0       90.553882   -1.131511   -0.268501
   52          7             0       89.200044   -1.318148   -0.267945
   53          6             0       91.201884    0.068963   -0.072357
   54          6             0       90.537728    1.252948    0.165556
   55          6             0       91.212927    2.497654    0.391845
   56          6             0       90.251927    3.423008    0.601612
   57          6             0       88.997034    2.737487    0.497224
   58          7             0       89.181613    1.409282    0.230683
   59          6             0       87.780780    3.367874    0.643244
   60          6             0       86.571205    2.718829    0.523527
   61          7             0       86.397047    1.385694    0.258094
   62          1             0       85.196359    4.431699    0.865002
   63          1             0       83.290412    2.553290    0.483031
   64          1             0       83.324843   -2.551094   -0.466864
   65          1             0       85.256014   -4.417549   -0.773826
   66          1             0       87.832674   -4.377528   -0.762947
   67          1             0       90.414971   -4.370494   -0.806621
   68          1             0       92.313268   -2.465629   -0.535627
   69          1             0       92.280767    0.080921   -0.097890
   70          1             0       92.278844    2.618869    0.387746
   71          1             0       90.355308    4.470998    0.806444
   72          1             0       87.773529    4.426397    0.854362
   73          6             0       28.713000    0.043882   -0.007085
   74          6             0       29.932283    0.055247   -0.010494
   75          6             0       31.268723    0.062096   -0.013786
   76          6             0       32.492504    0.067742   -0.012923
   77          6             0       33.828806    0.070706   -0.014258
   78          6             0       35.048292    0.068791   -0.014419
   79          6             0       44.691729    0.043157   -0.024084
   80          6             0       45.911278    0.039848   -0.018028
   81          6             0       47.247197    0.033006   -0.015597
   82          6             0       48.471126    0.028851   -0.017010
   83          6             0       49.807039    0.025569   -0.014446
   84          6             0       51.026572    0.027689   -0.019676
   85          6             0       60.669447    0.049838   -0.027580
   86          6             0       61.888988    0.048246   -0.025007
   87          6             0       63.224895    0.045125   -0.022446
   88          6             0       64.448818    0.040467   -0.024566
   89          6             0       65.784716    0.034005   -0.020473
   90          6             0       67.004245    0.032133   -0.023490
   91          6             0       76.646458   -0.017347   -0.027499
   92          6             0       77.865887   -0.018114   -0.028676
   93          6             0       79.202175   -0.018159   -0.025205
   94          6             0       80.425912   -0.011650   -0.025190
   95          6             0       81.762335   -0.004369   -0.023530
   96          6             0       82.981571    0.003750   -0.017886
   97         27             0       39.869902    0.056881   -0.021095
   98          6             0       37.394655   -3.339732    0.430847
   99          6             0       36.435942   -2.392511    0.320175
  100          6             0       37.118024   -1.146559    0.147103
  101          6             0       36.444539    0.066179   -0.015342
  102          6             0       37.123907    1.275404   -0.178944
  103          6             0       36.448098    2.525253   -0.348218
  104          6             0       37.411602    3.467343   -0.461174
  105          6             0       38.663587    2.781953   -0.359343
  106          7             0       38.476510    1.434759   -0.190245
  107          6             0       39.878909    3.427831   -0.414709
  108          6             0       41.091102    2.781059   -0.317790
  109          6             0       42.346622    3.465385   -0.372480
  110          6             0       43.305139    2.517841   -0.262439
  111          6             0       42.622745    1.265828   -0.142667
  112          7             0       41.271148    1.430239   -0.171841
  113          6             0       43.295796    0.047663   -0.025433
  114          6             0       42.616219   -1.167017    0.091537
  115          6             0       43.292352   -2.422780    0.208268
  116          6             0       42.329132   -3.365194    0.320866
  117          6             0       41.077154   -2.674068    0.271305
  118          7             0       41.263991   -1.324183    0.124998
  119          6             0       39.861867   -3.314074    0.373735
  120          6             0       38.649972   -2.661393    0.323360
  121          7             0       38.469701   -1.313330    0.153877
  122          1             0       37.284705   -4.397463    0.570552
  123          1             0       35.369364   -2.501956    0.348855
  124          1             0       35.382031    2.640646   -0.372719
  125          1             0       37.306947    4.525840   -0.599221
  126          1             0       39.881336    4.499985   -0.540210
  127          1             0       42.456897    4.526728   -0.481137
  128          1             0       44.371779    2.630661   -0.261432
  129          1             0       44.358339   -2.541365    0.202754
  130          1             0       42.434047   -4.427185    0.428379
  131          1             0       39.858915   -4.386134    0.499953
  132         27             0       55.848099    0.038906   -0.021983
  133          6             0       53.389131   -3.374012    0.405024
  134          6             0       52.425681   -2.431745    0.292976
  135          6             0       53.101707   -1.180761    0.133099
  136          6             0       52.422480    0.030035   -0.019638
  137          6             0       53.095826    1.244209   -0.172373
  138          6             0       52.413113    2.491921   -0.329594
  139          6             0       53.371502    3.439443   -0.440579
  140          6             0       54.627181    2.759366   -0.349923
  141          7             0       54.447384    1.410369   -0.187066
  142          6             0       55.839308    3.409983   -0.416891
  143          6             0       57.054888    2.767790   -0.333145
  144          6             0       58.306985    3.456798   -0.404427
  145          6             0       59.270390    2.514081   -0.295890
  146          6             0       58.594251    1.260416   -0.159011
  147          7             0       57.241823    1.418622   -0.180573
  148          6             0       59.273554    0.047297   -0.026684
  149          6             0       58.600326   -1.169120    0.107598
  150          6             0       59.282924   -2.419412    0.243131
  151          6             0       58.324472   -3.366505    0.357190
  152          6             0       57.068845   -2.683626    0.289393
  153          7             0       57.248743   -1.333812    0.133762
  154          6             0       55.856762   -3.331776    0.377843
  155          6             0       54.641175   -2.687462    0.312133
  156          7             0       54.454145   -1.339803    0.147202
  157          1             0       53.284463   -4.433216    0.537370
  158          1             0       51.359580   -2.547722    0.313067
  159          1             0       51.346417    2.602324   -0.348961
  160          1             0       53.261066    4.498295   -0.571088
  161          1             0       55.836455    4.482147   -0.542312
  162          1             0       58.411717    4.517750   -0.522010
  163          1             0       60.336517    2.631266   -0.304885
  164          1             0       60.349600   -2.531578    0.248230
  165          1             0       58.434807   -4.426690    0.476375
  166          1             0       55.859681   -4.403698    0.505219
  167         27             0       71.825279    0.007314   -0.020537
  168          6             0       69.340370   -3.382069    0.437249
  169          6             0       68.384422   -2.431865    0.328316
  170          6             0       69.070024   -1.188698    0.149150
  171          6             0       68.400139    0.024943   -0.021631
  172          6             0       69.082812    1.231560   -0.191062
  173          6             0       68.410138    2.481907   -0.369311
  174          6             0       69.375877    3.422501   -0.475600
  175          6             0       70.625946    2.735605   -0.361363
  176          7             0       70.435556    1.388796   -0.192951
  177          6             0       71.842709    3.379698   -0.402996
  178          6             0       73.052788    2.730052   -0.299044
  179          6             0       74.310020    3.411926   -0.343233
  180          6             0       75.265985    2.461379   -0.237586
  181          6             0       74.580368    1.210002   -0.129774
  182          7             0       73.229206    1.377841   -0.161524
  183          6             0       75.250239   -0.011019   -0.024949
  184          6             0       74.567667   -1.224645    0.082441
  185          6             0       75.240174   -2.483137    0.189731
  186          6             0       74.274339   -3.423184    0.300042
  187          6             0       73.024356   -2.727914    0.258654
  188          7             0       73.214849   -1.377885    0.118588
  189          6             0       71.807636   -3.364656    0.365704
  190          6             0       70.597566   -2.708128    0.323569
  191          7             0       70.421020   -1.359698    0.153109
  192          1             0       69.227401   -4.439134    0.579417
  193          1             0       67.317616   -2.537830    0.361236
  194          1             0       67.344480    2.598653   -0.403708
  195          1             0       69.273905    4.480859   -0.616674
  196          1             0       71.848298    4.452303   -0.524403
  197          1             0       74.423110    4.473783   -0.443547
  198          1             0       76.332841    2.571688   -0.232574
  199          1             0       76.305812   -2.604783    0.181347
  200          1             0       74.376251   -4.486076    0.401593
  201          1             0       71.802106   -4.437088    0.488685
 --------------------------------------------------------------------
     1 basis functions        1 primitive gaussians
     1 alpha electrons        1 beta electrons

 Harmonic frequencies (cm**-1), IR intensities (km*mol⁻¹),
 Raman scattering activities (A**4/amu), Raman depolarization ratios,
 reduced masses (AMU), force constants (mDyne/A) and normal coordinates:
                      1                      2                      3
                        a                      a                      a 
 Frequencies --   -14.0512               -13.8445                -9.1350
 Red. masses --    11.1351                11.1523                12.7945
 Frc consts  --     0.0000                 0.0000                 0.0000
 IR Inten    --    53.3815                 0.2939                 5.4792
 Raman Activ --     0.0000                 0.0000                 0.0000
 Depolar     --     0.0000                 0.0000                 0.0000
 Atom AN      X      Y      Z        X      Y      Z        X      Y      Z
   1  27    -0.00   0.00  -0.05     0.00   0.00  -0.01    -0.00  -0.00  -0.04
   2   6     0.00  -0.00  -0.24     0.00  -0.00  -0.03    -0.00  -0.00  -0.05
   3   6     0.00   0.00  -0.11     0.00  -0.00  -0.02    -0.00  -0.00  -0.06
   4   6     0.00   0.00  -0.03     0.00   0.00  -0.01    -0.00  -0.00  -0.05
   5   6     0.00   0.00   0.03     0.00   0.00   0.00     0.00  -0.00  -0.05
   6   6    -0.00   0.00  -0.03     0.00   0.00  -0.01     0.00  -0.00  -0.05
   7   6     0.00   0.00  -0.11     0.00   0.00  -0.01     0.00  -0.00  -0.06
   8   6    -0.00   0.00  -0.24     0.00   0.00  -0.03     0.00  -0.00  -0.05
   9   6    -0.00   0.00  -0.22     0.00   0.00  -0.03     0.00  -0.00  -0.04
  10   7    -0.00   0.00  -0.10     0.00   0.00  -0.01     0.00  -0.00  -0.04
  11   6     0.00   0.01  -0.25     0.00   0.00  -0.03     0.00  -0.00  -0.03
  12   6    -0.00   0.00  -0.09     0.00   0.00  -0.01     0.00  -0.00  -0.01
  13   6    -0.00   0.00   0.01     0.00   0.00   0.00     0.00   0.00   0.01
  14   6    -0.01   0.00   0.24    -0.00   0.00   0.03     0.00   0.00   0.03
  15   6    -0.01  -0.00   0.25    -0.00   0.00   0.03     0.00   0.00   0.02
  16   7    -0.01   0.00   0.05    -0.00   0.00   0.01     0.00  -0.00   0.00
  17   6    -0.01  -0.00   0.38    -0.00   0.00   0.05    -0.00   0.00   0.04
  18   6    -0.01  -0.00   0.25    -0.00   0.00   0.03    -0.00   0.00   0.02
  19   6    -0.01  -0.00   0.24    -0.00   0.00   0.03    -0.00   0.00   0.03
  20   6    -0.00  -0.00   0.01     0.00  -0.00   0.00    -0.00  -0.00   0.01
  21   6     0.00  -0.00  -0.09     0.00  -0.00  -0.01    -0.00  -0.00  -0.01
  22   7    -0.00  -0.00   0.05    -0.00  -0.00   0.01    -0.00  -0.00   0.00
  23   6     0.00  -0.00  -0.25     0.00  -0.00  -0.03    -0.00  -0.00  -0.03
  24   6     0.00  -0.00  -0.22     0.00  -0.00  -0.03    -0.00  -0.00  -0.04
  25   7     0.00  -0.00  -0.10     0.00  -0.00  -0.01    -0.00  -0.00  -0.04
  26   1     0.00  -0.00  -0.10     0.00  -0.00  -0.01    -0.00  -0.00  -0.02
  27   1     0.00   0.00  -0.02     0.00   0.00  -0.00    -0.00  -0.00  -0.02
  28   1     0.00   0.00  -0.02     0.00  -0.00  -0.00     0.00  -0.00  -0.02
  29   1    -0.00   0.00  -0.10     0.00   0.00  -0.01     0.00  -0.00  -0.02
  30   1     0.00   0.00  -0.10     0.00   0.00  -0.01     0.00  -0.00  -0.01
  31   1     0.00   0.00  -0.02     0.00   0.00  -0.00     0.00   0.00   0.00
  32   1    -0.00  -0.00   0.11    -0.00   0.00   0.01     0.00   0.00   0.01
  33   1    -0.00  -0.00   0.15    -0.00   0.00   0.02    -0.00   0.00   0.02
  34   1    -0.00   0.00   0.11    -0.00   0.00   0.01    -0.00   0.00   0.01
  35   1     0.00  -0.00  -0.02     0.00  -0.00  -0.00    -0.00  -0.00   0.00
  36   1     0.00  -0.00  -0.10     0.00  -0.00  -0.01    -0.00  -0.00  -0.01
  37  27     0.00   0.00  -0.01    -0.01  -0.01   0.05    -0.00  -0.01  -0.04
  38   6     0.00   0.01  -0.03    -0.00  -0.05   0.24    -0.01  -0.00  -0.05
  39   6     0.00   0.00  -0.01    -0.00  -0.03   0.11    -0.01  -0.00  -0.05
  40   6     0.00   0.00  -0.00    -0.00  -0.01   0.03    -0.00  -0.00  -0.04
  41   6     0.00   0.00   0.00     0.00  -0.00  -0.02    -0.00  -0.00  -0.05
  42   6     0.00   0.00  -0.00     0.00  -0.01   0.04     0.00  -0.00  -0.05
  43   6    -0.00   0.00  -0.01     0.00  -0.03   0.11     0.00  -0.00  -0.06
  44   6    -0.00   0.01  -0.03     0.01  -0.05   0.24     0.01  -0.00  -0.05
  45   6    -0.00   0.00  -0.03     0.00  -0.04   0.22     0.00  -0.00  -0.04
  46   7     0.00   0.00  -0.01     0.00  -0.02   0.10     0.00  -0.00  -0.04
  47   6    -0.00   0.01  -0.03     0.01  -0.04   0.25     0.01  -0.00  -0.03
  48   6    -0.00   0.00  -0.01     0.00  -0.01   0.10     0.01  -0.00  -0.01
  49   6    -0.00  -0.00   0.00     0.00   0.01  -0.00     0.01  -0.00   0.01
  50   6     0.00  -0.01   0.03    -0.01   0.05  -0.23     0.01  -0.00   0.03
  51   6     0.00  -0.01   0.03    -0.01   0.05  -0.24     0.00  -0.00   0.02
  52   7     0.00  -0.00   0.01    -0.00   0.01  -0.05     0.00  -0.00  -0.00
  53   6     0.00  -0.01   0.05    -0.01   0.07  -0.37     0.00  -0.01   0.04
  54   6     0.00  -0.01   0.03    -0.01   0.05  -0.25    -0.00  -0.00   0.02
  55   6     0.00  -0.01   0.03    -0.01   0.05  -0.24    -0.00  -0.00   0.03
  56   6     0.00   0.00   0.00    -0.01   0.00  -0.01    -0.01  -0.00   0.01
  57   6     0.00   0.00  -0.01    -0.00  -0.02   0.09    -0.01  -0.00  -0.01
  58   7     0.00  -0.00   0.01    -0.01   0.01  -0.05    -0.00  -0.00   0.00
  59   6     0.00   0.01  -0.03    -0.00  -0.05   0.24    -0.01  -0.00  -0.03
  60   6     0.00   0.01  -0.03    -0.00  -0.05   0.21    -0.01  -0.00  -0.04
  61   7     0.00   0.00  -0.01    -0.00  -0.02   0.10    -0.00  -0.00  -0.04
  62   1     0.00   0.00  -0.01    -0.00  -0.02   0.09    -0.00  -0.00  -0.02
  63   1     0.00   0.00  -0.00    -0.00  -0.01   0.02    -0.00  -0.00  -0.02
  64   1    -0.00   0.00  -0.00     0.00  -0.01   0.02     0.00  -0.00  -0.02
  65   1    -0.00   0.00  -0.01     0.00  -0.02   0.10     0.00   0.00  -0.02
  66   1    -0.00   0.00  -0.01     0.00  -0.02   0.10     0.00   0.00  -0.01
  67   1    -0.00   0.00  -0.00     0.00  -0.00   0.02     0.00  -0.00   0.00
  68   1     0.00  -0.00   0.01    -0.00   0.02  -0.11     0.00  -0.00   0.01
  69   1     0.00  -0.00   0.02    -0.01   0.03  -0.15     0.00  -0.00   0.02
  70   1     0.00  -0.00   0.01    -0.00   0.02  -0.11    -0.00  -0.00   0.01
  71   1     0.00   0.00  -0.00    -0.00  -0.00   0.02    -0.00  -0.00   0.00
  72   1     0.00   0.00  -0.01    -0.00  -0.02   0.10    -0.00   0.00  -0.01
  73   6     0.00   0.00   0.08     0.00   0.00   0.01     0.00  -0.01  -0.06
  74   6     0.00   0.00   0.11     0.00   0.00   0.01     0.00  -0.01  -0.07
  75   6     0.00   0.01   0.12     0.00   0.00   0.01     0.00  -0.01  -0.07
  76   6     0.00   0.01   0.12     0.00   0.00   0.01     0.00  -0.01  -0.07
  77   6     0.00   0.01   0.11     0.00   0.00   0.01     0.00  -0.01  -0.06
  78   6     0.00   0.00   0.09     0.00   0.00   0.01     0.00  -0.00  -0.05
  79   6     0.00   0.00   0.03     0.00   0.00  -0.00    -0.00  -0.02  -0.14
  80   6     0.00   0.01   0.04     0.00   0.00  -0.00     0.00  -0.02  -0.18
  81   6     0.00   0.01   0.04     0.00  -0.00  -0.01     0.00  -0.02  -0.20
  82   6     0.00   0.01   0.04     0.00  -0.00  -0.01     0.00  -0.02  -0.20
  83   6     0.00   0.00   0.03     0.00  -0.00  -0.01     0.00  -0.02  -0.18
  84   6     0.00   0.00   0.03     0.00  -0.00  -0.00     0.00  -0.02  -0.14
  85   6     0.00   0.00   0.01     0.00  -0.01  -0.02    -0.00  -0.02  -0.14
  86   6     0.00   0.00   0.01     0.00  -0.01  -0.03     0.00  -0.02  -0.18
  87   6     0.00   0.00   0.02     0.00  -0.01  -0.03     0.00  -0.02  -0.20
  88   6     0.00   0.00   0.01     0.00  -0.01  -0.03     0.00  -0.02  -0.20
  89   6     0.00   0.00   0.01     0.00  -0.01  -0.03     0.00  -0.02  -0.18
  90   6     0.00   0.00   0.01     0.00  -0.00  -0.03     0.00  -0.02  -0.14
  91   6     0.00  -0.00   0.01     0.00   0.01  -0.09    -0.00  -0.00  -0.04
  92   6     0.00  -0.00   0.02     0.00   0.01  -0.11    -0.00  -0.01  -0.06
  93   6     0.00  -0.00   0.02     0.00   0.01  -0.12    -0.00  -0.01  -0.07
  94   6     0.00  -0.00   0.02     0.00   0.01  -0.12    -0.00  -0.01  -0.07
  95   6     0.00  -0.00   0.01     0.00   0.01  -0.10    -0.00  -0.01  -0.06
  96   6     0.00  -0.00   0.01     0.00   0.01  -0.07    -0.00  -0.00  -0.06
  97  27     0.00  -0.01  -0.00     0.00  -0.00   0.00     0.00   0.01   0.06
  98   6     0.00  -0.01  -0.01     0.00  -0.00   0.00    -0.00   0.01   0.10
  99   6     0.00  -0.00   0.04     0.00  -0.00   0.01    -0.00   0.01   0.04
 100   6     0.00   0.00   0.04     0.00  -0.00   0.01    -0.00   0.00   0.01
 101   6     0.00   0.00   0.06     0.00   0.00   0.01     0.00  -0.00  -0.02
 102   6    -0.00   0.00   0.04     0.00   0.00   0.01     0.00   0.00   0.01
 103   6    -0.00  -0.00   0.03     0.00   0.00   0.01     0.00   0.01   0.03
 104   6    -0.00  -0.01  -0.01     0.00  -0.00   0.00     0.00   0.01   0.09
 105   6    -0.00  -0.01  -0.02     0.00  -0.00   0.00     0.00   0.01   0.09
 106   7    -0.00  -0.00   0.01     0.00  -0.00   0.00     0.00   0.01   0.05
 107   6    -0.00  -0.01  -0.04     0.00  -0.00  -0.00     0.00   0.01   0.12
 108   6    -0.00  -0.01  -0.03     0.00  -0.00  -0.00     0.00   0.01   0.07
 109   6    -0.00  -0.00  -0.03     0.00  -0.00  -0.00     0.00   0.00   0.04
 110   6    -0.00  -0.00  -0.01     0.00  -0.00  -0.00     0.00  -0.01  -0.04
 111   6    -0.00   0.00   0.01     0.00  -0.00  -0.00     0.00  -0.01  -0.05
 112   7    -0.00  -0.00  -0.01     0.00  -0.00  -0.00     0.00   0.00   0.01
 113   6     0.00   0.00   0.02     0.00  -0.00  -0.00    -0.00  -0.01  -0.09
 114   6     0.00   0.00   0.00     0.00  -0.00  -0.00    -0.00  -0.01  -0.05
 115   6     0.00  -0.00  -0.01     0.00  -0.00  -0.00    -0.00  -0.01  -0.03
 116   6     0.00  -0.00  -0.04     0.00  -0.00  -0.01    -0.00   0.00   0.05
 117   6     0.00  -0.01  -0.04     0.00  -0.00  -0.00    -0.00   0.01   0.07
 118   7     0.00  -0.00  -0.01     0.00  -0.00  -0.00    -0.00   0.00   0.02
 119   6     0.00  -0.01  -0.05     0.00  -0.00  -0.00    -0.00   0.01   0.13
 120   6     0.00  -0.01  -0.02     0.00  -0.00   0.00    -0.00   0.01   0.10
 121   7     0.00  -0.00   0.01     0.00  -0.00   0.00    -0.00   0.01   0.05
 122   1     0.00  -0.00  -0.01     0.00  -0.00   0.00    -0.00   0.01   0.04
 123   1     0.00   0.00   0.02     0.00   0.00   0.00    -0.00   0.00   0.01
 124   1    -0.00   0.00   0.02     0.00   0.00   0.00     0.00   0.00   0.00
 125   1    -0.00  -0.00  -0.01    -0.00  -0.00   0.00     0.00   0.00   0.04
 126   1    -0.00  -0.00  -0.02    -0.00  -0.00  -0.00     0.00   0.01   0.04
 127   1    -0.00  -0.00  -0.02    -0.00  -0.00  -0.00     0.00   0.00   0.02
 128   1    -0.00   0.00   0.00     0.00  -0.00  -0.00     0.00  -0.00  -0.02
 129   1     0.00   0.00  -0.00     0.00  -0.00  -0.00    -0.00  -0.00  -0.02
 130   1     0.00  -0.00  -0.02     0.00  -0.00  -0.00    -0.00   0.00   0.03
 131   1     0.00  -0.00  -0.02     0.00  -0.00  -0.00    -0.00   0.01   0.05
 132  27     0.00   0.00  -0.00     0.00  -0.00   0.00     0.00   0.01   0.12
 133   6     0.00  -0.00  -0.00    -0.00   0.00   0.01     0.00   0.01   0.12
 134   6     0.00   0.00   0.01    -0.00   0.00   0.00    -0.00   0.00   0.01
 135   6     0.00   0.00   0.01     0.00  -0.00   0.00     0.00  -0.00  -0.02
 136   6     0.00   0.00   0.02     0.00  -0.00  -0.00     0.00  -0.01  -0.08
 137   6     0.00   0.00   0.01     0.00  -0.00   0.00     0.00  -0.00  -0.02
 138   6     0.00   0.00   0.01     0.00   0.00   0.00     0.00   0.00   0.01
 139   6     0.00   0.00  -0.00     0.00   0.00   0.01     0.00   0.01   0.12
 140   6     0.00  -0.00  -0.01     0.00   0.00   0.01    -0.00   0.02   0.14
 141   7     0.00   0.00   0.00     0.00  -0.00   0.00     0.00   0.01   0.06
 142   6     0.00  -0.00  -0.02     0.00   0.00   0.01    -0.00   0.02   0.20
 143   6     0.00  -0.00  -0.01     0.00  -0.00   0.01    -0.00   0.02   0.14
 144   6     0.00  -0.00  -0.01     0.00  -0.00   0.00     0.00   0.01   0.12
 145   6     0.00  -0.00  -0.00     0.00  -0.00  -0.01     0.00   0.00   0.01
 146   6     0.00   0.00   0.00     0.00  -0.00  -0.01     0.00  -0.00  -0.02
 147   7     0.00  -0.00  -0.00     0.00  -0.00  -0.00     0.00   0.01   0.06
 148   6     0.00   0.00   0.01     0.00  -0.00  -0.02    -0.00  -0.01  -0.08
 149   6     0.00   0.00   0.00     0.00  -0.00  -0.01    -0.00  -0.00  -0.02
 150   6     0.00   0.00  -0.00    -0.00  -0.00  -0.01    -0.00   0.00   0.01
 151   6     0.00  -0.00  -0.01    -0.00  -0.00   0.00     0.00   0.01   0.12
 152   6     0.00  -0.00  -0.01    -0.00  -0.00   0.01     0.00   0.02   0.14
 153   7     0.00  -0.00  -0.00     0.00  -0.00  -0.00     0.00   0.01   0.06
 154   6     0.00  -0.00  -0.02    -0.00   0.00   0.01     0.00   0.02   0.20
 155   6     0.00  -0.00  -0.01    -0.00   0.00   0.01     0.00   0.02   0.14
 156   7     0.00   0.00   0.00     0.00  -0.00   0.00     0.00   0.01   0.06
 157   1     0.00  -0.00  -0.00    -0.00   0.00   0.00     0.00   0.01   0.05
 158   1     0.00   0.00   0.00    -0.00   0.00   0.00    -0.00  -0.00  -0.01
 159   1     0.00   0.00   0.00     0.00   0.00   0.00     0.00  -0.00  -0.01
 160   1     0.00  -0.00  -0.00     0.00   0.00   0.00     0.00   0.01   0.05
 161   1     0.00  -0.00  -0.01     0.00   0.00   0.01    -0.00   0.01   0.08
 162   1     0.00  -0.00  -0.01     0.00  -0.00   0.00     0.00   0.01   0.05
 163   1     0.00   0.00   0.00     0.00  -0.00  -0.00     0.00  -0.00  -0.01
 164   1     0.00   0.00   0.00    -0.00  -0.00  -0.00    -0.00  -0.00  -0.01
 165   1     0.00  -0.00  -0.00    -0.00  -0.00   0.00     0.00   0.01   0.05
 166   1    -0.00  -0.00  -0.01    -0.00   0.00   0.00     0.00   0.01   0.08
 167  27     0.00  -0.00  -0.00     0.00   0.02   0.00     0.00   0.01   0.06
 168   6    -0.00  -0.00  -0.00     0.01   0.01   0.03    -0.00   0.01   0.04
 169   6    -0.00  -0.00   0.00     0.00   0.00   0.01    -0.00  -0.00  -0.04
 170   6     0.00   0.00   0.00     0.00   0.00  -0.00    -0.00  -0.00  -0.05
 171   6     0.00   0.00   0.01     0.00  -0.00  -0.02     0.00  -0.01  -0.09
 172   6     0.00   0.00   0.00    -0.00   0.00  -0.00     0.00  -0.00  -0.05
 173   6     0.00  -0.00   0.00    -0.00   0.00   0.01     0.00  -0.00  -0.04
 174   6     0.00  -0.00  -0.00    -0.01   0.01   0.04     0.00   0.01   0.04
 175   6     0.00  -0.00  -0.01    -0.00   0.01   0.03     0.00   0.01   0.07
 176   7     0.00  -0.00  -0.00    -0.00   0.01   0.01     0.00   0.00   0.02
 177   6     0.00  -0.00  -0.01    -0.01   0.01   0.04     0.00   0.01   0.12
 178   6     0.00  -0.00  -0.00    -0.00   0.01   0.02     0.00   0.01   0.10
 179   6     0.00  -0.00  -0.00    -0.00   0.01   0.01     0.00   0.01   0.10
 180   6     0.00  -0.00   0.00    -0.00   0.01  -0.03     0.00   0.00   0.04
 181   6     0.00  -0.00   0.00    -0.00   0.01  -0.04     0.00   0.00   0.01
 182   7     0.00  -0.00   0.00    -0.00   0.01  -0.01     0.00   0.01   0.05
 183   6     0.00  -0.00   0.01     0.00   0.01  -0.06    -0.00  -0.00  -0.02
 184   6     0.00  -0.00   0.00     0.00   0.01  -0.04    -0.00   0.00   0.01
 185   6    -0.00  -0.00   0.00     0.00   0.01  -0.04    -0.00   0.00   0.04
 186   6    -0.00  -0.00  -0.00     0.01   0.01   0.00    -0.00   0.01   0.09
 187   6    -0.00  -0.00  -0.01     0.01   0.01   0.02    -0.00   0.01   0.09
 188   7     0.00  -0.00  -0.00     0.00   0.01  -0.01    -0.00   0.01   0.05
 189   6    -0.00  -0.00  -0.01     0.01   0.01   0.04     0.00   0.01   0.12
 190   6    -0.00  -0.00  -0.01     0.01   0.01   0.03    -0.00   0.01   0.07
 191   7     0.00  -0.00  -0.00     0.00   0.01   0.01    -0.00   0.00   0.01
 192   1    -0.00  -0.00  -0.00     0.00   0.00   0.01    -0.00   0.00   0.02
 193   1    -0.00   0.00   0.00     0.00  -0.00   0.00    -0.00  -0.00  -0.02
 194   1     0.00   0.00   0.00    -0.00  -0.00   0.00     0.00  -0.00  -0.02
 195   1     0.00  -0.00  -0.00    -0.00   0.00   0.02     0.00   0.00   0.02
 196   1     0.00  -0.00  -0.00    -0.00   0.00   0.02     0.00   0.01   0.05
 197   1     0.00  -0.00  -0.00    -0.00   0.00   0.01     0.00   0.00   0.04
 198   1     0.00  -0.00   0.00    -0.00   0.00  -0.02     0.00   0.00   0.01
 199   1     0.00  -0.00   0.00     0.00   0.00  -0.02    -0.00   0.00   0.00
 200   1    -0.00  -0.00  -0.00     0.00   0.00   0.00    -0.00   0.00   0.04
 201   1    -0.00  -0.00  -0.00     0.00   0.00   0.02     0.00   0.01   0.05
                      4                      5                      6
                        a                      a                      a 
 Frequencies --    -6.5827                -6.2419                -0.6842
 Red. masses --    16.4697                18.4073                18.2286
 Frc consts  --     0.0000                 0.0000                 0.0000
 IR Inten    --     1.1264                 6.6030                 4.2684
 Raman Activ --     0.0000                 0.0000                 0.0000
 Depolar     --     0.0000                 0.0000                 0.0000
 Atom AN      X      Y      Z        X      Y      Z        X      Y      Z
   1  27     0.00   0.01   0.08    -0.00  -0.01  -0.05    -0.00   0.19  -0.02
   2   6     0.00   0.01   0.06    -0.00  -0.00  -0.03    -0.03   0.07  -0.01
   3   6     0.00   0.01   0.07    -0.00  -0.00  -0.03    -0.02   0.06  -0.01
   4   6     0.00   0.01   0.07    -0.00  -0.00  -0.03    -0.01   0.06  -0.01
   5   6     0.00   0.01   0.07    -0.00  -0.00  -0.03    -0.00   0.06  -0.01
   6   6    -0.00   0.01   0.06     0.00  -0.00  -0.03     0.01   0.06  -0.01
   7   6    -0.00   0.01   0.07     0.00  -0.00  -0.03     0.02   0.06  -0.01
   8   6    -0.00   0.01   0.06     0.00  -0.00  -0.03     0.03   0.07  -0.01
   9   6    -0.00   0.01   0.05     0.00  -0.00  -0.02     0.02   0.08  -0.01
  10   7    -0.00   0.01   0.05     0.00  -0.00  -0.03     0.01   0.08  -0.01
  11   6    -0.00   0.00   0.03     0.00  -0.00  -0.02     0.03   0.09  -0.01
  12   6    -0.00   0.00   0.02     0.00  -0.00  -0.01     0.02   0.10  -0.01
  13   6    -0.00   0.00   0.01     0.00  -0.00  -0.01     0.03   0.11  -0.01
  14   6    -0.00   0.00   0.00     0.00  -0.00  -0.01     0.02   0.12  -0.02
  15   6    -0.00   0.00   0.01     0.00  -0.00  -0.01     0.01   0.11  -0.01
  16   7    -0.00   0.00   0.03     0.00  -0.00  -0.02     0.01   0.11  -0.01
  17   6     0.00   0.00   0.01    -0.00  -0.00  -0.01    -0.00   0.12  -0.01
  18   6     0.00   0.00   0.01    -0.00  -0.00  -0.01    -0.01   0.11  -0.01
  19   6     0.00   0.00   0.01    -0.00  -0.00  -0.01    -0.02   0.12  -0.01
  20   6     0.00   0.00   0.01    -0.00  -0.00  -0.01    -0.03   0.11  -0.01
  21   6     0.00   0.00   0.03    -0.00  -0.00  -0.02    -0.02   0.10  -0.01
  22   7     0.00   0.00   0.03    -0.00  -0.00  -0.02    -0.01   0.11  -0.01
  23   6     0.00   0.00   0.04    -0.00  -0.00  -0.02    -0.03   0.09  -0.01
  24   6     0.00   0.01   0.05    -0.00  -0.00  -0.02    -0.02   0.08  -0.01
  25   7     0.00   0.01   0.06    -0.00  -0.00  -0.03    -0.01   0.08  -0.01
  26   1     0.00   0.00   0.02    -0.00  -0.00  -0.01    -0.01   0.02  -0.00
  27   1     0.00   0.00   0.02    -0.00  -0.00  -0.01    -0.01   0.01  -0.00
  28   1    -0.00   0.00   0.02     0.00  -0.00  -0.01     0.01   0.01  -0.00
  29   1    -0.00   0.00   0.02     0.00  -0.00  -0.01     0.01   0.02  -0.00
  30   1    -0.00   0.00   0.01     0.00  -0.00  -0.00     0.01   0.03  -0.00
  31   1    -0.00   0.00   0.00     0.00  -0.00  -0.00     0.01   0.03  -0.00
  32   1    -0.00   0.00  -0.00     0.00  -0.00  -0.00     0.01   0.04  -0.00
  33   1     0.00   0.00  -0.00    -0.00  -0.00  -0.00    -0.00   0.04  -0.00
  34   1     0.00   0.00  -0.00    -0.00  -0.00  -0.00    -0.01   0.04  -0.00
  35   1     0.00   0.00   0.00    -0.00  -0.00  -0.00    -0.01   0.03  -0.00
  36   1     0.00   0.00   0.01    -0.00  -0.00  -0.00    -0.01   0.03  -0.00
  37  27    -0.00  -0.01  -0.08    -0.00  -0.01  -0.06    -0.00   0.21  -0.03
  38   6    -0.01  -0.01  -0.06    -0.00  -0.00  -0.03    -0.03   0.07   0.00
  39   6    -0.01  -0.01  -0.07    -0.00  -0.00  -0.04    -0.02   0.06  -0.00
  40   6    -0.00  -0.01  -0.06    -0.00  -0.00  -0.04    -0.01   0.07  -0.01
  41   6    -0.00  -0.01  -0.07    -0.00  -0.00  -0.04     0.00   0.06  -0.01
  42   6     0.00  -0.01  -0.06     0.00  -0.00  -0.04     0.01   0.07  -0.01
  43   6     0.00  -0.01  -0.07     0.00  -0.00  -0.04     0.03   0.06  -0.02
  44   6     0.01  -0.01  -0.06     0.00  -0.00  -0.04     0.03   0.07  -0.02
  45   6     0.00  -0.01  -0.04     0.00  -0.00  -0.03     0.03   0.08  -0.02
  46   7     0.00  -0.01  -0.05     0.00  -0.00  -0.03     0.02   0.09  -0.02
  47   6     0.01  -0.00  -0.03     0.00  -0.00  -0.02     0.03   0.10  -0.02
  48   6     0.01  -0.00  -0.02     0.00  -0.00  -0.02     0.03   0.11  -0.02
  49   6     0.01  -0.00  -0.01     0.00  -0.00  -0.02     0.03   0.12  -0.03
  50   6     0.01  -0.00  -0.00     0.00  -0.00  -0.01     0.02   0.13  -0.02
  51   6     0.00  -0.00  -0.01     0.00  -0.00  -0.02     0.01   0.12  -0.02
  52   7     0.00  -0.00  -0.02     0.00  -0.00  -0.02     0.01   0.12  -0.02
  53   6     0.00  -0.00  -0.00    -0.00  -0.00  -0.01    -0.00   0.13  -0.02
  54   6    -0.00  -0.00  -0.01    -0.00  -0.00  -0.02    -0.01   0.12  -0.01
  55   6    -0.01  -0.00  -0.00    -0.00  -0.00  -0.01    -0.03   0.13  -0.01
  56   6    -0.01  -0.00  -0.01    -0.00  -0.00  -0.01    -0.03   0.12  -0.00
  57   6    -0.01  -0.00  -0.02    -0.00  -0.00  -0.02    -0.03   0.11  -0.01
  58   7    -0.00  -0.00  -0.02    -0.00  -0.00  -0.02    -0.02   0.12  -0.01
  59   6    -0.01  -0.00  -0.03    -0.00  -0.00  -0.02    -0.03   0.09  -0.00
  60   6    -0.01  -0.00  -0.05    -0.00  -0.00  -0.03    -0.03   0.08  -0.00
  61   7    -0.00  -0.01  -0.05    -0.00  -0.00  -0.03    -0.02   0.09  -0.01
  62   1    -0.00  -0.00  -0.02    -0.00  -0.00  -0.01    -0.01   0.02   0.00
  63   1    -0.00  -0.00  -0.02    -0.00  -0.00  -0.01    -0.01   0.01   0.00
  64   1     0.00  -0.00  -0.02     0.00  -0.00  -0.01     0.01   0.01  -0.00
  65   1     0.00  -0.00  -0.02     0.00  -0.00  -0.01     0.01   0.02  -0.01
  66   1     0.00  -0.00  -0.01     0.00  -0.00  -0.01     0.01   0.03  -0.01
  67   1     0.00  -0.00  -0.00     0.00  -0.00  -0.00     0.01   0.04  -0.01
  68   1     0.00  -0.00   0.00     0.00  -0.00  -0.00     0.01   0.04  -0.01
  69   1     0.00  -0.00   0.00     0.00  -0.00  -0.00    -0.00   0.04  -0.00
  70   1    -0.00  -0.00   0.00    -0.00  -0.00  -0.00    -0.01   0.04  -0.00
  71   1    -0.00  -0.00  -0.00    -0.00  -0.00  -0.00    -0.01   0.03  -0.00
  72   1    -0.00  -0.00  -0.01    -0.00  -0.00  -0.01    -0.01   0.03   0.00
  73   6     0.00   0.01   0.08    -0.00  -0.00  -0.04    -0.00   0.05  -0.01
  74   6     0.00   0.01   0.09    -0.00  -0.00  -0.04     0.00   0.04  -0.00
  75   6     0.00   0.01   0.09    -0.00  -0.00  -0.03     0.00   0.02  -0.00
  76   6     0.00   0.01   0.08    -0.00  -0.00  -0.03     0.00   0.02  -0.00
  77   6     0.00   0.01   0.06    -0.00  -0.00  -0.02     0.00   0.01  -0.00
  78   6     0.00   0.00   0.03    -0.00   0.00  -0.00     0.00  -0.00  -0.00
  79   6     0.00   0.00   0.03     0.00   0.01   0.04     0.00  -0.06   0.01
  80   6     0.00   0.01   0.06     0.00   0.00   0.03     0.00  -0.06   0.01
  81   6     0.00   0.01   0.07     0.00   0.00   0.01     0.00  -0.07   0.01
  82   6     0.00   0.01   0.08     0.00   0.00   0.00    -0.00  -0.07   0.01
  83   6     0.00   0.01   0.08     0.00  -0.00  -0.01    -0.00  -0.08   0.01
  84   6     0.00   0.01   0.07     0.00  -0.00  -0.03    -0.00  -0.08   0.01
  85   6    -0.00  -0.01  -0.06     0.00  -0.01  -0.04     0.00  -0.09   0.01
  86   6    -0.00  -0.01  -0.08     0.00  -0.00  -0.02     0.00  -0.09   0.01
  87   6    -0.00  -0.01  -0.08     0.00  -0.00  -0.01     0.00  -0.09   0.01
  88   6     0.00  -0.01  -0.08     0.00  -0.00   0.00     0.00  -0.09   0.01
  89   6    -0.00  -0.01  -0.06     0.00   0.00   0.02     0.00  -0.08   0.01
  90   6     0.00  -0.00  -0.04     0.00   0.00   0.03     0.00  -0.07   0.01
  91   6    -0.00  -0.00  -0.03    -0.00   0.00  -0.00     0.00  -0.01   0.00
  92   6    -0.00  -0.01  -0.06    -0.00  -0.00  -0.02     0.00  -0.00  -0.00
  93   6    -0.00  -0.01  -0.08    -0.00  -0.00  -0.04     0.00   0.01  -0.00
  94   6    -0.00  -0.01  -0.08    -0.00  -0.00  -0.04     0.00   0.02  -0.00
  95   6    -0.00  -0.01  -0.08    -0.00  -0.00  -0.05     0.00   0.03  -0.00
  96   6    -0.00  -0.01  -0.08    -0.00  -0.00  -0.05     0.00   0.04  -0.01
  97  27     0.00  -0.03  -0.22     0.00   0.02   0.17     0.00  -0.07   0.01
  98   6     0.00  -0.02  -0.15    -0.00   0.01   0.09    -0.02  -0.01   0.01
  99   6     0.00  -0.01  -0.07    -0.00   0.01   0.05    -0.01  -0.01   0.00
 100   6     0.00  -0.01  -0.05    -0.00   0.01   0.04    -0.01  -0.01   0.00
 101   6     0.00  -0.00  -0.01    -0.00   0.00   0.02     0.00  -0.01   0.00
 102   6    -0.00  -0.01  -0.04     0.00   0.01   0.04     0.01  -0.01  -0.00
 103   6    -0.00  -0.01  -0.06     0.00   0.01   0.05     0.01  -0.01  -0.00
 104   6    -0.00  -0.02  -0.13     0.00   0.01   0.08     0.02  -0.02  -0.00
 105   6    -0.00  -0.02  -0.15     0.00   0.01   0.09     0.02  -0.02  -0.00
 106   7    -0.00  -0.01  -0.10     0.00   0.01   0.08     0.01  -0.02   0.00
 107   6    -0.00  -0.02  -0.19     0.00   0.01   0.11     0.02  -0.03  -0.00
 108   6    -0.00  -0.02  -0.15     0.00   0.01   0.10     0.02  -0.04   0.00
 109   6    -0.00  -0.01  -0.13     0.00   0.01   0.10     0.02  -0.04   0.00
 110   6    -0.00  -0.01  -0.06     0.00   0.01   0.07     0.01  -0.05   0.00
 111   6    -0.00  -0.00  -0.05     0.00   0.01   0.07     0.01  -0.05   0.00
 112   7    -0.00  -0.01  -0.10     0.00   0.01   0.09     0.01  -0.04   0.00
 113   6     0.00  -0.00  -0.01     0.00   0.01   0.05     0.00  -0.05   0.01
 114   6     0.00  -0.01  -0.05    -0.00   0.01   0.07    -0.01  -0.05   0.01
 115   6     0.00  -0.01  -0.08    -0.00   0.01   0.08    -0.01  -0.05   0.01
 116   6     0.00  -0.02  -0.15    -0.00   0.01   0.11    -0.02  -0.04   0.01
 117   6     0.00  -0.02  -0.17     0.00   0.01   0.11    -0.02  -0.04   0.01
 118   7     0.00  -0.01  -0.11     0.00   0.01   0.09    -0.01  -0.04   0.01
 119   6     0.00  -0.02  -0.20     0.00   0.02   0.13    -0.02  -0.03   0.01
 120   6     0.00  -0.02  -0.16    -0.00   0.01   0.10    -0.02  -0.02   0.01
 121   7     0.00  -0.01  -0.11    -0.00   0.01   0.08    -0.01  -0.02   0.00
 122   1     0.00  -0.01  -0.05    -0.00   0.00   0.03    -0.01  -0.00   0.00
 123   1     0.00  -0.00  -0.01    -0.00   0.00   0.01    -0.00  -0.00   0.00
 124   1    -0.00  -0.00  -0.01     0.00   0.00   0.01     0.00  -0.00  -0.00
 125   1    -0.00  -0.01  -0.05     0.00   0.00   0.03     0.01  -0.00  -0.00
 126   1    -0.00  -0.01  -0.07     0.00   0.00   0.04     0.01  -0.01  -0.00
 127   1    -0.00  -0.01  -0.05     0.00   0.00   0.03     0.01  -0.01  -0.00
 128   1    -0.00  -0.00  -0.01     0.00   0.00   0.02     0.00  -0.02   0.00
 129   1     0.00  -0.00  -0.01    -0.00   0.00   0.02    -0.00  -0.02   0.00
 130   1     0.00  -0.01  -0.06    -0.00   0.00   0.04    -0.01  -0.01   0.00
 131   1     0.00  -0.01  -0.07     0.00   0.01   0.04    -0.01  -0.01   0.00
 132  27     0.00   0.00   0.02     0.00  -0.03  -0.25     0.00  -0.19   0.03
 133   6    -0.00   0.01   0.05    -0.00  -0.02  -0.14    -0.00  -0.08   0.02
 134   6    -0.00   0.01   0.06    -0.00  -0.01  -0.09    -0.00  -0.08   0.02
 135   6     0.00   0.01   0.05     0.00  -0.01  -0.08    -0.00  -0.08   0.01
 136   6     0.00   0.01   0.05     0.00  -0.01  -0.06    -0.00  -0.08   0.01
 137   6     0.00   0.01   0.05     0.00  -0.01  -0.08     0.00  -0.08   0.01
 138   6     0.00   0.01   0.06     0.00  -0.01  -0.09     0.00  -0.08   0.01
 139   6     0.00   0.01   0.04     0.00  -0.02  -0.14     0.00  -0.08   0.01
 140   6     0.00   0.00   0.03     0.00  -0.02  -0.15     0.00  -0.09   0.01
 141   7     0.00   0.00   0.03     0.00  -0.01  -0.12     0.00  -0.09   0.01
 142   6     0.00   0.00   0.01     0.00  -0.02  -0.17     0.00  -0.09   0.01
 143   6     0.00  -0.00  -0.01     0.00  -0.02  -0.15     0.00  -0.09   0.01
 144   6     0.00  -0.00  -0.03     0.00  -0.02  -0.14     0.00  -0.09   0.01
 145   6     0.00  -0.01  -0.05     0.00  -0.01  -0.10     0.00  -0.09   0.01
 146   6     0.00  -0.01  -0.04     0.00  -0.01  -0.09     0.00  -0.09   0.01
 147   7     0.00  -0.00  -0.02     0.00  -0.02  -0.12     0.00  -0.10   0.01
 148   6    -0.00  -0.01  -0.05     0.00  -0.01  -0.06     0.00  -0.09   0.01
 149   6    -0.00  -0.00  -0.03     0.00  -0.01  -0.09    -0.00  -0.09   0.01
 150   6    -0.00  -0.01  -0.04    -0.00  -0.01  -0.10    -0.00  -0.09   0.02
 151   6    -0.00  -0.00  -0.02    -0.00  -0.02  -0.14    -0.00  -0.09   0.02
 152   6    -0.00  -0.00  -0.01    -0.00  -0.02  -0.15    -0.00  -0.09   0.02
 153   7    -0.00  -0.00  -0.01    -0.00  -0.02  -0.12    -0.00  -0.10   0.02
 154   6    -0.00   0.00   0.02    -0.00  -0.02  -0.17    -0.00  -0.09   0.02
 155   6    -0.00   0.00   0.03    -0.00  -0.02  -0.15    -0.00  -0.08   0.02
 156   7    -0.00   0.00   0.03    -0.00  -0.01  -0.12    -0.00  -0.09   0.01
 157   1    -0.00   0.00   0.02    -0.00  -0.01  -0.05    -0.00  -0.02   0.01
 158   1     0.00   0.00   0.02     0.00  -0.00  -0.02    -0.00  -0.02   0.00
 159   1     0.00   0.00   0.02     0.00  -0.00  -0.02     0.00  -0.02   0.00
 160   1     0.00   0.00   0.01     0.00  -0.01  -0.05     0.00  -0.02   0.00
 161   1     0.00   0.00   0.00     0.00  -0.01  -0.06     0.00  -0.03   0.00
 162   1     0.00  -0.00  -0.01     0.00  -0.01  -0.05     0.00  -0.03   0.00
 163   1     0.00  -0.00  -0.02     0.00  -0.00  -0.02     0.00  -0.03   0.00
 164   1    -0.00  -0.00  -0.02     0.00  -0.00  -0.02    -0.00  -0.03   0.00
 165   1    -0.00  -0.00  -0.01    -0.00  -0.01  -0.05    -0.00  -0.03   0.01
 166   1    -0.00   0.00   0.01    -0.00  -0.01  -0.06    -0.00  -0.02   0.01
 167  27    -0.00   0.02   0.20     0.00   0.02   0.20     0.00  -0.09   0.01
 168   6    -0.00   0.02   0.13     0.00   0.01   0.12     0.02  -0.06   0.00
 169   6    -0.00   0.01   0.06    -0.00   0.01   0.09     0.02  -0.07   0.01
 170   6    -0.00   0.00   0.04    -0.00   0.01   0.07     0.01  -0.06   0.01
 171   6     0.00   0.00   0.00     0.00   0.01   0.05     0.00  -0.07   0.01
 172   6     0.00   0.00   0.04     0.00   0.01   0.07    -0.01  -0.06   0.01
 173   6     0.00   0.01   0.06     0.00   0.01   0.09    -0.02  -0.06   0.01
 174   6     0.00   0.02   0.13     0.00   0.02   0.13    -0.02  -0.06   0.01
 175   6     0.00   0.02   0.14    -0.00   0.02   0.13    -0.02  -0.05   0.01
 176   7     0.00   0.01   0.10     0.00   0.01   0.11    -0.01  -0.06   0.01
 177   6    -0.00   0.02   0.18    -0.00   0.02   0.15    -0.02  -0.04   0.01
 178   6    -0.00   0.02   0.14     0.00   0.01   0.12    -0.02  -0.03   0.01
 179   6     0.00   0.01   0.13     0.00   0.01   0.11    -0.02  -0.03   0.01
 180   6     0.00   0.01   0.06     0.00   0.01   0.06    -0.02  -0.02   0.00
 181   6     0.00   0.00   0.04     0.00   0.01   0.05    -0.01  -0.02   0.00
 182   7     0.00   0.01   0.10     0.00   0.01   0.09    -0.01  -0.04   0.00
 183   6    -0.00   0.00   0.01    -0.00   0.00   0.03     0.00  -0.02   0.00
 184   6    -0.00   0.00   0.04    -0.00   0.01   0.05     0.01  -0.02   0.00
 185   6    -0.00   0.01   0.06    -0.00   0.01   0.05     0.02  -0.02  -0.00
 186   6    -0.00   0.01   0.13    -0.00   0.01   0.10     0.02  -0.03  -0.00
 187   6     0.00   0.02   0.14     0.00   0.01   0.11     0.02  -0.04   0.00
 188   7    -0.00   0.01   0.10    -0.00   0.01   0.09     0.01  -0.04   0.00
 189   6     0.00   0.02   0.18     0.00   0.02   0.14     0.02  -0.04   0.00
 190   6    -0.00   0.02   0.14     0.00   0.01   0.13     0.02  -0.05   0.00
 191   7    -0.00   0.01   0.10     0.00   0.01   0.10     0.01  -0.06   0.01
 192   1    -0.00   0.01   0.05     0.00   0.01   0.04     0.01  -0.02   0.00
 193   1    -0.00   0.00   0.01    -0.00   0.00   0.02     0.00  -0.02   0.00
 194   1     0.00   0.00   0.01     0.00   0.00   0.02    -0.00  -0.02   0.00
 195   1     0.00   0.01   0.05     0.00   0.01   0.04    -0.01  -0.02   0.00
 196   1    -0.00   0.01   0.06    -0.00   0.01   0.05    -0.01  -0.01   0.00
 197   1     0.00   0.00   0.05     0.00   0.00   0.04    -0.01  -0.01   0.00
 198   1     0.00   0.00   0.01     0.00   0.00   0.01    -0.00  -0.00   0.00
 199   1    -0.00   0.00   0.01    -0.00   0.00   0.01     0.01  -0.00  -0.00
 200   1    -0.00   0.00   0.05    -0.00   0.00   0.03     0.01  -0.01  -0.00
 201   1     0.00   0.01   0.06     0.00   0.01   0.05     0.01  -0.01   0.00
                      7                      8                      9
                        a                      a                      a 
 Frequencies --     0.8935                 1.2211                 1.8675
 Red. masses --    17.6879                11.6586                16.5267
 Frc consts  --     0.0000                 0.0000                 0.0000
 IR Inten    --    11.7955                 8.8723                 2.9079
 Raman Activ --     0.0000                 0.0000                 0.0000
 Depolar     --     0.0000                 0.0000                 0.0000
 Atom AN      X      Y      Z        X      Y      Z        X      Y      Z
   1  27    -0.00  -0.02  -0.20     0.00  -0.03  -0.04     0.00  -0.13   0.01
   2   6     0.00  -0.01  -0.10     0.01  -0.00   0.12     0.05  -0.02  -0.05
   3   6     0.00  -0.01  -0.08     0.01  -0.00   0.09     0.04  -0.01  -0.03
   4   6     0.00  -0.01  -0.07     0.00  -0.00   0.04     0.02  -0.02  -0.01
   5   6    -0.00  -0.01  -0.05     0.00  -0.00  -0.01     0.00  -0.01   0.00
   6   6    -0.00  -0.01  -0.05    -0.00  -0.01  -0.06    -0.02  -0.02   0.02
   7   6    -0.00  -0.01  -0.03    -0.01  -0.00  -0.11    -0.04  -0.01   0.04
   8   6    -0.00  -0.01  -0.03    -0.01  -0.01  -0.15    -0.05  -0.02   0.05
   9   6    -0.00  -0.01  -0.05    -0.01  -0.01  -0.12    -0.04  -0.04   0.05
  10   7    -0.00  -0.01  -0.07    -0.00  -0.01  -0.07    -0.02  -0.04   0.03
  11   6    -0.00  -0.01  -0.06    -0.01  -0.01  -0.15    -0.05  -0.06   0.06
  12   6    -0.00  -0.01  -0.08    -0.01  -0.02  -0.13    -0.04  -0.08   0.05
  13   6    -0.00  -0.01  -0.08    -0.01  -0.02  -0.15    -0.05  -0.10   0.06
  14   6    -0.00  -0.01  -0.10    -0.01  -0.02  -0.12    -0.04  -0.11   0.05
  15   6    -0.00  -0.01  -0.10    -0.00  -0.02  -0.07    -0.02  -0.10   0.03
  16   7    -0.00  -0.01  -0.10    -0.00  -0.02  -0.08    -0.02  -0.08   0.03
  17   6     0.00  -0.01  -0.12     0.00  -0.02  -0.02     0.00  -0.11   0.01
  18   6     0.00  -0.01  -0.13     0.00  -0.02   0.03     0.02  -0.10  -0.01
  19   6     0.00  -0.01  -0.15     0.01  -0.02   0.08     0.04  -0.11  -0.03
  20   6     0.00  -0.01  -0.15     0.01  -0.02   0.11     0.05  -0.09  -0.04
  21   6     0.00  -0.01  -0.13     0.01  -0.02   0.09     0.04  -0.08  -0.03
  22   7     0.00  -0.01  -0.13     0.00  -0.02   0.04     0.02  -0.08  -0.01
  23   6     0.00  -0.01  -0.12     0.01  -0.01   0.12     0.05  -0.06  -0.04
  24   6     0.00  -0.01  -0.10     0.01  -0.01   0.09     0.04  -0.04  -0.03
  25   7     0.00  -0.01  -0.10     0.00  -0.01   0.04     0.02  -0.04  -0.02
  26   1     0.00  -0.00  -0.03     0.00  -0.00   0.05     0.02  -0.01  -0.02
  27   1     0.00  -0.00  -0.02     0.00   0.00   0.03     0.01   0.00  -0.01
  28   1    -0.00  -0.00  -0.01    -0.00  -0.00  -0.03    -0.01   0.00   0.01
  29   1    -0.00  -0.00  -0.01    -0.00  -0.00  -0.05    -0.02  -0.01   0.02
  30   1    -0.00  -0.00  -0.01    -0.00  -0.00  -0.06    -0.02  -0.02   0.02
  31   1    -0.00  -0.00  -0.02    -0.00  -0.01  -0.06    -0.02  -0.03   0.02
  32   1    -0.00  -0.00  -0.03    -0.00  -0.01  -0.04    -0.01  -0.04   0.01
  33   1     0.00  -0.00  -0.04     0.00  -0.01  -0.01     0.00  -0.04   0.00
  34   1     0.00  -0.00  -0.05     0.00  -0.01   0.02     0.01  -0.04  -0.01
  35   1     0.00  -0.00  -0.05     0.00  -0.01   0.05     0.02  -0.03  -0.02
  36   1     0.00  -0.00  -0.04     0.00  -0.00   0.05     0.02  -0.02  -0.02
  37  27     0.00  -0.02  -0.20    -0.00   0.00  -0.05    -0.00   0.10  -0.00
  38   6     0.01  -0.00  -0.10    -0.00  -0.03   0.13    -0.05   0.01   0.02
  39   6     0.01  -0.00  -0.08    -0.00  -0.03   0.09    -0.04  -0.01   0.01
  40   6     0.00  -0.00  -0.07    -0.00  -0.01   0.04    -0.02   0.00   0.01
  41   6     0.00  -0.01  -0.05    -0.00  -0.01  -0.01    -0.00  -0.00   0.00
  42   6    -0.00  -0.01  -0.05     0.00   0.00  -0.06     0.02   0.01  -0.01
  43   6    -0.01  -0.01  -0.03     0.00   0.01  -0.11     0.04  -0.00  -0.01
  44   6    -0.01  -0.01  -0.03     0.00   0.02  -0.16     0.05   0.01  -0.02
  45   6    -0.01  -0.01  -0.05     0.00   0.02  -0.13     0.04   0.03  -0.02
  46   7    -0.00  -0.01  -0.07     0.00   0.01  -0.08     0.02   0.03  -0.01
  47   6    -0.01  -0.02  -0.06     0.00   0.02  -0.16     0.05   0.05  -0.02
  48   6    -0.01  -0.02  -0.08     0.00   0.02  -0.14     0.04   0.07  -0.02
  49   6    -0.01  -0.02  -0.08     0.00   0.03  -0.17     0.05   0.09  -0.02
  50   6    -0.01  -0.02  -0.10     0.00   0.03  -0.13     0.03   0.10  -0.02
  51   6    -0.00  -0.02  -0.11     0.00   0.02  -0.08     0.02   0.09  -0.01
  52   7    -0.00  -0.02  -0.10     0.00   0.02  -0.09     0.02   0.07  -0.01
  53   6    -0.00  -0.02  -0.12    -0.00   0.01  -0.03    -0.00   0.10  -0.00
  54   6     0.00  -0.01  -0.13    -0.00  -0.00   0.02    -0.02   0.08   0.00
  55   6     0.01  -0.01  -0.15    -0.00  -0.01   0.07    -0.04   0.09   0.01
  56   6     0.01  -0.01  -0.15    -0.00  -0.02   0.12    -0.05   0.08   0.02
  57   6     0.01  -0.01  -0.13    -0.00  -0.02   0.09    -0.04   0.06   0.01
  58   7     0.01  -0.01  -0.13    -0.00  -0.01   0.04    -0.02   0.07   0.01
  59   6     0.01  -0.00  -0.12    -0.00  -0.03   0.12    -0.05   0.04   0.02
  60   6     0.01  -0.00  -0.10    -0.00  -0.02   0.10    -0.04   0.02   0.01
  61   7     0.01  -0.01  -0.09    -0.00  -0.01   0.04    -0.02   0.03   0.01
  62   1     0.00   0.00  -0.03    -0.00  -0.01   0.05    -0.02   0.00   0.01
  63   1     0.00   0.00  -0.02    -0.00  -0.01   0.03    -0.01  -0.01   0.00
  64   1    -0.00  -0.00  -0.01     0.00   0.00  -0.03     0.01  -0.01  -0.00
  65   1    -0.00  -0.00  -0.01     0.00   0.01  -0.06     0.02   0.00  -0.01
  66   1    -0.00  -0.01  -0.01     0.00   0.01  -0.06     0.02   0.01  -0.01
  67   1    -0.00  -0.01  -0.02     0.00   0.01  -0.06     0.02   0.03  -0.01
  68   1    -0.00  -0.01  -0.03     0.00   0.01  -0.04     0.01   0.03  -0.01
  69   1    -0.00  -0.01  -0.04    -0.00   0.00  -0.01    -0.00   0.03  -0.00
  70   1     0.00  -0.00  -0.05    -0.00  -0.00   0.02    -0.01   0.03   0.00
  71   1     0.00  -0.00  -0.05    -0.00  -0.01   0.05    -0.02   0.02   0.01
  72   1     0.00  -0.00  -0.04    -0.00  -0.01   0.05    -0.02   0.01   0.01
  73   6    -0.00  -0.00  -0.04     0.00  -0.00  -0.01     0.00   0.02   0.00
  74   6    -0.00  -0.00  -0.03     0.00   0.00  -0.01    -0.00   0.03  -0.00
  75   6    -0.00  -0.00  -0.02     0.00   0.00  -0.01    -0.00   0.05  -0.00
  76   6    -0.00  -0.00  -0.01     0.00   0.01  -0.01    -0.00   0.06  -0.00
  77   6    -0.00  -0.00   0.00     0.00   0.01  -0.00    -0.00   0.07  -0.00
  78   6    -0.00   0.00   0.01     0.00   0.01  -0.00    -0.00   0.08  -0.00
  79   6     0.00   0.01   0.09     0.00   0.02   0.02    -0.00   0.10  -0.01
  80   6    -0.00   0.01   0.10     0.00   0.02   0.02    -0.00   0.10  -0.01
  81   6    -0.00   0.01   0.10     0.00   0.02   0.02    -0.00   0.09  -0.01
  82   6    -0.00   0.01   0.11     0.00   0.02   0.03    -0.00   0.08  -0.01
  83   6    -0.00   0.01   0.11     0.00   0.02   0.03    -0.00   0.07  -0.01
  84   6    -0.00   0.01   0.11     0.00   0.01   0.03    -0.00   0.06  -0.01
  85   6    -0.00   0.01   0.11     0.00   0.00   0.03     0.00  -0.05  -0.00
  86   6    -0.00   0.01   0.11     0.00  -0.00   0.03     0.00  -0.06  -0.00
  87   6    -0.00   0.01   0.11     0.00  -0.00   0.03     0.00  -0.07  -0.00
  88   6    -0.00   0.01   0.11     0.00  -0.00   0.03     0.00  -0.08  -0.00
  89   6    -0.00   0.01   0.10     0.00  -0.00   0.03     0.00  -0.09   0.00
  90   6    -0.00   0.01   0.09     0.00  -0.01   0.03    -0.00  -0.09   0.00
  91   6    -0.00   0.00   0.01    -0.00  -0.01   0.00     0.00  -0.08   0.00
  92   6    -0.00   0.00   0.00    -0.00  -0.01  -0.00     0.00  -0.07   0.00
  93   6    -0.00   0.00  -0.01    -0.00  -0.01  -0.00     0.00  -0.07   0.00
  94   6    -0.00  -0.00  -0.01    -0.00  -0.01  -0.00    -0.00  -0.05   0.00
  95   6    -0.00  -0.00  -0.03    -0.00  -0.01  -0.01    -0.00  -0.04   0.00
  96   6     0.00  -0.00  -0.04    -0.00  -0.01  -0.01    -0.00  -0.02   0.00
  97  27    -0.00   0.01   0.07     0.00   0.03   0.00    -0.00   0.20  -0.02
  98   6    -0.00  -0.00  -0.03     0.00   0.03   0.13     0.01   0.08  -0.02
  99   6    -0.00  -0.00  -0.02     0.00   0.02   0.09     0.01   0.08  -0.02
 100   6    -0.00  -0.00   0.00     0.00   0.02   0.04     0.00   0.08  -0.01
 101   6    -0.00   0.00   0.01     0.00   0.01  -0.00    -0.00   0.08  -0.01
 102   6     0.00   0.00   0.03    -0.00   0.00  -0.05    -0.00   0.08  -0.00
 103   6     0.00   0.00   0.03    -0.00  -0.00  -0.10    -0.01   0.08   0.00
 104   6     0.00   0.00   0.04    -0.00  -0.01  -0.14    -0.01   0.08   0.01
 105   6     0.00   0.00   0.04    -0.00  -0.00  -0.11    -0.01   0.09   0.00
 106   7     0.00   0.00   0.04    -0.00   0.01  -0.06    -0.00   0.09  -0.00
 107   6     0.00   0.01   0.05    -0.00  -0.00  -0.14    -0.01   0.09   0.00
 108   6    -0.00   0.01   0.06    -0.00   0.00  -0.11    -0.01   0.09   0.00
 109   6    -0.00   0.01   0.08    -0.00   0.00  -0.13    -0.01   0.09   0.00
 110   6    -0.00   0.01   0.09    -0.00   0.01  -0.08    -0.01   0.10  -0.00
 111   6    -0.00   0.01   0.07    -0.00   0.01  -0.04    -0.00   0.09  -0.01
 112   7    -0.00   0.01   0.06    -0.00   0.01  -0.05    -0.00   0.10  -0.00
 113   6     0.00   0.01   0.07     0.00   0.02   0.01    -0.00   0.10  -0.01
 114   6     0.00   0.01   0.05     0.00   0.02   0.06     0.00   0.09  -0.01
 115   6     0.00   0.00   0.04     0.00   0.02   0.11     0.01   0.09  -0.02
 116   6     0.00   0.00   0.02     0.00   0.03   0.14     0.01   0.09  -0.02
 117   6     0.00   0.00   0.01     0.00   0.03   0.11     0.01   0.09  -0.02
 118   7     0.00   0.00   0.03     0.00   0.02   0.06     0.00   0.10  -0.01
 119   6    -0.00  -0.00  -0.01     0.00   0.03   0.13     0.01   0.09  -0.02
 120   6    -0.00  -0.00  -0.01     0.00   0.03   0.10     0.01   0.08  -0.02
 121   7    -0.00   0.00   0.01     0.00   0.02   0.06     0.00   0.09  -0.01
 122   1    -0.00  -0.00  -0.01     0.00   0.01   0.05     0.00   0.02  -0.01
 123   1    -0.00  -0.00  -0.01     0.00   0.01   0.03     0.00   0.02  -0.00
 124   1     0.00   0.00   0.01    -0.00  -0.00  -0.03    -0.00   0.02   0.00
 125   1     0.00   0.00   0.01    -0.00  -0.00  -0.05    -0.00   0.02   0.00
 126   1     0.00   0.00   0.02    -0.00  -0.00  -0.05    -0.00   0.03   0.00
 127   1    -0.00   0.00   0.02    -0.00  -0.00  -0.05    -0.00   0.03   0.00
 128   1    -0.00   0.00   0.03    -0.00   0.00  -0.02    -0.00   0.03  -0.00
 129   1     0.00   0.00   0.02     0.00   0.01   0.03     0.00   0.03  -0.00
 130   1     0.00   0.00   0.00     0.00   0.01   0.05     0.00   0.03  -0.01
 131   1    -0.00  -0.00  -0.01     0.00   0.01   0.05     0.00   0.02  -0.01
 132  27    -0.00   0.02   0.18    -0.00   0.02   0.04    -0.00   0.02  -0.00
 133   6     0.00   0.01   0.08    -0.00   0.01   0.02    -0.04   0.04   0.05
 134   6     0.00   0.01   0.09    -0.00   0.01   0.02    -0.03   0.05   0.03
 135   6     0.00   0.01   0.09    -0.00   0.01   0.02    -0.01   0.04   0.01
 136   6    -0.00   0.01   0.10     0.00   0.01   0.02    -0.00   0.05  -0.00
 137   6    -0.00   0.01   0.09     0.00   0.01   0.02     0.01   0.04  -0.02
 138   6    -0.00   0.01   0.08     0.00   0.01   0.02     0.03   0.04  -0.04
 139   6    -0.00   0.01   0.07     0.00   0.01   0.01     0.04   0.03  -0.05
 140   6    -0.00   0.01   0.07     0.00   0.01   0.02     0.03   0.02  -0.04
 141   7    -0.00   0.01   0.09     0.00   0.01   0.02     0.02   0.02  -0.02
 142   6    -0.00   0.01   0.06     0.00   0.01   0.02     0.04   0.00  -0.05
 143   6    -0.00   0.01   0.07     0.00   0.01   0.02     0.03  -0.01  -0.04
 144   6    -0.00   0.01   0.07     0.00   0.00   0.02     0.04  -0.03  -0.05
 145   6    -0.00   0.01   0.08     0.00   0.00   0.03     0.03  -0.04  -0.04
 146   6    -0.00   0.01   0.09     0.00   0.00   0.03     0.01  -0.03  -0.02
 147   7    -0.00   0.01   0.09     0.00   0.01   0.02     0.02  -0.01  -0.02
 148   6    -0.00   0.01   0.10     0.00   0.00   0.03     0.00  -0.03  -0.00
 149   6     0.00   0.01   0.10    -0.00   0.00   0.02    -0.01  -0.02   0.02
 150   6     0.00   0.01   0.09    -0.00   0.00   0.02    -0.03  -0.03   0.04
 151   6     0.00   0.01   0.08    -0.01   0.00   0.01    -0.04  -0.02   0.05
 152   6     0.00   0.01   0.08    -0.00   0.00   0.01    -0.03  -0.00   0.04
 153   7     0.00   0.01   0.09    -0.00   0.01   0.02    -0.02  -0.01   0.02
 154   6     0.00   0.01   0.07    -0.00   0.01   0.01    -0.04   0.01   0.05
 155   6     0.00   0.01   0.08    -0.00   0.01   0.02    -0.03   0.03   0.04
 156   7     0.00   0.01   0.09    -0.00   0.01   0.02    -0.02   0.03   0.02
 157   1     0.00   0.00   0.02    -0.00   0.00   0.01    -0.02   0.01   0.02
 158   1     0.00   0.00   0.03    -0.00   0.00   0.01    -0.01   0.02   0.01
 159   1    -0.00   0.00   0.03     0.00   0.00   0.00     0.01   0.02  -0.01
 160   1    -0.00   0.00   0.02     0.00   0.00   0.00     0.01   0.01  -0.02
 161   1    -0.00   0.00   0.01     0.00   0.00   0.00     0.01   0.00  -0.02
 162   1    -0.00   0.00   0.02     0.00   0.00   0.01     0.02  -0.01  -0.02
 163   1    -0.00   0.00   0.03     0.00   0.00   0.01     0.01  -0.01  -0.01
 164   1     0.00   0.00   0.03    -0.00   0.00   0.01    -0.01  -0.01   0.01
 165   1     0.00   0.00   0.02    -0.00   0.00   0.00    -0.01  -0.00   0.02
 166   1     0.00   0.00   0.02    -0.00   0.00   0.00    -0.01   0.00   0.02
 167  27    -0.00   0.01   0.07    -0.00  -0.02   0.02     0.00  -0.19   0.01
 168   6     0.00   0.01   0.07    -0.00  -0.02  -0.10     0.00  -0.08   0.04
 169   6     0.00   0.01   0.08    -0.00  -0.02  -0.06     0.00  -0.08   0.03
 170   6     0.00   0.01   0.07    -0.00  -0.01  -0.02     0.00  -0.09   0.02
 171   6    -0.00   0.01   0.07    -0.00  -0.01   0.02     0.00  -0.09   0.00
 172   6    -0.00   0.01   0.05     0.00  -0.00   0.06    -0.00  -0.09  -0.01
 173   6    -0.00   0.01   0.04     0.00   0.00   0.10    -0.00  -0.09  -0.02
 174   6    -0.00   0.00   0.02     0.00   0.01   0.13    -0.00  -0.09  -0.03
 175   6    -0.00   0.00   0.01     0.00   0.00   0.10    -0.00  -0.09  -0.02
 176   7    -0.00   0.00   0.03     0.00  -0.00   0.06    -0.00  -0.09  -0.01
 177   6    -0.00   0.00  -0.01     0.00   0.00   0.12    -0.00  -0.09  -0.02
 178   6    -0.00   0.00  -0.01     0.00  -0.00   0.10    -0.00  -0.09  -0.02
 179   6     0.00  -0.00  -0.02     0.00   0.00   0.12    -0.00  -0.08  -0.02
 180   6     0.00   0.00  -0.01     0.00  -0.00   0.09    -0.00  -0.08  -0.01
 181   6    -0.00   0.00   0.01     0.00  -0.01   0.05    -0.00  -0.08  -0.00
 182   7    -0.00   0.00   0.01     0.00  -0.01   0.06    -0.00  -0.09  -0.01
 183   6    -0.00   0.00   0.02    -0.00  -0.01   0.00     0.00  -0.08   0.01
 184   6    -0.00   0.00   0.03    -0.00  -0.01  -0.04     0.00  -0.08   0.02
 185   6    -0.00   0.00   0.03    -0.00  -0.02  -0.09     0.00  -0.08   0.03
 186   6    -0.00   0.00   0.03    -0.00  -0.02  -0.12     0.00  -0.08   0.04
 187   6    -0.00   0.01   0.04    -0.00  -0.02  -0.09     0.00  -0.08   0.03
 188   7     0.00   0.01   0.03    -0.00  -0.02  -0.05     0.00  -0.09   0.02
 189   6     0.00   0.01   0.04    -0.00  -0.02  -0.11     0.00  -0.08   0.04
 190   6     0.00   0.01   0.05    -0.00  -0.02  -0.09     0.00  -0.08   0.03
 191   7     0.00   0.01   0.06    -0.00  -0.02  -0.04     0.00  -0.09   0.02
 192   1     0.00   0.00   0.02    -0.00  -0.01  -0.04     0.00  -0.02   0.01
 193   1     0.00   0.00   0.03    -0.00  -0.01  -0.02     0.00  -0.02   0.01
 194   1    -0.00   0.00   0.02     0.00   0.00   0.03    -0.00  -0.03  -0.01
 195   1    -0.00   0.00   0.00     0.00   0.00   0.05    -0.00  -0.03  -0.01
 196   1    -0.00  -0.00  -0.01     0.00   0.00   0.05    -0.00  -0.03  -0.01
 197   1     0.00  -0.00  -0.01     0.00   0.00   0.05    -0.00  -0.02  -0.01
 198   1     0.00   0.00  -0.01     0.00  -0.00   0.03    -0.00  -0.02  -0.00
 199   1    -0.00   0.00   0.01    -0.00  -0.01  -0.03     0.00  -0.02   0.01
 200   1    -0.00   0.00   0.01    -0.00  -0.01  -0.05     0.00  -0.02   0.01
 201   1     0.00   0.00   0.01    -0.00  -0.01  -0.04     0.00  -0.02   0.01
                     10                     11                     12
                        a                      a                      a 
 Frequencies --     2.0251                 2.9036                 3.4973
 Red. masses --    11.6353                11.2593                11.2936
 Frc consts  --     0.0000                 0.0000                 0.0000
 IR Inten    --    95.3592               936.3901                70.1154
 Raman Activ --     0.0000                 0.0000                 0.0000
 Depolar     --     0.0000                 0.0000                 0.0000
 Atom AN      X      Y      Z        X      Y      Z        X      Y      Z
   1  27     0.00  -0.03   0.00     0.00   0.00  -0.01    -0.00   0.00   0.01
   2   6     0.01   0.00   0.14    -0.00   0.00   0.13    -0.00  -0.00  -0.05
   3   6     0.01   0.00   0.10    -0.00   0.00   0.09    -0.00  -0.00  -0.04
   4   6     0.01  -0.00   0.05    -0.00   0.00   0.04    -0.00  -0.00  -0.02
   5   6     0.00   0.00  -0.00     0.00   0.00  -0.00    -0.00  -0.00  -0.00
   6   6    -0.01  -0.00  -0.05     0.00   0.00  -0.05     0.00  -0.00   0.02
   7   6    -0.01   0.00  -0.10     0.00   0.00  -0.09     0.00  -0.00   0.03
   8   6    -0.01  -0.00  -0.14     0.00   0.00  -0.13     0.00  -0.00   0.05
   9   6    -0.01  -0.01  -0.11     0.00   0.00  -0.11     0.00  -0.00   0.04
  10   7    -0.01  -0.01  -0.06     0.00   0.00  -0.06     0.00  -0.00   0.02
  11   6    -0.01  -0.01  -0.14     0.00   0.00  -0.14     0.00  -0.00   0.06
  12   6    -0.01  -0.02  -0.11     0.00   0.00  -0.11     0.00   0.00   0.05
  13   6    -0.01  -0.02  -0.14     0.00   0.00  -0.14     0.00   0.00   0.07
  14   6    -0.01  -0.03  -0.10     0.00   0.00  -0.11     0.00   0.00   0.05
  15   6    -0.00  -0.03  -0.05     0.00   0.00  -0.06     0.00   0.00   0.03
  16   7    -0.01  -0.02  -0.06     0.00   0.00  -0.07     0.00   0.00   0.03
  17   6     0.00  -0.03   0.00     0.00   0.00  -0.01    -0.00   0.00   0.01
  18   6     0.01  -0.03   0.05    -0.00   0.00   0.04    -0.00   0.00  -0.01
  19   6     0.01  -0.03   0.11    -0.00   0.00   0.09    -0.00   0.00  -0.03
  20   6     0.01  -0.02   0.14    -0.00   0.00   0.13    -0.00   0.00  -0.04
  21   6     0.01  -0.02   0.11    -0.00   0.00   0.10    -0.00   0.00  -0.04
  22   7     0.01  -0.02   0.06    -0.00   0.00   0.05    -0.00   0.00  -0.02
  23   6     0.01  -0.01   0.14    -0.00   0.00   0.13    -0.00  -0.00  -0.05
  24   6     0.01  -0.01   0.11    -0.00   0.00   0.10    -0.00  -0.00  -0.04
  25   7     0.01  -0.01   0.06    -0.00   0.00   0.05    -0.00  -0.00  -0.02
  26   1     0.01   0.00   0.05    -0.00   0.00   0.05    -0.00  -0.00  -0.02
  27   1     0.00   0.00   0.03    -0.00   0.00   0.03    -0.00  -0.00  -0.01
  28   1    -0.00   0.00  -0.03     0.00  -0.00  -0.03     0.00  -0.00   0.01
  29   1    -0.01  -0.00  -0.05     0.00   0.00  -0.05     0.00  -0.00   0.02
  30   1    -0.01  -0.00  -0.05     0.00   0.00  -0.05     0.00  -0.00   0.02
  31   1    -0.01  -0.01  -0.05     0.00   0.00  -0.05     0.00   0.00   0.02
  32   1    -0.00  -0.01  -0.03     0.00   0.00  -0.03     0.00   0.00   0.02
  33   1     0.00  -0.01   0.00     0.00   0.00  -0.00    -0.00   0.00   0.00
  34   1     0.00  -0.01   0.03    -0.00   0.00   0.03    -0.00   0.00  -0.01
  35   1     0.01  -0.01   0.05    -0.00   0.00   0.05    -0.00   0.00  -0.02
  36   1     0.01  -0.00   0.05    -0.00   0.00   0.05    -0.00  -0.00  -0.02
  37  27    -0.00   0.03  -0.01     0.00  -0.01   0.00     0.00   0.00  -0.02
  38   6    -0.01   0.03  -0.13     0.00  -0.03   0.13    -0.00  -0.01   0.07
  39   6    -0.01   0.02  -0.09     0.00  -0.02   0.09    -0.00  -0.01   0.05
  40   6    -0.00   0.01  -0.05     0.00  -0.01   0.04     0.00  -0.01   0.02
  41   6    -0.00   0.00  -0.00     0.00  -0.00  -0.00     0.00  -0.00   0.00
  42   6     0.00  -0.00   0.04    -0.00   0.01  -0.04     0.00   0.00  -0.02
  43   6     0.01  -0.01   0.09    -0.00   0.01  -0.09     0.00   0.01  -0.04
  44   6     0.01  -0.02   0.12    -0.00   0.02  -0.12     0.00   0.01  -0.07
  45   6     0.01  -0.01   0.10    -0.00   0.01  -0.10     0.00   0.01  -0.06
  46   7     0.00   0.00   0.05    -0.00   0.01  -0.05     0.00   0.00  -0.03
  47   6     0.01  -0.01   0.12     0.00   0.02  -0.12     0.00   0.01  -0.08
  48   6     0.01   0.00   0.10     0.00   0.02  -0.10     0.00   0.01  -0.07
  49   6     0.01  -0.00   0.12     0.00   0.02  -0.13     0.00   0.02  -0.09
  50   6     0.01   0.01   0.09    -0.00   0.02  -0.09     0.00   0.01  -0.07
  51   6     0.00   0.01   0.04     0.00   0.01  -0.05     0.00   0.01  -0.04
  52   7     0.00   0.01   0.05     0.00   0.01  -0.05     0.00   0.01  -0.04
  53   6    -0.00   0.02  -0.01     0.00   0.00   0.00    -0.00   0.00  -0.02
  54   6    -0.00   0.03  -0.05     0.00  -0.01   0.05    -0.00  -0.00   0.01
  55   6    -0.01   0.04  -0.10     0.00  -0.02   0.10    -0.00  -0.01   0.04
  56   6    -0.01   0.05  -0.14     0.00  -0.03   0.14    -0.00  -0.01   0.06
  57   6    -0.01   0.04  -0.11     0.00  -0.02   0.11    -0.00  -0.01   0.05
  58   7    -0.01   0.03  -0.06     0.00  -0.01   0.06    -0.00  -0.00   0.02
  59   6    -0.01   0.04  -0.13     0.00  -0.03   0.13    -0.00  -0.01   0.06
  60   6    -0.01   0.03  -0.11     0.00  -0.02   0.10    -0.00  -0.01   0.05
  61   7    -0.01   0.02  -0.06     0.00  -0.01   0.06     0.00  -0.01   0.03
  62   1    -0.00   0.01  -0.05     0.00  -0.01   0.05    -0.00  -0.01   0.03
  63   1    -0.00   0.00  -0.03     0.00  -0.01   0.03    -0.00  -0.00   0.02
  64   1     0.00  -0.01   0.03    -0.00   0.00  -0.03     0.00   0.00  -0.01
  65   1     0.00  -0.01   0.05    -0.00   0.01  -0.05     0.00   0.00  -0.03
  66   1     0.00  -0.00   0.05     0.00   0.01  -0.05     0.00   0.00  -0.03
  67   1     0.00  -0.00   0.05     0.00   0.01  -0.05     0.00   0.01  -0.03
  68   1     0.00   0.00   0.03    -0.00   0.01  -0.03     0.00   0.00  -0.02
  69   1    -0.00   0.01  -0.00    -0.00   0.00   0.00    -0.00   0.00  -0.01
  70   1    -0.00   0.01  -0.03     0.00  -0.01   0.03    -0.00  -0.00   0.01
  71   1    -0.00   0.02  -0.05     0.00  -0.01   0.05    -0.00  -0.00   0.02
  72   1    -0.00   0.01  -0.05     0.00  -0.01   0.05    -0.00  -0.01   0.02
  73   6    -0.00   0.01  -0.00     0.00  -0.00   0.00    -0.00  -0.00  -0.01
  74   6    -0.00   0.01  -0.00     0.00  -0.00   0.00    -0.00  -0.00  -0.01
  75   6    -0.00   0.02  -0.00     0.00  -0.00   0.00    -0.00  -0.00  -0.01
  76   6    -0.00   0.02  -0.01     0.00  -0.00   0.00    -0.00  -0.00  -0.01
  77   6    -0.00   0.02  -0.01     0.00  -0.00   0.00    -0.00  -0.00  -0.01
  78   6    -0.00   0.02  -0.00     0.00  -0.00   0.01    -0.00  -0.00  -0.01
  79   6    -0.00   0.02  -0.01     0.00  -0.00   0.01    -0.00  -0.00  -0.01
  80   6    -0.00   0.02  -0.01     0.00  -0.00   0.00    -0.00  -0.00  -0.01
  81   6    -0.00   0.02  -0.01     0.00  -0.00   0.00    -0.00  -0.00  -0.01
  82   6    -0.00   0.02  -0.01     0.00  -0.00   0.00    -0.00   0.00  -0.01
  83   6    -0.00   0.02  -0.01     0.00  -0.00   0.00    -0.00   0.00  -0.01
  84   6    -0.00   0.01  -0.00     0.00  -0.00   0.00    -0.00   0.00  -0.01
  85   6    -0.00  -0.02   0.01    -0.00   0.00  -0.01    -0.00   0.00   0.01
  86   6    -0.00  -0.02   0.01    -0.00   0.00  -0.01    -0.00   0.00   0.02
  87   6    -0.00  -0.02   0.01    -0.00   0.00  -0.01    -0.00   0.00   0.02
  88   6    -0.00  -0.02   0.01    -0.00   0.01  -0.01    -0.00   0.00   0.02
  89   6    -0.00  -0.03   0.01     0.00   0.01  -0.01    -0.00   0.00   0.02
  90   6    -0.00  -0.03   0.01     0.00   0.01  -0.01    -0.00   0.00   0.02
  91   6     0.00  -0.02   0.01     0.00   0.00  -0.00     0.00  -0.00   0.01
  92   6     0.00  -0.02   0.01    -0.00   0.00  -0.00     0.00  -0.00   0.01
  93   6     0.00  -0.01   0.00     0.00   0.00  -0.00     0.00  -0.00   0.01
  94   6     0.00  -0.01   0.00     0.00  -0.00  -0.00     0.00  -0.00   0.01
  95   6     0.00  -0.01   0.00     0.00  -0.00  -0.00     0.00  -0.00   0.01
  96   6     0.00  -0.00   0.00     0.00  -0.00  -0.00     0.00  -0.00   0.01
  97  27     0.00   0.05  -0.01    -0.00  -0.01   0.01     0.00  -0.00  -0.02
  98   6     0.00   0.02  -0.05    -0.00  -0.02  -0.15     0.00   0.01   0.11
  99   6     0.00   0.02  -0.04    -0.00  -0.02  -0.10     0.00   0.01   0.08
 100   6     0.00   0.02  -0.02    -0.00  -0.01  -0.05     0.00   0.00   0.03
 101   6    -0.00   0.02  -0.00    -0.00  -0.00   0.01    -0.00  -0.00  -0.01
 102   6    -0.00   0.03   0.01     0.00   0.00   0.06    -0.00  -0.01  -0.05
 103   6    -0.00   0.03   0.03     0.00   0.01   0.12    -0.00  -0.01  -0.10
 104   6    -0.00   0.03   0.05     0.00   0.02   0.16    -0.00  -0.02  -0.13
 105   6    -0.00   0.03   0.04     0.00   0.01   0.13    -0.00  -0.01  -0.10
 106   7    -0.00   0.03   0.02     0.00   0.00   0.07    -0.00  -0.01  -0.06
 107   6    -0.00   0.03   0.05     0.00   0.01   0.16    -0.00  -0.01  -0.12
 108   6    -0.00   0.03   0.04     0.00   0.01   0.13    -0.00  -0.01  -0.10
 109   6    -0.00   0.03   0.06     0.00   0.01   0.17    -0.00  -0.01  -0.12
 110   6    -0.00   0.03   0.04     0.00   0.01   0.12    -0.00  -0.01  -0.09
 111   6    -0.00   0.03   0.02     0.00   0.00   0.06    -0.00  -0.00  -0.05
 112   7    -0.00   0.03   0.02     0.00   0.00   0.08    -0.00  -0.01  -0.06
 113   6    -0.00   0.02  -0.01    -0.00  -0.00   0.01    -0.00  -0.00  -0.01
 114   6    -0.00   0.02  -0.03    -0.00  -0.01  -0.05     0.00   0.00   0.03
 115   6     0.00   0.02  -0.05    -0.00  -0.02  -0.11     0.00   0.01   0.07
 116   6     0.00   0.02  -0.06    -0.00  -0.02  -0.15     0.00   0.01   0.11
 117   6     0.00   0.02  -0.05    -0.00  -0.02  -0.12     0.00   0.01   0.09
 118   7     0.00   0.02  -0.03    -0.00  -0.01  -0.06     0.00   0.00   0.04
 119   6     0.00   0.02  -0.05    -0.00  -0.02  -0.15     0.00   0.01   0.11
 120   6     0.00   0.02  -0.04    -0.00  -0.02  -0.12     0.00   0.01   0.09
 121   7     0.00   0.02  -0.02    -0.00  -0.01  -0.06     0.00   0.01   0.04
 122   1     0.00   0.00  -0.02    -0.00  -0.01  -0.06     0.00   0.01   0.04
 123   1     0.00   0.01  -0.01    -0.00  -0.01  -0.03     0.00   0.00   0.02
 124   1    -0.00   0.01   0.01     0.00   0.00   0.03    -0.00  -0.00  -0.03
 125   1    -0.00   0.01   0.02     0.00   0.01   0.06    -0.00  -0.01  -0.05
 126   1    -0.00   0.01   0.02     0.00   0.01   0.06    -0.00  -0.01  -0.05
 127   1    -0.00   0.01   0.02     0.00   0.01   0.06    -0.00  -0.00  -0.05
 128   1    -0.00   0.01   0.01     0.00   0.00   0.04    -0.00  -0.00  -0.03
 129   1    -0.00   0.01  -0.02    -0.00  -0.00  -0.03     0.00   0.00   0.02
 130   1     0.00   0.00  -0.02    -0.00  -0.01  -0.06     0.00   0.00   0.04
 131   1     0.00   0.00  -0.02    -0.00  -0.01  -0.06     0.00   0.01   0.04
 132  27    -0.00  -0.01   0.00    -0.00   0.00  -0.00    -0.00   0.00   0.00
 133   6    -0.01  -0.02  -0.18     0.00   0.00   0.02    -0.00  -0.02  -0.17
 134   6    -0.01  -0.01  -0.13     0.00   0.00   0.02    -0.00  -0.01  -0.12
 135   6    -0.00  -0.00  -0.06     0.00  -0.00   0.01    -0.00  -0.01  -0.06
 136   6    -0.00   0.01  -0.00     0.00  -0.00   0.00    -0.00   0.00  -0.01
 137   6     0.00   0.01   0.06    -0.00  -0.00  -0.01    -0.00   0.01   0.05
 138   6     0.01   0.02   0.12    -0.00  -0.00  -0.01     0.00   0.02   0.11
 139   6     0.01   0.03   0.18    -0.00  -0.00  -0.02     0.00   0.02   0.16
 140   6     0.01   0.02   0.14    -0.00  -0.00  -0.02     0.00   0.02   0.13
 141   7     0.00   0.01   0.08    -0.00  -0.00  -0.01    -0.00   0.01   0.07
 142   6     0.01   0.02   0.18    -0.00  -0.00  -0.03    -0.00   0.02   0.16
 143   6     0.01   0.01   0.14    -0.00  -0.00  -0.03    -0.00   0.02   0.13
 144   6     0.01   0.01   0.18    -0.00  -0.00  -0.04    -0.00   0.02   0.17
 145   6     0.01   0.00   0.13    -0.00   0.00  -0.03    -0.00   0.02   0.13
 146   6     0.00  -0.00   0.07    -0.00   0.00  -0.02    -0.00   0.01   0.07
 147   7     0.00   0.00   0.08    -0.00   0.00  -0.02    -0.00   0.01   0.07
 148   6    -0.00  -0.01   0.01    -0.00   0.00  -0.01    -0.00   0.00   0.01
 149   6    -0.00  -0.02  -0.06     0.00   0.00   0.01    -0.00  -0.00  -0.05
 150   6    -0.01  -0.03  -0.12     0.00   0.01   0.02    -0.00  -0.01  -0.10
 151   6    -0.01  -0.03  -0.17     0.00   0.01   0.03    -0.00  -0.02  -0.15
 152   6    -0.01  -0.02  -0.14     0.00   0.00   0.02    -0.00  -0.01  -0.12
 153   7    -0.00  -0.02  -0.07     0.00   0.00   0.01    -0.00  -0.01  -0.06
 154   6    -0.01  -0.02  -0.17     0.00   0.00   0.03    -0.00  -0.02  -0.16
 155   6    -0.01  -0.02  -0.14     0.00   0.00   0.02    -0.00  -0.01  -0.13
 156   7    -0.00  -0.01  -0.08     0.00   0.00   0.01    -0.00  -0.01  -0.07
 157   1    -0.00  -0.01  -0.07     0.00   0.00   0.01    -0.00  -0.01  -0.06
 158   1    -0.00  -0.00  -0.04     0.00  -0.00   0.00    -0.00  -0.00  -0.04
 159   1     0.00   0.01   0.04    -0.00  -0.00  -0.00     0.00   0.00   0.03
 160   1     0.00   0.01   0.07    -0.00  -0.00  -0.01     0.00   0.01   0.06
 161   1     0.00   0.01   0.07    -0.00  -0.00  -0.01    -0.00   0.01   0.06
 162   1     0.00   0.00   0.07    -0.00  -0.00  -0.01    -0.00   0.01   0.06
 163   1     0.00  -0.00   0.04    -0.00   0.00  -0.01    -0.00   0.00   0.04
 164   1    -0.00  -0.01  -0.04     0.00   0.00   0.01    -0.00  -0.00  -0.03
 165   1    -0.00  -0.01  -0.07     0.00   0.00   0.01    -0.00  -0.01  -0.06
 166   1    -0.00  -0.01  -0.07     0.00   0.00   0.01    -0.00  -0.01  -0.06
 167  27    -0.00  -0.05   0.01     0.00   0.01  -0.01     0.00  -0.00   0.02
 168   6     0.00  -0.03  -0.04    -0.00   0.02   0.12    -0.00   0.02   0.17
 169   6     0.00  -0.03  -0.02    -0.00   0.02   0.09    -0.00   0.02   0.13
 170   6     0.00  -0.03  -0.01    -0.00   0.01   0.04    -0.00   0.01   0.07
 171   6    -0.00  -0.03   0.01     0.00   0.00  -0.01    -0.00   0.00   0.02
 172   6    -0.00  -0.02   0.02     0.00  -0.00  -0.05     0.00  -0.01  -0.04
 173   6    -0.00  -0.02   0.04     0.00  -0.01  -0.10     0.00  -0.02  -0.10
 174   6    -0.00  -0.02   0.05     0.00  -0.01  -0.13     0.00  -0.02  -0.16
 175   6    -0.00  -0.02   0.04     0.00  -0.01  -0.10     0.00  -0.02  -0.13
 176   7    -0.00  -0.02   0.02     0.00  -0.00  -0.06     0.00  -0.01  -0.06
 177   6    -0.00  -0.02   0.04     0.00  -0.01  -0.13     0.00  -0.02  -0.16
 178   6    -0.00  -0.02   0.03     0.00  -0.01  -0.10     0.00  -0.02  -0.13
 179   6    -0.00  -0.02   0.03     0.00  -0.01  -0.13     0.00  -0.02  -0.16
 180   6    -0.00  -0.02   0.03     0.00  -0.01  -0.09     0.00  -0.01  -0.11
 181   6    -0.00  -0.02   0.02     0.00  -0.00  -0.05     0.00  -0.01  -0.05
 182   7    -0.00  -0.02   0.02     0.00  -0.00  -0.06     0.00  -0.01  -0.06
 183   6     0.00  -0.02   0.01    -0.00   0.00  -0.00     0.00  -0.00   0.01
 184   6     0.00  -0.02  -0.01    -0.00   0.01   0.04    -0.00   0.00   0.07
 185   6     0.00  -0.02  -0.02    -0.00   0.01   0.09    -0.00   0.01   0.13
 186   6     0.00  -0.02  -0.03    -0.00   0.02   0.12    -0.00   0.01   0.17
 187   6     0.00  -0.03  -0.02    -0.00   0.01   0.10    -0.00   0.01   0.14
 188   7     0.00  -0.03  -0.01    -0.00   0.01   0.05    -0.00   0.01   0.08
 189   6     0.00  -0.03  -0.03    -0.00   0.02   0.12    -0.00   0.02   0.17
 190   6     0.00  -0.03  -0.03    -0.00   0.02   0.10    -0.00   0.02   0.14
 191   7     0.00  -0.03  -0.01    -0.00   0.01   0.05    -0.00   0.01   0.08
 192   1     0.00  -0.01  -0.01    -0.00   0.01   0.05    -0.00   0.01   0.06
 193   1     0.00  -0.01  -0.01    -0.00   0.01   0.03    -0.00   0.01   0.04
 194   1    -0.00  -0.01   0.01     0.00  -0.00  -0.03     0.00  -0.00  -0.03
[...]
 156   7     0.00   0.00  -0.00    -0.00  -0.00   0.00    -0.00  -0.00   0.00
 157   1     0.01   0.13  -0.02    -0.00  -0.04   0.00    -0.01  -0.13   0.02
 158   1     0.17   0.02  -0.00    -0.06  -0.01   0.00    -0.18  -0.02   0.00
 159   1    -0.36   0.04  -0.01    -0.20   0.02  -0.00    -0.37   0.04  -0.01
 160   1    -0.03   0.26  -0.03    -0.01   0.14  -0.02    -0.03   0.26  -0.03
 161   1     0.00   0.01  -0.00     0.00   0.00  -0.00     0.00   0.00  -0.00
 162   1     0.02   0.16  -0.02    -0.01  -0.09   0.01    -0.00  -0.03   0.00
 163   1     0.21   0.02  -0.00    -0.12  -0.01   0.00    -0.06  -0.01   0.00
 164   1    -0.20   0.02  -0.00    -0.34   0.04  -0.00    -0.33   0.03  -0.00
 165   1    -0.02   0.15  -0.02    -0.03   0.25  -0.03    -0.02   0.23  -0.03
 166   1     0.00   0.01  -0.00     0.00   0.00  -0.00     0.00   0.00  -0.00
 167  27    -0.00  -0.00   0.00    -0.00  -0.00   0.00     0.00   0.00  -0.00
 168   6     0.00   0.01  -0.00     0.01   0.11  -0.01    -0.00  -0.08   0.01
 169   6     0.01   0.00  -0.00     0.14   0.01  -0.00    -0.11  -0.01   0.00
 170   6     0.00  -0.00   0.00     0.00  -0.01   0.00    -0.00   0.00  -0.00
 171   6     0.00  -0.00   0.00     0.00   0.00  -0.00    -0.00  -0.00   0.00
 172   6     0.00   0.00  -0.00     0.00   0.00  -0.00    -0.00  -0.00   0.00
 173   6     0.02  -0.00   0.00     0.04  -0.00   0.00    -0.03   0.00  -0.00
 174   6     0.00  -0.02   0.00     0.00  -0.03   0.00    -0.00   0.02  -0.00
 175   6    -0.00  -0.00  -0.00    -0.00  -0.00   0.00     0.00   0.00  -0.00
 176   7    -0.00   0.00  -0.00    -0.00   0.00  -0.00     0.00  -0.00   0.00
 177   6     0.00   0.00   0.00     0.00   0.00  -0.00    -0.00  -0.00   0.00
 178   6    -0.00   0.00  -0.00    -0.00   0.00  -0.00     0.00  -0.00   0.00
 179   6     0.00   0.01  -0.00     0.00   0.07  -0.01    -0.00  -0.07   0.01
 180   6     0.02   0.00   0.00     0.09   0.01   0.00    -0.10  -0.01  -0.00
 181   6     0.00  -0.00   0.00     0.00  -0.00   0.00    -0.00   0.00  -0.00
 182   7    -0.00  -0.00   0.00    -0.00  -0.00   0.00     0.00   0.00  -0.00
 183   6     0.00   0.00  -0.00     0.00   0.00  -0.00    -0.00  -0.00   0.00
 184   6     0.00   0.00  -0.00     0.00   0.00  -0.00    -0.00  -0.00   0.00
 185   6     0.01  -0.00  -0.00     0.01  -0.00  -0.00    -0.02   0.00   0.00
 186   6     0.00  -0.00   0.00     0.00  -0.01   0.00    -0.00   0.02  -0.00
 187   6    -0.00  -0.00   0.00    -0.00  -0.00   0.00     0.00   0.00  -0.00
 188   7    -0.00   0.00  -0.00    -0.00  -0.00   0.00     0.00  -0.00   0.00
 189   6     0.00   0.00  -0.00     0.00   0.00  -0.00    -0.00  -0.00   0.00
 190   6    -0.00   0.00   0.00    -0.00   0.00   0.00     0.00  -0.00  -0.00
 191   7    -0.00  -0.00   0.00    -0.00  -0.00   0.00     0.00   0.00  -0.00
 192   1    -0.00  -0.03   0.00    -0.03  -0.33   0.04     0.03   0.26  -0.03
 193   1    -0.04  -0.00   0.00    -0.46  -0.05   0.01     0.36   0.04  -0.01
 194   1    -0.07   0.01  -0.00    -0.14   0.02  -0.00     0.09  -0.01   0.00
 195   1    -0.00   0.05  -0.01    -0.01   0.10  -0.01     0.01  -0.06   0.01
 196   1     0.00  -0.00   0.00     0.00  -0.00   0.00    -0.00   0.00  -0.00
 197   1    -0.00  -0.04   0.00    -0.02  -0.21   0.02     0.02   0.23  -0.02
 198   1    -0.06  -0.01  -0.00    -0.30  -0.03  -0.00     0.32   0.03   0.00
 199   1    -0.02   0.00   0.00    -0.03   0.00   0.00     0.07  -0.01  -0.00
 200   1    -0.00   0.02  -0.00    -0.00   0.02  -0.00     0.00  -0.05   0.00
 201   1     0.00  -0.00   0.00     0.00  -0.01   0.00    -0.00   0.00  -0.00
                    595                    596                    597
                        a                      a                      a 
 Frequencies --  3169.4740              3169.5080              3169.6967
 Red. masses --     1.9742                 1.9742                 1.9745
 Frc consts  --     0.0000                 0.0000                 0.0000
 IR Inten    --   545.0248              9985.4791               287.9728
 Raman Activ --     0.0000                 0.0000                 0.0000
 Depolar     --     0.0000                 0.0000                 0.0000
 Atom AN      X      Y      Z        X      Y      Z        X      Y      Z
   1  27     0.00  -0.00   0.00    -0.00   0.00  -0.00     0.00  -0.00   0.00
   2   6    -0.00   0.02  -0.00     0.00  -0.01   0.00    -0.00   0.02  -0.00
   3   6    -0.02   0.00  -0.00     0.02  -0.00   0.00    -0.03   0.00  -0.00
   4   6    -0.00  -0.00   0.00     0.00   0.00  -0.00    -0.00  -0.00   0.00
   5   6    -0.00   0.00  -0.00     0.00  -0.00   0.00    -0.00   0.00  -0.00
   6   6    -0.00   0.00   0.00     0.00  -0.00  -0.00    -0.00   0.00   0.00
   7   6    -0.02  -0.00   0.00     0.01   0.00  -0.00    -0.02  -0.00   0.00
   8   6    -0.00  -0.01  -0.00     0.00   0.01   0.00    -0.00  -0.02  -0.00
   9   6     0.00  -0.00  -0.00    -0.00   0.00   0.00     0.00  -0.00  -0.00
  10   7     0.00   0.00  -0.00    -0.00  -0.00   0.00     0.00   0.00  -0.00
  11   6    -0.00  -0.00  -0.00     0.00   0.00   0.00    -0.00  -0.00  -0.00
  12   6    -0.00  -0.00  -0.00     0.00   0.00   0.00    -0.00  -0.00  -0.00
  13   6     0.00  -0.00  -0.00    -0.00   0.00   0.00     0.00  -0.00  -0.00
  14   6     0.00  -0.00   0.00    -0.00   0.00  -0.00     0.00  -0.00   0.00
  15   6     0.00   0.00   0.00    -0.00  -0.00  -0.00     0.00   0.00   0.00
  16   7    -0.00   0.00   0.00     0.00  -0.00  -0.00    -0.00   0.00  -0.00
  17   6     0.00   0.00   0.00    -0.00  -0.00  -0.00     0.00   0.00   0.00
  18   6     0.00  -0.00   0.00    -0.00   0.00  -0.00     0.00  -0.00   0.00
  19   6     0.00   0.00   0.00    -0.00  -0.00  -0.00     0.00   0.00   0.00
  20   6     0.00   0.00  -0.00    -0.00  -0.00   0.00     0.00   0.00  -0.00
  21   6    -0.00   0.00  -0.00     0.00  -0.00   0.00    -0.00   0.00  -0.00
  22   7    -0.00  -0.00   0.00     0.00   0.00  -0.00    -0.00  -0.00  -0.00
  23   6    -0.00   0.00  -0.00     0.00  -0.00   0.00    -0.00   0.00  -0.00
  24   6     0.00   0.00   0.00    -0.00  -0.00  -0.00     0.00   0.00   0.00
  25   7     0.00  -0.00   0.00    -0.00   0.00  -0.00     0.00  -0.00   0.00
  26   1     0.01  -0.05   0.00    -0.00   0.04  -0.00     0.01  -0.06   0.00
  27   1     0.07  -0.01   0.00    -0.06   0.01  -0.00     0.08  -0.01   0.00
  28   1     0.05   0.01  -0.00    -0.04  -0.00   0.00     0.07   0.01  -0.00
  29   1     0.00   0.04   0.00    -0.00  -0.03  -0.00     0.00   0.05   0.00
  30   1    -0.00   0.00   0.00     0.00  -0.00  -0.00    -0.00   0.00   0.00
  31   1    -0.00   0.00   0.00     0.00  -0.00  -0.00    -0.00   0.01   0.00
  32   1    -0.00   0.00  -0.00     0.00  -0.00   0.00    -0.01   0.00  -0.00
  33   1    -0.00  -0.00  -0.00     0.00   0.00   0.00    -0.00  -0.00  -0.00
  34   1    -0.00  -0.00  -0.00     0.00   0.00   0.00    -0.01  -0.00  -0.00
  35   1    -0.00  -0.00   0.00     0.00   0.00  -0.00    -0.00  -0.01   0.00
  36   1    -0.00  -0.00   0.00     0.00   0.00  -0.00    -0.00  -0.00   0.00
  37  27    -0.00  -0.00   0.00    -0.00  -0.00   0.00    -0.00  -0.00  -0.00
  38   6     0.00  -0.01  -0.00     0.00  -0.01  -0.00     0.00  -0.02  -0.00
  39   6     0.01  -0.00  -0.00     0.02  -0.00  -0.00     0.02  -0.00  -0.00
  40   6     0.00   0.00   0.00     0.00   0.00   0.00     0.00   0.00   0.00
  41   6     0.00  -0.00  -0.00    -0.00  -0.00  -0.00     0.00   0.00  -0.00
  42   6     0.00  -0.00  -0.00     0.00  -0.00  -0.00     0.00  -0.00  -0.00
  43   6     0.01   0.00   0.00     0.01   0.00   0.00     0.02   0.00   0.00
  44   6     0.00   0.01   0.00     0.00   0.01   0.00     0.00   0.02   0.00
  45   6    -0.00   0.00   0.00    -0.00   0.00   0.00    -0.00   0.00   0.00
  46   7    -0.00  -0.00  -0.00    -0.00  -0.00  -0.00    -0.00  -0.00  -0.00
  47   6     0.00   0.00   0.00     0.00   0.00   0.00     0.00   0.00   0.00
  48   6     0.00   0.00   0.00     0.00   0.00   0.00     0.00   0.00   0.00
  49   6    -0.00   0.00   0.00    -0.00   0.00   0.00    -0.00   0.00   0.00
  50   6    -0.00   0.00   0.00    -0.00   0.00   0.00    -0.00   0.00   0.00
  51   6    -0.00  -0.00  -0.00    -0.00  -0.00  -0.00    -0.00  -0.00  -0.00
  52   7     0.00  -0.00  -0.00    -0.00  -0.00  -0.00     0.00  -0.00  -0.00
  53   6    -0.00  -0.00   0.00    -0.00  -0.00   0.00    -0.00  -0.00   0.00
  54   6    -0.00   0.00   0.00    -0.00   0.00   0.00    -0.00   0.00   0.00
  55   6    -0.00  -0.00   0.00    -0.00  -0.00   0.00    -0.00  -0.00   0.00
  56   6    -0.00  -0.00  -0.00    -0.00  -0.00  -0.00    -0.00  -0.00  -0.00
  57   6     0.00  -0.00  -0.00     0.00  -0.00   0.00     0.00  -0.00  -0.00
  58   7     0.00   0.00   0.00    -0.00   0.00   0.00     0.00   0.00   0.00
  59   6     0.00  -0.00  -0.00     0.00  -0.00  -0.00     0.00  -0.00  -0.00
  60   6    -0.00  -0.00  -0.00    -0.00  -0.00  -0.00    -0.00  -0.00  -0.00
  61   7    -0.00   0.00   0.00    -0.00   0.00   0.00    -0.00   0.00   0.00
  62   1    -0.00   0.02   0.00    -0.00   0.04   0.01    -0.01   0.05   0.01
  63   1    -0.03   0.00   0.00    -0.05   0.01   0.00    -0.07   0.01   0.00
  64   1    -0.03  -0.00  -0.00    -0.04  -0.00  -0.00    -0.08  -0.01  -0.00
  65   1    -0.00  -0.02  -0.00    -0.00  -0.03  -0.01    -0.01  -0.06  -0.01
  66   1     0.00  -0.00  -0.00     0.00  -0.00  -0.00     0.00  -0.00  -0.00
  67   1     0.00  -0.00  -0.00     0.00  -0.00  -0.00     0.00  -0.01  -0.00
  68   1     0.00  -0.00  -0.00     0.00  -0.00  -0.00     0.01  -0.00  -0.00
  69   1     0.00   0.00  -0.00     0.00   0.00  -0.00     0.00   0.00  -0.00
  70   1     0.00   0.00  -0.00     0.00   0.00  -0.00     0.01   0.00  -0.00
  71   1     0.00   0.00   0.00     0.00   0.00   0.00     0.00   0.01   0.00
  72   1     0.00   0.00   0.00     0.00   0.00   0.00     0.00   0.00   0.00
  73   6    -0.00   0.00  -0.00     0.00  -0.00   0.00    -0.00   0.00  -0.00
  74   6    -0.00  -0.00   0.00     0.00   0.00  -0.00    -0.00  -0.00   0.00
  75   6     0.00   0.00  -0.00    -0.00  -0.00   0.00     0.00  -0.00  -0.00
  76   6    -0.00  -0.00   0.00     0.00   0.00  -0.00    -0.00  -0.00   0.00
  77   6     0.00  -0.00   0.00    -0.00   0.00  -0.00     0.00  -0.00   0.00
  78   6    -0.00   0.00  -0.00     0.00  -0.00   0.00    -0.00   0.00  -0.00
  79   6     0.00   0.00  -0.00    -0.00  -0.00   0.00     0.00   0.00  -0.00
  80   6    -0.00  -0.00   0.00     0.00   0.00  -0.00    -0.00  -0.00   0.00
  81   6    -0.00  -0.00   0.00    -0.00   0.00  -0.00     0.00  -0.00   0.00
  82   6     0.00   0.00   0.00     0.00  -0.00   0.00    -0.00   0.00  -0.00
  83   6    -0.00   0.00  -0.00    -0.00  -0.00   0.00     0.00   0.00   0.00
  84   6     0.00  -0.00   0.00     0.00   0.00  -0.00    -0.00   0.00  -0.00
  85   6    -0.00  -0.00   0.00    -0.00   0.00  -0.00     0.00   0.00  -0.00
  86   6     0.00   0.00  -0.00     0.00  -0.00   0.00    -0.00  -0.00   0.00
  87   6    -0.00   0.00  -0.00     0.00   0.00   0.00     0.00  -0.00   0.00
  88   6     0.00  -0.00   0.00    -0.00  -0.00   0.00    -0.00  -0.00   0.00
  89   6     0.00   0.00  -0.00     0.00  -0.00   0.00     0.00  -0.00   0.00
  90   6    -0.00  -0.00   0.00    -0.00   0.00  -0.00    -0.00   0.00  -0.00
  91   6     0.00  -0.00   0.00     0.00  -0.00   0.00     0.00  -0.00   0.00
  92   6    -0.00   0.00  -0.00    -0.00   0.00  -0.00    -0.00   0.00  -0.00
  93   6     0.00   0.00  -0.00     0.00   0.00  -0.00     0.00   0.00  -0.00
  94   6    -0.00  -0.00   0.00    -0.00  -0.00   0.00    -0.00  -0.00   0.00
  95   6     0.00   0.00   0.00     0.00   0.00   0.00     0.00  -0.00   0.00
  96   6     0.00  -0.00  -0.00     0.00  -0.00  -0.00     0.00   0.00  -0.00
  97  27    -0.00  -0.00   0.00     0.00   0.00  -0.00    -0.00  -0.00   0.00
  98   6     0.00   0.08  -0.01    -0.00  -0.07   0.01     0.00   0.05  -0.01
  99   6     0.11   0.01  -0.00    -0.09  -0.01   0.00     0.07   0.00  -0.00
 100   6     0.00  -0.00   0.00    -0.00   0.00  -0.00     0.00  -0.00   0.00
 101   6     0.00   0.00  -0.00    -0.00  -0.00   0.00     0.00   0.00  -0.00
 102   6     0.00   0.00  -0.00    -0.00  -0.00   0.00     0.00   0.00  -0.00
 103   6     0.08  -0.01   0.00    -0.06   0.00  -0.00     0.05  -0.00   0.00
 104   6     0.00  -0.06   0.01    -0.00   0.05  -0.01     0.00  -0.04   0.01
 105   6    -0.00  -0.00   0.00     0.00   0.00  -0.00    -0.00  -0.00   0.00
 106   7    -0.00   0.00  -0.00     0.00  -0.00   0.00    -0.00   0.00  -0.00
 107   6     0.00  -0.00   0.00    -0.00   0.00  -0.00     0.00  -0.00   0.00
 108   6     0.00  -0.00   0.00    -0.00   0.00  -0.00     0.00  -0.00   0.00
 109   6    -0.00  -0.02   0.00     0.00   0.04  -0.00    -0.00  -0.04   0.00
 110   6    -0.03  -0.00  -0.00     0.05   0.00   0.00    -0.05  -0.00  -0.00
 111   6    -0.00   0.00  -0.00     0.00  -0.00   0.00    -0.00   0.00  -0.00
 112   7     0.00   0.00  -0.00    -0.00  -0.00   0.00     0.00   0.00  -0.00
 113   6    -0.00   0.00  -0.00     0.00  -0.00   0.00    -0.00   0.00  -0.00
 114   6    -0.00  -0.00   0.00     0.00   0.00  -0.00    -0.00  -0.00   0.00
 115   6    -0.04   0.00   0.00     0.07  -0.01  -0.00    -0.06   0.00   0.00
 116   6    -0.00   0.03  -0.00     0.00  -0.05   0.01    -0.00   0.05  -0.00
 117   6     0.00   0.00  -0.00    -0.00  -0.00   0.00     0.00   0.00  -0.00
 118   7     0.00  -0.00   0.00    -0.00   0.00  -0.00     0.00  -0.00   0.00
 119   6     0.00   0.00  -0.00    -0.00  -0.00   0.00     0.00   0.00  -0.00
 120   6    -0.00   0.00   0.00     0.00  -0.00  -0.00    -0.00   0.00  -0.00
 121   7    -0.00  -0.00   0.00     0.00   0.00  -0.00    -0.00  -0.00   0.00
 122   1    -0.03  -0.25   0.03     0.02   0.21  -0.03    -0.02  -0.16   0.02
 123   1    -0.35  -0.04   0.01     0.29   0.03  -0.01    -0.22  -0.02   0.01
 124   1    -0.25   0.03  -0.01     0.21  -0.02   0.00    -0.18   0.02  -0.00
 125   1    -0.02   0.18  -0.02     0.01  -0.15   0.02    -0.01   0.13  -0.02
 126   1     0.00   0.00  -0.00    -0.00  -0.01   0.00     0.00   0.01  -0.00
 127   1     0.01   0.07  -0.01    -0.01  -0.11   0.01     0.01   0.12  -0.01
 128   1     0.09   0.01   0.00    -0.16  -0.02  -0.00     0.16   0.02   0.00
 129   1     0.14  -0.02  -0.00    -0.22   0.02   0.00     0.20  -0.02  -0.00
 130   1     0.01  -0.11   0.01    -0.02   0.16  -0.02     0.01  -0.15   0.02
 131   1     0.00  -0.01   0.00    -0.00   0.01  -0.00     0.00  -0.01   0.00
 132  27    -0.00   0.00  -0.00     0.00  -0.00   0.00    -0.00  -0.00   0.00
 133   6    -0.00  -0.06   0.01    -0.00  -0.03   0.00     0.00   0.06  -0.01
 134   6    -0.08  -0.01   0.00    -0.04  -0.00   0.00     0.07   0.01  -0.00
 135   6    -0.00   0.00  -0.00    -0.00   0.00  -0.00     0.00  -0.00   0.00
 136   6    -0.00  -0.00   0.00    -0.00   0.00  -0.00     0.00   0.00  -0.00
 137   6    -0.00  -0.00   0.00    -0.00  -0.00   0.00     0.00   0.00  -0.00
 138   6    -0.07   0.01  -0.00    -0.04   0.00  -0.00     0.08  -0.01   0.00
 139   6    -0.00   0.06  -0.01    -0.00   0.03  -0.00     0.00  -0.06   0.01
 140   6     0.00   0.00  -0.00     0.00   0.00  -0.00    -0.00  -0.00   0.00
 141   7     0.00  -0.00   0.00     0.00  -0.00   0.00    -0.00   0.00  -0.00
 142   6    -0.00   0.00  -0.00    -0.00   0.00  -0.00     0.00  -0.00   0.00
 143   6    -0.00   0.00  -0.00    -0.00  -0.00   0.00     0.00  -0.00   0.00
 144   6     0.00   0.05  -0.01     0.00   0.00  -0.00    -0.00  -0.04   0.00
 145   6     0.06   0.00  -0.00     0.01   0.00  -0.00    -0.06  -0.00   0.00
 146   6     0.00  -0.00   0.00     0.00  -0.00   0.00    -0.00   0.00  -0.00
 147   7    -0.00  -0.00   0.00    -0.00  -0.00   0.00     0.00   0.00  -0.00
 148   6     0.00  -0.00   0.00     0.00   0.00  -0.00    -0.00   0.00  -0.00
 149   6     0.00   0.00  -0.00     0.00   0.00  -0.00    -0.00  -0.00   0.00
 150   6     0.12  -0.01   0.00     0.00  -0.00   0.00    -0.09   0.01  -0.00
 151   6     0.00  -0.09   0.01     0.00  -0.00   0.00    -0.00   0.07  -0.01
 152   6    -0.00  -0.00   0.00    -0.00   0.00  -0.00     0.00   0.00  -0.00
 153   7    -0.00   0.00  -0.00    -0.00   0.00  -0.00     0.00  -0.00   0.00
 154   6     0.00  -0.00   0.00    -0.00  -0.00   0.00    -0.00   0.00  -0.00
 155   6     0.00  -0.00   0.00     0.00  -0.00   0.00    -0.00   0.00  -0.00
 156   7     0.00   0.00  -0.00     0.00   0.00  -0.00    -0.00  -0.00   0.00
 157   1     0.02   0.18  -0.02     0.01   0.09  -0.01    -0.02  -0.18   0.02
 158   1     0.24   0.03  -0.00     0.13   0.01  -0.00    -0.24  -0.03   0.00
 159   1     0.24  -0.02   0.00     0.14  -0.01   0.00    -0.25   0.03  -0.00
 160   1     0.02  -0.17   0.02     0.01  -0.10   0.01    -0.02   0.18  -0.02
 161   1    -0.00  -0.01   0.00    -0.00  -0.00   0.00     0.00   0.01  -0.00
 162   1    -0.01  -0.15   0.02    -0.00  -0.01   0.00     0.01   0.14  -0.02
 163   1    -0.21  -0.02   0.00    -0.02  -0.00   0.00     0.19   0.02  -0.00
 164   1    -0.38   0.04  -0.00    -0.01   0.00  -0.00     0.28  -0.03   0.00
 165   1    -0.03   0.27  -0.03    -0.00   0.01  -0.00     0.02  -0.21   0.02
 166   1     0.00   0.01  -0.00    -0.00   0.00  -0.00    -0.00  -0.01   0.00
 167  27     0.00   0.00  -0.00     0.00   0.00  -0.00     0.00   0.00  -0.00
 168   6     0.00   0.01  -0.00     0.00   0.07  -0.01     0.00   0.06  -0.01
 169   6     0.01   0.00  -0.00     0.09   0.01  -0.00     0.08   0.00  -0.00
 170   6     0.00  -0.00   0.00     0.00  -0.00   0.00     0.00  -0.00   0.00
 171   6     0.00  -0.00   0.00     0.00   0.00  -0.00     0.00   0.00  -0.00
 172   6     0.00   0.00  -0.00     0.00   0.00  -0.00     0.00   0.00  -0.00
 173   6     0.01  -0.00   0.00     0.05  -0.00   0.00     0.05  -0.00   0.00
 174   6     0.00  -0.01   0.00     0.00  -0.04   0.01     0.00  -0.04   0.01
 175   6    -0.00  -0.00  -0.00    -0.00  -0.00  -0.00    -0.00  -0.00  -0.00
 176   7    -0.00   0.00  -0.00    -0.00   0.00  -0.00    -0.00   0.00  -0.00
 177   6    -0.00  -0.00   0.00    -0.00  -0.00   0.00    -0.00  -0.00   0.00
 178   6     0.00  -0.00   0.00     0.00  -0.00   0.00     0.00  -0.00   0.00
 179   6    -0.00  -0.05   0.00    -0.01  -0.10   0.01    -0.00  -0.06   0.01
 180   6    -0.07  -0.00  -0.00    -0.13  -0.01  -0.00    -0.08  -0.01  -0.00
 181   6    -0.00   0.00  -0.00    -0.00   0.00  -0.00    -0.00   0.00  -0.00
 182   7     0.00   0.00  -0.00     0.00   0.00  -0.00     0.00   0.00  -0.00
 183   6    -0.00  -0.00   0.00    -0.00  -0.00   0.00    -0.00  -0.00   0.00
 184   6    -0.00  -0.00   0.00    -0.00  -0.00   0.00    -0.00  -0.00   0.00
 185   6    -0.03   0.00   0.00    -0.06   0.01   0.00    -0.05   0.00   0.00
 186   6    -0.00   0.02  -0.00    -0.00   0.05  -0.00    -0.00   0.04  -0.00
 187   6     0.00   0.00  -0.00     0.00   0.00  -0.00     0.00   0.00  -0.00
 188   7     0.00  -0.00   0.00     0.00  -0.00   0.00     0.00  -0.00   0.00
 189   6    -0.00   0.00  -0.00     0.00   0.00  -0.00     0.00   0.00  -0.00
 190   6    -0.00   0.00   0.00    -0.00   0.00   0.00    -0.00   0.00   0.00
 191   7    -0.00  -0.00   0.00    -0.00  -0.00   0.00    -0.00  -0.00   0.00
 192   1    -0.00  -0.02   0.00    -0.02  -0.22   0.03    -0.02  -0.19   0.02
 193   1    -0.03  -0.00   0.00    -0.30  -0.03   0.01    -0.25  -0.03   0.01
 194   1    -0.04   0.00  -0.00    -0.18   0.02  -0.01    -0.16   0.02  -0.01
 195   1    -0.00   0.03  -0.00    -0.01   0.13  -0.02    -0.01   0.12  -0.02
 196   1    -0.00   0.00  -0.00    -0.00   0.01  -0.00    -0.00   0.01  -0.00
 197   1     0.02   0.16  -0.02     0.03   0.30  -0.03     0.02   0.18  -0.02
 198   1     0.23   0.02   0.00     0.42   0.04   0.00     0.25   0.03   0.00
 199   1     0.10  -0.01  -0.00     0.21  -0.02  -0.00     0.15  -0.02  -0.00
 200   1     0.01  -0.07   0.01     0.01  -0.15   0.01     0.01  -0.11   0.01
 201   1    -0.00  -0.00   0.00     0.00  -0.01   0.00     0.00  -0.01   0.00
