      -----------------------------------------------------------      
     |                   =====================                   |     
     |                           x T B                           |     
     |                   =====================                   |     
     |                         S. Grimme                         |     
     |          Mulliken Center for Theoretical Chemistry        |     
     |                    University of Bonn                     |     
      -----------------------------------------------------------      

   * xtb version 6.4.1 (bd6e46d) compiled by 'conda@4901f00b25ba' on 2021-06-10

   xtb is free software: you can redistribute it and/or modify it under
   the terms of the GNU Lesser General Public License as published by
   the Free Software Foundation, either version 3 of the License, or
   (at your option) any later version.
   
   xtb is distributed in the hope that it will be useful,
   but WITHOUT ANY WARRANTY; without even the implied warranty of
   MERCHANTABILITY or FITNESS FOR A PARTICULAR PURPOSE.  See the
   GNU Lesser General Public License for more details.
   
   Cite this work as:
   * C. Bannwarth, E. Caldeweyher, S. Ehlert, A. Hansen, P. Pracht,
     J. Seibert, S. Spicher, S. Grimme, WIREs Comput. Mol. Sci., 2020, 11,
     e01493. DOI: 10.1002/wcms.1493
   
   for GFN2-xTB:
   * C. Bannwarth, S. Ehlert and S. Grimme., J. Chem. Theory Comput., 2019,
     15, 1652-1671. DOI: 10.1021/acs.jctc.8b01176
   for GFN1-xTB:
   * S. Grimme, C. Bannwarth, P. Shushkov, J. Chem. Theory Comput., 2017,
     13, 1989-2009. DOI: 10.1021/acs.jctc.7b00118
   for GFN0-xTB:
   * P. Pracht, E. Caldeweyher, S. Ehlert, S. Grimme, ChemRxiv, 2019, preprint.
     DOI: 10.26434/chemrxiv.8326202.v1
   for GFN-FF:
   * S. Spicher and S. Grimme, Angew. Chem. Int. Ed., 2020, 59, 15665-15673.
     DOI: 10.1002/anie.202004239
   
   for DFT-D4:
   * E. Caldeweyher, C. Bannwarth and S. Grimme, J. Chem. Phys., 2017,
     147, 034112. DOI: 10.1063/1.4993215
   * E. Caldeweyher, S. Ehlert, A. Hansen, H. Neugebauer, S. Spicher,
     C. Bannwarth and S. Grimme, J. Chem. Phys., 2019, 150, 154122.
     DOI: 10.1063/1.5090222
   * E. Caldeweyher, J.-M. Mewes, S. Ehlert and S. Grimme, Phys. Chem. Chem. Phys.
     2020, 22, 8499-8512. DOI: 10.1039/D0CP00502A
   
   for sTDA-xTB:
   * S. Grimme and C. Bannwarth, J. Chem. Phys., 2016, 145, 054103.
     DOI: 10.1063/1.4959605
   
   in the mass-spec context:
   * V. Asgeirsson, C. Bauer and S. Grimme, Chem. Sci., 2017, 8, 4879.
     DOI: 10.1039/c7sc00601b
   * J. Koopman and S. Grimme, ACS Omega 2019, 4, 12, 15120-15133.
     DOI: 10.1021/acsomega.9b02011
   
   for metadynamics refer to:
   * S. Grimme, J. Chem. Theory Comput., 2019, 155, 2847-2862
     DOI: 10.1021/acs.jctc.9b00143
   
   for SPH calculations refer to:
   * S. Spicher and S. Grimme, J. Chem. Theory Comput., 2021, 17, 1701-1714
     DOI: 10.1021/acs.jctc.0c01306
   
   with help from (in alphabetical order)
   P. Atkinson, C. Bannwarth, F. Bohle, G. Brandenburg, E. Caldeweyher
   M. Checinski, S. Dohm, S. Ehlert, S. Ehrlich, I. Gerasimov, J. Koopman
   C. Lavigne, S. Lehtola, F. März, M. Müller, F. Musil, H. Neugebauer
   J. Pisarek, C. Plett, P. Pracht, J. Seibert, P. Shushkov, S. Spicher
   M. Stahn, M. Steiner, T. Strunk, J. Stückrath, T. Rose, and J. Unsleber
   
 * started run on 2021/11/19 at 19:42:25.449     

           -------------------------------------------------
          |                Calculation Setup                |
           -------------------------------------------------

          program call               : /home/jeff/miniconda3/bin/xtb input_structure_1.xyz --gfn 2 --ohess normal --parallel 1 --etemp 300 --chrg 0 --uhf 0 -I det_control.in
          hostname                   : jelfscompute1
          coordinate file            : input_structure_1.xyz
          omp threads                :                     1
          number of atoms            :                   201
          number of electrons        :                   693
          charge                     :                     0
          spin                       :                   0.5
          first test random number   :      0.68600857422192

   ID    Z sym.   atoms
    1   27 Co     1, 37, 97, 132, 167
    2    6 C      2-9, 11-15, 17-21, 23, 24, 38-45, 47-51, 53-57, 59, 60,
                  73-96, 98-105, 107-111, 113-117, 119, 120, 133-140,
                  142-146, 148-152, 154, 155, 168-175, 177-181, 183-187, 189,
                  190
    3    7 N      10, 16, 22, 25, 46, 52, 58, 61, 106, 112, 118, 121, 141,
                  147, 153, 156, 176, 182, 188, 191
    4    1 H      26-36, 62-72, 122-131, 157-166, 192-201

molecular fragmentation (1/2 indicates fragments):
111111111111111111111111111111111111222222222222222222222222222222222222
222222222222222222222222222222222222222222222222222222222222222222222222
222222222222222222222222222222222222222222222222222222222
# atoms in fragment 1/2:    36   165
 fragment masses (1/2) :      366.26     1750.28
CMA distance (Bohr)    :  75.503
constraining FC (au)   :  0.0500

           -------------------------------------------------
          |                 G F N 2 - x T B                 |
           -------------------------------------------------

        Reference                      10.1021/acs.jctc.8b01176
      * Hamiltonian:
        H0-scaling (s, p, d)           1.850000    2.230000    2.230000
        zeta-weighting                 0.500000
      * Dispersion:
        s8                             2.700000
        a1                             0.520000
        a2                             5.000000
        s9                             5.000000
      * Repulsion:
        kExp                           1.500000    1.000000
        rExp                           1.000000
      * Coulomb:
        alpha                          2.000000
        third order                    shell-resolved
        anisotropic                    true
        a3                             3.000000
        a5                             4.000000
        cn-shift                       1.200000
        cn-exp                         4.000000
        max-rad                        5.000000


          ...................................................
          :                      SETUP                      :
          :.................................................:
          :  # basis functions                 678          :
          :  # atomic orbitals                 673          :
          :  # shells                          355          :
          :  # electrons                       693          :
          :  max. iterations                   250          :
          :  Hamiltonian                  GFN2-xTB          :
          :  restarted?                      false          :
          :  GBSA solvation                  false          :
          :  PC potential                    false          :
          :  electronic temp.          300.0000000     K    :
          :  accuracy                    1.0000000          :
          :  -> integral cutoff          0.2500000E+02      :
          :  -> integral neglect         0.1000000E-07      :
          :  -> SCF convergence          0.1000000E-05 Eh   :
          :  -> wf. convergence          0.1000000E-03 e    :
          :  Broyden damping             0.4000000          :
          ...................................................

 iter      E             dE          RMSdq      gap      omega  full diag
   1   -370.9497960 -0.370950E+03  0.907E+00    0.01       0.0  T
   2   -327.2502832  0.436995E+02  0.129E+01    0.04       1.0  T
   3   -354.3964629 -0.271462E+02  0.792E+00    0.05       1.0  T
   4   -346.5078036  0.788866E+01  0.796E+00    0.07       1.0  T
   5   -255.6150393  0.908928E+02  0.877E+00    0.07       1.0  T
   6   -348.4868969 -0.928719E+02  0.546E+00    0.14       1.0  T
   7   -351.9113478 -0.342445E+01  0.577E+00    0.10       1.0  T
   8   -361.8001082 -0.988876E+01  0.542E+00    0.04       1.0  T
   9   -359.3418358  0.245827E+01  0.587E+00    0.01       1.0  T
  10   -362.2200311 -0.287820E+01  0.576E+00    0.07       1.0  T
  11   -364.5761168 -0.235609E+01  0.417E+00    0.05       1.0  T
  12   -370.8298656 -0.625375E+01  0.370E+00    0.01       1.0  T
  13   -370.9990289 -0.169163E+00  0.348E+00    0.08       1.0  T
  14   -371.9198196 -0.920791E+00  0.330E+00    0.06       1.0  T
  15   -371.8259643  0.938553E-01  0.334E+00    0.04       1.0  T
  16   -371.7206455  0.105319E+00  0.331E+00    0.04       1.0  T
  17   -371.7193963  0.124915E-02  0.328E+00    0.01       1.0  T
  18   -371.5246588  0.194738E+00  0.320E+00    0.01       1.0  T
  19   -372.0023268 -0.477668E+00  0.300E+00    0.04       1.0  T
  20   -372.9515464 -0.949220E+00  0.247E+00    0.04       1.0  T
  21   -372.5760080  0.375538E+00  0.238E+00    0.09       1.0  T
  22   -373.1586216 -0.582614E+00  0.212E+00    0.00       1.0  T
  23   -372.4033106  0.755311E+00  0.213E+00    0.03       1.0  T
  24   -372.1916669  0.211644E+00  0.215E+00    0.01       1.0  T
  25   -372.0256917  0.165975E+00  0.216E+00    0.05       1.0  T
  26   -372.6228723 -0.597181E+00  0.205E+00    0.02       1.0  T
  27   -363.2778672  0.934501E+01  0.556E+00    0.21       1.0  T
  28   -362.7317689  0.546098E+00  0.555E+00    0.22       1.0  T
  29   -363.3617482 -0.629979E+00  0.538E+00    0.12       1.0  T
  30   -372.7482106 -0.938646E+01  0.224E+00    0.03       1.0  T
  31   -373.0662533 -0.318043E+00  0.205E+00    0.03       1.0  T
  32   -372.0354290  0.103082E+01  0.232E+00    0.02       1.0  T
  33   -371.8906745  0.144755E+00  0.232E+00    0.03       1.0  T
  34   -372.8496672 -0.958993E+00  0.197E+00    0.02       1.0  T
  35   -369.9043848  0.294528E+01  0.336E+00    0.02       1.0  T
  36   -371.4551973 -0.155081E+01  0.275E+00    0.03       1.0  T
  37   -371.4954453 -0.402480E-01  0.313E+00    0.01       1.0  T
  38   -369.4259067  0.206954E+01  0.399E+00    0.00       1.0  T
  39   -369.0598737  0.366033E+00  0.414E+00    0.00       1.0  T
  40   -368.6439735  0.415900E+00  0.428E+00    0.01       1.0  T
  41   -365.5887135  0.305526E+01  0.532E+00    0.10       1.0  T
  42   -365.3081182  0.280595E+00  0.549E+00    0.13       1.0  T
  43   -364.7634313  0.544687E+00  0.569E+00    0.18       1.0  T
  44   -364.2350922  0.528339E+00  0.584E+00    0.20       1.0  T
  45   -364.1874315  0.476607E-01  0.590E+00    0.20       1.0  T
  46   -364.0930339  0.943976E-01  0.600E+00    0.18       1.0  T
  47   -364.1632769 -0.702430E-01  0.603E+00    0.21       1.0  T
  48   -363.9054532  0.257824E+00  0.607E+00    0.19       1.0  T
  49   -363.7957439  0.109709E+00  0.614E+00    0.14       1.0  T
  50   -363.9166944 -0.120950E+00  0.610E+00    0.16       1.0  T
  51   -363.4403719  0.476322E+00  0.621E+00    0.08       1.0  T
  52   -363.1567614  0.283610E+00  0.629E+00    0.03       1.0  T
  53   -363.2460573 -0.892959E-01  0.628E+00    0.02       1.0  T
  54   -363.4955360 -0.249479E+00  0.619E+00    0.08       1.0  T
  55   -363.9479135 -0.452378E+00  0.608E+00    0.15       1.0  T
  56   -366.7391173 -0.279120E+01  0.533E+00    0.08       1.0  T
  57   -370.9960402 -0.425692E+01  0.359E+00    0.01       1.0  T
  58   -372.1897314 -0.119369E+01  0.291E+00    0.02       1.0  T
  59   -372.2275762 -0.378449E-01  0.283E+00    0.01       1.0  T
  60   -372.2047734  0.228028E-01  0.273E+00    0.03       1.0  T
  61   -372.3072298 -0.102456E+00  0.269E+00    0.02       1.0  T
  62   -371.0012828  0.130595E+01  0.349E+00    0.02       1.0  T
  63   -369.7101756  0.129111E+01  0.367E+00    0.01       1.0  T
  64   -371.6007163 -0.189054E+01  0.285E+00    0.04       1.0  T
  65   -373.5366242 -0.193591E+01  0.189E+00    0.01       1.0  T
  66   -372.7967008  0.739923E+00  0.232E+00    0.02       1.0  T
  67   -373.4624689 -0.665768E+00  0.193E+00    0.01       1.0  T
  68   -373.8920239 -0.429555E+00  0.138E+00    0.00       1.0  T
  69   -374.0590247 -0.167001E+00  0.119E+00    0.01       1.0  T
  70   -373.2465861  0.812439E+00  0.217E+00    0.01       1.0  T
  71   -373.4122255 -0.165639E+00  0.198E+00    0.01       1.0  T
  72   -371.3710979  0.204113E+01  0.329E+00    0.02       1.0  T
  73   -373.0772230 -0.170613E+01  0.219E+00    0.02       1.0  T
  74   -373.4792811 -0.402058E+00  0.173E+00    0.01       1.0  T
  75   -373.3633501  0.115931E+00  0.192E+00    0.01       1.0  T
  76   -372.8278368  0.535513E+00  0.231E+00    0.02       1.0  T
  77   -373.8033780 -0.975541E+00  0.134E+00    0.01       1.0  T
  78   -371.5354307  0.226795E+01  0.299E+00    0.02       1.0  T
  79   -370.8502113  0.685219E+00  0.336E+00    0.02       1.0  T
  80   -371.1214767 -0.271265E+00  0.320E+00    0.02       1.0  T
  81   -371.9456876 -0.824211E+00  0.270E+00    0.02       1.0  T
  82   -371.3695538  0.576134E+00  0.301E+00    0.02       1.0  T
  83   -372.9031475 -0.153359E+01  0.207E+00    0.01       1.0  T
  84   -371.9004442  0.100270E+01  0.269E+00    0.03       1.0  T
  85   -373.2551629 -0.135472E+01  0.178E+00    0.01       1.0  T
  86   -373.0422517  0.212911E+00  0.194E+00    0.01       1.0  T
  87   -373.3256035 -0.283352E+00  0.170E+00    0.02       1.0  T
  88   -373.2740885  0.515150E-01  0.174E+00    0.01       1.0  T
  89   -373.5893357 -0.315247E+00  0.143E+00    0.01       1.0  T
  90   -373.8470452 -0.257709E+00  0.113E+00    0.01       1.0  T
  91   -373.8649735 -0.179283E-01  0.113E+00    0.01       1.0  T
  92   -373.8803999 -0.154264E-01  0.111E+00    0.01       1.0  T
  93   -373.8476196  0.327803E-01  0.116E+00    0.01       1.0  T
  94   -373.8360692  0.115504E-01  0.117E+00    0.01       1.0  T
  95   -373.8196130  0.164562E-01  0.119E+00    0.01       1.0  T
  96   -373.7998298  0.197832E-01  0.121E+00    0.01       1.0  T
  97   -373.8080040 -0.817416E-02  0.120E+00    0.01       1.0  T
  98   -373.8245715 -0.165675E-01  0.119E+00    0.01       1.0  T
  99   -373.8212747  0.329685E-02  0.119E+00    0.01       1.0  T
 100   -373.8496147 -0.283400E-01  0.114E+00    0.01       1.0  T
 101   -373.9585322 -0.108917E+00  0.967E-01    0.01       1.0  T
 102   -373.9425710  0.159611E-01  0.985E-01    0.01       1.0  T
 103   -374.0042335 -0.616625E-01  0.881E-01    0.01       1.0  T
 104   -374.0247968 -0.205632E-01  0.853E-01    0.01       1.0  T
 105   -374.0125347  0.122621E-01  0.870E-01    0.01       1.0  T
 106   -374.0036559  0.887874E-02  0.883E-01    0.01       1.0  T
 107   -373.9968345  0.682141E-02  0.892E-01    0.01       1.0  T
 108   -373.9736844  0.231501E-01  0.923E-01    0.00       1.0  T
 109   -373.9488204  0.248640E-01  0.964E-01    0.00       1.0  T
 110   -373.9228068  0.260136E-01  0.100E+00    0.01       1.0  T
 111   -373.9166244  0.618242E-02  0.102E+00    0.00       1.0  T
 112   -373.9197557 -0.313128E-02  0.101E+00    0.00       1.0  T
 113   -373.9292841 -0.952840E-02  0.999E-01    0.00       1.0  T
 114   -373.9522536 -0.229695E-01  0.977E-01    0.00       1.0  T
 115   -373.9367687  0.154850E-01  0.993E-01    0.00       1.0  T
 116   -373.9179063  0.188624E-01  0.102E+00    0.01       1.0  T
 117   -373.8895714  0.283349E-01  0.105E+00    0.01       1.0  T
 118   -373.8787559  0.108155E-01  0.106E+00    0.01       1.0  T
 119   -373.8751203  0.363560E-02  0.106E+00    0.00       1.0  T
 120   -373.8731430  0.197726E-02  0.106E+00    0.01       1.0  T
 121   -373.9442261 -0.710830E-01  0.964E-01    0.01       1.0  T
 122   -373.9531935 -0.896740E-02  0.950E-01    0.01       1.0  T
 123   -373.9770998 -0.239064E-01  0.906E-01    0.01       1.0  T
 124   -373.9703527  0.674715E-02  0.913E-01    0.00       1.0  T
 125   -373.9903743 -0.200217E-01  0.894E-01    0.01       1.0  T
 126   -374.0652748 -0.749005E-01  0.768E-01    0.01       1.0  T
 127   -374.0272092  0.380657E-01  0.841E-01    0.01       1.0  T
 128   -373.9805527  0.466565E-01  0.929E-01    0.02       1.0  T
 129   -374.0377324 -0.571797E-01  0.831E-01    0.01       1.0  T
 130   -374.0209109  0.168215E-01  0.870E-01    0.02       1.0  T
 131   -374.0599102 -0.389993E-01  0.804E-01    0.01       1.0  T
 132   -373.9687382  0.911720E-01  0.951E-01    0.01       1.0  T
 133   -374.0575142 -0.887760E-01  0.797E-01    0.01       1.0  T
 134   -374.0905261 -0.330119E-01  0.729E-01    0.01       1.0  T
 135   -374.0773534  0.131727E-01  0.734E-01    0.01       1.0  T
 136   -374.1067249 -0.293715E-01  0.673E-01    0.01       1.0  T
 137   -374.1125475 -0.582254E-02  0.647E-01    0.01       1.0  T
 138   -374.1283360 -0.157885E-01  0.608E-01    0.01       1.0  T
 139   -374.1510569 -0.227210E-01  0.558E-01    0.01       1.0  T
 140   -374.1432761  0.778084E-02  0.579E-01    0.00       1.0  T
 141   -374.1805384 -0.372623E-01  0.454E-01    0.01       1.0  T
 142   -374.1922452 -0.117068E-01  0.412E-01    0.00       1.0  T
 143   -374.2243346 -0.320894E-01  0.268E-01    0.01       1.0  T
 144   -374.2017982  0.225364E-01  0.354E-01    0.00       1.0  T
 145   -374.1980628  0.373541E-02  0.374E-01    0.00       1.0  T
 146   -374.1885092  0.955361E-02  0.404E-01    0.00       1.0  T
 147   -374.2037135 -0.152043E-01  0.347E-01    0.00       1.0  T
 148   -374.2161695 -0.124560E-01  0.285E-01    0.00       1.0  T
 149   -374.2221122 -0.594268E-02  0.253E-01    0.01       1.0  T
 150   -374.2152068  0.690538E-02  0.285E-01    0.00       1.0  T
 151   -374.2255982 -0.103915E-01  0.227E-01    0.00       1.0  T
 152   -374.2363905 -0.107922E-01  0.155E-01    0.01       1.0  T
 153   -374.2389400 -0.254946E-02  0.133E-01    0.01       1.0  T
 154   -374.2391929 -0.252932E-03  0.130E-01    0.01       1.0  T
 155   -374.2417551 -0.256224E-02  0.101E-01    0.00       1.0  T
 156   -374.2439390 -0.218390E-02  0.793E-02    0.00       1.0  T
 157   -374.2436133  0.325784E-03  0.879E-02    0.00       1.0  T
 158   -374.2434940  0.119226E-03  0.848E-02    0.00       1.0  T
 159   -374.2435852 -0.911890E-04  0.687E-02    0.00       1.0  T
 160   -374.2441393 -0.554074E-03  0.479E-02    0.00       1.0  T
 161   -374.2444040 -0.264744E-03  0.356E-02    0.00       1.0  T
 162   -374.2435862  0.817863E-03  0.588E-02    0.00       1.0  T
 163   -374.2439785 -0.392341E-03  0.458E-02    0.00       1.0  T
 164   -374.2444243 -0.445792E-03  0.250E-02    0.00       1.0  T
 165   -374.2444625 -0.382128E-04  0.232E-02    0.00       1.0  T
 166   -374.2444387  0.237772E-04  0.242E-02    0.00       1.0  T
 167   -374.2445775 -0.138801E-03  0.131E-02    0.00       1.0  T
 168   -374.2445819 -0.441148E-05  0.115E-02    0.00       1.0  T
 169   -374.2445647  0.172578E-04  0.127E-02    0.00       1.0  T
 170   -374.2445474  0.173235E-04  0.140E-02    0.00       1.0  T
 171   -374.2445740 -0.266229E-04  0.110E-02    0.00       1.0  T
 172   -374.2445721  0.189096E-05  0.123E-02    0.00       1.0  T
 173   -374.2445690  0.310510E-05  0.127E-02    0.00       1.0  T
 174   -374.2445896 -0.206163E-04  0.952E-03    0.00       1.0  T
 175   -374.2445824  0.716759E-05  0.100E-02    0.00       1.0  T
 176   -374.2445911 -0.867291E-05  0.858E-03    0.00       1.0  T
 177   -374.2445961 -0.498265E-05  0.780E-03    0.00       1.0  T
 178   -374.2445981 -0.197010E-05  0.742E-03    0.00       1.0  T
 179   -374.2446050 -0.692120E-05  0.559E-03    0.00       1.3  T
 180   -374.2446106 -0.557644E-05  0.337E-03    0.00       2.1  T
 181   -374.2446132 -0.258867E-05  0.131E-03    0.00       5.4  T
 182   -374.2446130  0.174801E-06  0.132E-03    0.00       5.4  T
 183   -374.2446132 -0.265141E-06  0.110E-03    0.00       6.4  T
 184   -374.2446135 -0.265065E-06  0.647E-04    0.00      10.9  T
 185   -374.2446135 -0.317601E-07  0.567E-04    0.00      12.4  T

   *** convergence criteria satisfied after 185 iterations ***

         #    Occupation            Energy/Eh            Energy/eV
      -------------------------------------------------------------
         1        2.0000           -0.6848609             -18.6360
       ...           ...                  ...                  ...
       341        1.7241           -0.3471908              -9.4475
       342        1.7102           -0.3471362              -9.4461
       343        1.7031           -0.3471088              -9.4453
       344        1.6532           -0.3469316              -9.4405
       345        1.5888           -0.3467300              -9.4350
       346        1.5800           -0.3467041              -9.4343
       347        1.4081           -0.3462635              -9.4223 (HOMO)
       348        1.3722           -0.3461818              -9.4201 (LUMO)
       349        1.2707           -0.3459634              -9.4141
       350        0.0005           -0.3375208              -9.1844
       351        0.0004           -0.3372781              -9.1778
       352                         -0.3275793              -8.9139
       ...                                ...                  ...
       673                          2.2639743              61.6059
      -------------------------------------------------------------
                  HL-Gap            0.0000817 Eh            0.0022 eV
             Fermi-level           -0.3454273 Eh           -9.3996 eV

 SCC (total)                   0 d,  0 h,  0 min, 23.121 sec
 SCC setup                      ...        0 min,  0.007 sec (  0.031%)
 Dispersion                     ...        0 min,  0.015 sec (  0.064%)
 classical contributions        ...        0 min,  0.001 sec (  0.006%)
 integral evaluation            ...        0 min,  0.122 sec (  0.528%)
 iterations                     ...        0 min, 22.645 sec ( 97.941%)
 molecular gradient             ...        0 min,  0.315 sec (  1.364%)
 printout                       ...        0 min,  0.015 sec (  0.066%)

         :::::::::::::::::::::::::::::::::::::::::::::::::::::
         ::                     SUMMARY                     ::
         :::::::::::::::::::::::::::::::::::::::::::::::::::::
         :: total energy            -366.553696729073 Eh    ::
         :: gradient norm              1.764506867956 Eh/a0 ::
         :: HOMO-LUMO gap              0.002222967922 eV    ::
         ::.................................................::
         :: SCC energy              -374.244613542250 Eh    ::
         :: -> isotropic ES            0.131640135737 Eh    ::
         :: -> anisotropic ES          0.038203031892 Eh    ::
         :: -> anisotropic XC          0.257899711782 Eh    ::
         :: -> dispersion             -0.306854744204 Eh    ::
         :: repulsion energy           7.691451018248 Eh    ::
         :: add. restraining           0.000000000000 Eh    ::
         :: total charge               0.000000000008 e     ::
         :::::::::::::::::::::::::::::::::::::::::::::::::::::

      ----------------------------------------------------------- 
     |                   =====================                   |
     |                        A N C O P T                        |
     |                   =====================                   |
     |               Approximate Normal Coordinate               |
     |                Rational Function Optimizer                |
      ----------------------------------------------------------- 

          ...................................................
          :                      SETUP                      :
          :.................................................:
          :   optimization level            normal          :
          :   max. optcycles                   603          :
          :   ANC micro-cycles                  20          :
          :   degrees of freedom               597          :
          :.................................................:
          :   RF solver                   davidson          :
          :   write xtbopt.log                true          :
          :   linear?                        false          :
          :   energy convergence         0.5000000E-05 Eh   :
          :   grad. convergence          0.1000000E-02 Eh/α :
          :   maximium RF displ.         1.0000000          :
          :   Hlow (freq-cutoff)         0.1000000E-01      :
          :   Hmax (freq-cutoff)         5.0000000          :
          :   S6 in model hess.         20.0000000          :
          ...................................................

generating ANC from model Hessian ...
Using Lindh-Hessian (1995)
 Shifting diagonal of input Hessian by    1.0134331402636367E-002
 Lowest  eigenvalues of input Hessian
    0.010000    0.010034    0.010100    0.010100    0.010101    0.010108
    0.010111    0.010116    0.010117    0.010120    0.010125    0.010127
    0.010128    0.010131    0.000000    0.000000    0.000000    0.000000
 Highest eigenvalues
    3.325869    3.325872    3.327668    3.495154    3.495768    3.495769


........................................................................
.............................. CYCLE    1 ..............................
........................................................................
   1   -374.2446135 -0.374245E+03  0.756E-04    0.00       0.0  T
   2   -374.2431189  0.149460E-02  0.672E-02    0.00       1.0  T
   3   -374.2446105 -0.149167E-02  0.311E-03    0.00       2.3  T
   4   -374.2445430  0.675260E-04  0.148E-02    0.00       1.0  T
   5   -374.2445546 -0.115660E-04  0.136E-02    0.00       1.0  T
   6   -374.2446068 -0.521867E-04  0.439E-03    0.00       1.6  T
   7   -374.2445873  0.194552E-04  0.907E-03    0.00       1.0  T
   8   -374.2446086 -0.212981E-04  0.372E-03    0.00       1.9  T
   9   -374.2446098 -0.118225E-05  0.318E-03    0.00       2.2  T
  10   -374.2446122 -0.246481E-05  0.198E-03    0.00       3.6  T
  11   -374.2446135 -0.129443E-05  0.568E-04    0.00      12.4  T
  12   -374.2446136 -0.594534E-07  0.363E-04    0.00      19.4  T
  13   -374.2446136  0.398331E-07  0.504E-04    0.00      14.0  T
     SCC iter.                  ...        0 min,  1.584 sec
     gradient                   ...        0 min,  0.316 sec
 * total energy  :  -366.5536967 Eh     change       -0.1622675E-07 Eh
   gradient norm :     1.7645076 Eh/α   predicted     0.0000000E+00 (-100.00%)
   displ. norm   :     0.6181030 α      lambda       -0.1003301E+01
   maximum displ.:     0.1951243 α      in ANC's #475, #586, #596, ...

........................................................................
.............................. CYCLE    2 ..............................
........................................................................
   1   -374.2635590 -0.374264E+03  0.477E-01    0.00       0.0  T
   2   -368.0361105  0.622745E+01  0.415E+00    0.00       1.0  T
   3   -371.9451528 -0.390904E+01  0.269E+00    0.02       1.0  T
   4   -372.2446869 -0.299534E+00  0.250E+00    0.01       1.0  T
   5   -372.3183300 -0.736431E-01  0.234E+00    0.00       1.0  T
   6   -372.3309809 -0.126509E-01  0.251E+00    0.02       1.0  T
   7   -370.2366591  0.209432E+01  0.352E+00    0.02       1.0  T
   8   -373.4054629 -0.316880E+01  0.164E+00    0.02       1.0  T
   9   -373.5179853 -0.112522E+00  0.153E+00    0.02       1.0  T
  10   -373.7974171 -0.279432E+00  0.122E+00    0.01       1.0  T
  11   -373.6425632  0.154854E+00  0.130E+00    0.01       1.0  T
  12   -373.9064074 -0.263844E+00  0.113E+00    0.00       1.0  T
  13   -373.6408654  0.265542E+00  0.144E+00    0.01       1.0  T
  14   -372.6787742  0.962091E+00  0.211E+00    0.02       1.0  T
  15   -373.1333511 -0.454577E+00  0.178E+00    0.02       1.0  T
  16   -373.5833165 -0.449965E+00  0.141E+00    0.01       1.0  T
  17   -374.1019002 -0.518584E+00  0.736E-01    0.01       1.0  T
  18   -374.0010208  0.100879E+00  0.981E-01    0.02       1.0  T
  19   -373.7752863  0.225734E+00  0.123E+00    0.01       1.0  T
  20   -373.1074915  0.667795E+00  0.182E+00    0.02       1.0  T
  21   -373.6294929 -0.522001E+00  0.138E+00    0.01       1.0  T
  22   -373.2989068  0.330586E+00  0.169E+00    0.02       1.0  T
  23   -373.4050929 -0.106186E+00  0.163E+00    0.01       1.0  T
  24   -373.4827136 -0.776207E-01  0.156E+00    0.01       1.0  T
  25   -373.7740037 -0.291290E+00  0.129E+00    0.00       1.0  T
  26   -373.6809141  0.930895E-01  0.137E+00    0.01       1.0  T
  27   -373.6732780  0.763610E-02  0.137E+00    0.02       1.0  T
  28   -373.6535815  0.196965E-01  0.139E+00    0.02       1.0  T
  29   -373.6509583  0.262325E-02  0.140E+00    0.02       1.0  T
  30   -373.7470660 -0.961077E-01  0.129E+00    0.01       1.0  T
  31   -374.0939461 -0.346880E+00  0.812E-01    0.00       1.0  T
  32   -374.0805303  0.134158E-01  0.832E-01    0.00       1.0  T
  33   -374.1117618 -0.312316E-01  0.774E-01    0.00       1.0  T
  34   -374.2016823 -0.899205E-01  0.572E-01    0.00       1.0  T
  35   -374.2400237 -0.383415E-01  0.461E-01    0.00       1.0  T
  36   -374.2712980 -0.312742E-01  0.342E-01    0.00       1.0  T
  37   -374.2900932 -0.187952E-01  0.246E-01    0.00       1.0  T
  38   -374.2917333 -0.164009E-02  0.236E-01    0.00       1.0  T
  39   -374.2963362 -0.460287E-02  0.204E-01    0.00       1.0  T
  40   -374.3037485 -0.741229E-02  0.139E-01    0.00       1.0  T
  41   -374.3037971 -0.486109E-04  0.137E-01    0.00       1.0  T
  42   -374.3048447 -0.104764E-02  0.125E-01    0.00       1.0  T
  43   -374.3042403  0.604404E-03  0.131E-01    0.00       1.0  T
  44   -374.3056504 -0.141012E-02  0.113E-01    0.00       1.0  T
  45   -374.3064460 -0.795533E-03  0.101E-01    0.00       1.0  T
  46   -374.3065115 -0.655706E-04  0.991E-02    0.00       1.0  T
  47   -374.3075795 -0.106796E-02  0.782E-02    0.00       1.0  T
  48   -374.3085138 -0.934274E-03  0.536E-02    0.00       1.0  T
  49   -374.3086629 -0.149103E-03  0.472E-02    0.00       1.0  T
  50   -374.3090578 -0.394899E-03  0.289E-02    0.00       1.0  T
  51   -374.3092608 -0.203066E-03  0.124E-02    0.00       1.0  T
  52   -374.3092611 -0.243276E-06  0.115E-02    0.00       1.0  T
  53   -374.3092762 -0.150766E-04  0.742E-03    0.00       1.0  T
  54   -374.3092821 -0.592194E-05  0.517E-03    0.00       1.4  T
  55   -374.3092852 -0.312747E-05  0.374E-03    0.00       1.9  T
  56   -374.3092882 -0.297105E-05  0.202E-03    0.00       3.5  T
  57   -374.3092882  0.191683E-07  0.188E-03    0.00       3.7  T
  58   -374.3092883 -0.848240E-07  0.176E-03    0.00       4.0  T
  59   -374.3092885 -0.214766E-06  0.152E-03    0.00       4.6  T
  60   -374.3092884  0.321518E-07  0.151E-03    0.00       4.7  T
  61   -374.3092886 -0.162454E-06  0.131E-03    0.00       5.4  T
  62   -374.3092887 -0.127061E-06  0.113E-03    0.00       6.3  T
  63   -374.3092891 -0.344471E-06  0.408E-04    0.00      17.3  T
  64   -374.3092891 -0.422887E-07  0.169E-04    0.00      41.6  T
     SCC iter.                  ...        0 min,  7.789 sec
     gradient                   ...        0 min,  0.316 sec
 * total energy  :  -367.2377219 Eh     change       -0.6840252E+00 Eh
   gradient norm :     0.7217732 Eh/α   predicted    -0.6933128E+00 (   1.36%)
   displ. norm   :     0.6332935 α      lambda       -0.3826616E+00
   maximum displ.:     0.1951933 α      in ANC's #209, #206, #475, ...

........................................................................
.............................. CYCLE    3 ..............................
........................................................................
   1   -374.3254720 -0.374325E+03  0.403E-01    0.00       0.0  T
   2   -371.6504809  0.267499E+01  0.233E+00    0.03       1.0  T
   3   -373.4053925 -0.175491E+01  0.169E+00    0.02       1.0  T
   4   -373.2057097  0.199683E+00  0.187E+00    0.03       1.0  T
   5   -370.3233390  0.288237E+01  0.334E+00    0.03       1.0  T
   6   -370.9709361 -0.647597E+00  0.317E+00    0.03       1.0  T
   7   -372.5413435 -0.157041E+01  0.223E+00    0.03       1.0  T
   8   -373.8617661 -0.132042E+01  0.122E+00    0.01       1.0  T
   9   -371.3197161  0.254205E+01  0.294E+00    0.03       1.0  T
  10   -373.2912403 -0.197152E+01  0.177E+00    0.01       1.0  T
  11   -373.9379288 -0.646689E+00  0.104E+00    0.02       1.0  T
  12   -373.2093148  0.728614E+00  0.180E+00    0.03       1.0  T
  13   -373.6089146 -0.399600E+00  0.144E+00    0.01       1.0  T
  14   -373.9112984 -0.302384E+00  0.112E+00    0.02       1.0  T
  15   -374.0892567 -0.177958E+00  0.852E-01    0.01       1.0  T
  16   -373.9693720  0.119885E+00  0.926E-01    0.01       1.0  T
  17   -374.3191225 -0.349750E+00  0.309E-01    0.01       1.0  T
  18   -374.2384559  0.806666E-01  0.571E-01    0.00       1.0  T
  19   -374.2409504 -0.249449E-02  0.566E-01    0.00       1.0  T
  20   -373.8216865  0.419264E+00  0.118E+00    0.01       1.0  T
  21   -374.1687588 -0.347072E+00  0.676E-01    0.00       1.0  T
  22   -374.2921952 -0.123436E+00  0.415E-01    0.01       1.0  T
  23   -374.3199788 -0.277836E-01  0.310E-01    0.01       1.0  T
  24   -374.3280116 -0.803277E-02  0.254E-01    0.00       1.0  T
  25   -374.3125431  0.154685E-01  0.338E-01    0.00       1.0  T
  26   -374.3257456 -0.132025E-01  0.271E-01    0.00       1.0  T
  27   -374.2913520  0.343936E-01  0.416E-01    0.00       1.0  T
  28   -374.3233440 -0.319920E-01  0.279E-01    0.01       1.0  T
  29   -374.3278988 -0.455488E-02  0.252E-01    0.01       1.0  T
  30   -374.3363525 -0.845364E-02  0.195E-01    0.00       1.0  T
  31   -374.3382799 -0.192746E-02  0.178E-01    0.00       1.0  T
  32   -374.3409789 -0.269894E-02  0.151E-01    0.00       1.0  T
  33   -374.3426981 -0.171920E-02  0.132E-01    0.00       1.0  T
  34   -374.3432804 -0.582313E-03  0.124E-01    0.00       1.0  T
  35   -374.3438602 -0.579762E-03  0.114E-01    0.00       1.0  T
  36   -374.3453841 -0.152392E-02  0.894E-02    0.00       1.0  T
  37   -374.3475698 -0.218571E-02  0.345E-02    0.00       1.0  T
  38   -374.3476014 -0.316183E-04  0.319E-02    0.00       1.0  T
  39   -374.3478147 -0.213329E-03  0.183E-02    0.00       1.0  T
  40   -374.3478659 -0.511135E-04  0.130E-02    0.00       1.0  T
  41   -374.3479088 -0.429503E-04  0.542E-03    0.00       1.3  T
  42   -374.3479017  0.714308E-05  0.711E-03    0.00       1.0  T
  43   -374.3479053 -0.361257E-05  0.620E-03    0.00       1.1  T
  44   -374.3479026  0.271550E-05  0.669E-03    0.00       1.1  T
  45   -374.3479137 -0.111369E-04  0.324E-03    0.00       2.2  T
  46   -374.3479144 -0.720217E-06  0.274E-03    0.00       2.6  T
  47   -374.3479165 -0.208564E-05  0.112E-03    0.00       6.3  T
  48   -374.3479167 -0.240454E-06  0.748E-04    0.00       9.4  T
  49   -374.3479165  0.229895E-06  0.113E-03    0.00       6.3  T
  50   -374.3479167 -0.193880E-06  0.792E-04    0.00       8.9  T
     SCC iter.                  ...        0 min,  6.087 sec
     gradient                   ...        0 min,  0.315 sec
 * total energy  :  -367.5341334 Eh     change       -0.2964115E+00 Eh
   gradient norm :     0.3655658 Eh/α   predicted    -0.2680662E+00 (  -9.56%)
   displ. norm   :     0.7218184 α      lambda       -0.2161594E+00
   maximum displ.:     0.2729562 α      in ANC's #209, #206, #229, ...

........................................................................
.............................. CYCLE    4 ..............................
........................................................................
   1   -374.4186899 -0.374419E+03  0.452E-01    0.00       0.0  T
   2   -369.2958051  0.512288E+01  0.299E+00    0.02       1.0  T
   3   -371.3545584 -0.205875E+01  0.309E+00    0.03       1.0  T
   4   -373.6860172 -0.233146E+01  0.153E+00    0.01       1.0  T
   5   -371.7180253  0.196799E+01  0.273E+00    0.00       1.0  T
   6   -371.9539371 -0.235912E+00  0.265E+00    0.01       1.0  T
   7   -370.9555599  0.998377E+00  0.321E+00    0.02       1.0  T
   8   -373.6709689 -0.271541E+01  0.152E+00    0.02       1.0  T
   9   -373.9519538 -0.280985E+00  0.120E+00    0.02       1.0  T
  10   -373.1188540  0.833100E+00  0.191E+00    0.02       1.0  T
  11   -374.0820866 -0.963233E+00  0.106E+00    0.02       1.0  T
  12   -374.3047076 -0.222621E+00  0.705E-01    0.01       1.0  T
  13   -373.5336256  0.771082E+00  0.150E+00    0.02       1.0  T
  14   -374.2589220 -0.725296E+00  0.731E-01    0.01       1.0  T
  15   -374.2218953  0.370267E-01  0.820E-01    0.01       1.0  T
  16   -374.3666191 -0.144724E+00  0.446E-01    0.01       1.0  T
  17   -374.3885812 -0.219621E-01  0.393E-01    0.00       1.0  T
  18   -374.4053272 -0.167461E-01  0.343E-01    0.00       1.0  T
  19   -374.3547153  0.506119E-01  0.538E-01    0.00       1.0  T
  20   -374.4311869 -0.764716E-01  0.272E-01    0.00       1.0  T
  21   -374.1578872  0.273300E+00  0.873E-01    0.01       1.0  T
  22   -374.4047562 -0.246869E+00  0.382E-01    0.01       1.0  T
  23   -374.3982856  0.647057E-02  0.386E-01    0.01       1.0  T
  24   -374.4427857 -0.445001E-01  0.186E-01    0.00       1.0  T
  25   -374.4280938  0.146919E-01  0.282E-01    0.00       1.0  T
  26   -374.4361640 -0.807015E-02  0.241E-01    0.00       1.0  T
  27   -374.4318612  0.430280E-02  0.267E-01    0.00       1.0  T
  28   -374.4354035 -0.354233E-02  0.243E-01    0.00       1.0  T
  29   -374.4491920 -0.137885E-01  0.124E-01    0.00       1.0  T
  30   -374.4520489 -0.285683E-02  0.769E-02    0.00       1.0  T
  31   -374.4514222  0.626629E-03  0.879E-02    0.00       1.0  T
  32   -374.4520432 -0.620962E-03  0.733E-02    0.00       1.0  T
  33   -374.4533656 -0.132237E-02  0.357E-02    0.00       1.0  T
  34   -374.4531605  0.205023E-03  0.393E-02    0.00       1.0  T
  35   -374.4532949 -0.134318E-03  0.342E-02    0.00       1.0  T
  36   -374.4534460 -0.151172E-03  0.266E-02    0.00       1.0  T
  37   -374.4535828 -0.136729E-03  0.174E-02    0.00       1.0  T
  38   -374.4536779 -0.951742E-04  0.567E-03    0.00       1.2  T
  39   -374.4536812 -0.327467E-05  0.473E-03    0.00       1.5  T
  40   -374.4536843 -0.311177E-05  0.363E-03    0.00       1.9  T
  41   -374.4536851 -0.809316E-06  0.318E-03    0.00       2.2  T
  42   -374.4536871 -0.193234E-05  0.184E-03    0.00       3.8  T
  43   -374.4536877 -0.652096E-06  0.980E-04    0.00       7.2  T
  44   -374.4536876  0.843816E-07  0.106E-03    0.00       6.7  T
  45   -374.4536878 -0.187056E-06  0.751E-04    0.00       9.4  T
     SCC iter.                  ...        0 min,  5.479 sec
     gradient                   ...        0 min,  0.315 sec
 * total energy  :  -367.7052938 Eh     change       -0.1711604E+00 Eh
   gradient norm :     0.1834561 Eh/α   predicted    -0.1643920E+00 (  -3.95%)
   displ. norm   :     0.7974256 α      lambda       -0.1351524E+00
   maximum displ.:     0.3127234 α      in ANC's #209, #206, #159, ...

........................................................................
.............................. CYCLE    5 ..............................
........................................................................
   1   -374.5137612 -0.374514E+03  0.496E-01    0.00       0.0  T
   2   -368.5416684  0.597209E+01  0.316E+00    0.04       1.0  T
   3   -371.9682487 -0.342658E+01  0.281E+00    0.03       1.0  T
   4   -373.9374630 -0.196921E+01  0.137E+00    0.01       1.0  T
   5   -372.8860189  0.105144E+01  0.214E+00    0.01       1.0  T
   6   -371.8227714  0.106325E+01  0.290E+00    0.03       1.0  T
   7   -373.2005256 -0.137775E+01  0.197E+00    0.01       1.0  T
   8   -371.7794429  0.142108E+01  0.284E+00    0.02       1.0  T
   9   -373.5475319 -0.176809E+01  0.163E+00    0.02       1.0  T
  10   -373.4620507  0.854812E-01  0.152E+00    0.02       1.0  T
  11   -372.8448069  0.617244E+00  0.215E+00    0.02       1.0  T
  12   -373.8575988 -0.101279E+01  0.139E+00    0.01       1.0  T
  13   -374.0286708 -0.171072E+00  0.116E+00    0.02       1.0  T
  14   -374.2405730 -0.211902E+00  0.102E+00    0.00       1.0  T
  15   -374.0359029  0.204670E+00  0.121E+00    0.01       1.0  T
  16   -374.3248728 -0.288970E+00  0.817E-01    0.02       1.0  T
  17   -374.2522577  0.726150E-01  0.927E-01    0.02       1.0  T
  18   -374.4826786 -0.230421E+00  0.492E-01    0.01       1.0  T
  19   -373.8098694  0.672809E+00  0.137E+00    0.01       1.0  T
  20   -374.4740232 -0.664154E+00  0.490E-01    0.02       1.0  T
  21   -374.3989296  0.750936E-01  0.667E-01    0.02       1.0  T
  22   -374.5017500 -0.102820E+00  0.426E-01    0.01       1.0  T
  23   -374.5082195 -0.646951E-02  0.409E-01    0.00       1.0  T
  24   -374.5254059 -0.171864E-01  0.366E-01    0.01       1.0  T
  25   -374.5219702  0.343570E-02  0.373E-01    0.01       1.0  T
  26   -374.5012708  0.206994E-01  0.436E-01    0.00       1.0  T
  27   -374.3548026  0.146468E+00  0.733E-01    0.01       1.0  T
  28   -374.4849956 -0.130193E+00  0.465E-01    0.01       1.0  T
  29   -374.4274678  0.575278E-01  0.605E-01    0.01       1.0  T
  30   -374.4951970 -0.677292E-01  0.437E-01    0.01       1.0  T
  31   -374.5337090 -0.385120E-01  0.293E-01    0.00       1.0  T
  32   -374.5432552 -0.954614E-02  0.242E-01    0.00       1.0  T
  33   -374.5585221 -0.152669E-01  0.109E-01    0.00       1.0  T
  34   -374.5579099  0.612263E-03  0.115E-01    0.00       1.0  T
  35   -374.5589917 -0.108188E-02  0.998E-02    0.00       1.0  T
  36   -374.5557310  0.326072E-02  0.137E-01    0.01       1.0  T
  37   -374.5570021 -0.127107E-02  0.122E-01    0.01       1.0  T
  38   -374.5558766  0.112554E-02  0.133E-01    0.01       1.0  T
  39   -374.5567569 -0.880323E-03  0.122E-01    0.01       1.0  T
  40   -374.5582067 -0.144978E-02  0.102E-01    0.01       1.0  T
  41   -374.5593464 -0.113977E-02  0.847E-02    0.00       1.0  T
  42   -374.5607497 -0.140325E-02  0.565E-02    0.00       1.0  T
  43   -374.5611062 -0.356553E-03  0.464E-02    0.00       1.0  T
  44   -374.5613486 -0.242369E-03  0.371E-02    0.00       1.0  T
  45   -374.5614841 -0.135504E-03  0.310E-02    0.00       1.0  T
  46   -374.5615040 -0.199275E-04  0.310E-02    0.00       1.0  T
  47   -374.5615718 -0.677921E-04  0.275E-02    0.00       1.0  T
  48   -374.5615886 -0.168165E-04  0.263E-02    0.00       1.0  T
  49   -374.5616895 -0.100864E-03  0.187E-02    0.00       1.0  T
  50   -374.5617347 -0.452309E-04  0.134E-02    0.00       1.0  T
  51   -374.5617569 -0.221811E-04  0.930E-03    0.00       1.0  T
  52   -374.5617558  0.107761E-05  0.886E-03    0.00       1.0  T
  53   -374.5617673 -0.114365E-04  0.635E-03    0.00       1.1  T
  54   -374.5617699 -0.261493E-05  0.534E-03    0.00       1.3  T
  55   -374.5617760 -0.606809E-05  0.286E-03    0.00       2.5  T
  56   -374.5617783 -0.232498E-05  0.109E-03    0.00       6.5  T
  57   -374.5617784 -0.145537E-06  0.710E-04    0.00       9.9  T
  58   -374.5617783  0.137567E-06  0.954E-04    0.00       7.4  T
     SCC iter.                  ...        0 min,  7.061 sec
     gradient                   ...        0 min,  0.317 sec
 * total energy  :  -367.8204430 Eh     change       -0.1151492E+00 Eh
   gradient norm :     0.1294392 Eh/α   predicted    -0.1105481E+00 (  -4.00%)
   displ. norm   :     0.8352207 α      lambda       -0.1017169E+00
   maximum displ.:     0.3113911 α      in ANC's #209, #159, #206, ...

........................................................................
.............................. CYCLE    6 ..............................
........................................................................
   1   -374.6000854 -0.374600E+03  0.526E-01    0.00       0.0  T
   2   -368.4842142  0.611587E+01  0.317E+00    0.01       1.0  T
   3   -372.1625664 -0.367835E+01  0.275E+00    0.03       1.0  T
   4   -373.6656874 -0.150312E+01  0.176E+00    0.01       1.0  T
   5   -368.2991144  0.536657E+01  0.427E+00    0.02       1.0  T
   6   -372.9873287 -0.468821E+01  0.225E+00    0.01       1.0  T
   7   -374.1063643 -0.111904E+01  0.129E+00    0.02       1.0  T
   8   -372.4067607  0.169960E+01  0.248E+00    0.02       1.0  T
   9   -372.7685640 -0.361803E+00  0.232E+00    0.02       1.0  T
  10   -373.8202776 -0.105171E+01  0.149E+00    0.00       1.0  T
  11   -373.9135215 -0.932439E-01  0.121E+00    0.01       1.0  T
  12   -374.0425580 -0.129036E+00  0.118E+00    0.01       1.0  T
  13   -374.1856963 -0.143138E+00  0.115E+00    0.00       1.0  T
  14   -373.9481597  0.237537E+00  0.138E+00    0.00       1.0  T
  15   -373.6455198  0.302640E+00  0.161E+00    0.00       1.0  T
  16   -374.3702502 -0.724730E+00  0.945E-01    0.01       1.0  T
  17   -374.4401115 -0.698612E-01  0.820E-01    0.00       1.0  T
  18   -374.5219328 -0.818214E-01  0.568E-01    0.01       1.0  T
  19   -374.4204711  0.101462E+00  0.798E-01    0.02       1.0  T
  20   -374.4805593 -0.600882E-01  0.694E-01    0.02       1.0  T
  21   -374.5169679 -0.364087E-01  0.621E-01    0.01       1.0  T
  22   -374.5613049 -0.443369E-01  0.514E-01    0.01       1.0  T
  23   -374.5678127 -0.650784E-02  0.520E-01    0.00       1.0  T
  24   -374.5826805 -0.148678E-01  0.446E-01    0.01       1.0  T
  25   -374.5872085 -0.452803E-02  0.435E-01    0.01       1.0  T
  26   -374.5919565 -0.474794E-02  0.441E-01    0.00       1.0  T
  27   -374.5977293 -0.577285E-02  0.413E-01    0.00       1.0  T
  28   -374.6224416 -0.247122E-01  0.315E-01    0.01       1.0  T
  29   -374.6290255 -0.658396E-02  0.271E-01    0.01       1.0  T
  30   -374.6372684 -0.824292E-02  0.226E-01    0.01       1.0  T
  31   -374.6423867 -0.511829E-02  0.191E-01    0.00       1.0  T
  32   -374.6491387 -0.675200E-02  0.127E-01    0.00       1.0  T
  33   -374.6502269 -0.108814E-02  0.111E-01    0.00       1.0  T
  34   -374.6522807 -0.205385E-02  0.811E-02    0.00       1.0  T
  35   -374.6530373 -0.756613E-03  0.653E-02    0.00       1.0  T
  36   -374.6536420 -0.604626E-03  0.485E-02    0.00       1.0  T
  37   -374.6540776 -0.435671E-03  0.351E-02    0.00       1.0  T
  38   -374.6542477 -0.170094E-03  0.249E-02    0.00       1.0  T
  39   -374.6542715 -0.237969E-04  0.220E-02    0.00       1.0  T
  40   -374.6543016 -0.300980E-04  0.176E-02    0.00       1.0  T
  41   -374.6542934  0.826081E-05  0.151E-02    0.00       1.0  T
  42   -374.6542838  0.954195E-05  0.139E-02    0.00       1.0  T
  43   -374.6543181 -0.342883E-04  0.979E-03    0.00       1.0  T
  44   -374.6543442 -0.261317E-04  0.580E-03    0.00       1.2  T
  45   -374.6543467 -0.250397E-05  0.498E-03    0.00       1.4  T
  46   -374.6543457  0.102841E-05  0.508E-03    0.00       1.4  T
  47   -374.6543469 -0.117725E-05  0.455E-03    0.00       1.6  T
  48   -374.6543512 -0.430741E-05  0.221E-03    0.00       3.2  T
  49   -374.6543513 -0.144536E-06  0.167E-03    0.00       4.2  T
  50   -374.6543513  0.178489E-07  0.177E-03    0.00       4.0  T
  51   -374.6543509  0.448100E-06  0.207E-03    0.00       3.4  T
  52   -374.6543517 -0.874996E-06  0.129E-03    0.00       5.5  T
  53   -374.6543522 -0.426048E-06  0.598E-04    0.00      11.8  T
  54   -374.6543523 -0.788966E-07  0.335E-04    0.00      21.1  T
     SCC iter.                  ...        0 min,  6.569 sec
     gradient                   ...        0 min,  0.316 sec
 * total energy  :  -367.9089283 Eh     change       -0.8848534E-01 Eh
   gradient norm :     0.1038804 Eh/α   predicted    -0.8633702E-01 (  -2.43%)
   displ. norm   :     0.8421896 α      lambda       -0.7777564E-01
   maximum displ.:     0.2795952 α      in ANC's #209, #159, #113, ...

........................................................................
.............................. CYCLE    7 ..............................
........................................................................
   1   -374.6833915 -0.374683E+03  0.507E-01    0.00       0.0  T
   2   -369.0809958  0.560240E+01  0.305E+00    0.04       1.0  T
   3   -373.6328225 -0.455183E+01  0.174E+00    0.02       1.0  T
   4   -368.6350620  0.499776E+01  0.416E+00    0.02       1.0  T
   5   -371.7526296 -0.311757E+01  0.295E+00    0.01       1.0  T
   6   -372.0997349 -0.347105E+00  0.278E+00    0.01       1.0  T
   7   -372.0324251  0.673098E-01  0.290E+00    0.02       1.0  T
   8   -372.7125129 -0.680088E+00  0.240E+00    0.02       1.0  T
   9   -374.6351414 -0.192263E+01  0.567E-01    0.01       1.0  T
  10   -373.4955106  0.113963E+01  0.157E+00    0.01       1.0  T
  11   -374.4900184 -0.994508E+00  0.716E-01    0.00       1.0  T
  12   -374.0402183  0.449800E+00  0.132E+00    0.02       1.0  T
  13   -373.4893854  0.550833E+00  0.175E+00    0.01       1.0  T
  14   -373.3133598  0.176026E+00  0.201E+00    0.02       1.0  T
  15   -374.0223852 -0.709025E+00  0.133E+00    0.00       1.0  T
  16   -374.5740726 -0.551687E+00  0.595E-01    0.02       1.0  T
  17   -374.3969502  0.177122E+00  0.951E-01    0.02       1.0  T
  18   -374.6201465 -0.223196E+00  0.581E-01    0.01       1.0  T
  19   -374.5663171  0.538294E-01  0.654E-01    0.01       1.0  T
  20   -374.5464002  0.199169E-01  0.681E-01    0.01       1.0  T
  21   -374.5290257  0.173745E-01  0.664E-01    0.01       1.0  T
  22   -374.6825298 -0.153504E+00  0.319E-01    0.01       1.0  T
  23   -374.6713682  0.111616E-01  0.354E-01    0.01       1.0  T
  24   -374.6695122  0.185603E-02  0.360E-01    0.01       1.0  T
  25   -374.6801197 -0.106075E-01  0.346E-01    0.00       1.0  T
  26   -374.6525633  0.275564E-01  0.434E-01    0.00       1.0  T
  27   -374.6913487 -0.387854E-01  0.319E-01    0.00       1.0  T
  28   -374.6846117  0.673699E-02  0.347E-01    0.00       1.0  T
  29   -374.7087689 -0.241572E-01  0.256E-01    0.00       1.0  T
  30   -374.7089586 -0.189763E-03  0.263E-01    0.00       1.0  T
  31   -374.7133351 -0.437647E-02  0.243E-01    0.00       1.0  T
  32   -374.7194329 -0.609782E-02  0.205E-01    0.00       1.0  T
  33   -374.7215289 -0.209601E-02  0.186E-01    0.00       1.0  T
  34   -374.7225553 -0.102636E-02  0.177E-01    0.00       1.0  T
  35   -374.7254090 -0.285370E-02  0.149E-01    0.00       1.0  T
  36   -374.7277775 -0.236845E-02  0.120E-01    0.00       1.0  T
  37   -374.7303520 -0.257458E-02  0.816E-02    0.00       1.0  T
  38   -374.7320106 -0.165861E-02  0.364E-02    0.00       1.0  T
  39   -374.7321483 -0.137631E-03  0.280E-02    0.00       1.0  T
  40   -374.7320646  0.836906E-04  0.305E-02    0.00       1.0  T
  41   -374.7321322 -0.676673E-04  0.261E-02    0.00       1.0  T
  42   -374.7321747 -0.424699E-04  0.232E-02    0.00       1.0  T
  43   -374.7322917 -0.117031E-03  0.144E-02    0.00       1.0  T
  44   -374.7323355 -0.437257E-04  0.837E-03    0.00       1.0  T
  45   -374.7323386 -0.309806E-05  0.716E-03    0.00       1.0  T
  46   -374.7323459 -0.731177E-05  0.544E-03    0.00       1.3  T
  47   -374.7323506 -0.467147E-05  0.383E-03    0.00       1.8  T
  48   -374.7323538 -0.329170E-05  0.219E-03    0.00       3.2  T
  49   -374.7323550 -0.113338E-05  0.118E-03    0.00       6.0  T
  50   -374.7323553 -0.293147E-06  0.653E-04    0.00      10.8  T
  51   -374.7323552  0.418330E-07  0.642E-04    0.00      11.0  T
     SCC iter.                  ...        0 min,  6.200 sec
     gradient                   ...        0 min,  0.317 sec
 * total energy  :  -367.9765067 Eh     change       -0.6757833E-01 Eh
   gradient norm :     0.0797867 Eh/α   predicted    -0.6647034E-01 (  -1.64%)
   displ. norm   :     0.8358625 α      lambda       -0.5797141E-01
   maximum displ.:     0.2501198 α      in ANC's #113, #111, #209, ...

........................................................................
.............................. CYCLE    8 ..............................
........................................................................
   1   -374.7565313 -0.374757E+03  0.451E-01    0.00       0.0  T
   2   -370.0563583  0.470017E+01  0.281E+00    0.05       1.0  T
   3   -372.8075469 -0.275119E+01  0.226E+00    0.02       1.0  T
   4   -373.4537588 -0.646212E+00  0.196E+00    0.01       1.0  T
   5   -371.7324071  0.172135E+01  0.302E+00    0.01       1.0  T
   6   -371.9604322 -0.228025E+00  0.308E+00    0.01       1.0  T
   7   -370.8280163  0.113242E+01  0.365E+00    0.01       1.0  T
   8   -374.4387762 -0.361076E+01  0.106E+00    0.02       1.0  T
   9   -373.1561713  0.128260E+01  0.150E+00    0.04       1.0  T
  10   -373.9654658 -0.809295E+00  0.145E+00    0.02       1.0  T
  11   -373.9853622 -0.198963E-01  0.139E+00    0.00       1.0  T
  12   -373.0705174  0.914845E+00  0.220E+00    0.02       1.0  T
  13   -373.5521844 -0.481667E+00  0.181E+00    0.03       1.0  T
  14   -374.3862566 -0.834072E+00  0.109E+00    0.03       1.0  T
  15   -374.6039064 -0.217650E+00  0.685E-01    0.00       1.0  T
  16   -374.4487021  0.155204E+00  0.861E-01    0.00       1.0  T
  17   -374.6100549 -0.161353E+00  0.647E-01    0.00       1.0  T
  18   -374.5161450  0.939098E-01  0.756E-01    0.01       1.0  T
  19   -374.4056924  0.110453E+00  0.105E+00    0.01       1.0  T
  20   -374.4852476 -0.795552E-01  0.912E-01    0.01       1.0  T
  21   -374.4101056  0.751420E-01  0.104E+00    0.00       1.0  T
  22   -374.6640967 -0.253991E+00  0.631E-01    0.01       1.0  T
  23   -374.6996801 -0.355834E-01  0.556E-01    0.00       1.0  T
  24   -374.7602745 -0.605945E-01  0.328E-01    0.00       1.0  T
  25   -374.7599896  0.284930E-03  0.325E-01    0.00       1.0  T
  26   -374.7846076 -0.246180E-01  0.184E-01    0.00       1.0  T
  27   -374.7904060 -0.579835E-02  0.130E-01    0.00       1.0  T
  28   -374.7892606  0.114540E-02  0.142E-01    0.00       1.0  T
  29   -374.7932624 -0.400187E-02  0.715E-02    0.00       1.0  T
  30   -374.7887934  0.446903E-02  0.120E-01    0.00       1.0  T
  31   -374.7894475 -0.654141E-03  0.111E-01    0.00       1.0  T
  32   -374.7930928 -0.364526E-02  0.610E-02    0.00       1.0  T
  33   -374.7939213 -0.828501E-03  0.418E-02    0.00       1.0  T
  34   -374.7934378  0.483511E-03  0.546E-02    0.00       1.0  T
  35   -374.7939649 -0.527139E-03  0.360E-02    0.00       1.0  T
  36   -374.7942033 -0.238364E-03  0.216E-02    0.00       1.0  T
  37   -374.7942370 -0.336957E-04  0.162E-02    0.00       1.0  T
  38   -374.7942088  0.281570E-04  0.170E-02    0.00       1.0  T
  39   -374.7942654 -0.565282E-04  0.101E-02    0.00       1.0  T
  40   -374.7942642  0.117885E-05  0.980E-03    0.00       1.0  T
  41   -374.7942584  0.574726E-05  0.105E-02    0.00       1.0  T
  42   -374.7942567  0.173785E-05  0.105E-02    0.00       1.0  T
  43   -374.7942659 -0.920244E-05  0.927E-03    0.00       1.0  T
  44   -374.7942715 -0.556221E-05  0.828E-03    0.00       1.0  T
  45   -374.7942755 -0.400413E-05  0.742E-03    0.00       1.0  T
  46   -374.7942818 -0.631577E-05  0.587E-03    0.00       1.2  T
  47   -374.7942856 -0.386026E-05  0.460E-03    0.00       1.5  T
  48   -374.7942882 -0.255431E-05  0.361E-03    0.00       2.0  T
  49   -374.7942889 -0.702761E-06  0.321E-03    0.00       2.2  T
  50   -374.7942891 -0.178241E-06  0.304E-03    0.00       2.3  T
  51   -374.7942906 -0.149321E-05  0.216E-03    0.00       3.3  T
  52   -374.7942910 -0.439793E-06  0.179E-03    0.00       3.9  T
  53   -374.7942913 -0.287679E-06  0.144E-03    0.00       4.9  T
  54   -374.7942915 -0.196664E-06  0.115E-03    0.00       6.1  T
  55   -374.7942917 -0.204003E-06  0.748E-04    0.00       9.4  T
  56   -374.7942918 -0.820695E-07  0.522E-04    0.00      13.5  T
     SCC iter.                  ...        0 min,  6.808 sec
     gradient                   ...        0 min,  0.315 sec
 * total energy  :  -368.0263443 Eh     change       -0.4983759E-01 Eh
   gradient norm :     0.0575403 Eh/α   predicted    -0.4923706E-01 (  -1.20%)
   displ. norm   :     0.8193590 α      lambda       -0.4128717E-01
   maximum displ.:     0.2539701 α      in ANC's #113, #111, #110, ...

........................................................................
.............................. CYCLE    9 ..............................
........................................................................
   1   -374.8112513 -0.374811E+03  0.390E-01    0.00       0.0  T
   2   -371.4425782  0.336867E+01  0.245E+00    0.04       1.0  T
   3   -371.9762950 -0.533717E+00  0.291E+00    0.01       1.0  T
   4   -373.1679359 -0.119164E+01  0.227E+00    0.01       1.0  T
   5   -374.0346839 -0.866748E+00  0.157E+00    0.00       1.0  T
   6   -371.5533744  0.248131E+01  0.339E+00    0.01       1.0  T
   7   -373.2724067 -0.171903E+01  0.216E+00    0.01       1.0  T
   8   -374.4316347 -0.115923E+01  0.110E+00    0.01       1.0  T
   9   -374.1756297  0.256005E+00  0.118E+00    0.02       1.0  T
  10   -373.2054663  0.970163E+00  0.149E+00    0.01       1.0  T
  11   -374.0855163 -0.880050E+00  0.140E+00    0.01       1.0  T
  12   -374.3866317 -0.301115E+00  0.102E+00    0.00       1.0  T
  13   -374.5694636 -0.182832E+00  0.811E-01    0.01       1.0  T
  14   -374.5746269 -0.516329E-02  0.863E-01    0.00       1.0  T
  15   -374.6499485 -0.753216E-01  0.705E-01    0.01       1.0  T
  16   -374.6256034  0.243450E-01  0.751E-01    0.01       1.0  T
  17   -374.5671584  0.584450E-01  0.842E-01    0.01       1.0  T
  18   -374.5289170  0.382414E-01  0.888E-01    0.01       1.0  T
  19   -374.7528017 -0.223885E+00  0.459E-01    0.00       1.0  T
  20   -374.7786674 -0.258657E-01  0.407E-01    0.01       1.0  T
  21   -374.7775894  0.107809E-02  0.395E-01    0.01       1.0  T
  22   -374.7718631  0.572624E-02  0.399E-01    0.00       1.0  T
  23   -374.7721899 -0.326744E-03  0.402E-01    0.00       1.0  T
  24   -374.7993214 -0.271315E-01  0.303E-01    0.00       1.0  T
  25   -374.7961949  0.312649E-02  0.315E-01    0.00       1.0  T
  26   -374.8181663 -0.219714E-01  0.218E-01    0.01       1.0  T
  27   -374.8147357  0.343059E-02  0.244E-01    0.00       1.0  T
  28   -374.8258240 -0.110883E-01  0.170E-01    0.00       1.0  T
  29   -374.8314238 -0.559981E-02  0.115E-01    0.00       1.0  T
  30   -374.8328984 -0.147459E-02  0.906E-02    0.00       1.0  T
  31   -374.8344294 -0.153101E-02  0.660E-02    0.00       1.0  T
  32   -374.8361383 -0.170894E-02  0.241E-02    0.00       1.0  T
  33   -374.8360772  0.610909E-04  0.264E-02    0.00       1.0  T
  34   -374.8355545  0.522769E-03  0.429E-02    0.00       1.0  T
  35   -374.8358989 -0.344402E-03  0.315E-02    0.00       1.0  T
  36   -374.8361536 -0.254683E-03  0.202E-02    0.00       1.0  T
  37   -374.8362058 -0.522111E-04  0.160E-02    0.00       1.0  T
  38   -374.8361994  0.635449E-05  0.161E-02    0.00       1.0  T
  39   -374.8362114 -0.119361E-04  0.154E-02    0.00       1.0  T
  40   -374.8362161 -0.477135E-05  0.146E-02    0.00       1.0  T
  41   -374.8362183 -0.221316E-05  0.141E-02    0.00       1.0  T
  42   -374.8362363 -0.179548E-04  0.117E-02    0.00       1.0  T
  43   -374.8362555 -0.191741E-04  0.883E-03    0.00       1.0  T
  44   -374.8362724 -0.169493E-04  0.493E-03    0.00       1.4  T
  45   -374.8362756 -0.316440E-05  0.372E-03    0.00       1.9  T
  46   -374.8362786 -0.300665E-05  0.218E-03    0.00       3.2  T
  47   -374.8362787 -0.119947E-06  0.209E-03    0.00       3.4  T
  48   -374.8362794 -0.658838E-06  0.155E-03    0.00       4.5  T
  49   -374.8362794 -0.621228E-07  0.146E-03    0.00       4.8  T
  50   -374.8362799 -0.426635E-06  0.876E-04    0.00       8.1  T
  51   -374.8362800 -0.119130E-06  0.623E-04    0.00      11.3  T
     SCC iter.                  ...        0 min,  6.191 sec
     gradient                   ...        0 min,  0.315 sec
 * total energy  :  -368.0612064 Eh     change       -0.3486217E-01 Eh
   gradient norm :     0.0411621 Eh/α   predicted    -0.3450268E-01 (  -1.03%)
   displ. norm   :     0.7978130 α      lambda       -0.2788023E-01
   maximum displ.:     0.2414527 α      in ANC's #32, #113, #39, ...

........................................................................
.............................. CYCLE   10 ..............................
........................................................................
   1   -374.8464194 -0.374846E+03  0.334E-01    0.00       0.0  T
   2   -372.9702416  0.187618E+01  0.199E+00    0.05       1.0  T
   3   -371.9062368  0.106400E+01  0.302E+00    0.01       1.0  T
   4   -372.1717183 -0.265482E+00  0.288E+00    0.00       1.0  T
   5   -372.1597294  0.119889E-01  0.286E+00    0.01       1.0  T
   6   -372.8468763 -0.687147E+00  0.269E+00    0.01       1.0  T
   7   -372.8913056 -0.444293E-01  0.270E+00    0.01       1.0  T
   8   -374.4510152 -0.155971E+01  0.110E+00    0.01       1.0  T
   9   -373.5718773  0.879138E+00  0.179E+00    0.03       1.0  T
  10   -373.9714540 -0.399577E+00  0.117E+00    0.04       1.0  T
  11   -374.3251272 -0.353673E+00  0.122E+00    0.02       1.0  T
  12   -374.5544649 -0.229338E+00  0.781E-01    0.01       1.0  T
  13   -374.5175816  0.368832E-01  0.930E-01    0.01       1.0  T
  14   -374.5067832  0.107984E-01  0.103E+00    0.00       1.0  T
  15   -374.7339099 -0.227127E+00  0.624E-01    0.01       1.0  T
  16   -374.7273316  0.657827E-02  0.635E-01    0.01       1.0  T
  17   -374.7400011 -0.126695E-01  0.587E-01    0.01       1.0  T
  18   -374.4674702  0.272531E+00  0.108E+00    0.02       1.0  T
  19   -374.7593192 -0.291849E+00  0.582E-01    0.01       1.0  T
  20   -374.7893206 -0.300014E-01  0.492E-01    0.00       1.0  T
  21   -374.7973696 -0.804897E-02  0.460E-01    0.00       1.0  T
  22   -374.8195208 -0.221512E-01  0.363E-01    0.00       1.0  T
  23   -374.8403391 -0.208183E-01  0.271E-01    0.00       1.0  T
  24   -374.8490501 -0.871097E-02  0.208E-01    0.00       1.0  T
  25   -374.8500480 -0.997972E-03  0.195E-01    0.00       1.0  T
  26   -374.8524886 -0.244057E-02  0.170E-01    0.01       1.0  T
  27   -374.8567921 -0.430345E-02  0.126E-01    0.01       1.0  T
  28   -374.8583586 -0.156653E-02  0.995E-02    0.01       1.0  T
  29   -374.8595958 -0.123726E-02  0.770E-02    0.00       1.0  T
  30   -374.8605780 -0.982161E-03  0.537E-02    0.00       1.0  T
  31   -374.8607436 -0.165583E-03  0.455E-02    0.00       1.0  T
  32   -374.8610821 -0.338467E-03  0.308E-02    0.00       1.0  T
  33   -374.8612015 -0.119465E-03  0.196E-02    0.00       1.0  T
  34   -374.8611577  0.438645E-04  0.215E-02    0.00       1.0  T
  35   -374.8611064  0.512268E-04  0.239E-02    0.00       1.0  T
  36   -374.8612530 -0.146534E-03  0.137E-02    0.00       1.0  T
  37   -374.8612736 -0.206339E-04  0.111E-02    0.00       1.0  T
  38   -374.8612795 -0.587190E-05  0.103E-02    0.00       1.0  T
  39   -374.8612985 -0.190325E-04  0.683E-03    0.00       1.0  T
  40   -374.8613050 -0.654279E-05  0.512E-03    0.00       1.4  T
  41   -374.8613068 -0.171166E-05  0.458E-03    0.00       1.5  T
  42   -374.8613097 -0.298808E-05  0.334E-03    0.00       2.1  T
  43   -374.8613115 -0.175763E-05  0.211E-03    0.00       3.3  T
  44   -374.8613121 -0.579727E-06  0.165E-03    0.00       4.3  T
  45   -374.8613129 -0.777447E-06  0.824E-04    0.00       8.6  T
  46   -374.8613130 -0.188842E-06  0.298E-04    0.00      23.7  T
     SCC iter.                  ...        0 min,  5.585 sec
     gradient                   ...        0 min,  0.316 sec
 * total energy  :  -368.0844360 Eh     change       -0.2322958E-01 Eh
   gradient norm :     0.0314022 Eh/α   predicted    -0.2281311E-01 (  -1.79%)
   displ. norm   :     0.7996717 α      lambda       -0.1891857E-01
   maximum displ.:     0.3429944 α      in ANC's #32, #39, #42, ...

........................................................................
.............................. CYCLE   11 ..............................
........................................................................
   1   -374.8682905 -0.374868E+03  0.292E-01    0.01       0.0  T
   2   -372.8675907  0.200070E+01  0.244E+00    0.01       1.0  T
   3   -372.8188955  0.486952E-01  0.237E+00    0.02       1.0  T
   4   -372.6384305  0.180465E+00  0.266E+00    0.00       1.0  T
   5   -373.8810280 -0.124260E+01  0.190E+00    0.01       1.0  T
   6   -372.6270443  0.125398E+01  0.290E+00    0.01       1.0  T
   7   -374.6143085 -0.198726E+01  0.890E-01    0.01       1.0  T
   8   -373.3724820  0.124183E+01  0.172E+00    0.01       1.0  T
   9   -374.3546364 -0.982154E+00  0.108E+00    0.01       1.0  T
  10   -374.2837256  0.709108E-01  0.115E+00    0.02       1.0  T
  11   -374.3757205 -0.919949E-01  0.975E-01    0.00       1.0  T
  12   -374.6748609 -0.299140E+00  0.697E-01    0.03       1.0  T
  13   -374.8103566 -0.135496E+00  0.401E-01    0.01       1.0  T
  14   -373.9768442  0.833512E+00  0.156E+00    0.02       1.0  T
  15   -374.6369176 -0.660073E+00  0.786E-01    0.01       1.0  T
  16   -374.5686624  0.682552E-01  0.951E-01    0.01       1.0  T
  17   -374.6822640 -0.113602E+00  0.739E-01    0.01       1.0  T
  18   -374.8215524 -0.139288E+00  0.422E-01    0.00       1.0  T
  19   -374.8283959 -0.684350E-02  0.371E-01    0.00       1.0  T
  20   -374.8244081  0.398775E-02  0.390E-01    0.00       1.0  T
  21   -374.8324940 -0.808587E-02  0.360E-01    0.00       1.0  T
  22   -374.8720682 -0.395742E-01  0.143E-01    0.00       1.0  T
  23   -374.8667503  0.531791E-02  0.200E-01    0.00       1.0  T
  24   -374.8743742 -0.762391E-02  0.973E-02    0.00       1.0  T
  25   -374.8741426  0.231648E-03  0.111E-01    0.00       1.0  T
  26   -374.8723665  0.177609E-02  0.137E-01    0.00       1.0  T
  27   -374.8720133  0.353177E-03  0.140E-01    0.00       1.0  T
  28   -374.8738143 -0.180100E-02  0.116E-01    0.00       1.0  T
  29   -374.8756830 -0.186869E-02  0.769E-02    0.00       1.0  T
  30   -374.8760283 -0.345316E-03  0.687E-02    0.00       1.0  T
  31   -374.8765444 -0.516053E-03  0.538E-02    0.00       1.0  T
  32   -374.8771456 -0.601240E-03  0.248E-02    0.00       1.0  T
  33   -374.8771236  0.220152E-04  0.256E-02    0.00       1.0  T
  34   -374.8771799 -0.562660E-04  0.212E-02    0.00       1.0  T
  35   -374.8771964 -0.164861E-04  0.199E-02    0.00       1.0  T
  36   -374.8772600 -0.636347E-04  0.129E-02    0.00       1.0  T
  37   -374.8772583  0.170898E-05  0.125E-02    0.00       1.0  T
  38   -374.8772585 -0.264345E-06  0.118E-02    0.00       1.0  T
  39   -374.8772736 -0.150345E-04  0.936E-03    0.00       1.0  T
  40   -374.8772683  0.525708E-05  0.103E-02    0.00       1.0  T
  41   -374.8772784 -0.100897E-04  0.855E-03    0.00       1.0  T
  42   -374.8772855 -0.706945E-05  0.681E-03    0.00       1.0  T
  43   -374.8772906 -0.511778E-05  0.524E-03    0.00       1.3  T
  44   -374.8772939 -0.329438E-05  0.389E-03    0.00       1.8  T
  45   -374.8772957 -0.185045E-05  0.288E-03    0.00       2.5  T
  46   -374.8772966 -0.850435E-06  0.224E-03    0.00       3.2  T
  47   -374.8772966 -0.139729E-07  0.218E-03    0.00       3.2  T
  48   -374.8772971 -0.491958E-06  0.168E-03    0.00       4.2  T
  49   -374.8772975 -0.412982E-06  0.105E-03    0.00       6.7  T
  50   -374.8772977 -0.166434E-06  0.687E-04    0.00      10.3  T
  51   -374.8772977 -0.415965E-07  0.540E-04    0.00      13.1  T
     SCC iter.                  ...        0 min,  6.213 sec
     gradient                   ...        0 min,  0.317 sec
 * total energy  :  -368.1006779 Eh     change       -0.1624192E-01 Eh
   gradient norm :     0.0278239 Eh/α   predicted    -0.1550829E-01 (  -4.52%)
   displ. norm   :     0.8545972 α      lambda       -0.1539019E-01
   maximum displ.:     0.4509745 α      in ANC's #32, #39, #42, ...

........................................................................
.............................. CYCLE   12 ..............................
........................................................................
   1   -374.8805703 -0.374881E+03  0.287E-01    0.01       0.0  T
   2   -370.1670147  0.471356E+01  0.375E+00    0.01       1.0  T
   3   -372.1128470 -0.194583E+01  0.292E+00    0.00       1.0  T
   4   -372.1544556 -0.416086E-01  0.295E+00    0.00       1.0  T
   5   -374.4426827 -0.228823E+01  0.122E+00    0.05       1.0  T
   6   -370.7028038  0.373988E+01  0.390E+00    0.01       1.0  T
   7   -373.9127360 -0.320993E+01  0.195E+00    0.02       1.0  T
   8   -372.6704224  0.124231E+01  0.267E+00    0.00       1.0  T
   9   -373.9456467 -0.127522E+01  0.142E+00    0.02       1.0  T
  10   -374.2791190 -0.333472E+00  0.142E+00    0.00       1.0  T
  11   -374.2385879  0.405311E-01  0.137E+00    0.00       1.0  T
  12   -374.5259968 -0.287409E+00  0.109E+00    0.00       1.0  T
  13   -373.9055113  0.620485E+00  0.165E+00    0.01       1.0  T
  14   -374.7166349 -0.811124E+00  0.767E-01    0.01       1.0  T
  15   -374.7490380 -0.324031E-01  0.613E-01    0.01       1.0  T
  16   -374.7530591 -0.402118E-02  0.688E-01    0.00       1.0  T
  17   -374.8376487 -0.845896E-01  0.435E-01    0.01       1.0  T
  18   -374.8442588 -0.661003E-02  0.374E-01    0.00       1.0  T
  19   -374.8744453 -0.301865E-01  0.246E-01    0.01       1.0  T
  20   -374.8727841  0.166125E-02  0.258E-01    0.01       1.0  T
  21   -374.8788247 -0.604065E-02  0.177E-01    0.00       1.0  T
  22   -374.8857118 -0.688710E-02  0.115E-01    0.01       1.0  T
  23   -374.8872759 -0.156412E-02  0.988E-02    0.00       1.0  T
  24   -374.8861172  0.115876E-02  0.999E-02    0.01       1.0  T
  25   -374.8858829  0.234282E-03  0.106E-01    0.00       1.0  T
  26   -374.8833420  0.254083E-02  0.142E-01    0.00       1.0  T
  27   -374.8858831 -0.254102E-02  0.109E-01    0.00       1.0  T
  28   -374.8885431 -0.265999E-02  0.561E-02    0.00       1.0  T
  29   -374.8887993 -0.256234E-03  0.486E-02    0.00       1.0  T
  30   -374.8890580 -0.258666E-03  0.389E-02    0.00       1.0  T
  31   -374.8894025 -0.344500E-03  0.202E-02    0.00       1.0  T
  32   -374.8893440  0.584304E-04  0.243E-02    0.00       1.0  T
  33   -374.8893797 -0.356970E-04  0.216E-02    0.00       1.0  T
  34   -374.8894749 -0.952063E-04  0.130E-02    0.00       1.0  T
  35   -374.8895031 -0.281945E-04  0.945E-03    0.00       1.0  T
  36   -374.8895057 -0.254652E-05  0.891E-03    0.00       1.0  T
  37   -374.8895252 -0.195685E-04  0.401E-03    0.00       1.8  T
  38   -374.8895278 -0.253995E-05  0.286E-03    0.00       2.5  T
  39   -374.8895271  0.640998E-06  0.322E-03    0.00       2.2  T
  40   -374.8895289 -0.174996E-05  0.230E-03    0.00       3.1  T
  41   -374.8895293 -0.456016E-06  0.194E-03    0.00       3.6  T
  42   -374.8895295 -0.137026E-06  0.172E-03    0.00       4.1  T
  43   -374.8895297 -0.210143E-06  0.138E-03    0.00       5.1  T
  44   -374.8895298 -0.145832E-06  0.120E-03    0.00       5.9  T
  45   -374.8895302 -0.318621E-06  0.755E-04    0.00       9.3  T
  46   -374.8895303 -0.149726E-06  0.421E-04    0.00      16.7  T
     SCC iter.                  ...        0 min,  5.605 sec
     gradient                   ...        0 min,  0.320 sec
 * total energy  :  -368.1151427 Eh     change       -0.1446477E-01 Eh
   gradient norm :     0.0301982 Eh/α   predicted    -0.1331513E-01 (  -7.95%)
   displ. norm   :     0.9409367 α      lambda       -0.1639668E-01
   maximum displ.:     0.5326927 α      in ANC's #32, #39, #19, ...

........................................................................
.............................. CYCLE   13 ..............................
........................................................................
   1   -374.8849858 -0.374885E+03  0.317E-01    0.00       0.0  T
   2   -369.6237367  0.526125E+01  0.379E+00    0.00       1.0  T
   3   -371.7938478 -0.217011E+01  0.315E+00    0.01       1.0  T
   4   -373.7989819 -0.200513E+01  0.180E+00    0.02       1.0  T
   5   -372.1571191  0.164186E+01  0.290E+00    0.00       1.0  T
   6   -373.5871541 -0.143003E+01  0.216E+00    0.01       1.0  T
   7   -374.3142944 -0.727140E+00  0.132E+00    0.01       1.0  T
   8   -374.6297860 -0.315492E+00  0.917E-01    0.00       1.0  T
   9   -374.5877519  0.420340E-01  0.991E-01    0.00       1.0  T
  10   -373.5857328  0.100202E+01  0.191E+00    0.00       1.0  T
  11   -374.1918212 -0.606088E+00  0.144E+00    0.01       1.0  T
  12   -374.4853740 -0.293553E+00  0.115E+00    0.01       1.0  T
  13   -373.8567879  0.628586E+00  0.174E+00    0.01       1.0  T
  14   -374.6332248 -0.776437E+00  0.871E-01    0.01       1.0  T
  15   -374.7243509 -0.911261E-01  0.815E-01    0.00       1.0  T
  16   -374.8197887 -0.954378E-01  0.533E-01    0.00       1.0  T
  17   -374.8447662 -0.249775E-01  0.466E-01    0.00       1.0  T
  18   -374.8192968  0.254694E-01  0.483E-01    0.01       1.0  T
  19   -374.8762578 -0.569609E-01  0.310E-01    0.00       1.0  T
  20   -374.8818910 -0.563321E-02  0.265E-01    0.01       1.0  T
  21   -374.8676139  0.142770E-01  0.351E-01    0.00       1.0  T
  22   -374.8683491 -0.735177E-03  0.345E-01    0.01       1.0  T
  23   -374.8696486 -0.129947E-02  0.341E-01    0.01       1.0  T
  24   -374.8689070  0.741603E-03  0.344E-01    0.01       1.0  T
  25   -374.8667512  0.215582E-02  0.350E-01    0.01       1.0  T
  26   -374.8761398 -0.938866E-02  0.297E-01    0.01       1.0  T
  27   -374.8895262 -0.133863E-01  0.199E-01    0.00       1.0  T
  28   -374.8944752 -0.494905E-02  0.145E-01    0.00       1.0  T
  29   -374.8992709 -0.479571E-02  0.694E-02    0.00       1.0  T
  30   -374.8994575 -0.186618E-03  0.647E-02    0.00       1.0  T
  31   -374.8994037  0.538750E-04  0.661E-02    0.00       1.0  T
  32   -374.9003168 -0.913130E-03  0.337E-02    0.00       1.0  T
  33   -374.9003472 -0.304031E-04  0.310E-02    0.00       1.0  T
  34   -374.9003976 -0.503515E-04  0.292E-02    0.00       1.0  T
  35   -374.9005224 -0.124864E-03  0.218E-02    0.00       1.0  T
  36   -374.9006067 -0.842546E-04  0.143E-02    0.00       1.0  T
  37   -374.9006222 -0.155703E-04  0.121E-02    0.00       1.0  T
  38   -374.9006324 -0.102020E-04  0.107E-02    0.00       1.0  T
  39   -374.9006479 -0.154178E-04  0.801E-03    0.00       1.0  T
  40   -374.9006586 -0.107398E-04  0.549E-03    0.00       1.3  T
  41   -374.9006598 -0.122152E-05  0.520E-03    0.00       1.4  T
  42   -374.9006651 -0.524690E-05  0.332E-03    0.00       2.1  T
  43   -374.9006674 -0.231402E-05  0.192E-03    0.00       3.7  T
  44   -374.9006681 -0.757939E-06  0.112E-03    0.00       6.3  T
  45   -374.9006685 -0.338629E-06  0.356E-04    0.00      19.8  T
  46   -374.9006685 -0.415433E-07  0.129E-04    0.00      54.5  T
     SCC iter.                  ...        0 min,  5.595 sec
     gradient                   ...        0 min,  0.320 sec
 * total energy  :  -368.1319709 Eh     change       -0.1682818E-01 Eh
   gradient norm :     0.0348965 Eh/α   predicted    -0.1545686E-01 (  -8.15%)
   displ. norm   :     0.9206034 α      lambda       -0.1787591E-01
   maximum displ.:     0.5366336 α      in ANC's #32, #19, #39, ...

........................................................................
.............................. CYCLE   14 ..............................
........................................................................
   1   -374.8737349 -0.374874E+03  0.307E-01    0.00       0.0  T
   2   -369.1416990  0.573204E+01  0.392E+00    0.02       1.0  T
   3   -371.6484952 -0.250680E+01  0.324E+00    0.02       1.0  T
   4   -371.6897598 -0.412646E-01  0.324E+00    0.01       1.0  T
   5   -374.3785673 -0.268881E+01  0.127E+00    0.00       1.0  T
   6   -373.2777681  0.110080E+01  0.222E+00    0.01       1.0  T
   7   -373.8880486 -0.610280E+00  0.197E+00    0.01       1.0  T
   8   -374.3861451 -0.498096E+00  0.126E+00    0.00       1.0  T
   9   -372.3876154  0.199853E+01  0.275E+00    0.01       1.0  T
  10   -374.3367988 -0.194918E+01  0.134E+00    0.00       1.0  T
  11   -373.8172749  0.519524E+00  0.189E+00    0.01       1.0  T
  12   -374.8456713 -0.102840E+01  0.394E-01    0.00       1.0  T
  13   -374.6095520  0.236119E+00  0.976E-01    0.02       1.0  T
  14   -374.5048970  0.104655E+00  0.113E+00    0.02       1.0  T
  15   -374.2615864  0.243311E+00  0.142E+00    0.02       1.0  T
  16   -374.1370932  0.124493E+00  0.156E+00    0.02       1.0  T
  17   -374.1676132 -0.305200E-01  0.153E+00    0.02       1.0  T
  18   -374.1775533 -0.994007E-02  0.150E+00    0.02       1.0  T
  19   -374.7648478 -0.587295E+00  0.671E-01    0.01       1.0  T
  20   -374.7832134 -0.183656E-01  0.624E-01    0.00       1.0  T
  21   -374.7747943  0.841910E-02  0.678E-01    0.01       1.0  T
  22   -374.7627881  0.120061E-01  0.710E-01    0.01       1.0  T
  23   -374.7570869  0.570120E-02  0.726E-01    0.01       1.0  T
  24   -374.8695103 -0.112423E+00  0.292E-01    0.00       1.0  T
  25   -374.8438334  0.256770E-01  0.419E-01    0.00       1.0  T
  26   -374.8874839 -0.436505E-01  0.158E-01    0.00       1.0  T
  27   -374.8756893  0.117946E-01  0.241E-01    0.00       1.0  T
  28   -374.8848530 -0.916370E-02  0.173E-01    0.00       1.0  T
  29   -374.8884091 -0.355605E-02  0.139E-01    0.00       1.0  T
  30   -374.8884538 -0.447563E-04  0.139E-01    0.00       1.0  T
  31   -374.8923939 -0.394007E-02  0.802E-02    0.00       1.0  T
  32   -374.8931202 -0.726269E-03  0.625E-02    0.00       1.0  T
  33   -374.8932360 -0.115854E-03  0.591E-02    0.00       1.0  T
  34   -374.8936848 -0.448726E-03  0.444E-02    0.00       1.0  T
  35   -374.8939153 -0.230536E-03  0.342E-02    0.00       1.0  T
  36   -374.8939711 -0.558130E-04  0.309E-02    0.00       1.0  T
  37   -374.8939340  0.371470E-04  0.326E-02    0.00       1.0  T
  38   -374.8941798 -0.245890E-03  0.159E-02    0.00       1.0  T
  39   -374.8942307 -0.508342E-04  0.921E-03    0.00       1.0  T
  40   -374.8942259  0.478929E-05  0.101E-02    0.00       1.0  T
  41   -374.8942561 -0.302444E-04  0.328E-03    0.00       2.2  T
  42   -374.8942594 -0.321906E-05  0.148E-03    0.00       4.8  T
  43   -374.8942596 -0.193691E-06  0.117E-03    0.00       6.0  T
  44   -374.8942598 -0.253331E-06  0.721E-04    0.00       9.8  T
  45   -374.8942599 -0.960088E-07  0.446E-04    0.00      15.8  T
     SCC iter.                  ...        0 min,  5.492 sec
     gradient                   ...        0 min,  0.317 sec
 * total energy  :  -368.1513285 Eh     change       -0.1935763E-01 Eh
   gradient norm :     0.0465115 Eh/α   predicted    -0.1651298E-01 ( -14.70%)
   displ. norm   :     0.8822015 α      lambda       -0.2171294E-01
   maximum displ.:     0.5253838 α      in ANC's #32, #19, #39, ...

........................................................................
.............................. CYCLE   15 ..............................
........................................................................
   1   -374.8621406 -0.374862E+03  0.320E-01    0.01       0.0  T
   2   -370.1838402  0.467830E+01  0.360E+00    0.01       1.0  T
   3   -371.9692819 -0.178544E+01  0.308E+00    0.03       1.0  T
   4   -371.7449434  0.224339E+00  0.316E+00    0.00       1.0  T
   5   -371.4107504  0.334193E+00  0.336E+00    0.01       1.0  T
   6   -373.9178251 -0.250707E+01  0.172E+00    0.01       1.0  T
   7   -374.8141951 -0.896370E+00  0.485E-01    0.01       1.0  T
   8   -374.3754506  0.438744E+00  0.128E+00    0.00       1.0  T
   9   -372.4527527  0.192270E+01  0.270E+00    0.01       1.0  T
  10   -373.8205365 -0.136778E+01  0.178E+00    0.00       1.0  T
  11   -374.5278404 -0.707304E+00  0.109E+00    0.00       1.0  T
  12   -374.6751751 -0.147335E+00  0.837E-01    0.00       1.0  T
  13   -374.6677435  0.743158E-02  0.853E-01    0.00       1.0  T
  14   -374.2354323  0.432311E+00  0.144E+00    0.00       1.0  T
  15   -374.3622701 -0.126838E+00  0.126E+00    0.00       1.0  T
  16   -374.4472907 -0.850206E-01  0.117E+00    0.01       1.0  T
  17   -374.6355320 -0.188241E+00  0.888E-01    0.01       1.0  T
  18   -374.8151693 -0.179637E+00  0.496E-01    0.00       1.0  T
  19   -374.8238184 -0.864902E-02  0.468E-01    0.00       1.0  T
  20   -374.8144217  0.939665E-02  0.502E-01    0.00       1.0  T
[...]
 577:****** 578: 10.23 579:508.98 580:599.95 581: 14.11 582:608.74 583:100.29 584:189.68
 585: 67.21 586:****** 587:****** 588:210.25 589:144.87 590: 26.60 591: 75.57 592:703.72
 593:****** 594:****** 595:****** 596:147.07 597:278.50 598: 76.73 599:  4.57 600: 70.64
 601:545.02 602:****** 603:287.97
 Raman intensities (amu)
   1:  0.00   2:  0.00   3:  0.00   4:  0.00   5:  0.00   6:  0.00   7:  0.00   8:  0.00
   9:  0.00  10:  0.00  11:  0.00  12:  0.00  13:  0.00  14:  0.00  15:  0.00  16:  0.00
  17:  0.00  18:  0.00  19:  0.00  20:  0.00  21:  0.00  22:  0.00  23:  0.00  24:  0.00
  25:  0.00  26:  0.00  27:  0.00  28:  0.00  29:  0.00  30:  0.00  31:  0.00  32:  0.00
  33:  0.00  34:  0.00  35:  0.00  36:  0.00  37:  0.00  38:  0.00  39:  0.00  40:  0.00
  41:  0.00  42:  0.00  43:  0.00  44:  0.00  45:  0.00  46:  0.00  47:  0.00  48:  0.00
  49:  0.00  50:  0.00  51:  0.00  52:  0.00  53:  0.00  54:  0.00  55:  0.00  56:  0.00
  57:  0.00  58:  0.00  59:  0.00  60:  0.00  61:  0.00  62:  0.00  63:  0.00  64:  0.00
  65:  0.00  66:  0.00  67:  0.00  68:  0.00  69:  0.00  70:  0.00  71:  0.00  72:  0.00
  73:  0.00  74:  0.00  75:  0.00  76:  0.00  77:  0.00  78:  0.00  79:  0.00  80:  0.00
  81:  0.00  82:  0.00  83:  0.00  84:  0.00  85:  0.00  86:  0.00  87:  0.00  88:  0.00
  89:  0.00  90:  0.00  91:  0.00  92:  0.00  93:  0.00  94:  0.00  95:  0.00  96:  0.00
  97:  0.00  98:  0.00  99:  0.00 100:  0.00 101:  0.00 102:  0.00 103:  0.00 104:  0.00
 105:  0.00 106:  0.00 107:  0.00 108:  0.00 109:  0.00 110:  0.00 111:  0.00 112:  0.00
 113:  0.00 114:  0.00 115:  0.00 116:  0.00 117:  0.00 118:  0.00 119:  0.00 120:  0.00
 121:  0.00 122:  0.00 123:  0.00 124:  0.00 125:  0.00 126:  0.00 127:  0.00 128:  0.00
 129:  0.00 130:  0.00 131:  0.00 132:  0.00 133:  0.00 134:  0.00 135:  0.00 136:  0.00
 137:  0.00 138:  0.00 139:  0.00 140:  0.00 141:  0.00 142:  0.00 143:  0.00 144:  0.00
 145:  0.00 146:  0.00 147:  0.00 148:  0.00 149:  0.00 150:  0.00 151:  0.00 152:  0.00
 153:  0.00 154:  0.00 155:  0.00 156:  0.00 157:  0.00 158:  0.00 159:  0.00 160:  0.00
 161:  0.00 162:  0.00 163:  0.00 164:  0.00 165:  0.00 166:  0.00 167:  0.00 168:  0.00
 169:  0.00 170:  0.00 171:  0.00 172:  0.00 173:  0.00 174:  0.00 175:  0.00 176:  0.00
 177:  0.00 178:  0.00 179:  0.00 180:  0.00 181:  0.00 182:  0.00 183:  0.00 184:  0.00
 185:  0.00 186:  0.00 187:  0.00 188:  0.00 189:  0.00 190:  0.00 191:  0.00 192:  0.00
 193:  0.00 194:  0.00 195:  0.00 196:  0.00 197:  0.00 198:  0.00 199:  0.00 200:  0.00
 201:  0.00 202:  0.00 203:  0.00 204:  0.00 205:  0.00 206:  0.00 207:  0.00 208:  0.00
 209:  0.00 210:  0.00 211:  0.00 212:  0.00 213:  0.00 214:  0.00 215:  0.00 216:  0.00
 217:  0.00 218:  0.00 219:  0.00 220:  0.00 221:  0.00 222:  0.00 223:  0.00 224:  0.00
 225:  0.00 226:  0.00 227:  0.00 228:  0.00 229:  0.00 230:  0.00 231:  0.00 232:  0.00
 233:  0.00 234:  0.00 235:  0.00 236:  0.00 237:  0.00 238:  0.00 239:  0.00 240:  0.00
 241:  0.00 242:  0.00 243:  0.00 244:  0.00 245:  0.00 246:  0.00 247:  0.00 248:  0.00
 249:  0.00 250:  0.00 251:  0.00 252:  0.00 253:  0.00 254:  0.00 255:  0.00 256:  0.00
 257:  0.00 258:  0.00 259:  0.00 260:  0.00 261:  0.00 262:  0.00 263:  0.00 264:  0.00
 265:  0.00 266:  0.00 267:  0.00 268:  0.00 269:  0.00 270:  0.00 271:  0.00 272:  0.00
 273:  0.00 274:  0.00 275:  0.00 276:  0.00 277:  0.00 278:  0.00 279:  0.00 280:  0.00
 281:  0.00 282:  0.00 283:  0.00 284:  0.00 285:  0.00 286:  0.00 287:  0.00 288:  0.00
 289:  0.00 290:  0.00 291:  0.00 292:  0.00 293:  0.00 294:  0.00 295:  0.00 296:  0.00
 297:  0.00 298:  0.00 299:  0.00 300:  0.00 301:  0.00 302:  0.00 303:  0.00 304:  0.00
 305:  0.00 306:  0.00 307:  0.00 308:  0.00 309:  0.00 310:  0.00 311:  0.00 312:  0.00
 313:  0.00 314:  0.00 315:  0.00 316:  0.00 317:  0.00 318:  0.00 319:  0.00 320:  0.00
 321:  0.00 322:  0.00 323:  0.00 324:  0.00 325:  0.00 326:  0.00 327:  0.00 328:  0.00
 329:  0.00 330:  0.00 331:  0.00 332:  0.00 333:  0.00 334:  0.00 335:  0.00 336:  0.00
 337:  0.00 338:  0.00 339:  0.00 340:  0.00 341:  0.00 342:  0.00 343:  0.00 344:  0.00
 345:  0.00 346:  0.00 347:  0.00 348:  0.00 349:  0.00 350:  0.00 351:  0.00 352:  0.00
 353:  0.00 354:  0.00 355:  0.00 356:  0.00 357:  0.00 358:  0.00 359:  0.00 360:  0.00
 361:  0.00 362:  0.00 363:  0.00 364:  0.00 365:  0.00 366:  0.00 367:  0.00 368:  0.00
 369:  0.00 370:  0.00 371:  0.00 372:  0.00 373:  0.00 374:  0.00 375:  0.00 376:  0.00
 377:  0.00 378:  0.00 379:  0.00 380:  0.00 381:  0.00 382:  0.00 383:  0.00 384:  0.00
 385:  0.00 386:  0.00 387:  0.00 388:  0.00 389:  0.00 390:  0.00 391:  0.00 392:  0.00
 393:  0.00 394:  0.00 395:  0.00 396:  0.00 397:  0.00 398:  0.00 399:  0.00 400:  0.00
 401:  0.00 402:  0.00 403:  0.00 404:  0.00 405:  0.00 406:  0.00 407:  0.00 408:  0.00
 409:  0.00 410:  0.00 411:  0.00 412:  0.00 413:  0.00 414:  0.00 415:  0.00 416:  0.00
 417:  0.00 418:  0.00 419:  0.00 420:  0.00 421:  0.00 422:  0.00 423:  0.00 424:  0.00
 425:  0.00 426:  0.00 427:  0.00 428:  0.00 429:  0.00 430:  0.00 431:  0.00 432:  0.00
 433:  0.00 434:  0.00 435:  0.00 436:  0.00 437:  0.00 438:  0.00 439:  0.00 440:  0.00
 441:  0.00 442:  0.00 443:  0.00 444:  0.00 445:  0.00 446:  0.00 447:  0.00 448:  0.00
 449:  0.00 450:  0.00 451:  0.00 452:  0.00 453:  0.00 454:  0.00 455:  0.00 456:  0.00
 457:  0.00 458:  0.00 459:  0.00 460:  0.00 461:  0.00 462:  0.00 463:  0.00 464:  0.00
 465:  0.00 466:  0.00 467:  0.00 468:  0.00 469:  0.00 470:  0.00 471:  0.00 472:  0.00
 473:  0.00 474:  0.00 475:  0.00 476:  0.00 477:  0.00 478:  0.00 479:  0.00 480:  0.00
 481:  0.00 482:  0.00 483:  0.00 484:  0.00 485:  0.00 486:  0.00 487:  0.00 488:  0.00
 489:  0.00 490:  0.00 491:  0.00 492:  0.00 493:  0.00 494:  0.00 495:  0.00 496:  0.00
 497:  0.00 498:  0.00 499:  0.00 500:  0.00 501:  0.00 502:  0.00 503:  0.00 504:  0.00
 505:  0.00 506:  0.00 507:  0.00 508:  0.00 509:  0.00 510:  0.00 511:  0.00 512:  0.00
 513:  0.00 514:  0.00 515:  0.00 516:  0.00 517:  0.00 518:  0.00 519:  0.00 520:  0.00
 521:  0.00 522:  0.00 523:  0.00 524:  0.00 525:  0.00 526:  0.00 527:  0.00 528:  0.00
 529:  0.00 530:  0.00 531:  0.00 532:  0.00 533:  0.00 534:  0.00 535:  0.00 536:  0.00
 537:  0.00 538:  0.00 539:  0.00 540:  0.00 541:  0.00 542:  0.00 543:  0.00 544:  0.00
 545:  0.00 546:  0.00 547:  0.00 548:  0.00 549:  0.00 550:  0.00 551:  0.00 552:  0.00
 553:  0.00 554:  0.00 555:  0.00 556:  0.00 557:  0.00 558:  0.00 559:  0.00 560:  0.00
 561:  0.00 562:  0.00 563:  0.00 564:  0.00 565:  0.00 566:  0.00 567:  0.00 568:  0.00
 569:  0.00 570:  0.00 571:  0.00 572:  0.00 573:  0.00 574:  0.00 575:  0.00 576:  0.00
 577:  0.00 578:  0.00 579:  0.00 580:  0.00 581:  0.00 582:  0.00 583:  0.00 584:  0.00
 585:  0.00 586:  0.00 587:  0.00 588:  0.00 589:  0.00 590:  0.00 591:  0.00 592:  0.00
 593:  0.00 594:  0.00 595:  0.00 596:  0.00 597:  0.00 598:  0.00 599:  0.00 600:  0.00
 601:  0.00 602:  0.00 603:  0.00
 output can be read by thermo (or use thermo option).
 writing <g98.out> molden fake output.
 recommended (thermochemical) frequency scaling factor: 1.0
           -------------------------------------------------
          |             Thermodynamic Functions             |
           -------------------------------------------------
 symmetry recognition skipped because # atoms >         200
 inverting freq            1   14.051191688637223     
 inverting freq            2   13.844525636829749     
 inverting freq            3   9.1349605760326895     
 inverting freq            4   6.5826899993440264     
 inverting freq            5   6.2419131249655715     

          ...................................................
          :                      SETUP                      :
          :.................................................:
          :  # frequencies                         595      :
          :  # imaginary freq.                       0      :
          :  linear?                             false      :
          :  only rotor calc.                    false      :
          :  symmetry                               C1      :
          :  rotational number                       1      :
          :  scaling factor                  1.0000000      :
          :  rotor cutoff                   50.0000000 cm⁻¹ :
          :  imag. cutoff                  -20.0000000 cm⁻¹ :
          :.................................................:

    mode    ω/cm⁻¹     T·S(HO)/kcal·mol⁻¹    T·S(FR)/kcal·mol⁻¹   T·S(vib)
   ------------------------------------------------------------------------
       1     14.05    -2.18703 (  0.62%)    -1.43257 ( 99.38%)    -1.43725
       2     13.84    -2.19581 (  0.58%)    -1.43696 ( 99.42%)    -1.44140
       3      9.13    -2.44209 (  0.11%)    -1.56014 ( 99.89%)    -1.56112
       4      6.58    -2.63620 (  0.03%)    -1.65720 ( 99.97%)    -1.65750
       5      6.24    -2.66769 (  0.02%)    -1.67295 ( 99.98%)    -1.67319
       6      1.22    -3.63431 (  0.00%)    -2.15626 (100.00%)    -2.15627
       7      1.87    -3.38262 (  0.00%)    -2.03042 (100.00%)    -2.03042
       8      2.03    -3.33461 (  0.00%)    -2.00642 (100.00%)    -2.00642
       9      2.90    -3.12113 (  0.00%)    -1.89968 (100.00%)    -1.89969
      10      3.50    -3.01090 (  0.00%)    -1.84456 (100.00%)    -1.84459
      11      4.42    -2.87226 (  0.01%)    -1.77524 ( 99.99%)    -1.77531
      12      4.62    -2.84588 (  0.01%)    -1.76205 ( 99.99%)    -1.76213
      13      7.15    -2.58732 (  0.04%)    -1.63276 ( 99.96%)    -1.63316
      14      7.44    -2.56372 (  0.05%)    -1.62096 ( 99.95%)    -1.62142
      15      8.30    -2.49869 (  0.08%)    -1.58844 ( 99.92%)    -1.58913
      16     15.55    -2.12717 (  0.93%)    -1.40263 ( 99.07%)    -1.40934
      17     19.63    -1.98897 (  2.32%)    -1.33349 ( 97.68%)    -1.34871
      18     20.19    -1.97245 (  2.59%)    -1.32522 ( 97.41%)    -1.34198
      19     20.44    -1.96508 (  2.72%)    -1.32154 ( 97.28%)    -1.33902
      20     20.80    -1.95478 (  2.91%)    -1.31638 ( 97.09%)    -1.33494
      21     22.61    -1.90527 (  4.02%)    -1.29161 ( 95.98%)    -1.31625
      22     22.69    -1.90326 (  4.07%)    -1.29060 ( 95.93%)    -1.31553
      23     25.69    -1.82982 (  6.51%)    -1.25384 ( 93.49%)    -1.29136
      24     26.36    -1.81449 (  7.17%)    -1.24616 ( 92.83%)    -1.28694
      25     28.99    -1.75823 ( 10.16%)    -1.21799 ( 89.84%)    -1.27287
      26     29.15    -1.75510 ( 10.35%)    -1.21642 ( 89.65%)    -1.27219
      27     29.54    -1.74711 ( 10.86%)    -1.21242 ( 89.14%)    -1.27051
      28     33.61    -1.67084 ( 16.96%)    -1.17421 ( 83.04%)    -1.25842
      29     37.06    -1.61315 ( 23.18%)    -1.14530 ( 76.82%)    -1.25374
      30     57.87    -1.35018 ( 64.22%)    -1.01324 ( 35.78%)    -1.22961
      31     58.53    -1.34346 ( 65.26%)    -1.00986 ( 34.74%)    -1.22756
      32     65.20    -1.28003 ( 74.30%)    -0.97791 ( 25.70%)    -1.20239
      33     73.06    -1.21326 ( 82.01%)    -0.94422 ( 17.99%)    -1.16485
      34     80.05    -1.15971 ( 86.79%)    -0.91714 ( 13.21%)    -1.12766
      35     85.79    -1.11923 ( 89.65%)    -0.89663 ( 10.35%)    -1.09620
      36     86.70    -1.11305 ( 90.04%)    -0.89349 (  9.96%)    -1.09118
      37     89.47    -1.09470 ( 91.11%)    -0.88418 (  8.89%)    -1.07599
      38     92.77    -1.07360 ( 92.22%)    -0.87345 (  7.78%)    -1.05802
      39     95.53    -1.05648 ( 93.02%)    -0.86475 (  6.98%)    -1.04310
      40    100.84    -1.02505 ( 94.30%)    -0.84874 (  5.70%)    -1.01500
      41    100.87    -1.02489 ( 94.31%)    -0.84866 (  5.69%)    -1.01486
      42    101.20    -1.02298 ( 94.38%)    -0.84768 (  5.62%)    -1.01312
      43    101.24    -1.02273 ( 94.39%)    -0.84755 (  5.61%)    -1.01290
      44    102.54    -1.01536 ( 94.65%)    -0.84379 (  5.35%)    -1.00618
      45    104.12    -1.00644 ( 94.95%)    -0.83924 (  5.05%)    -0.99800
      46    111.24    -0.96815 ( 96.08%)    -0.81966 (  3.92%)    -0.96233
      47    112.34    -0.96246 ( 96.22%)    -0.81674 (  3.78%)    -0.95695
      48    116.90    -0.93947 ( 96.76%)    -0.80495 (  3.24%)    -0.93511
      49    117.05    -0.93873 ( 96.78%)    -0.80458 (  3.22%)    -0.93441
      50    117.10    -0.93849 ( 96.78%)    -0.80445 (  3.22%)    -0.93418
      51    118.90    -0.92967 ( 96.97%)    -0.79992 (  3.03%)    -0.92574
      52    118.91    -0.92965 ( 96.97%)    -0.79991 (  3.03%)    -0.92571
      53    121.55    -0.91698 ( 97.22%)    -0.79340 (  2.78%)    -0.91354
      54    130.73    -0.87514 ( 97.91%)    -0.77182 (  2.09%)    -0.87297
      55    137.33    -0.84695 ( 98.27%)    -0.75723 (  1.73%)    -0.84540
      56    162.21    -0.75250 ( 99.11%)    -0.70792 (  0.89%)    -0.75210
      57    166.22    -0.73874 ( 99.19%)    -0.70067 (  0.81%)    -0.73843
      58    170.15    -0.72563 ( 99.26%)    -0.69375 (  0.74%)    -0.72540
      59    177.46    -0.70212 ( 99.37%)    -0.68129 (  0.63%)    -0.70199
      60    180.99    -0.69116 ( 99.42%)    -0.67546 (  0.58%)    -0.69107
      61    182.14    -0.68765 ( 99.44%)    -0.67359 (  0.56%)    -0.68757
      62    183.01    -0.68500 ( 99.45%)    -0.67217 (  0.55%)    -0.68493
      63    184.07    -0.68179 ( 99.46%)    -0.67046 (  0.54%)    -0.68173
      64    184.88    -0.67936 ( 99.47%)    -0.66917 (  0.53%)    -0.67931
      65    185.11    -0.67865 ( 99.47%)    -0.66878 (  0.53%)    -0.67860
      66    189.14    -0.66674 ( 99.51%)    -0.66242 (  0.49%)    -0.66672
      67    189.29    -0.66630 ( 99.52%)    -0.66218 (  0.48%)    -0.66628
      68    189.60    -0.66539 ( 99.52%)    -0.66169 (  0.48%)    -0.66537
      69    190.35    -0.66320 ( 99.53%)    -0.66052 (  0.47%)    -0.66319
      70    191.15    -0.66088 ( 99.53%)    -0.65927 (  0.47%)    -0.66088
      71    210.27    -0.60861 ( 99.68%)    -0.63103 (  0.32%)    -0.60868
      72    225.93    -0.56979 ( 99.76%)    -0.60976 (  0.24%)    -0.56988
      73    226.13    -0.56931 ( 99.76%)    -0.60950 (  0.24%)    -0.56940
      74    226.31    -0.56887 ( 99.76%)    -0.60926 (  0.24%)    -0.56897
      75    226.68    -0.56799 ( 99.76%)    -0.60877 (  0.24%)    -0.56809
      76    226.70    -0.56795 ( 99.76%)    -0.60875 (  0.24%)    -0.56805
      77    229.05    -0.56243 ( 99.77%)    -0.60570 (  0.23%)    -0.56253
      78    229.08    -0.56236 ( 99.77%)    -0.60566 (  0.23%)    -0.56246
      79    230.15    -0.55986 ( 99.78%)    -0.60428 (  0.22%)    -0.55996
      80    231.00    -0.55788 ( 99.78%)    -0.60318 (  0.22%)    -0.55798
      81    233.99    -0.55102 ( 99.79%)    -0.59938 (  0.21%)    -0.55112
      82    235.09    -0.54853 ( 99.80%)    -0.59799 (  0.20%)    -0.54863
      83    236.37    -0.54564 ( 99.80%)    -0.59638 (  0.20%)    -0.54574
      84    239.53    -0.53856 ( 99.81%)    -0.59244 (  0.19%)    -0.53867
      85    239.67    -0.53826 ( 99.81%)    -0.59227 (  0.19%)    -0.53836
      86    239.70    -0.53819 ( 99.81%)    -0.59223 (  0.19%)    -0.53830
      87    242.09    -0.53293 ( 99.82%)    -0.58929 (  0.18%)    -0.53304
      88    242.92    -0.53112 ( 99.82%)    -0.58828 (  0.18%)    -0.53122
      89    242.93    -0.53109 ( 99.82%)    -0.58826 (  0.18%)    -0.53120
      90    246.70    -0.52297 ( 99.83%)    -0.58370 (  0.17%)    -0.52307
      91    248.89    -0.51831 ( 99.84%)    -0.58108 (  0.16%)    -0.51841
      92    248.92    -0.51824 ( 99.84%)    -0.58105 (  0.16%)    -0.51834
      93    249.46    -0.51712 ( 99.84%)    -0.58041 (  0.16%)    -0.51722
      94    249.66    -0.51668 ( 99.84%)    -0.58017 (  0.16%)    -0.51678
      95    249.86    -0.51626 ( 99.84%)    -0.57993 (  0.16%)    -0.51636
      96    250.21    -0.51552 ( 99.84%)    -0.57951 (  0.16%)    -0.51562
      97    251.26    -0.51332 ( 99.84%)    -0.57827 (  0.16%)    -0.51342
      98    261.06    -0.49333 ( 99.87%)    -0.56694 (  0.13%)    -0.49343
      99    263.52    -0.48846 ( 99.87%)    -0.56416 (  0.13%)    -0.48856
     100    264.21    -0.48712 ( 99.87%)    -0.56339 (  0.13%)    -0.48722
     101    264.54    -0.48646 ( 99.87%)    -0.56302 (  0.13%)    -0.48656
     102    265.41    -0.48477 ( 99.87%)    -0.56205 (  0.13%)    -0.48487
     103    265.63    -0.48434 ( 99.87%)    -0.56180 (  0.13%)    -0.48444
     104    265.80    -0.48401 ( 99.87%)    -0.56161 (  0.13%)    -0.48411
     105    266.05    -0.48351 ( 99.88%)    -0.56133 (  0.12%)    -0.48361
     106    266.09    -0.48345 ( 99.88%)    -0.56129 (  0.12%)    -0.48354
     107    266.82    -0.48203 ( 99.88%)    -0.56048 (  0.12%)    -0.48212
     108    266.85    -0.48197 ( 99.88%)    -0.56045 (  0.12%)    -0.48207
     109    290.41    -0.43874 ( 99.91%)    -0.53538 (  0.09%)    -0.43883
     110    295.46    -0.43008 ( 99.92%)    -0.53027 (  0.08%)    -0.43016
     111    297.23    -0.42708 ( 99.92%)    -0.52850 (  0.08%)    -0.42717
     112    299.45    -0.42336 ( 99.92%)    -0.52630 (  0.08%)    -0.42344
   ------------------------------------------------------------------------

   temp. (K)  partition function   enthalpy   heat capacity  entropy
                                   cal/mol     cal/K/mol   cal/K/mol   J/K/mol
 298.15  VIB  0.131E+68            74216.646    472.780    475.003
         ROT  0.761E+10              888.752      2.981     48.196
         INT  0.999E+77            75105.398    475.761    523.199
         TR   0.942E+29             1481.254      4.968     48.794
         TOT                       76586.6519   480.7291   571.9933  2393.2201

       T/K    H(0)-H(T)+PV         H(T)/Eh          T*S/Eh         G(T)/Eh
   ------------------------------------------------------------------------
    298.15    0.122049E+00    0.148322E+01    0.271772E+00    0.121145E+01
   ------------------------------------------------------------------------

         :::::::::::::::::::::::::::::::::::::::::::::::::::::
         ::                  THERMODYNAMIC                  ::
         :::::::::::::::::::::::::::::::::::::::::::::::::::::
         :: total free energy        -367.433253760429 Eh   ::
         ::.................................................::
         :: total energy             -368.644702992425 Eh   ::
         :: zero point energy           1.361173128240 Eh   ::
         :: G(RRHO) w/o ZPVE           -0.149723896245 Eh   ::
         :: G(RRHO) contrib.            1.211449231995 Eh   ::
         :::::::::::::::::::::::::::::::::::::::::::::::::::::
imag cut-off (cm-1) :    5.00
 found            5  significant imaginary frequencies
 writing imag mode distorted coords to xtbhess.xyz
 for further optimization.

optimized geometry written to: xtbopt.xyz


           -------------------------------------------------
          | TOTAL ENERGY             -368.644702992425 Eh   |
          | TOTAL ENTHALPY           -367.161481265712 Eh   |
          | TOTAL FREE ENERGY        -367.433253760429 Eh   |
          | GRADIENT NORM               0.000857483541 Eh/α |
          | HOMO-LUMO GAP               0.000535650277 eV   |
           -------------------------------------------------

------------------------------------------------------------------------
 * finished run on 2021/11/19 at 20:25:57.940     
------------------------------------------------------------------------
 total:
 * wall-time:     0 d,  0 h, 43 min, 32.491 sec
 *  cpu-time:     0 d,  0 h, 43 min, 32.514 sec
 * ratio c/w:     1.000 speedup
 SCF:
 * wall-time:     0 d,  0 h,  0 min, 23.123 sec
 *  cpu-time:     0 d,  0 h,  0 min, 23.124 sec
 * ratio c/w:     1.000 speedup
 ANC optimizer:
 * wall-time:     0 d,  0 h,  4 min, 35.798 sec
 *  cpu-time:     0 d,  0 h,  4 min, 35.795 sec
 * ratio c/w:     1.000 speedup
 analytical hessian:
 * wall-time:     0 d,  0 h, 38 min, 33.295 sec
 *  cpu-time:     0 d,  0 h, 38 min, 33.320 sec
 * ratio c/w:     1.000 speedup

