201
 energy: -366.553696745300 gnorm: 1.764507560053 xtb: 6.4.1 (bd6e46d)
Co       22.80709700000000    0.03646900000000   -0.01143500000000
C        25.13608800000000   -3.11032400000000    1.31125400000000
C        26.05219500000000   -2.16611700000000    1.26097200000000
C        25.64101600000000   -1.11221300000000    0.33968000000000
C        26.25988600000000    0.01213300000000   -0.00673000000000
C        25.55584400000000    1.23208200000000   -0.37083500000000
C        25.88395500000000    2.19213700000000   -1.21830900000000
C        24.84917500000000    3.20842200000000   -1.23520700000000
C        23.91290700000000    2.83196000000000   -0.38831500000000
N        24.31489700000000    1.59894900000000    0.17550200000000
C        22.65183300000000    3.47695900000000   -0.00916300000000
C        21.55661500000000    2.84217700000000    0.34159700000000
C        20.48299000000000    3.16013300000000    1.31062500000000
C        19.64542700000001    2.16337900000000    1.23345900000000
C        20.08372400000000    1.15969600000000    0.25300700000000
N        21.18866300000000    1.59854900000000   -0.23128600000000
C        19.47289000000000   -0.09357500000000   -0.16054100000000
C        20.13705000000000   -1.19808100000000   -0.41496600000000
C        19.76320200000000   -2.26102300000000   -1.37249300000000
C        20.71194900000000   -3.15477900000000   -1.28347400000000
C        21.69767300000000   -2.71732900000000   -0.30059600000000
N        21.34462700000000   -1.57152400000000    0.19620100000000
C        22.92856000000000   -3.37339900000000    0.14512500000000
C        24.05160200000000   -2.72753800000000    0.41224600000000
N        24.38020200000000   -1.48009700000000   -0.18615800000000
H        25.19635000000000   -4.02010500000000    1.92880000000000
H        26.96852300000000   -2.20606600000000    1.83902000000000
H        26.81132000000000    2.20893200000000   -1.81945200000000
H        24.86607400000000    4.11311100000000   -1.84782800000000
H        22.60411000000000    4.57176200000000   -0.01294100000000
H        20.43016800000000    4.03885800000000    1.93561700000000
H        18.73379700000000    2.12770900000000    1.85078300000000
H        18.37463900000000   -0.09066400000000   -0.25981200000000
H        18.89434600000000   -2.31348800000000   -2.02144300000000
H        20.70910300000000   -4.07108700000000   -1.88223300000000
H        22.89307800000000   -4.46920100000000    0.25705000000000
Co       88.86141300000000   -0.01090700000000   -0.01586800000000
C        86.53242200000000    2.83588500000000    1.86763700000000
C        85.61631500000000    1.91739600000000    1.64306300000000
C        86.02749400000000    1.05269900000000    0.54224900000000
C        85.40862400000000    0.01213300000000   -0.00673000000000
C        86.11266600000000   -1.11909100000000   -0.59083300000000
C        85.78455599999999   -1.90526300000000   -1.60170000000000
C        86.81933500000000   -2.90077200000000   -1.80684000000000
C        87.75560299999999   -2.68795600000000   -0.90481000000000
N        87.35361300000000   -1.58094400000000   -0.12203800000000
C        89.01667800000000   -3.39209700000000   -0.65189600000000
C        90.11189500000002   -2.83340400000000   -0.18946300000000
C        91.18552000000000   -3.32561000000000    0.70375900000000
C        92.02308300000001   -2.33184300000000    0.81284400000000
C        91.58478599999999   -1.16369400000000    0.03560900000000
N        90.47984800000000   -1.50508600000000   -0.52169100000000
C        92.19562100000000    0.14454100000000   -0.13826100000000
C        91.53146000000000    1.27707500000000   -0.18336700000000
C        91.90530900000000    2.49920000000000   -0.92708200000000
C        90.95656200000001    3.36092800000000   -0.67380400000000
C        89.97083800000000    2.74873300000000    0.21086000000000
N        90.32388400000001    1.53065400000000    0.48647000000000
C        88.73994999999999    3.31072700000000    0.77055400000000
C        87.61690800000000    2.62652300000000    0.91322200000000
N        87.28830800000000    1.51174800000000    0.09378700000000
H        86.47216000000000    3.61530900000000    2.64324100000000
H        84.69998800000000    1.84941500000000    2.21848900000000
H        84.85719000000000   -1.81024600000000   -2.19552400000000
H        86.80243600000000   -3.67610700000000   -2.57666000000000
H        89.06440000000001   -4.46719500000000   -0.85871000000000
H        91.23834200000000   -4.30502600000000    1.15488600000000
H        92.93471400000001   -2.41131500000000    1.42606900000000
H        93.29387100000000    0.16009700000000   -0.23634800000000
H        92.77416500000000    2.67114400000000   -1.55503500000000
H        90.95940800000001    4.37240900000000   -1.09218100000000
H        88.77543200000000    4.36674400000000    1.08382300000000
C        29.23189800000000    0.02326500000000   -0.00268900000000
C        30.44743100000000   -0.00207900000000   -0.01316800000000
C        31.86894800000000   -0.02350200000000   -0.01734400000000
C        33.07750900000000   -0.02571300000000   -0.01723900000000
C        34.49858500000000   -0.00675400000000   -0.01786600000000
C        35.70972700000000    0.02326500000000   -0.00268900000000
C        44.80707400000000    0.02326500000000   -0.00268900000000
C        46.02260600000000   -0.00207900000000   -0.01316800000000
C        47.44412300000000   -0.02350200000000   -0.01734400000000
C        48.65268500000000   -0.02571300000000   -0.01723900000000
C        50.07376000000000   -0.00675400000000   -0.01786600000000
C        51.28490200000001    0.02326500000000   -0.00268900000000
C        60.38224900000001    0.02326500000000   -0.00268900000000
C        61.59778200000000   -0.00207900000000   -0.01316800000000
C        63.01929900000000   -0.02350200000000   -0.01734400000000
C        64.22786100000000   -0.02571300000000   -0.01723900000000
C        65.64893600000001   -0.00675400000000   -0.01786600000000
C        66.86007800000000    0.02326500000000   -0.00268900000000
C        75.95742500000000    0.02326500000000   -0.00268900000000
C        77.17295799999999   -0.00207900000000   -0.01316800000000
C        78.59447500000000   -0.02350200000000   -0.01734400000000
C        79.80303600000001   -0.02571300000000   -0.01723900000000
C        81.22411100000001   -0.00675400000000   -0.01786600000000
C        82.43525400000000    0.02326500000000   -0.00268900000000
Co       40.29831700000000    0.03488200000000    0.00213900000000
C        38.01850600000000   -3.22656600000000   -0.90752600000000
C        37.06229700000000   -2.32721500000000   -1.00955300000000
C        37.45467100000000   -1.16491000000000   -0.20703700000000
C        36.81955500000001   -0.01363800000000    0.00522900000000
C        37.50501200000000    1.26096200000000    0.23145900000000
C        37.16972200000001    2.33956200000000    0.93569900000000
C        38.19426300000000    3.35887800000000    0.84511700000000
C        39.14486000000000    2.86195400000000    0.07175300000000
N        38.76786600000000    1.54534900000000   -0.34439000000000
C        40.39200000000000    3.47365500000000   -0.34511300000000
C        41.49355100000000    2.80639800000000   -0.67688400000000
C        42.48709800000000    3.05838300000000   -1.71105400000000
C        43.38098100000000    2.09752400000000   -1.60957000000000
C        43.00128300000001    1.18564000000000   -0.50559300000000
N        41.90636800000000    1.63495900000000    0.00177400000000
C        43.65849000000000   -0.01363800000000    0.00522900000000
C        43.03507800000000   -1.08282000000000    0.46674600000000
C        43.41379100000001   -2.01493500000000    1.54222200000000
C        42.47312200000000   -2.92908100000000    1.62808800000000
C        41.46482100000000   -2.63330200000000    0.63066100000000
N        41.80259600000000   -1.57992500000000   -0.01863400000000
C        40.21242800000001   -3.34031000000000    0.29946700000000
C        39.09855100000000   -2.74361300000000   -0.04787400000000
N        38.71643900000000   -1.46085600000000    0.36980900000000
H        38.01885100000000   -4.21764000000000   -1.39876100000000
H        36.15376300000000   -2.44890900000000   -1.59070100000000
H        36.24486900000000    2.45791300000000    1.51262500000000
H        38.22155800000000    4.34804300000000    1.30176800000000
H        40.47794000000000    4.57103300000000   -0.40713600000000
H        42.51977000000000    3.86459900000000   -2.43787800000000
H        44.27404200000000    1.98455500000000   -2.24334400000000
H        44.32854100000000   -1.94052900000000    2.15239100000000
H        42.49216900000000   -3.74268900000000    2.33635500000000
H        40.25091200000000   -4.44026900000000    0.35850400000000
Co       55.87349300000000    0.03488200000000    0.00213900000000
C        53.59368200000000   -3.22656600000000   -0.90752600000000
C        52.63747300000000   -2.32721500000000   -1.00955300000000
C        53.02984700000000   -1.16491000000000   -0.20703700000000
C        52.39473000000000   -0.01363800000000    0.00522900000000
C        53.08018700000000    1.26096200000000    0.23145900000000
C        52.74489700000000    2.33956200000000    0.93569900000000
C        53.76943800000000    3.35887800000000    0.84511700000000
C        54.72003600000000    2.86195400000000    0.07175300000000
N        54.34304200000000    1.54534900000000   -0.34439000000000
C        55.96717500000000    3.47365500000000   -0.34511300000000
C        57.06872700000000    2.80639800000000   -0.67688400000000
C        58.06227300000000    3.05838300000000   -1.71105400000000
C        58.95615700000000    2.09752400000000   -1.60957000000000
C        58.57645800000000    1.18564000000000   -0.50559300000000
N        57.48154300000001    1.63495900000000    0.00177400000000
C        59.23366500000000   -0.01363800000000    0.00522900000000
C        58.61025400000000   -1.08282000000000    0.46674600000000
C        58.98896700000001   -2.01493500000000    1.54222200000000
C        58.04829800000000   -2.92908100000000    1.62808800000000
C        57.03999700000000   -2.63330200000000    0.63066100000000
N        57.37777100000000   -1.57992500000000   -0.01863400000000
C        55.78760300000000   -3.34031000000000    0.29946700000000
C        54.67372700000000   -2.74361300000000   -0.04787400000000
N        54.29161500000000   -1.46085600000000    0.36980900000000
H        53.59402700000000   -4.21764000000000   -1.39876100000000
H        51.72893800000000   -2.44890900000000   -1.59070100000000
H        51.82004500000000    2.45791300000000    1.51262500000000
H        53.79673300000001    4.34804300000000    1.30176800000000
H        56.05311500000000    4.57103300000000   -0.40713600000000
H        58.09494600000000    3.86459900000000   -2.43787800000000
H        59.84921800000000    1.98455500000000   -2.24334400000000
H        59.90371700000000   -1.94052900000000    2.15239100000000
H        58.06734400000000   -3.74268900000000    2.33635500000000
H        55.82608800000000   -4.44026900000000    0.35850400000000
Co       71.44866800000000    0.03488200000000    0.00213900000000
C        69.16885700000000   -3.22656600000000   -0.90752600000000
C        68.21264800000000   -2.32721500000000   -1.00955300000000
C        68.60502200000001   -1.16491000000000   -0.20703700000000
C        67.96990599999999   -0.01363800000000    0.00522900000000
C        68.65536300000001    1.26096200000000    0.23145900000000
C        68.32007299999999    2.33956200000000    0.93569900000000
C        69.34461400000001    3.35887800000000    0.84511700000000
C        70.29521099999999    2.86195400000000    0.07175300000000
N        69.91821700000000    1.54534900000000   -0.34439000000000
C        71.54235100000000    3.47365500000000   -0.34511300000000
C        72.64390200000000    2.80639800000000   -0.67688400000000
C        73.63744900000000    3.05838300000000   -1.71105400000000
C        74.53133200000001    2.09752400000000   -1.60957000000000
C        74.15163400000000    1.18564000000000   -0.50559300000000
N        73.05671900000000    1.63495900000000    0.00177400000000
C        74.80884100000000   -0.01363800000000    0.00522900000000
C        74.18543000000000   -1.08282000000000    0.46674600000000
C        74.56414200000000   -2.01493500000000    1.54222200000000
C        73.62347300000000   -2.92908100000000    1.62808800000000
C        72.61517200000000   -2.63330200000000    0.63066100000000
N        72.95294699999999   -1.57992500000000   -0.01863400000000
C        71.36277900000000   -3.34031000000000    0.29946700000000
C        70.24890200000000   -2.74361300000000   -0.04787400000000
N        69.86678999999999   -1.46085600000000    0.36980900000000
H        69.16920200000000   -4.21764000000000   -1.39876100000000
H        67.30411400000000   -2.44890900000000   -1.59070100000000
H        67.39522100000001    2.45791300000000    1.51262500000000
H        69.37190900000000    4.34804300000000    1.30176800000000
H        71.62829100000000    4.57103300000000   -0.40713600000000
H        73.67012099999999    3.86459900000000   -2.43787800000000
H        75.42439400000001    1.98455500000000   -2.24334400000000
H        75.47889200000000   -1.94052900000000    2.15239100000000
H        73.64252000000002   -3.74268900000000    2.33635500000000
H        71.40126300000000   -4.44026900000000    0.35850400000000
201
 energy: -367.237721899047 gnorm: 0.721773184732 xtb: 6.4.1 (bd6e46d)
Co       22.81248009230905    0.03561105613678   -0.01108317325395
C        25.13460895218255   -3.11670378451227    1.30780350706061
C        26.06085852120462   -2.16468532204874    1.26023527455826
C        25.63765626411603   -1.11558748114784    0.34245515423773
C        26.24741081668899    0.02523249884894   -0.00878964347345
C        25.54899434128523    1.22468936283887   -0.36296126756366
C        25.89117323750411    2.21169137838404   -1.23201800520920
C        24.87015120041280    3.20999399987029   -1.24587572323134
C        23.90576778797222    2.81712546420663   -0.38044045208762
N        24.29759347284872    1.58468790009349    0.17659777181185
C        22.66445126725955    3.47890195872369   -0.01078141724060
C        21.54715322611710    2.83177428587844    0.34278625533377
C        20.48702063769030    3.16596147759630    1.30207541301440
C        19.62894030906216    2.15706804714920    1.23619264156900
C        20.07850604877171    1.15979296998785    0.26220864860453
N        21.21235611068536    1.58687163951333   -0.22440384260532
C        19.46452467236733   -0.07866825131584   -0.15620747476815
C        20.14103903807169   -1.20333937831607   -0.41821108750035
C        19.75732708821332   -2.25812076234682   -1.36588226620689
C        20.71772373838651   -3.16826914095420   -1.28289676891160
C        21.70485163409973   -2.72475276871512   -0.30419188697393
N        21.35202285124138   -1.55405269194350    0.18466818221257
C        22.91479181976587   -3.37875847467845    0.14017989434953
C        24.05777418732420   -2.71554319297936    0.41313533723995
N        24.37323735381278   -1.47527493643147   -0.17173270524675
H        25.19267082017244   -4.01672095114146    1.92483057310419
H        26.96987189392333   -2.20187531709182    1.83754734038687
H        26.80868819636658    2.21233210295316   -1.81921855597307
H        24.86855627906291    4.11093316172667   -1.84783050611679
H        22.61046247773749    4.57015392905950   -0.01019020593818
H        20.43301531956269    4.03797722945918    1.93336107454283
H        18.73330465189755    2.12365709624056    1.84940801272756
H        18.37629904159109   -0.08776404028803   -0.26203755365108
H        18.89560805426733   -2.30930020130642   -2.01822391750254
H        20.71381970479245   -4.07167616740588   -1.88014934449306
H        22.89142909382741   -4.46659565634190    0.25706762600290
Co       88.85604649790041   -0.01013612309948   -0.01536391224271
C        86.53391701359352    2.84279410344032    1.86543017306073
C        85.60765557540498    1.91612742580466    1.64204788054933
C        86.03088737266664    1.05554352572010    0.54559413236500
C        85.42086348705350   -0.00028143792218   -0.01116182172598
C        86.11952542160573   -1.11328913264663   -0.58175083855334
C        85.77733992103647   -1.92192547948850   -1.61876610282823
C        86.79838388326917   -2.90034679731975   -1.81760348343962
C        87.76274348777909   -2.67487091618642   -0.89432821751591
N        87.37088286667888   -1.56712437532086   -0.11834295528561
C        89.00405031619219   -3.39371708887209   -0.65384765861059
C        90.12135831428880   -2.82340093757119   -0.18635492934041
C        91.18148156825893   -3.32974883720774    0.69426883877041
C        92.03956931637326   -2.32613706717443    0.81669752599791
C        91.59002098123359   -1.16549656711195    0.04463430088264
N        90.45615207965938   -1.49489560369528   -0.51276587426588
C        92.20399097667055    0.12908240819987   -0.13676632375727
C        91.52747359893155    1.28284694953704   -0.18558690626067
C        91.91118160413765    2.49511284263207   -0.92112217724196
C        90.95077995206442    3.37407676989432   -0.67072743316469
C        89.96366000065565    2.75670726085831    0.20870402535745
N        90.31648590378134    1.51562080078271    0.47189249610078
C        88.75371922315460    3.31692486989568    0.76668698754024
C        87.61073468674360    2.61458825410303    0.91187920782016
N        87.29527277488133    1.50433387980835    0.10710747727869
H        86.47584105388422    3.61271950184304    2.63871421852260
H        84.69863905182855    1.84557384102518    2.21626376140053
H        84.85982514937339   -1.81362364312574   -2.19593719524013
H        86.79995707861207   -3.67396853917252   -2.57626148834554
H        89.05805217793906   -4.46613008799727   -0.85571793417446
H        91.23549325018699   -4.30374203403891    1.15283244021581
H        92.93520745644609   -2.40707772786353    1.42546889111554
H        93.29221360585697    0.15766075331135   -0.23906865353266
H        92.77290215024640    2.66643042191784   -1.55264782902107
H        90.95468983064811    4.37260134342723   -1.09002316951583
H        88.77708223869398    4.36418739463918    1.08335710435904
C        29.23098932289564    0.02304354886732   -0.00252731020316
C        30.45569011240125   -0.00236182726490   -0.01306456612484
C        31.85567480674997   -0.02302393622944   -0.01735186459507
C        33.08056648056996   -0.02516346460014   -0.01726133194481
C        34.44534938645448   -0.00699131668086   -0.01765637681616
C        35.63570623425766    0.03168479184396   -0.00422024258946
C        44.87201879386464    0.02972776161836   -0.00225586535927
C        46.06772278747818   -0.00246365533401   -0.01267190511213
C        47.43578724377716   -0.02290938266845   -0.01796416235129
C        48.65856814407686   -0.02513133451324   -0.01726926885159
C        50.02113170875754   -0.00697746432079   -0.01763902065962
C        51.21089011607026    0.03164852718325   -0.00452150563976
C        60.44717694820125    0.02972609655453   -0.00216108173097
C        61.64291084923233   -0.00244621550976   -0.01265025663318
C        63.01096161250990   -0.02291784774404   -0.01798393427019
C        64.23373691271846   -0.02512983752792   -0.01726388667054
C        65.59634468866930   -0.00697010747947   -0.01763938207571
C        66.78598222813685    0.03162765367272   -0.00455535424466
C        76.02273064357144    0.02980489036557   -0.00203591392824
C        77.21841396209939   -0.00230930004437   -0.01250645642180
C        78.59010000266268   -0.02289137412929   -0.01797766955878
C        79.81463916645146   -0.02523073946919   -0.01745307724323
C        81.21529152131208   -0.00716361561729   -0.01761762973157
C        82.43735980346896    0.02289159979210   -0.00251185607273
Co       40.29370244978168    0.03559284549441    0.00179561375289
C        38.02138467307657   -3.23933391502476   -0.90493960886082
C        37.05881787542975   -2.32431450093395   -1.00574780162573
C        37.49069612229302   -1.18501395854557   -0.20969822143343
C        36.88701602949922   -0.00230807806911    0.00610933973771
C        37.53660028994971    1.26613699164536    0.22833349776321
C        37.16454788262858    2.35759696326605    0.94428894156129
C        38.17759348843239    3.36065701312623    0.85156574686607
C        39.15418649169271    2.84948738896290    0.06578386537422
N        38.78631620571288    1.53767454598079   -0.33813264632137
C        40.38217393374794    3.47633212188229   -0.34480824112938
C        41.50046698712877    2.79944672226275   -0.67765481443827
C        42.48791270934503    3.06436852017195   -1.70523488343365
C        43.39343918538194    2.08865205119776   -1.60898248049224
C        42.99195151893919    1.19015587775958   -0.51762671063504
N        41.88039954396744    1.62754048238916   -0.00444400622141
C        43.61192716571431   -0.00250243199936   -0.00079669146273
C        43.00737852871617   -1.10056372583086    0.47592777538613
C        43.42155439851387   -2.01042223198058    1.53719645207830
C        42.46878518607641   -2.94019833428132    1.62846993640655
C        41.45637592302096   -2.64271854462875    0.63677387619769
N        41.79062281426845   -1.55864679378490   -0.01577032633385
C        40.22807923249991   -3.34699806366214    0.30612657341214
C        39.08814550944762   -2.73525313987461   -0.05259252094173
N        38.72782182271495   -1.45437321650402    0.35417846428396
H        38.02092492329517   -4.21475273752993   -1.39654927114554
H        36.15463506577951   -2.44396508328537   -1.58844916596038
H        36.24572281361598    2.45878341495929    1.51247865207080
H        38.21711679173566    4.34487566024794    1.30251788778456
H        40.47080669857780    4.56836339978092   -0.40953251752811
H        42.51643783768081    3.86366382151656   -2.43444165906161
H        44.27269294645161    1.98175785536814   -2.24098031787639
H        44.32493031352011   -1.93795067450004    2.14812678983585
H        42.48893160059592   -3.74508189233191    2.33649990857463
H        40.25307848152381   -4.43859978508975    0.35724925854426
Co       55.86870824145451    0.03556623268212    0.00181613852166
C        53.59622866084566   -3.23927747101976   -0.90503491159210
C        52.63393081625892   -2.32467222985652   -1.00568851815367
C        53.06568673467200   -1.18463927839437   -0.20908975939141
C        52.46246763209356   -0.00262063937753    0.00601439856801
C        53.11172587289521    1.26624525269877    0.22815632566341
C        52.73974986213212    2.35764386886490    0.94431248500879
C        53.75264371415307    3.36062934849672    0.85158247135652
C        54.72948984285377    2.84941423118231    0.06566039128181
N        54.36154394520950    1.53762622163841   -0.33807334700668
C        55.95720349929771    3.47626722598946   -0.34470384019875
C        57.07573157650148    2.79934521170952   -0.67769303031503
C        58.06304270829032    3.06437414296462   -1.70524233979762
C        58.96863609580353    2.08862624597751   -1.60898205426117
C        58.56699959151221    1.19024902907775   -0.51772615552399
N        57.45565461117326    1.62757943407226   -0.00456820263744
C        59.18707369796881   -0.00261295052236   -0.00072368055329
C        58.58263547439442   -1.10052243614947    0.47590452617682
C        58.99679888221378   -2.01046411821191    1.53720226059201
C        58.04400075095462   -2.94014982767723    1.62851997494582
C        57.03171870910969   -2.64239316237707    0.63682396471302
N        57.36578261912918   -1.55885750522758   -0.01571655274486
C        55.80290949705808   -3.34698612542663    0.30592208295374
C        54.66368028853390   -2.73518368621070   -0.05246343165103
N        54.30326573671660   -1.45427087175629    0.35419407871039
H        53.59606611089824   -4.21474844785029   -1.39657616421675
H        51.72980924140801   -2.44399050066708   -1.58850098298597
H        51.82089900960553    2.45879247354743    1.51250435700223
H        53.79225952595172    4.34489104651800    1.30249571740403
H        56.04597801180530    4.56835132229690   -0.40946889171025
H        58.09161040451104    3.86366820299590   -2.43444055879389
H        59.84787505527053    1.98176056676275   -2.24097170694288
H        59.90012308728743   -1.93796203594888    2.14813115848491
H        58.06409649735679   -3.74506864478971    2.33650664423001
H        55.82824612802890   -4.43858711588682    0.35713314105284
Co       71.44377541177612    0.03554216825198    0.00178962899390
C        69.17131154680435   -3.23928600368308   -0.90501473919142
C        68.20914700507997   -2.32474482133753   -1.00569315445556
C        68.64080922484898   -1.18447862844864   -0.20907164646154
C        68.03765091678549   -0.00268082358585    0.00597701911929
C        68.68677637860620    1.26625397405438    0.22823528028161
C        68.31493259334391    2.35756190174866    0.94428692571741
C        69.32786957445754    3.36060004059286    0.85156956506130
C        70.30471907736886    2.84950796932912    0.06565726150776
N        69.93676304825853    1.53762178800900   -0.33809600933398
C        71.53234865464326    3.47629513368058   -0.34468788109591
C        72.65095949506305    2.79943768393922   -0.67768283826066
C        73.63817418026657    3.06441651189113   -1.70519441717477
C        74.54377161488367    2.08856355774233   -1.60900978544378
C        74.14200347157350    1.19003927901872   -0.51818933670775
N        73.03100422516148    1.62756804026709   -0.00453125411675
C        74.76234594313961   -0.00285781342512   -0.00072614062170
C        74.15796661185941   -1.10033074288706    0.47619215674642
C        74.57199784405098   -2.01033458088079    1.53706214336565
C        73.61899146654618   -2.94008711865678    1.62846753776846
C        72.60717555239110   -2.64229721019155    0.63701280739352
N        72.94086662160753   -1.55888427071692   -0.01556489258134
C        71.37775325831764   -3.34710519118168    0.30574536803506
C        70.23903858164398   -2.73543003212146   -0.05230487521392
N        69.87853242484357   -1.45407727204261    0.35428725240182
H        69.17123064799962   -4.21474722122925   -1.39658227427469
H        67.30499767358405   -2.44398862551554   -1.58851427061564
H        67.39608305479669    2.45877802994714    1.51250225876238
H        69.36743714477046    4.34489134197433    1.30248206129674
H        71.62113954583971    4.56835867510617   -0.40949931355826
H        73.66677937224340    3.86367310000649   -2.43443671233585
H        75.42304594429588    1.98176235304543   -2.24094791570524
H        75.47529647020134   -1.93797451545538    2.14809530796398
H        73.63923371728954   -3.74504626750076    2.33648686609148
H        71.40342258483938   -4.43862142951700    0.35696278646957
201
 energy: -367.534133378928 gnorm: 0.365565829082 xtb: 6.4.1 (bd6e46d)
Co       22.82089852219203    0.03427625989965   -0.00988591344007
C        25.13405011971222   -3.12222141011214    1.29836032245061
C        26.07190872612128   -2.16375046996647    1.25574373753569
C        25.63079147350498   -1.11661275226199    0.34926533669241
C        26.22016940549312    0.04643252038436   -0.01051391873232
C        25.53570848550600    1.21915856318688   -0.35805928811482
C        25.89719705501681    2.23608198178763   -1.24287454478644
C        24.89731783661266    3.20819543238422   -1.25141226418306
C        23.89974074909667    2.79381447092832   -0.37381751783256
N        24.26858904875882    1.55982793541402    0.16750235462683
C        22.68244098896992    3.47396056456409   -0.01168279582665
C        21.54276487472992    2.81390213930812    0.34525330796111
C        20.48972854808755    3.16885599931044    1.28415049217702
C        19.60910496002686    2.15275158258455    1.23388343900905
C        20.07514826061577    1.15872564410830    0.27709402057227
N        21.25047990927916    1.56122406822280   -0.19951169124695
C        19.45733513542956   -0.06004151744534   -0.14935882913907
C        20.14723666820640   -1.20266732667222   -0.42513459643360
C        19.75350816461389   -2.25708408895740   -1.35145090574429
C        20.72213946167042   -3.18442677764948   -1.27635307414621
C        21.71429778363426   -2.73068659846676   -0.31153863540017
N        21.36903106994526   -1.52338440637633    0.15406658138361
C        22.89971559352659   -3.38095963239169    0.13327525420517
C        24.05928232623943   -2.69871289599334    0.41651938004951
N        24.35850564549424   -1.46432155360183   -0.14170549694127
H        25.18488139416885   -4.01158749245287    1.91614142031231
H        26.97462118201847   -2.19321624832891    1.83410866005082
H        26.80614912457851    2.21907408934989   -1.81950442254058
H        24.87321737276822    4.10674357248940   -1.84665683353609
H        22.62437585596398    4.56361769682657   -0.00708238835769
H        20.43887974794931    4.03455030094044    1.92568414622174
H        18.72904633599726    2.11550539134043    1.84727869446083
H        18.37803216536097   -0.08186318031809   -0.26418381717163
H        18.89875445477675   -2.30123753924509   -2.00986151912042
H        20.72341522801938   -4.07557965665309   -1.87582971546949
H        22.88946199513794   -4.46189074937785    0.25512104469196
Co       88.84765526716266   -0.00905256344511   -0.01394220813804
C        86.53449497005914    2.84997687159534    1.85717974458505
C        85.59660703261250    1.91606115423172    1.63743370346512
C        86.03775851300938    1.05533000024542    0.55246132697400
C        85.44773147985998   -0.02065258463602   -0.01679386839776
C        86.13277443841440   -1.10873560193816   -0.57591484047582