 Entering Gaussian System
 *********************************************
 Gaussian 98:
 frequency output generated by the xtb code
 *********************************************
                         Standard orientation:
 --------------------------------------------------------------------
  Center     Atomic     Atomic              Coordinates (Angstroms)
  Number     Number      Type              X           Y           Z
 --------------------------------------------------------------------
    1         28             0       17.056538    0.002341    0.017103
    2          6             0       19.554183   -3.228361    1.096030
    3          6             0       20.504191   -2.298076    0.850512
    4          6             0       19.817699   -1.118172    0.417978
    5          6             0       20.482192    0.052641    0.041691
    6          6             0       19.788430    1.217259   -0.297286
    7          6             0       20.445332    2.439891   -0.649312
    8          6             0       19.473822    3.365198   -0.816548
    9          6             0       18.228394    2.695974   -0.587730
   10          7             0       18.435467    1.377196   -0.283934
   11          6             0       17.006001    3.330584   -0.672018
   12          6             0       15.801425    2.672217   -0.535955
   13          6             0       14.529833    3.320891   -0.680739
   14          6             0       13.590463    2.356990   -0.568606
   15          6             0       14.291552    1.125283   -0.342936
   16          7             0       15.640640    1.333741   -0.315415
   17          6             0       13.655145   -0.089364   -0.186795
   18          6             0       14.330836   -1.260933    0.088341
   19          6             0       13.670525   -2.517561    0.298558
   20          6             0       14.632700   -3.410748    0.615905
   21          6             0       15.877781   -2.698565    0.588463
   22          7             0       15.680196   -1.388930    0.254158
   23          6             0       17.091695   -3.284056    0.883311
   24          6             0       18.293880   -2.611014    0.810120
   25          7             0       18.469468   -1.311511    0.415205
   26          1             0       19.673050   -4.239181    1.434768
   27          1             0       21.567969   -2.374495    0.960876
   28          1             0       21.506624    2.549252   -0.754394
   29          1             0       19.568262    4.401432   -1.077152
   30          1             0       16.992596    4.389710   -0.879265
   31          1             0       14.401617    4.372005   -0.853322
   32          1             0       12.522764    2.444799   -0.626080
   33          1             0       12.579236   -0.120960   -0.264029
   34          1             0       12.611365   -2.666940    0.215754
   35          1             0       14.535941   -4.453710    0.848165
   36          1             0       17.104291   -4.323913    1.172225
   37         28             0       38.795952    0.028040    0.003751
   38          6             0       36.305070    3.228231    1.198968
   39          6             0       35.352044    2.319162    0.893637
   40          6             0       36.037372    1.151439    0.426860
   41          6             0       35.369511    0.002655   -0.004890
   42          6             0       36.056200   -1.142842   -0.414415
   43          6             0       35.390660   -2.331613   -0.855812
   44          6             0       36.357664   -3.240045   -1.115507
   45          6             0       37.607651   -2.595663   -0.843653
   46          7             0       37.408335   -1.307330   -0.425182
   47          6             0       38.826540   -3.224799   -0.991504
   48          6             0       40.034474   -2.594018   -0.777254
   49          6             0       41.301606   -3.242022   -0.958674
   50          6             0       42.249059   -2.311888   -0.711463
   51          6             0       41.556710   -1.101165   -0.373687
   52          7             0       40.204683   -1.289086   -0.410891
   53          6             0       42.204293    0.078279   -0.067236
   54          6             0       41.535863    1.232862    0.285610
   55          6             0       42.206619    2.454874    0.626325
   56          6             0       41.244881    3.343828    0.956148
   57          6             0       39.990513    2.662883    0.810530
   58          7             0       40.182164    1.376263    0.393577
   59          6             0       38.774007    3.254962    1.079802
   60          6             0       37.565784    2.608675    0.919383
   61          7             0       37.387062    1.331520    0.458855
   62          1             0       36.188259    4.225092    1.577435
   63          1             0       34.286533    2.402961    0.980469
   64          1             0       34.327499   -2.429924   -0.954738
   65          1             0       36.257285   -4.250016   -1.462637
   66          1             0       38.834535   -4.258155   -1.302906
   67          1             0       41.421661   -4.269764   -1.242189
   68          1             0       43.316856   -2.409745   -0.746220
   69          1             0       43.282907    0.096012   -0.095800
   70          1             0       43.271261    2.586311    0.611004
   71          1             0       41.347466    4.364671    1.269850
   72          1             0       38.765608    4.276260    1.428751
   73          6             0       21.884141    0.061668    0.023539
   74          6             0       23.096556    0.056773    0.005257
   75          6             0       32.755285   -0.007781   -0.028304
   76          6             0       33.967452   -0.002207   -0.017940
   77         28             0       27.926035    0.023956   -0.048326
   78          6             0       25.444009   -3.378729   -0.313044
   79          6             0       24.490145   -2.420053   -0.312186
   80          6             0       25.168848   -1.169585   -0.151246
   81          6             0       24.498021    0.049303   -0.014394
   82          6             0       25.189209    1.258866    0.099402
   83          6             0       24.532368    2.520903    0.259360
   84          6             0       25.498720    3.466117    0.221001
   85          6             0       26.740302    2.773589    0.050529
   86          7             0       26.538144    1.420083    0.004973
   87          6             0       27.950927    3.417421   -0.101030
   88          6             0       29.153616    2.752745   -0.221070
   89          6             0       30.408157    3.421975   -0.390609
   90          6             0       31.362015    2.463475   -0.373550
   91          6             0       30.683042    1.216209   -0.189180
   92          7             0       29.335321    1.398783   -0.126479
   93          6             0       31.353783   -0.000786   -0.039749
   94          6             0       30.665095   -1.209109    0.095701
   95          6             0       31.325189   -2.468086    0.268389
   96          6             0       30.358509   -3.413789    0.260262
   97          6             0       29.114442   -2.724650    0.093047
   98          7             0       29.315443   -1.372259    0.019906
   99          6             0       27.901816   -3.369877   -0.034214
  100          6             0       26.698935   -2.706348   -0.160081
  101          7             0       26.517102   -1.350824   -0.090468
  102          1             0       25.330879   -4.441379   -0.405539
  103          1             0       23.428321   -2.523993   -0.418929
  104          1             0       23.475166    2.640905    0.390855
  105          1             0       25.402532    4.531544    0.299625
  106          1             0       27.957908    4.496525   -0.121029
  107          1             0       30.521373    4.482665   -0.503270
  108          1             0       32.423892    2.564989   -0.483136
  109          1             0       32.384640   -2.585554    0.385339
  110          1             0       30.456298   -4.477606    0.356860
  111          1             0       27.893132   -4.449165   -0.032080
 --------------------------------------------------------------------
     1 basis functions        1 primitive gaussians
     1 alpha electrons        1 beta electrons

 Harmonic frequencies (cm**-1), IR intensities (km*mol⁻¹),
 Raman scattering activities (A**4/amu), Raman depolarization ratios,
 reduced masses (AMU), force constants (mDyne/A) and normal coordinates:
                      1                      2                      3
                        a                      a                      a 
 Frequencies --    -2.7135                -2.5734                -2.2042
 Red. masses --    13.6254                13.1334                15.1029
 Frc consts  --     0.0000                 0.0000                 0.0000
 IR Inten    --    17.3226                21.7603                 0.1590
 Raman Activ --     0.0000                 0.0000                 0.0000
 Depolar     --     0.0000                 0.0000                 0.0000
 Atom AN      X      Y      Z        X      Y      Z        X      Y      Z
   1  28    -0.01   0.03  -0.09    -0.00  -0.07  -0.04     0.00  -0.00   0.12
   2   6    -0.06  -0.08  -0.16     0.01  -0.00   0.03     0.02  -0.02  -0.05
   3   6    -0.05  -0.08  -0.11     0.01   0.00   0.04     0.01  -0.02  -0.05
   4   6    -0.02  -0.06  -0.08     0.00  -0.01   0.02     0.01  -0.01  -0.02
   5   6    -0.00  -0.07  -0.06    -0.00  -0.00   0.02     0.00  -0.01  -0.02
   6   6     0.02  -0.06  -0.10    -0.01  -0.01   0.02    -0.00  -0.02  -0.02
   7   6     0.05  -0.10  -0.17    -0.01   0.00   0.04    -0.01  -0.03  -0.06
   8   6     0.07  -0.09  -0.23    -0.02  -0.00   0.05    -0.01  -0.03  -0.06
   9   6     0.06  -0.05  -0.18    -0.02  -0.01   0.02    -0.00  -0.02  -0.02
  10   7     0.03  -0.04  -0.12    -0.01  -0.02   0.01    -0.00  -0.01  -0.00
  11   6     0.07  -0.01  -0.18    -0.02  -0.02   0.01    -0.00  -0.01   0.01
  12   6     0.06   0.04  -0.07    -0.02  -0.04  -0.02    -0.00   0.00   0.07
  13   6     0.07   0.08   0.00    -0.02  -0.05  -0.05    -0.00   0.01   0.13
  14   6     0.04   0.13   0.14    -0.01  -0.06  -0.09    -0.01   0.03   0.20
  15   6     0.01   0.11   0.13    -0.00  -0.06  -0.08    -0.01   0.02   0.18
  16   7     0.02   0.06   0.01    -0.01  -0.05  -0.05    -0.00   0.01   0.11
  17   6    -0.03   0.14   0.21     0.01  -0.07  -0.11    -0.01   0.03   0.22
  18   6    -0.05   0.11   0.14     0.01  -0.06  -0.08    -0.01   0.02   0.18
  19   6    -0.08   0.13   0.15     0.02  -0.06  -0.09    -0.01   0.02   0.19
  20   6    -0.09   0.08   0.03     0.02  -0.05  -0.06    -0.00   0.01   0.12
  21   6    -0.06   0.03  -0.04     0.01  -0.04  -0.03     0.00  -0.00   0.07
  22   7    -0.04   0.06   0.02     0.01  -0.05  -0.05    -0.00   0.01   0.11
  23   6    -0.07  -0.02  -0.13     0.01  -0.02   0.00     0.01  -0.01   0.01
  24   6    -0.05  -0.04  -0.13     0.01  -0.01   0.02     0.01  -0.02  -0.01
  25   7    -0.03  -0.03  -0.10     0.00  -0.02   0.01     0.01  -0.01   0.01
  26   1    -0.02  -0.03  -0.06     0.00   0.00   0.01     0.01  -0.01  -0.02
  27   1    -0.01  -0.03  -0.03     0.00   0.00   0.01     0.00  -0.01  -0.02
  28   1     0.02  -0.04  -0.05    -0.00   0.00   0.02    -0.00  -0.01  -0.02
  29   1     0.03  -0.03  -0.08    -0.01   0.00   0.02    -0.00  -0.01  -0.03
  30   1     0.03  -0.01  -0.07    -0.01  -0.01   0.01    -0.00  -0.00  -0.00
  31   1     0.03   0.02  -0.01    -0.01  -0.02  -0.01    -0.00   0.00   0.03
  32   1     0.01   0.05   0.06    -0.00  -0.02  -0.03    -0.00   0.01   0.07
  33   1    -0.01   0.05   0.09     0.00  -0.02  -0.04    -0.01   0.01   0.08
  34   1    -0.03   0.05   0.07     0.01  -0.02  -0.04    -0.00   0.01   0.07
  35   1    -0.03   0.02  -0.00     0.01  -0.01  -0.01     0.00   0.00   0.03
  36   1    -0.02  -0.01  -0.05     0.00  -0.01   0.00     0.00  -0.01  -0.00
  37  28     0.01   0.05  -0.07     0.00  -0.05  -0.08    -0.00  -0.00   0.12
  38   6     0.01   0.03  -0.03     0.06   0.09  -0.19    -0.01   0.03  -0.06
  39   6     0.01   0.03  -0.01     0.04   0.08  -0.13    -0.01   0.03  -0.06
  40   6     0.01   0.03  -0.01     0.02   0.05  -0.08    -0.00   0.02  -0.02
  41   6     0.00   0.03  -0.01    -0.00   0.06  -0.06    -0.00   0.02  -0.02
  42   6    -0.00   0.03  -0.02    -0.02   0.05  -0.09     0.00   0.02  -0.03
  43   6    -0.01   0.04  -0.04    -0.05   0.09  -0.14     0.01   0.03  -0.07
  44   6    -0.01   0.04  -0.06    -0.07   0.08  -0.19     0.01   0.04  -0.07
  45   6    -0.01   0.04  -0.06    -0.05   0.04  -0.16     0.01   0.03  -0.03
  46   7    -0.00   0.03  -0.04    -0.03   0.03  -0.10     0.00   0.02  -0.01
  47   6    -0.01   0.04  -0.07    -0.07   0.01  -0.15     0.00   0.02  -0.01
  48   6    -0.01   0.03  -0.06    -0.06  -0.05  -0.05     0.00  -0.00   0.07
  49   6    -0.01   0.02  -0.05    -0.07  -0.10   0.03     0.00  -0.02   0.13
  50   6    -0.01   0.01  -0.02    -0.05  -0.16   0.16     0.00  -0.04   0.21
  51   6    -0.00   0.01  -0.01    -0.02  -0.14   0.15     0.00  -0.04   0.19
  52   7    -0.00   0.02  -0.04    -0.03  -0.08   0.03     0.00  -0.02   0.11
  53   6     0.00   0.00   0.00     0.01  -0.17   0.22     0.01  -0.05   0.24
  54   6     0.01   0.01  -0.00     0.04  -0.13   0.14     0.00  -0.04   0.19
  55   6     0.01   0.00  -0.00     0.06  -0.15   0.15     0.00  -0.04   0.21
  56   6     0.02   0.01  -0.02     0.08  -0.09   0.01    -0.00  -0.02   0.13
  57   6     0.01   0.02  -0.03     0.06  -0.04  -0.06    -0.00  -0.00   0.07
  58   7     0.01   0.02  -0.02     0.04  -0.07   0.02    -0.00  -0.02   0.12
  59   6     0.01   0.03  -0.04     0.06   0.02  -0.16    -0.01   0.02   0.00
  60   6     0.01   0.03  -0.04     0.05   0.05  -0.16    -0.01   0.02  -0.02
  61   7     0.01   0.03  -0.03     0.03   0.03  -0.10    -0.00   0.02  -0.00
  62   1     0.01   0.01  -0.01     0.02   0.03  -0.07    -0.00   0.01  -0.02
  63   1     0.00   0.01  -0.00     0.01   0.03  -0.04    -0.00   0.01  -0.02
  64   1    -0.00   0.01  -0.01    -0.01   0.03  -0.04     0.00   0.01  -0.03
  65   1    -0.00   0.01  -0.02    -0.02   0.03  -0.07     0.00   0.01  -0.03
  66   1    -0.00   0.01  -0.03    -0.03   0.01  -0.06     0.00   0.01  -0.01
  67   1    -0.00   0.01  -0.02    -0.03  -0.03  -0.00     0.00  -0.00   0.03
  68   1    -0.00   0.00  -0.00    -0.01  -0.06   0.07     0.00  -0.02   0.08
  69   1     0.00  -0.00   0.01     0.00  -0.07   0.09     0.00  -0.02   0.09
  70   1     0.00  -0.00   0.00     0.02  -0.06   0.07     0.00  -0.02   0.08
  71   1     0.01   0.00  -0.01     0.03  -0.02  -0.01    -0.00  -0.00   0.03
  72   1     0.01   0.01  -0.01     0.02   0.01  -0.06    -0.00   0.01  -0.01
  73   6    -0.00  -0.08  -0.04    -0.00   0.01   0.03     0.00  -0.01  -0.04
  74   6     0.00  -0.08  -0.01    -0.00   0.01   0.04     0.00  -0.01  -0.06
  75   6     0.00   0.02   0.03    -0.00   0.07  -0.01     0.00   0.02  -0.06
  76   6     0.00   0.03   0.01    -0.00   0.07  -0.04     0.00   0.02  -0.04
  77  28     0.00  -0.07   0.16    -0.00   0.10   0.12     0.00   0.00  -0.22
  78   6     0.04  -0.06   0.07     0.02   0.03   0.08     0.01  -0.00  -0.11
  79   6     0.03  -0.07   0.04     0.02   0.02   0.06     0.00  -0.00  -0.09
  80   6     0.02  -0.06   0.04     0.01   0.03   0.06     0.00  -0.00  -0.09
  81   6     0.00  -0.07   0.02    -0.00   0.02   0.05     0.00  -0.01  -0.07
  82   6    -0.01  -0.06   0.05    -0.01   0.03   0.06    -0.00  -0.00  -0.09
  83   6    -0.03  -0.07   0.05    -0.02   0.02   0.06    -0.00  -0.00  -0.09
  84   6    -0.04  -0.06   0.09    -0.02   0.03   0.08    -0.01  -0.00  -0.11
  85   6    -0.03  -0.05   0.10    -0.02   0.04   0.07    -0.01  -0.00  -0.11
  86   7    -0.02  -0.05   0.08    -0.01   0.04   0.07    -0.00  -0.00  -0.11
  87   6    -0.04  -0.03   0.12    -0.02   0.05   0.07    -0.01   0.00  -0.12
  88   6    -0.03  -0.02   0.10    -0.02   0.05   0.05    -0.01   0.00  -0.11
  89   6    -0.04   0.00   0.10    -0.03   0.06   0.04    -0.01   0.01  -0.11
  90   6    -0.03   0.01   0.08    -0.02   0.07   0.02    -0.00   0.01  -0.09
  91   6    -0.01   0.00   0.06    -0.01   0.06   0.02    -0.00   0.01  -0.08
  92   7    -0.02  -0.02   0.09    -0.01   0.06   0.05    -0.00   0.01  -0.11
  93   6     0.00   0.01   0.05    -0.00   0.07   0.01     0.00   0.01  -0.07
  94   6     0.02  -0.00   0.06     0.01   0.06   0.03     0.00   0.01  -0.09
  95   6     0.03   0.01   0.06     0.02   0.07   0.03     0.00   0.01  -0.09
  96   6     0.04  -0.00   0.09     0.03   0.06   0.05     0.01   0.01  -0.11
  97   6     0.03  -0.02   0.09     0.02   0.05   0.06     0.01   0.00  -0.12
  98   7     0.02  -0.02   0.08     0.01   0.06   0.05     0.00   0.01  -0.11
  99   6     0.04  -0.03   0.10     0.02   0.04   0.08     0.01   0.00  -0.13
 100   6     0.03  -0.05   0.08     0.02   0.04   0.07     0.01   0.00  -0.11
 101   7     0.02  -0.05   0.07     0.01   0.04   0.07     0.00  -0.00  -0.11
 102   1     0.02  -0.02   0.02     0.01   0.01   0.03     0.00  -0.00  -0.03
 103   1     0.01  -0.02   0.01     0.00   0.00   0.02     0.00  -0.00  -0.02
 104   1    -0.01  -0.03   0.01    -0.01   0.00   0.02    -0.00  -0.00  -0.02
 105   1    -0.02  -0.02   0.03    -0.01   0.01   0.02    -0.00  -0.00  -0.03
 106   1    -0.01  -0.01   0.04    -0.01   0.01   0.02    -0.00   0.00  -0.04
 107   1    -0.01   0.00   0.03    -0.01   0.02   0.01    -0.00   0.00  -0.03
 108   1    -0.01   0.01   0.02    -0.01   0.02   0.00    -0.00   0.00  -0.02
 109   1     0.01   0.01   0.02     0.01   0.02   0.00     0.00   0.00  -0.02
 110   1     0.02  -0.00   0.03     0.01   0.02   0.02     0.00   0.00  -0.04
 111   1     0.02  -0.01   0.03     0.01   0.01   0.03     0.00   0.00  -0.04
                      4                      5                      6
                        a                      a                      a 
 Frequencies --     6.6528                 8.4996                12.6998
 Red. masses --    11.2929                13.8946                11.2249
 Frc consts  --     0.0000                 0.0000                 0.0000
 IR Inten    --     2.4723                 4.1947                 5.1322
 Raman Activ --     0.0000                 0.0000                 0.0000
 Depolar     --     0.0000                 0.0000                 0.0000
 Atom AN      X      Y      Z        X      Y      Z        X      Y      Z
   1  28     0.00   0.01  -0.00     0.00   0.10   0.02    -0.00  -0.00   0.00
   2   6    -0.01  -0.06  -0.17    -0.08   0.02   0.11     0.01   0.02   0.05
   3   6    -0.01  -0.05  -0.11    -0.05  -0.01   0.10     0.01   0.01   0.02
   4   6    -0.00  -0.02  -0.06    -0.03  -0.00   0.07     0.00   0.00   0.01
   5   6     0.00  -0.01   0.00     0.00  -0.02   0.06     0.00  -0.00   0.00
   6   6     0.01   0.01   0.05     0.03  -0.00   0.06     0.00  -0.00  -0.01
   7   6     0.01   0.02   0.11     0.05  -0.01   0.09     0.00  -0.00  -0.01
   8   6     0.01   0.03   0.15     0.07   0.01   0.09     0.00  -0.01  -0.04
   9   6     0.01   0.03   0.13     0.06   0.03   0.06     0.00  -0.01  -0.06
  10   7     0.01   0.02   0.07     0.03   0.02   0.05     0.00  -0.01  -0.03
  11   6     0.01   0.04   0.18     0.07   0.05   0.04    -0.00  -0.02  -0.11
  12   6     0.01   0.04   0.15     0.05   0.06  -0.02     0.00  -0.02  -0.12
  13   6     0.01   0.06   0.20     0.07   0.08  -0.07     0.00  -0.04  -0.17
  14   6     0.01   0.06   0.16     0.05   0.08  -0.14     0.00  -0.03  -0.14
  15   6     0.00   0.04   0.08     0.03   0.07  -0.11     0.00  -0.02  -0.07
  16   7     0.01   0.03   0.09     0.03   0.07  -0.05     0.00  -0.02  -0.07
  17   6    -0.00   0.03   0.01     0.01   0.08  -0.14     0.00  -0.01  -0.01
  18   6    -0.00   0.01  -0.07    -0.02   0.08  -0.09    -0.00   0.00   0.06
  19   6    -0.01   0.00  -0.15    -0.04   0.09  -0.09    -0.00   0.02   0.13
  20   6    -0.01  -0.02  -0.21    -0.07   0.09  -0.02    -0.01   0.03   0.17
  21   6    -0.01  -0.02  -0.16    -0.06   0.07   0.02    -0.00   0.02   0.12
  22   7    -0.00  -0.00  -0.09    -0.03   0.07  -0.03    -0.00   0.01   0.06
  23   6    -0.01  -0.04  -0.19    -0.07   0.06   0.08    -0.00   0.03   0.12
  24   6    -0.01  -0.04  -0.14    -0.06   0.04   0.09     0.00   0.02   0.07
  25   7    -0.00  -0.02  -0.08    -0.03   0.03   0.06     0.00   0.01   0.04
  26   1    -0.01  -0.02  -0.06    -0.03   0.01   0.04     0.00   0.01   0.02
  27   1    -0.00  -0.02  -0.03    -0.02  -0.01   0.03     0.00   0.00  -0.00
  28   1     0.00   0.01   0.03     0.02  -0.01   0.03     0.00  -0.00   0.00
  29   1     0.00   0.01   0.06     0.03   0.00   0.03     0.00  -0.00  -0.02
  30   1     0.01   0.02   0.07     0.03   0.02   0.02    -0.00  -0.01  -0.04
  31   1     0.01   0.02   0.08     0.03   0.02  -0.02     0.00  -0.01  -0.06
  32   1     0.00   0.02   0.05     0.02   0.03  -0.06     0.00  -0.01  -0.05
  33   1    -0.00   0.01   0.00     0.00   0.03  -0.06     0.00  -0.00  -0.00
  34   1    -0.00   0.00  -0.05    -0.01   0.03  -0.04    -0.00   0.01   0.04
  35   1    -0.00  -0.01  -0.08    -0.03   0.03   0.00    -0.00   0.01   0.07
  36   1    -0.00  -0.02  -0.07    -0.03   0.02   0.03    -0.00   0.01   0.05
  37  28    -0.00   0.02  -0.00    -0.00   0.10  -0.02    -0.00  -0.00   0.00
  38   6    -0.01   0.06  -0.17    -0.09   0.01  -0.08     0.00   0.01  -0.03
  39   6    -0.01   0.04  -0.11    -0.06  -0.02  -0.08     0.00   0.00  -0.00
  40   6    -0.00   0.02  -0.06    -0.03  -0.01  -0.06     0.00  -0.00  -0.00
  41   6    -0.00  -0.00  -0.00    -0.00  -0.03  -0.06     0.00  -0.00  -0.00
  42   6     0.00  -0.02   0.05     0.03  -0.01  -0.07     0.00  -0.00   0.00
  43   6     0.01  -0.04   0.10     0.06  -0.01  -0.10     0.00  -0.00   0.01
  44   6     0.01  -0.05   0.15     0.08   0.02  -0.12     0.00  -0.01   0.04
  45   6     0.01  -0.04   0.13     0.07   0.04  -0.09     0.00  -0.02   0.06
  46   7     0.00  -0.02   0.07     0.04   0.03  -0.06     0.00  -0.01   0.03
  47   6     0.01  -0.05   0.18     0.08   0.07  -0.08    -0.00  -0.03   0.11
  48   6     0.01  -0.04   0.16     0.06   0.08  -0.02    -0.00  -0.03   0.11
  49   6     0.01  -0.05   0.21     0.08   0.09   0.03    -0.00  -0.05   0.16
  50   6     0.01  -0.04   0.17     0.06   0.10   0.10     0.00  -0.04   0.13
  51   6     0.00  -0.01   0.09     0.03   0.08   0.10     0.00  -0.02   0.06
  52   7     0.00  -0.02   0.09     0.04   0.07   0.03    -0.00  -0.02   0.06
  53   6    -0.00   0.01   0.01     0.00   0.08   0.14    -0.00  -0.00  -0.00
  54   6    -0.00   0.03  -0.07    -0.03   0.08   0.11    -0.00   0.02  -0.07
  55   6    -0.01   0.05  -0.15    -0.06   0.09   0.13    -0.00   0.04  -0.13
  56   6    -0.01   0.07  -0.21    -0.08   0.08   0.06    -0.00   0.05  -0.16
  57   6    -0.01   0.06  -0.16    -0.07   0.07   0.01    -0.00   0.03  -0.11
  58   7    -0.01   0.04  -0.09    -0.04   0.07   0.04    -0.00   0.02  -0.06
  59   6    -0.01   0.07  -0.19    -0.09   0.06  -0.04    -0.00   0.03  -0.10
  60   6    -0.01   0.06  -0.15    -0.07   0.03  -0.06     0.00   0.01  -0.05
  61   7    -0.00   0.03  -0.08    -0.04   0.02  -0.05     0.00   0.01  -0.03
  62   1    -0.00   0.02  -0.06    -0.03   0.00  -0.03     0.00   0.00  -0.01
  63   1    -0.00   0.01  -0.03    -0.02  -0.01  -0.02     0.00  -0.00   0.01
  64   1     0.00  -0.01   0.03     0.02  -0.01  -0.03     0.00   0.00  -0.00
  65   1     0.00  -0.02   0.06     0.03   0.01  -0.04     0.00  -0.01   0.02
  66   1     0.00  -0.02   0.07     0.03   0.02  -0.03    -0.00  -0.01   0.04
  67   1     0.00  -0.02   0.08     0.03   0.03   0.00    -0.00  -0.02   0.06
  68   1     0.00  -0.01   0.05     0.02   0.03   0.04     0.00  -0.01   0.04
  69   1    -0.00   0.00   0.01     0.00   0.03   0.06    -0.00  -0.00  -0.00
  70   1    -0.00   0.02  -0.04    -0.02   0.03   0.05    -0.00   0.01  -0.05
  71   1    -0.00   0.03  -0.08    -0.03   0.03   0.02    -0.00   0.02  -0.06
  72   1    -0.00   0.03  -0.07    -0.03   0.02  -0.02    -0.00   0.01  -0.04
  73   6     0.00  -0.01   0.00     0.00  -0.04   0.07     0.00   0.00   0.00
  74   6     0.00  -0.02   0.00     0.00  -0.06   0.08     0.00   0.00   0.00
  75   6    -0.00  -0.01  -0.00     0.00  -0.08  -0.08     0.00   0.00  -0.00
  76   6    -0.00  -0.00  -0.00    -0.00  -0.06  -0.07     0.00  -0.00  -0.00
  77  28    -0.00  -0.03   0.01    -0.00  -0.18  -0.00    -0.00   0.01  -0.00
  78   6     0.01  -0.01  -0.04    -0.01  -0.08   0.07    -0.00   0.02  -0.21
  79   6     0.01  -0.01  -0.04    -0.01  -0.08   0.09    -0.00   0.02  -0.14
  80   6     0.00  -0.01  -0.01    -0.01  -0.08   0.06    -0.00   0.01  -0.07
  81   6     0.00  -0.01   0.01     0.00  -0.07   0.07     0.00   0.00   0.00
  82   6     0.00  -0.02   0.03     0.01  -0.08   0.06    -0.00  -0.00   0.07
  83   6     0.00  -0.02   0.05     0.01  -0.08   0.08    -0.00  -0.01   0.15
  84   6     0.00  -0.02   0.05     0.01  -0.08   0.06    -0.00  -0.01   0.22
  85   6     0.00  -0.02   0.03     0.01  -0.08   0.03    -0.00  -0.00   0.18
  86   7     0.00  -0.02   0.02     0.00  -0.08   0.03    -0.00   0.00   0.10
  87   6    -0.00  -0.01   0.01     0.00  -0.08  -0.00     0.00   0.01   0.22
  88   6    -0.00  -0.01  -0.01    -0.00  -0.08  -0.03    -0.00   0.01   0.17
  89   6    -0.01  -0.01  -0.03    -0.00  -0.09  -0.07    -0.00   0.02   0.21
  90   6    -0.01  -0.01  -0.04    -0.00  -0.09  -0.08    -0.00   0.02   0.14
  91   6    -0.00  -0.01  -0.02    -0.00  -0.08  -0.06    -0.00   0.01   0.07
  92   7    -0.00  -0.01  -0.01    -0.00  -0.09  -0.04    -0.00   0.01   0.09
  93   6    -0.00  -0.01  -0.00    -0.00  -0.08  -0.07     0.00   0.00  -0.01
  94   6    -0.00  -0.01   0.01     0.00  -0.08  -0.06    -0.00  -0.01  -0.08
  95   6    -0.00  -0.01   0.03     0.00  -0.09  -0.09    -0.00  -0.02  -0.16
  96   6    -0.00  -0.01   0.03     0.00  -0.09  -0.07    -0.00  -0.02  -0.22
  97   6     0.00  -0.01   0.01    -0.00  -0.08  -0.03    -0.00  -0.01  -0.18
  98   7     0.00  -0.01   0.01     0.00  -0.09  -0.04    -0.00  -0.00  -0.10
  99   6     0.00  -0.01  -0.00    -0.01  -0.08   0.00    -0.00   0.00  -0.22
 100   6     0.00  -0.01  -0.02    -0.01  -0.08   0.03    -0.00   0.01  -0.18
 101   7     0.00  -0.01  -0.01    -0.00  -0.08   0.04    -0.00   0.01  -0.10
 102   1     0.00  -0.00  -0.01    -0.01  -0.02   0.02    -0.00   0.01  -0.08
 103   1     0.00  -0.00  -0.01    -0.00  -0.02   0.03    -0.00   0.01  -0.04
 104   1     0.00  -0.01   0.02     0.00  -0.02   0.03    -0.00  -0.01   0.04
 105   1     0.00  -0.01   0.02     0.00  -0.02   0.02    -0.00  -0.01   0.08
 106   1    -0.00  -0.00   0.00     0.00  -0.02  -0.00     0.00   0.00   0.08
 107   1    -0.00  -0.00  -0.01    -0.00  -0.02  -0.02    -0.00   0.01   0.08
 108   1    -0.00  -0.00  -0.02    -0.00  -0.03  -0.03    -0.00   0.01   0.04
 109   1    -0.00  -0.00   0.01     0.00  -0.03  -0.03    -0.00  -0.01  -0.05
 110   1     0.00  -0.00   0.01     0.00  -0.02  -0.02    -0.00  -0.01  -0.08
 111   1     0.00  -0.00  -0.00    -0.00  -0.02   0.00    -0.00   0.00  -0.09
                      7                      8                      9
                        a                      a                      a 
 Frequencies --    20.4736                21.3310                26.7035
 Red. masses --    12.0301                12.1142                11.0067
 Frc consts  --     0.0000                 0.0000                 0.0000
 IR Inten    --    19.0981                67.2221                 2.1264
 Raman Activ --     0.0000                 0.0000                 0.0000
 Depolar     --     0.0000                 0.0000                 0.0000
 Atom AN      X      Y      Z        X      Y      Z        X      Y      Z
   1  28     0.00   0.03  -0.03    -0.00   0.03   0.05     0.00   0.00  -0.01
   2   6     0.08   0.07  -0.04    -0.05  -0.01   0.06     0.03  -0.03  -0.16
   3   6     0.06   0.09  -0.06    -0.03  -0.05  -0.04     0.03  -0.04  -0.20
   4   6     0.03   0.07  -0.05    -0.02  -0.05  -0.05     0.01  -0.02  -0.12
   5   6    -0.00   0.09  -0.07    -0.00  -0.06  -0.08     0.01   0.00  -0.07
   6   6    -0.03   0.07  -0.06     0.01  -0.04  -0.02     0.00   0.02   0.02
   7   6    -0.06   0.09  -0.06     0.03  -0.03   0.02    -0.00   0.05   0.11
   8   6    -0.08   0.07  -0.05     0.04   0.00   0.12    -0.01   0.05   0.15
   9   6    -0.06   0.04  -0.03     0.04   0.02   0.13    -0.01   0.03   0.08
  10   7    -0.03   0.05  -0.04     0.02  -0.00   0.04    -0.00   0.02   0.02
  11   6    -0.08   0.01  -0.01     0.04   0.04   0.17    -0.01   0.01   0.04
  12   6    -0.06  -0.01   0.01     0.03   0.04   0.09    -0.01  -0.01  -0.04
  13   6    -0.08  -0.04   0.04     0.04   0.05   0.04    -0.01  -0.03  -0.11
  14   6    -0.06  -0.06   0.06     0.04   0.04  -0.09    -0.00  -0.04  -0.14
  15   6    -0.03  -0.04   0.04     0.02   0.03  -0.10    -0.00  -0.02  -0.07
  16   7    -0.03  -0.02   0.02     0.02   0.03   0.00    -0.00  -0.01  -0.03
  17   6    -0.00  -0.06   0.05     0.01   0.03  -0.15     0.00  -0.02  -0.01
  18   6     0.03  -0.04   0.04    -0.01   0.04  -0.07     0.00   0.00   0.07
  19   6     0.06  -0.06   0.04    -0.03   0.05  -0.03    -0.00   0.02   0.16
  20   6     0.08  -0.04   0.03    -0.05   0.07   0.09    -0.00   0.03   0.19
  21   6     0.07  -0.01   0.01    -0.04   0.06   0.11     0.00   0.02   0.11
  22   7     0.04  -0.02   0.01    -0.02   0.04   0.02     0.00   0.01   0.05
  23   6     0.08   0.02  -0.01    -0.06   0.06   0.17     0.01   0.01   0.04
  24   6     0.07   0.04  -0.03    -0.04   0.02   0.10     0.02  -0.01  -0.06
  25   7     0.04   0.05  -0.04    -0.02  -0.01   0.03     0.01  -0.01  -0.05
  26   1     0.03   0.02  -0.01    -0.02   0.00   0.03     0.01  -0.01  -0.05
  27   1     0.02   0.03  -0.02    -0.01  -0.02  -0.03     0.01  -0.02  -0.08
  28   1    -0.02   0.03  -0.02     0.01  -0.02  -0.01    -0.00   0.02   0.04
  29   1    -0.03   0.02  -0.01     0.02   0.00   0.05    -0.00   0.02   0.06
  30   1    -0.03   0.00  -0.00     0.02   0.02   0.07    -0.01   0.00   0.02
  31   1    -0.03  -0.01   0.01     0.02   0.02   0.02    -0.00  -0.01  -0.04
  32   1    -0.02  -0.02   0.02     0.01   0.01  -0.05    -0.00  -0.01  -0.05
  33   1    -0.00  -0.02   0.02     0.01   0.01  -0.07     0.00  -0.01  -0.01
  34   1     0.02  -0.02   0.02    -0.01   0.02  -0.03    -0.00   0.01   0.06
  35   1     0.03  -0.01   0.01    -0.02   0.02   0.05    -0.00   0.01   0.07
  36   1     0.03   0.00  -0.00    -0.02   0.02   0.07     0.01   0.01   0.02
  37  28    -0.00   0.01  -0.06     0.00   0.05   0.00    -0.00  -0.01  -0.01
  38   6    -0.07  -0.02  -0.08     0.06   0.07   0.01    -0.03   0.05  -0.18
  39   6    -0.04  -0.08   0.02     0.05   0.07   0.08    -0.02   0.05  -0.21
  40   6    -0.02  -0.07   0.04     0.02   0.05   0.09    -0.01   0.02  -0.13
  41   6    -0.00  -0.10   0.07    -0.00   0.05   0.13    -0.01  -0.00  -0.06
  42   6     0.02  -0.07   0.02    -0.02   0.05   0.09     0.00  -0.04   0.03
  43   6     0.04  -0.07  -0.01    -0.05   0.06   0.08     0.01  -0.07   0.13
  44   6     0.07  -0.02  -0.11    -0.06   0.07   0.00     0.01  -0.08   0.17
  45   6     0.05   0.01  -0.12    -0.05   0.06  -0.03     0.01  -0.04   0.09
  46   7     0.03  -0.02  -0.04    -0.03   0.05   0.02     0.00  -0.03   0.03
  47   6     0.07   0.05  -0.17    -0.06   0.05  -0.09     0.02  -0.02   0.04
  48   6     0.05   0.05  -0.09    -0.05   0.02  -0.07     0.01   0.01  -0.04
  49   6     0.07   0.06  -0.05    -0.06  -0.00  -0.08     0.02   0.04  -0.12
  50   6     0.05   0.05   0.08    -0.04  -0.03  -0.03     0.01   0.06  -0.15
  51   6     0.03   0.03   0.09    -0.02  -0.03   0.00     0.00   0.03  -0.08
  52   7     0.03   0.03  -0.01    -0.03   0.00  -0.03     0.01   0.01  -0.03
  53   6     0.01   0.03   0.15     0.00  -0.05   0.03    -0.00   0.02  -0.01
  54   6    -0.02   0.03   0.08     0.03  -0.03   0.01    -0.01  -0.01   0.08
  55   6    -0.04   0.06   0.05     0.05  -0.04  -0.02    -0.01  -0.04   0.18
  56   6    -0.07   0.08  -0.08     0.06  -0.00  -0.07    -0.01  -0.05   0.20
  57   6    -0.06   0.06  -0.10     0.05   0.02  -0.06    -0.01  -0.03   0.11
  58   7    -0.03   0.04  -0.02     0.03   0.00  -0.02    -0.01  -0.01   0.05
  59   6    -0.07   0.06  -0.17     0.06   0.05  -0.08    -0.02  -0.01   0.03
  60   6    -0.06   0.01  -0.11     0.05   0.06  -0.03    -0.02   0.02  -0.07
  61   7    -0.03  -0.02  -0.04     0.03   0.05   0.03    -0.01   0.01  -0.06
  62   1    -0.03  -0.00  -0.04     0.02   0.03  -0.01    -0.01   0.02  -0.06
  63   1    -0.01  -0.03   0.02     0.01   0.02   0.04    -0.01   0.02  -0.08
  64   1     0.01  -0.03   0.01    -0.02   0.02   0.04     0.00  -0.03   0.05
  65   1     0.03   0.00  -0.05    -0.02   0.02  -0.01     0.00  -0.03   0.07
  66   1     0.03   0.02  -0.07    -0.02   0.02  -0.04     0.01  -0.01   0.02
  67   1     0.02   0.02  -0.03    -0.02   0.00  -0.03     0.01   0.02  -0.05
  68   1     0.01   0.01   0.04    -0.01  -0.02  -0.00     0.00   0.02  -0.06
  69   1     0.00   0.01   0.07     0.00  -0.02   0.01    -0.00   0.01  -0.01
  70   1    -0.01   0.02   0.03     0.01  -0.02  -0.00    -0.00  -0.01   0.06
  71   1    -0.03   0.03  -0.04     0.02   0.00  -0.03    -0.00  -0.02   0.08
  72   1    -0.03   0.02  -0.07     0.02   0.02  -0.03    -0.01  -0.01   0.01
  73   6    -0.00   0.10  -0.09    -0.00  -0.09  -0.13     0.01   0.00  -0.09
  74   6    -0.00   0.09  -0.10    -0.00  -0.10  -0.13     0.01   0.00  -0.09
  75   6    -0.00  -0.13   0.12    -0.00   0.03   0.18    -0.01  -0.00  -0.08
  76   6    -0.00  -0.13   0.11    -0.00   0.05   0.17    -0.01  -0.00  -0.08
  77  28    -0.00  -0.05   0.09    -0.00  -0.08  -0.06     0.00   0.01   0.02
  78   6    -0.07   0.04  -0.04     0.06  -0.07  -0.15     0.02   0.01  -0.11
  79   6    -0.05   0.07  -0.08     0.04  -0.08  -0.15     0.02   0.01  -0.17
  80   6    -0.03   0.05  -0.06     0.02  -0.08  -0.12     0.01   0.01  -0.10
  81   6    -0.00   0.07  -0.08    -0.00  -0.09  -0.12     0.01   0.00  -0.06
  82   6     0.02   0.05  -0.06    -0.02  -0.08  -0.11     0.01  -0.01   0.04
  83   6     0.05   0.07  -0.09    -0.04  -0.08  -0.14     0.01  -0.01   0.13
  84   6     0.07   0.04  -0.05    -0.06  -0.07  -0.14     0.01  -0.01   0.19
  85   6     0.06   0.01   0.01    -0.04  -0.05  -0.10     0.01  -0.00   0.12
  86   7     0.03   0.02  -0.01    -0.02  -0.06  -0.09     0.01  -0.00   0.05
  87   6     0.09  -0.02   0.06    -0.05  -0.04  -0.07     0.00  -0.00   0.09
  88   6     0.07  -0.05   0.09    -0.03  -0.02   0.00    -0.01  -0.00  -0.01
  89   6     0.09  -0.08   0.12    -0.03  -0.00   0.06    -0.02  -0.01  -0.09
  90   6     0.07  -0.11   0.12    -0.02   0.01   0.13    -0.02  -0.01  -0.15
  91   6     0.03  -0.09   0.10    -0.01   0.00   0.11    -0.01  -0.01  -0.09
  92   7     0.04  -0.06   0.09    -0.02  -0.02   0.04    -0.01  -0.00  -0.02
  93   6    -0.00  -0.11   0.11    -0.00   0.01   0.15    -0.01   0.00  -0.05
  94   6    -0.03  -0.09   0.09     0.01   0.01   0.11    -0.01   0.01   0.04
  95   6    -0.07  -0.11   0.11     0.02   0.01   0.14    -0.01   0.02   0.13
  96   6    -0.09  -0.08   0.10     0.03  -0.00   0.08    -0.01   0.02   0.19
  97   6    -0.07  -0.05   0.08     0.03  -0.02   0.01    -0.01   0.01   0.12
  98   7    -0.04  -0.06   0.08     0.02  -0.02   0.04    -0.00   0.01   0.05
  99   6    -0.09  -0.02   0.05     0.05  -0.03  -0.06    -0.00   0.01   0.08
 100   6    -0.06   0.01   0.01     0.04  -0.05  -0.10     0.01   0.01  -0.02
 101   7    -0.03   0.02  -0.01     0.02  -0.06  -0.10     0.01   0.01  -0.03
 102   1    -0.03   0.01  -0.01     0.02  -0.02  -0.05     0.01   0.00  -0.04
 103   1    -0.01   0.03  -0.04     0.01  -0.03  -0.05     0.01   0.00  -0.07
 104   1     0.01   0.03  -0.04    -0.01  -0.03  -0.05     0.00  -0.01   0.04
 105   1     0.03   0.01  -0.01    -0.02  -0.02  -0.04     0.00  -0.01   0.08
 106   1     0.03  -0.01   0.02    -0.02  -0.01  -0.02     0.00   0.00   0.04
 107   1     0.04  -0.02   0.04    -0.01  -0.00   0.02    -0.01  -0.00  -0.03
 108   1     0.02  -0.04   0.04    -0.00   0.01   0.06    -0.01  -0.00  -0.07
 109   1    -0.02  -0.04   0.03     0.00   0.01   0.06    -0.00   0.01   0.04
 110   1    -0.03  -0.02   0.03     0.01   0.00   0.02    -0.00   0.01   0.07
 111   1    -0.03  -0.01   0.02     0.02  -0.01  -0.02    -0.00   0.00   0.03
                     10                     11                     12
                        a                      a                      a 
 Frequencies --    27.7640                32.2230                40.0506
 Red. masses --    11.2282                11.0513                12.3877
 Frc consts  --     0.0000                 0.0000                 0.0000
 IR Inten    --    14.3957                21.8057                 0.0854
 Raman Activ --     0.0000                 0.0000                 0.0000
 Depolar     --     0.0000                 0.0000                 0.0000
 Atom AN      X      Y      Z        X      Y      Z        X      Y      Z
   1  28     0.00  -0.02  -0.00    -0.02  -0.01  -0.01     0.12   0.00   0.01
   2   6    -0.02  -0.06  -0.07     0.01  -0.09  -0.24     0.05   0.04   0.13
   3   6    -0.01  -0.03   0.05     0.01  -0.08  -0.21     0.04   0.04   0.10
   4   6    -0.00  -0.01   0.10     0.00  -0.04  -0.09     0.04   0.02   0.05
   5   6     0.01   0.01   0.18     0.00  -0.00   0.02     0.03   0.00  -0.00
   6   6     0.01   0.01   0.14     0.00   0.03   0.11     0.04  -0.01  -0.05
   7   6     0.03   0.00   0.14     0.01   0.06   0.22     0.05  -0.03  -0.11
   8   6     0.03  -0.02   0.01     0.00   0.05   0.22     0.05  -0.03  -0.13
   9   6     0.02  -0.03  -0.05    -0.00   0.02   0.11     0.05  -0.01  -0.07
  10   7     0.01  -0.01   0.03    -0.00   0.01   0.06     0.05  -0.00  -0.04
  11   6     0.02  -0.04  -0.16    -0.00  -0.00   0.01     0.05  -0.00  -0.03
  12   6     0.02  -0.02  -0.14    -0.01  -0.02  -0.09     0.05   0.01   0.02
  13   6     0.03  -0.02  -0.16    -0.00  -0.03  -0.19     0.05   0.01   0.07
  14   6     0.01   0.01  -0.05    -0.00  -0.03  -0.17     0.05   0.01   0.08
  15   6     0.00   0.01   0.02    -0.01  -0.01  -0.07     0.05   0.01   0.03
  16   7     0.01  -0.01  -0.04    -0.01  -0.01  -0.04     0.06   0.01   0.01
  17   6    -0.01   0.03   0.10    -0.01   0.01   0.03     0.06  -0.00  -0.01
  18   6    -0.02   0.02   0.07    -0.02   0.02   0.10     0.06  -0.01  -0.04
  19   6    -0.03   0.02   0.05    -0.03   0.04   0.20     0.07  -0.02  -0.09
  20   6    -0.02  -0.01  -0.05    -0.03   0.03   0.16     0.06  -0.02  -0.07
  21   6    -0.01  -0.03  -0.08    -0.02   0.01   0.05     0.06  -0.01  -0.02
  22   7    -0.01  -0.01  -0.01    -0.02   0.01   0.04     0.06  -0.00  -0.01
  23   6    -0.01  -0.05  -0.14    -0.01  -0.02  -0.06     0.05   0.01   0.04
  24   6    -0.01  -0.05  -0.08     0.00  -0.05  -0.14     0.05   0.02   0.08
  25   7    -0.00  -0.02   0.01    -0.00  -0.03  -0.07     0.05   0.01   0.04
  26   1    -0.01  -0.02  -0.04     0.00  -0.03  -0.09     0.01   0.02   0.05
  27   1    -0.01  -0.01   0.03     0.00  -0.03  -0.07     0.01   0.01   0.03
  28   1     0.01   0.00   0.07     0.00   0.02   0.08     0.01  -0.01  -0.04
  29   1     0.01  -0.01  -0.01     0.00   0.02   0.08     0.02  -0.01  -0.05
  30   1     0.01  -0.01  -0.07    -0.00   0.00   0.00     0.01  -0.00  -0.01
  31   1     0.01  -0.01  -0.07     0.00  -0.01  -0.07     0.01   0.00   0.03
  32   1     0.00   0.00  -0.01     0.00  -0.01  -0.07     0.01   0.00   0.03
  33   1    -0.00   0.01   0.04    -0.00   0.00   0.01     0.02  -0.00  -0.00
  34   1    -0.01   0.01   0.03    -0.01   0.02   0.08     0.02  -0.01  -0.04
  35   1    -0.01  -0.01  -0.03    -0.01   0.01   0.06     0.02  -0.01  -0.03
  36   1    -0.00  -0.02  -0.06    -0.00  -0.01  -0.03     0.01   0.00   0.02
  37  28    -0.00   0.01   0.01    -0.01  -0.01   0.00    -0.11   0.00   0.00
  38   6     0.03   0.07  -0.08     0.00  -0.08   0.21    -0.04  -0.04   0.12
  39   6     0.02   0.04   0.01     0.00  -0.08   0.19    -0.04  -0.04   0.11
  40   6     0.01   0.02   0.07     0.00  -0.04   0.09    -0.04  -0.01   0.05
  41   6    -0.00  -0.01   0.15     0.00  -0.00  -0.00    -0.04   0.00   0.01
  42   6    -0.02  -0.01   0.14     0.00   0.03  -0.09    -0.04   0.02  -0.05
  43   6    -0.03  -0.02   0.17     0.01   0.06  -0.19    -0.05   0.04  -0.10
  44   6    -0.03   0.01   0.08     0.01   0.07  -0.21    -0.05   0.05  -0.12
  45   6    -0.03   0.02   0.00     0.00   0.03  -0.11    -0.05   0.02  -0.07
  46   7    -0.02   0.01   0.05     0.00   0.02  -0.06    -0.05   0.01  -0.04
  47   6    -0.03   0.04  -0.10    -0.00   0.01  -0.03    -0.05   0.01  -0.04
  48   6    -0.02   0.03  -0.12    -0.00  -0.02   0.06    -0.06  -0.01   0.02
  49   6    -0.03   0.03  -0.16    -0.00  -0.04   0.15    -0.06  -0.02   0.07
  50   6    -0.02   0.00  -0.09    -0.00  -0.04   0.16    -0.06  -0.02   0.08
  51   6    -0.01  -0.01  -0.02    -0.00  -0.02   0.07    -0.06  -0.01   0.03
  52   7    -0.01   0.01  -0.04    -0.00  -0.01   0.03    -0.06  -0.01   0.01
  53   6     0.00  -0.04   0.06    -0.01   0.00  -0.01    -0.06  -0.00  -0.00
  54   6     0.01  -0.03   0.06    -0.01   0.02  -0.08    -0.06   0.01  -0.04
  55   6     0.03  -0.04   0.06    -0.02   0.05  -0.16    -0.05   0.02  -0.09
  56   6     0.03  -0.01  -0.01    -0.02   0.05  -0.15    -0.05   0.02  -0.07
  57   6     0.02   0.02  -0.05    -0.01   0.02  -0.05    -0.05   0.01  -0.02
  58   7     0.01  -0.00  -0.00    -0.01   0.01  -0.03    -0.06   0.01  -0.01
  59   6     0.02   0.05  -0.11    -0.01  -0.02   0.04    -0.05  -0.01   0.04
  60   6     0.02   0.05  -0.08    -0.00  -0.05   0.12    -0.04  -0.02   0.08
  61   7     0.01   0.02   0.01     0.00  -0.03   0.06    -0.05  -0.01   0.04
  62   1     0.01   0.03  -0.04     0.00  -0.03   0.08    -0.01  -0.02   0.05
  63   1     0.01   0.01   0.01     0.00  -0.03   0.07    -0.01  -0.01   0.03
  64   1    -0.01  -0.01   0.07     0.00   0.02  -0.07    -0.01   0.02  -0.03
  65   1    -0.01   0.00   0.02     0.00   0.03  -0.08    -0.02   0.02  -0.05
  66   1    -0.01   0.02  -0.04     0.00   0.00  -0.01    -0.02   0.00  -0.02
  67   1    -0.01   0.01  -0.07     0.00  -0.02   0.06    -0.02  -0.01   0.02
  68   1    -0.01  -0.00  -0.03    -0.00  -0.02   0.06    -0.02  -0.01   0.03
  69   1     0.00  -0.02   0.03    -0.00   0.00  -0.00    -0.02  -0.00  -0.00
  70   1     0.01  -0.02   0.03    -0.01   0.02  -0.06    -0.02   0.01  -0.03
  71   1     0.01  -0.00  -0.01    -0.01   0.02  -0.06    -0.01   0.01  -0.03
  72   1     0.01   0.02  -0.05    -0.00  -0.01   0.02    -0.01  -0.00   0.02
  73   6     0.01   0.02   0.23     0.01   0.00   0.02     0.03  -0.00  -0.00
  74   6     0.01   0.03   0.22     0.01   0.01   0.02     0.03  -0.00   0.00
  75   6    -0.01  -0.03   0.18     0.01   0.00  -0.00    -0.03   0.00   0.01
  76   6    -0.01  -0.02   0.19     0.00  -0.00  -0.00    -0.03   0.01   0.01
  77  28    -0.00   0.00  -0.03     0.02   0.02   0.00    -0.00  -0.01  -0.01
  78   6    -0.03   0.04  -0.13     0.01   0.01   0.05     0.02   0.01  -0.23
  79   6    -0.03   0.04   0.01     0.01   0.01   0.03     0.02   0.02  -0.22
  80   6    -0.01   0.03   0.07     0.01   0.01   0.02     0.02   0.01  -0.10
  81   6     0.00   0.03   0.16     0.01   0.01   0.02     0.03  -0.00   0.00
  82   6     0.02   0.02   0.12     0.01   0.01   0.00     0.02  -0.01   0.10
  83   6     0.04   0.03   0.12     0.02   0.02  -0.01     0.03  -0.03   0.23
  84   6     0.04   0.03  -0.02     0.02   0.01  -0.05     0.02  -0.02   0.23
  85   6     0.02   0.01  -0.08     0.01   0.01  -0.06     0.01  -0.00   0.10
  86   7     0.02   0.01   0.01     0.01   0.01  -0.03     0.02  -0.00   0.06
  87   6     0.02  -0.00  -0.18     0.01   0.00  -0.09    -0.00   0.00  -0.01
  88   6     0.02  -0.02  -0.14     0.01   0.00  -0.07    -0.02  -0.00  -0.11
  89   6     0.02  -0.04  -0.16     0.01  -0.01  -0.09    -0.02  -0.02  -0.23
  90   6     0.02  -0.04  -0.03     0.01  -0.00  -0.05    -0.03  -0.03  -0.22
  91   6     0.01  -0.02   0.04     0.01   0.00  -0.02    -0.02  -0.01  -0.10
  92   7     0.01  -0.01  -0.03     0.01   0.00  -0.04    -0.02  -0.00  -0.06
  93   6    -0.00  -0.02   0.12     0.01   0.00  -0.00    -0.03   0.00   0.00
  94   6    -0.02  -0.02   0.08     0.01   0.01   0.02    -0.02   0.01   0.11
  95   6    -0.04  -0.03   0.07     0.01   0.01   0.05    -0.03   0.02   0.23
  96   6    -0.04  -0.03  -0.07     0.00   0.01   0.07    -0.02   0.02   0.23
  97   6    -0.02  -0.01  -0.11     0.00   0.01   0.06    -0.01  -0.00   0.11
  98   7    -0.02  -0.01  -0.02     0.01   0.01   0.04    -0.02  -0.00   0.06
  99   6    -0.02   0.00  -0.20     0.00   0.01   0.08     0.00  -0.01  -0.01
 100   6    -0.02   0.02  -0.14     0.01   0.01   0.05     0.01  -0.00  -0.11
 101   7    -0.01   0.02  -0.02     0.01   0.01   0.03     0.02  -0.00  -0.06
 102   1    -0.01   0.01  -0.06     0.00   0.00   0.02     0.01   0.01  -0.09
 103   1    -0.01   0.02   0.02     0.00   0.00   0.00     0.01   0.01  -0.08
 104   1     0.01   0.01   0.06     0.01   0.01   0.00     0.01  -0.01   0.08
 105   1     0.01   0.01  -0.02     0.01   0.00  -0.02     0.01  -0.01   0.09
 106   1     0.01  -0.00  -0.08     0.00   0.00  -0.03    -0.00   0.00  -0.00
 107   1     0.01  -0.01  -0.07     0.00  -0.00  -0.03    -0.01  -0.01  -0.09
 108   1     0.01  -0.02   0.00     0.00  -0.00  -0.01    -0.01  -0.01  -0.08
 109   1    -0.01  -0.01   0.04     0.00   0.00   0.01    -0.01   0.01   0.08
 110   1    -0.01  -0.01  -0.04     0.00   0.00   0.03    -0.01   0.01   0.09
 111   1    -0.01   0.00  -0.08     0.00   0.00   0.03     0.00  -0.00  -0.00
                     13                     14                     15
                        a                      a                      a 
 Frequencies --    51.0194                58.4858                61.7726
 Red. masses --    14.8097                17.8604                12.7240
 Frc consts  --     0.0000                 0.0000                 0.0000
 IR Inten    --     4.5105                 0.1848                23.9947
 Raman Activ --     0.0000                 0.0000                 0.0000
 Depolar     --     0.0000                 0.0000                 0.0000
 Atom AN      X      Y      Z        X      Y      Z        X      Y      Z
   1  28     0.00   0.10  -0.04    -0.25  -0.00  -0.01     0.02  -0.05  -0.11
   2   6     0.10   0.11  -0.04    -0.12   0.03   0.06     0.01  -0.01  -0.04
   3   6     0.07   0.15  -0.04    -0.11   0.01   0.03     0.01  -0.04  -0.14
   4   6     0.03   0.12  -0.03    -0.09   0.01   0.01     0.01  -0.04  -0.15
   5   6    -0.00   0.14  -0.03    -0.08   0.00  -0.01     0.00  -0.05  -0.17
   6   6    -0.03   0.13  -0.02    -0.09  -0.01  -0.02     0.00  -0.04  -0.14
   7   6    -0.06   0.15   0.00    -0.11  -0.01  -0.04     0.00  -0.04  -0.13
   8   6    -0.09   0.12  -0.00    -0.12  -0.02  -0.04     0.00  -0.01  -0.03
   9   6    -0.08   0.08  -0.02    -0.11  -0.02  -0.03     0.01  -0.01   0.01
  10   7    -0.04   0.09  -0.02    -0.10  -0.02  -0.02     0.01  -0.03  -0.07
  11   6    -0.10   0.04  -0.03    -0.11  -0.02  -0.00     0.01   0.01   0.13
  12   6    -0.08   0.01  -0.02    -0.12  -0.01   0.02     0.01   0.01   0.11
  13   6    -0.10  -0.03  -0.01    -0.12   0.00   0.05     0.01   0.01   0.15
  14   6    -0.07  -0.05   0.02    -0.12   0.00   0.04     0.01  -0.00   0.03
  15   6    -0.03  -0.03   0.03    -0.13  -0.00   0.01     0.01  -0.02  -0.05
  16   7    -0.04   0.00  -0.00    -0.14  -0.01   0.00     0.01  -0.01  -0.00
  17   6    -0.00  -0.05   0.05    -0.13  -0.01  -0.02     0.02  -0.03  -0.11
  18   6     0.03  -0.03   0.04    -0.12  -0.01  -0.03     0.01  -0.02  -0.05
  19   6     0.07  -0.05   0.04    -0.11  -0.02  -0.04     0.00   0.00   0.03
  20   6     0.10  -0.03   0.01    -0.11  -0.00  -0.02    -0.01   0.03   0.15
  21   6     0.08   0.01  -0.02    -0.11   0.01   0.00    -0.01   0.02   0.11
  22   7     0.04   0.00   0.00    -0.13   0.01  -0.01     0.01  -0.01  -0.00
  23   6     0.10   0.04  -0.04    -0.11   0.03   0.03    -0.01   0.03   0.12
  24   6     0.08   0.08  -0.04    -0.11   0.03   0.04     0.00  -0.00   0.00
  25   7     0.04   0.09  -0.03    -0.10   0.02   0.01     0.01  -0.03  -0.08
  26   1     0.04   0.03  -0.01    -0.04   0.01   0.02     0.00   0.00  -0.00
  27   1     0.02   0.05  -0.01    -0.03   0.00   0.01     0.00  -0.02  -0.05
  28   1    -0.02   0.06   0.01    -0.03   0.00  -0.01    -0.00  -0.01  -0.05
  29   1    -0.04   0.04   0.00    -0.04  -0.01  -0.02     0.00  -0.00   0.01
  30   1    -0.04   0.01  -0.01    -0.03  -0.01  -0.00     0.00   0.01   0.06
  31   1    -0.04  -0.01  -0.01    -0.03   0.00   0.02     0.00   0.01   0.07
  32   1    -0.02  -0.02   0.01    -0.04   0.00   0.02     0.00  -0.00   0.00
  33   1    -0.00  -0.02   0.02    -0.04  -0.00  -0.01     0.01  -0.01  -0.04
  34   1     0.02  -0.02   0.02    -0.03  -0.01  -0.02     0.00  -0.00   0.01
  35   1     0.04  -0.01  -0.00    -0.03  -0.00  -0.01    -0.01   0.01   0.07
  36   1     0.04   0.01  -0.02    -0.03   0.01   0.02    -0.00   0.01   0.06
  37  28    -0.00   0.10   0.03     0.26  -0.00   0.01    -0.02  -0.05   0.11
  38   6     0.09   0.11   0.03     0.12  -0.03   0.05    -0.00  -0.01   0.04
  39   6     0.06   0.14   0.02     0.11  -0.01   0.04    -0.00  -0.04   0.13
  40   6     0.03   0.12   0.02     0.09  -0.01   0.02    -0.00  -0.04   0.14
  41   6    -0.00   0.14   0.02     0.07  -0.00   0.01    -0.01  -0.05   0.17
  42   6    -0.03   0.12   0.01     0.09   0.01  -0.00    -0.01  -0.04   0.14
  43   6    -0.06   0.14   0.01     0.11   0.00  -0.02    -0.02  -0.04   0.13
  44   6    -0.09   0.11   0.02     0.12   0.02  -0.04    -0.02  -0.01   0.04
  45   6    -0.07   0.07   0.03     0.11   0.03  -0.02    -0.01  -0.00  -0.00
  46   7    -0.04   0.09   0.02     0.10   0.02  -0.01    -0.01  -0.03   0.08
  47   6    -0.09   0.03   0.04     0.11   0.03  -0.02    -0.01   0.03  -0.12
  48   6    -0.07   0.00   0.03     0.12   0.01   0.00    -0.01   0.02  -0.11
  49   6    -0.09  -0.03   0.02     0.12  -0.00   0.02    -0.01   0.03  -0.15
  50   6    -0.07  -0.05  -0.02     0.12  -0.01   0.03    -0.01  -0.00  -0.03
  51   6    -0.03  -0.03  -0.03     0.13  -0.00   0.02    -0.01  -0.02   0.05
  52   7    -0.04   0.00   0.00     0.14   0.01   0.01    -0.01  -0.01   0.00
  53   6    -0.00  -0.04  -0.06     0.13   0.00   0.00    -0.01  -0.04   0.11
  54   6     0.03  -0.02  -0.03     0.13   0.00  -0.02    -0.01  -0.02   0.05
  55   6     0.07  -0.04  -0.03     0.12   0.01  -0.04    -0.01  -0.00  -0.03
  56   6     0.09  -0.03   0.01     0.11   0.01  -0.03    -0.01   0.04  -0.14
  57   6     0.07   0.00   0.03     0.12  -0.01  -0.01    -0.01   0.03  -0.10
  58   7     0.04   0.00   0.00     0.14  -0.01  -0.01    -0.01  -0.01   0.00
  59   6     0.09   0.03   0.05     0.11  -0.03   0.01    -0.01   0.04  -0.12
  60   6     0.07   0.07   0.04     0.11  -0.03   0.03    -0.00   0.01  -0.00
  61   7     0.03   0.09   0.03     0.10  -0.03   0.02    -0.01  -0.02   0.08
  62   1     0.03   0.03   0.01     0.04  -0.01   0.02     0.00   0.00   0.00
  63   1     0.02   0.05   0.00     0.03  -0.00   0.01     0.00  -0.02   0.05
  64   1    -0.02   0.05  -0.00     0.03  -0.00  -0.00    -0.01  -0.01   0.05
  65   1    -0.03   0.03   0.01     0.04   0.01  -0.01    -0.01   0.00  -0.00
  66   1    -0.04   0.01   0.02     0.03   0.01  -0.01    -0.00   0.02  -0.06
  67   1    -0.04  -0.01   0.01     0.03  -0.00   0.01    -0.00   0.02  -0.07
  68   1    -0.02  -0.02  -0.01     0.04  -0.01   0.01    -0.00  -0.00  -0.00
  69   1    -0.00  -0.02  -0.02     0.04   0.00   0.00    -0.00  -0.02   0.04
  70   1     0.02  -0.02  -0.02     0.03   0.01  -0.01    -0.00  -0.00  -0.00
  71   1     0.04  -0.01   0.01     0.03   0.00  -0.01    -0.00   0.02  -0.07
  72   1     0.04   0.01   0.02     0.03  -0.01   0.01    -0.00   0.02  -0.06
  73   6    -0.00   0.13  -0.04    -0.07   0.00  -0.00     0.00  -0.03  -0.12
  74   6    -0.00  -0.04  -0.01    -0.06   0.00   0.01     0.01   0.04  -0.01
  75   6     0.00  -0.04  -0.00     0.06   0.00   0.01    -0.00   0.02  -0.00
  76   6    -0.00   0.12   0.03     0.07  -0.00   0.01    -0.00  -0.03   0.12
  77  28     0.00  -0.22  -0.00    -0.00   0.00  -0.00     0.00   0.05  -0.01
  78   6    -0.01  -0.10   0.08     0.01   0.02  -0.10    -0.02   0.02   0.19
  79   6    -0.01  -0.10   0.07    -0.01   0.01  -0.09    -0.01   0.03   0.17
  80   6    -0.01  -0.09   0.04    -0.03   0.01  -0.03    -0.00   0.03   0.10
  81   6    -0.00  -0.09   0.02    -0.05   0.00   0.01     0.01   0.04   0.06
  82   6     0.01  -0.09   0.03    -0.03  -0.01   0.06     0.01   0.03   0.09
  83   6     0.01  -0.10   0.06    -0.00  -0.00   0.11     0.02   0.03   0.15
  84   6     0.01  -0.10   0.08     0.01  -0.02   0.12     0.03   0.03   0.16
  85   6     0.00  -0.10   0.04    -0.00  -0.03   0.05     0.02   0.03   0.09
  86   7     0.01  -0.10   0.03    -0.03  -0.03   0.03     0.01   0.03   0.07
  87   6    -0.00  -0.09   0.01    -0.00  -0.05  -0.01     0.01   0.02   0.00
  88   6    -0.01  -0.09  -0.03     0.00  -0.04  -0.07    -0.00   0.02  -0.09
  89   6    -0.01  -0.09  -0.07    -0.01  -0.02  -0.13    -0.01   0.01  -0.16
  90   6    -0.01  -0.09  -0.07     0.00  -0.01  -0.11    -0.01   0.01  -0.16
  91   6    -0.01  -0.09  -0.04     0.03  -0.01  -0.05    -0.00   0.02  -0.10
  92   7    -0.01  -0.10  -0.03     0.03  -0.03  -0.03    -0.00   0.02  -0.08
  93   6     0.00  -0.08  -0.03     0.05   0.00   0.00    -0.00   0.02  -0.08
  94   6     0.01  -0.09  -0.05     0.03   0.01   0.04     0.00   0.02  -0.11
  95   6     0.01  -0.09  -0.08     0.00   0.01   0.09     0.01   0.01  -0.17
  96   6     0.01  -0.09  -0.08    -0.01   0.02   0.09     0.01   0.01  -0.18
  97   6     0.01  -0.09  -0.04     0.00   0.03   0.04     0.01   0.01  -0.09
  98   7     0.01  -0.10  -0.03     0.03   0.03   0.02     0.00   0.02  -0.08
  99   6     0.00  -0.09   0.01    -0.00   0.05  -0.02    -0.01   0.02   0.01
 100   6    -0.00  -0.10   0.05    -0.00   0.04  -0.05    -0.01   0.02   0.11
 101   7    -0.01  -0.10   0.03    -0.03   0.03  -0.02    -0.00   0.03   0.08
 102   1    -0.00  -0.03   0.03     0.01   0.01  -0.04    -0.01   0.01   0.07
 103   1    -0.00  -0.03   0.02    -0.00  -0.00  -0.03    -0.00   0.01   0.06
 104   1     0.00  -0.03   0.02     0.00   0.00   0.04     0.01   0.01   0.05
 105   1     0.00  -0.03   0.03     0.01  -0.01   0.04     0.01   0.01   0.06
 106   1    -0.00  -0.03   0.00    -0.00  -0.01  -0.00     0.00   0.01   0.00
 107   1    -0.01  -0.03  -0.02    -0.01  -0.01  -0.05    -0.00   0.00  -0.06
 108   1    -0.00  -0.03  -0.02     0.00   0.00  -0.04    -0.00   0.00  -0.05
 109   1     0.00  -0.03  -0.03     0.00  -0.00   0.03     0.00   0.00  -0.06
 110   1     0.01  -0.03  -0.03    -0.01   0.01   0.03     0.01   0.00  -0.06
 111   1     0.00  -0.03   0.00    -0.00   0.01  -0.01    -0.00   0.01   0.01
                     16                     17                     18
                        a                      a                      a 
 Frequencies --    66.5112                74.5619                99.3756
 Red. masses --    12.3615                16.2009                29.6367
 Frc consts  --     0.0000                 0.0000                 0.0000
 IR Inten    --     0.8901                 2.8509                14.3510
 Raman Activ --     0.0000                 0.0000                 0.0000
 Depolar     --     0.0000                 0.0000                 0.0000
 Atom AN      X      Y      Z        X      Y      Z        X      Y      Z
   1  28     0.00   0.09   0.02    -0.01   0.01   0.13    -0.01   0.10   0.42
   2   6     0.06   0.08  -0.01    -0.03  -0.02   0.06     0.02  -0.06  -0.15
   3   6     0.04   0.11   0.02    -0.02  -0.01   0.11     0.02  -0.05  -0.14
   4   6     0.01   0.10   0.02    -0.01  -0.01   0.11     0.00  -0.00   0.01
   5   6    -0.00   0.10   0.03    -0.00  -0.02   0.10    -0.01  -0.00   0.00
   6   6    -0.01   0.10   0.03     0.00  -0.01   0.11    -0.01  -0.00   0.01
   7   6    -0.04   0.11   0.04     0.02  -0.02   0.11    -0.01  -0.05  -0.15
   8   6    -0.06   0.09   0.01     0.03  -0.02   0.04    -0.01  -0.04  -0.15
   9   6    -0.05   0.06  -0.01     0.02  -0.02   0.01    -0.00   0.00   0.00
  10   7    -0.02   0.07   0.01     0.01  -0.01   0.07    -0.01   0.03   0.10
  11   6    -0.06   0.02  -0.06     0.02  -0.03  -0.10    -0.00   0.01  -0.01
  12   6    -0.05   0.00  -0.05     0.02  -0.01  -0.09    -0.00   0.01   0.01
  13   6    -0.06  -0.02  -0.06     0.02  -0.01  -0.14     0.00  -0.02  -0.14
  14   6    -0.05  -0.03  -0.00     0.01   0.01  -0.04     0.01  -0.02  -0.15
  15   6    -0.02  -0.01   0.03     0.00   0.02   0.05     0.01   0.01  -0.00
  16   7    -0.03   0.01  -0.00     0.00   0.01   0.01     0.00   0.03   0.10
  17   6    -0.00  -0.02   0.06    -0.01   0.04   0.11     0.01  -0.00  -0.02
  18   6     0.02  -0.01   0.04    -0.02   0.02   0.05     0.01   0.00   0.00
  19   6     0.05  -0.03   0.01    -0.02   0.01  -0.04     0.03  -0.03  -0.14
  20   6     0.07  -0.03  -0.05    -0.01  -0.03  -0.14     0.02  -0.03  -0.14
  21   6     0.06   0.00  -0.04    -0.01  -0.03  -0.09     0.01   0.00   0.01
  22   7     0.03   0.01   0.00    -0.01   0.00   0.01     0.01   0.02   0.11
  23   6     0.07   0.02  -0.06    -0.02  -0.04  -0.09     0.01  -0.01  -0.01
  24   6     0.05   0.05  -0.02    -0.02  -0.02   0.02     0.01  -0.01   0.00
  25   7     0.02   0.07   0.01    -0.01  -0.01   0.08    -0.00   0.02   0.10
  26   1     0.02   0.02  -0.01    -0.01  -0.01   0.01     0.01  -0.03  -0.07
  27   1     0.01   0.04   0.01    -0.01  -0.00   0.04     0.01  -0.02  -0.07
  28   1    -0.01   0.04   0.02     0.01  -0.01   0.04    -0.01  -0.02  -0.07
  29   1    -0.02   0.03   0.00     0.01  -0.01   0.01    -0.00  -0.02  -0.07
  30   1    -0.02   0.01  -0.03     0.01  -0.01  -0.05     0.00  -0.00  -0.02
  31   1    -0.02  -0.01  -0.03     0.01  -0.01  -0.07    -0.00  -0.01  -0.07
  32   1    -0.01  -0.01   0.00     0.00   0.01  -0.01     0.00  -0.01  -0.08
  33   1    -0.00  -0.01   0.03    -0.00   0.01   0.04     0.01  -0.01  -0.03
  34   1     0.01  -0.01   0.01    -0.01   0.01  -0.01     0.01  -0.01  -0.07
  35   1     0.03  -0.01  -0.03    -0.00  -0.01  -0.07     0.01  -0.01  -0.07
  36   1     0.03   0.00  -0.03    -0.01  -0.02  -0.05     0.00  -0.01  -0.03
  37  28     0.00  -0.10   0.03     0.01  -0.01   0.11     0.02  -0.10   0.31
  38   6    -0.06  -0.09   0.00     0.03   0.02   0.06    -0.00   0.04  -0.10
  39   6    -0.04  -0.12   0.04     0.02   0.01   0.11    -0.00   0.04  -0.10
  40   6    -0.01  -0.11   0.04     0.01   0.01   0.10     0.00   0.00   0.01
  41   6     0.00  -0.11   0.04     0.00   0.01   0.09     0.00   0.00   0.01
  42   6     0.01  -0.11   0.04    -0.01   0.01   0.10     0.01   0.00   0.01
  43   6     0.04  -0.12   0.05    -0.02   0.01   0.10     0.01   0.04  -0.10
  44   6     0.06  -0.09   0.01    -0.03   0.02   0.05     0.01   0.04  -0.11
  45   6     0.05  -0.06  -0.02    -0.02   0.02   0.01     0.01   0.00   0.00
  46   7     0.02  -0.08   0.02    -0.01   0.01   0.07     0.01  -0.02   0.08
  47   6     0.06  -0.01  -0.07    -0.02   0.04  -0.08     0.01   0.00  -0.01
  48   6     0.05   0.01  -0.06    -0.02   0.02  -0.08     0.01  -0.00   0.00
  49   6     0.07   0.03  -0.08    -0.02   0.02  -0.13     0.01   0.03  -0.11
  50   6     0.05   0.03  -0.00    -0.01  -0.01  -0.03     0.01   0.03  -0.11
  51   6     0.02   0.01   0.04    -0.00  -0.03   0.05     0.01  -0.00   0.00
  52   7     0.03  -0.01   0.00    -0.01  -0.00   0.01     0.01  -0.03   0.08
  53   6     0.00   0.01   0.08     0.01  -0.04   0.09     0.01   0.00  -0.01
  54   6    -0.02   0.01   0.04     0.02  -0.02   0.04     0.00  -0.00  -0.00
  55   6    -0.05   0.03   0.00     0.02  -0.01  -0.04    -0.00   0.03  -0.11
  56   6    -0.07   0.04  -0.07     0.03   0.03  -0.13    -0.00   0.03  -0.11
  57   6    -0.05   0.01  -0.06     0.02   0.03  -0.08     0.00  -0.01   0.01
  58   7    -0.03  -0.01   0.00     0.02  -0.00   0.01     0.01  -0.03   0.08
  59   6    -0.07  -0.01  -0.07     0.03   0.04  -0.08     0.00   0.00  -0.01
  60   6    -0.05  -0.06  -0.02     0.02   0.02   0.02     0.00   0.00   0.01
  61   7    -0.02  -0.08   0.02     0.01   0.01   0.07     0.00  -0.03   0.08
  62   1    -0.02  -0.02  -0.00     0.01   0.01   0.01    -0.00   0.02  -0.05
  63   1    -0.01  -0.04   0.02     0.01   0.00   0.04    -0.00   0.02  -0.05
  64   1     0.01  -0.04   0.02    -0.01   0.00   0.04     0.00   0.02  -0.05
  65   1     0.02  -0.03  -0.00    -0.01   0.01   0.01     0.00   0.02  -0.05
  66   1     0.02  -0.00  -0.03    -0.01   0.02  -0.04     0.00   0.01  -0.02
  67   1     0.03   0.01  -0.04    -0.01   0.01  -0.06     0.00   0.01  -0.05
  68   1     0.01   0.01   0.01    -0.00  -0.01  -0.01     0.00   0.01  -0.05
  69   1     0.00   0.01   0.03     0.00  -0.02   0.04     0.00   0.01  -0.02
  70   1    -0.01   0.01   0.01     0.01  -0.01  -0.01    -0.00   0.02  -0.06
  71   1    -0.03   0.02  -0.04     0.01   0.02  -0.06    -0.00   0.02  -0.05
  72   1    -0.03   0.00  -0.03     0.01   0.02  -0.04     0.00   0.01  -0.02
  73   6    -0.00   0.07   0.01    -0.00  -0.03   0.02    -0.01  -0.01  -0.04
  74   6    -0.00  -0.13   0.01    -0.01   0.01  -0.14    -0.01  -0.00  -0.05
  75   6    -0.00   0.14   0.01     0.00  -0.01  -0.14     0.00   0.00  -0.04
  76   6     0.00  -0.07   0.01     0.00   0.03   0.01     0.00   0.01  -0.03
  77  28    -0.00   0.00  -0.03    -0.00  -0.00  -0.28    -0.02   0.00   0.32
  78   6     0.13  -0.11   0.00    -0.03  -0.01   0.11     0.01   0.02  -0.10
  79   6     0.09  -0.15   0.03    -0.01   0.00  -0.06     0.01   0.02  -0.12
  80   6     0.04  -0.12   0.01    -0.01   0.01  -0.16    -0.00   0.01  -0.00
  81   6    -0.00  -0.14   0.01    -0.01   0.02  -0.21    -0.01   0.01  -0.01
  82   6    -0.04  -0.12   0.02    -0.00   0.01  -0.16    -0.02   0.01   0.00
  83   6    -0.09  -0.15   0.03     0.01   0.00  -0.05    -0.03   0.02  -0.11
  84   6    -0.14  -0.11   0.01     0.03  -0.01   0.12    -0.03   0.02  -0.10
  85   6    -0.11  -0.05  -0.02     0.02  -0.00   0.09    -0.02   0.01   0.01
  86   7    -0.05  -0.07  -0.01     0.01   0.01  -0.09    -0.01   0.00   0.08
  87   6    -0.14   0.00  -0.03     0.03   0.00   0.20    -0.01  -0.00  -0.00
  88   6    -0.11   0.06  -0.02     0.02   0.01   0.09    -0.02  -0.01   0.00
  89   6    -0.14   0.11  -0.00     0.03   0.01   0.12    -0.03  -0.02  -0.12
  90   6    -0.09   0.15   0.02     0.01  -0.00  -0.05    -0.03  -0.02  -0.12
  91   6    -0.04   0.12   0.01     0.01  -0.02  -0.16    -0.01  -0.01   0.00
  92   7    -0.05   0.07  -0.01     0.01  -0.01  -0.09    -0.01  -0.01   0.08
  93   6    -0.00   0.15   0.01     0.00  -0.02  -0.21    -0.00  -0.00  -0.01
  94   6     0.04   0.12   0.01    -0.00  -0.02  -0.16     0.00  -0.01  -0.00
  95   6     0.09   0.15   0.03    -0.01  -0.00  -0.05     0.01  -0.02  -0.12
  96   6     0.14   0.11   0.01    -0.03   0.01   0.13     0.01  -0.02  -0.11
  97   6     0.11   0.05  -0.02    -0.02   0.00   0.09     0.00  -0.00   0.01
  98   7     0.05   0.07  -0.01    -0.01  -0.01  -0.09    -0.00  -0.00   0.08
  99   6     0.14   0.00  -0.03    -0.03   0.00   0.20    -0.00   0.00   0.01
 100   6     0.11  -0.05  -0.02    -0.02  -0.00   0.09    -0.00   0.01   0.02
 101   7     0.05  -0.07  -0.01    -0.01   0.01  -0.10    -0.01   0.01   0.08
 102   1     0.05  -0.03   0.00    -0.01  -0.01   0.07     0.00   0.01  -0.05
 103   1     0.03  -0.06   0.02    -0.00   0.00  -0.03     0.00   0.01  -0.06
 104   1    -0.03  -0.06   0.02     0.00   0.00  -0.02    -0.01   0.01  -0.06
 105   1    -0.05  -0.03   0.00     0.01  -0.00   0.07    -0.01   0.01  -0.05
 106   1    -0.06   0.00  -0.01     0.01   0.00   0.11    -0.00  -0.00  -0.02
 107   1    -0.05   0.03   0.00     0.01   0.01   0.07    -0.01  -0.01  -0.06
 108   1    -0.03   0.06   0.01     0.00  -0.00  -0.03    -0.01  -0.01  -0.06
 109   1     0.03   0.06   0.02    -0.00  -0.00  -0.02     0.01  -0.01  -0.06
 110   1     0.05   0.03   0.00    -0.01   0.01   0.07     0.00  -0.01  -0.06
 111   1     0.05  -0.00  -0.01    -0.01   0.00   0.11    -0.00   0.00  -0.01
                     19                     20                     21
                        a                      a                      a 
 Frequencies --   101.3192               107.1116               109.2073
 Red. masses --    28.2019                23.9181                19.6231
 Frc consts  --     0.0000                 0.0000                 0.0000
 IR Inten    --     1.0892                 1.9069                 1.1166
 Raman Activ --     0.0000                 0.0000                 0.0000
 Depolar     --     0.0000                 0.0000                 0.0000
 Atom AN      X      Y      Z        X      Y      Z        X      Y      Z
   1  28    -0.01  -0.09  -0.36    -0.02  -0.04  -0.16     0.17  -0.03  -0.13
   2   6    -0.03   0.06   0.15    -0.03   0.04   0.15     0.07  -0.00   0.05
   3   6    -0.02   0.04   0.14    -0.02   0.02   0.11     0.04   0.03   0.08
   4   6    -0.00   0.00   0.00    -0.00  -0.01   0.00     0.01  -0.01   0.02
   5   6     0.01  -0.00   0.00     0.01  -0.02  -0.03    -0.03  -0.01  -0.01
   6   6     0.01  -0.00   0.01     0.00  -0.01   0.01     0.01   0.01  -0.02
   7   6     0.01   0.04   0.15     0.01   0.02   0.13     0.05  -0.00   0.02
   8   6     0.00   0.03   0.15     0.01   0.02   0.15     0.08   0.03   0.06
   9   6    -0.00  -0.01   0.00     0.00  -0.01   0.03     0.06   0.06   0.02
  10   7     0.00  -0.03  -0.08     0.00  -0.02  -0.03     0.02   0.04  -0.03
  11   6    -0.00  -0.02  -0.01     0.00  -0.02  -0.03     0.07   0.06   0.03
  12   6    -0.01  -0.02  -0.03    -0.00  -0.02  -0.07     0.09   0.03  -0.01
  13   6    -0.01   0.01   0.10     0.00  -0.00  -0.03     0.08   0.01   0.01
  14   6    -0.02   0.03   0.14    -0.01   0.02   0.07     0.09  -0.00   0.00
  15   6    -0.02   0.00   0.02    -0.02   0.01   0.05     0.11   0.01  -0.01
  16   7    -0.01  -0.03  -0.09    -0.01  -0.01  -0.04     0.12   0.02  -0.03
  17   6    -0.03   0.01   0.04    -0.03   0.03   0.11     0.12   0.01   0.03
  18   6    -0.03   0.00   0.00    -0.03   0.01   0.04     0.10   0.00   0.04
  19   6    -0.04   0.02   0.12    -0.02   0.01   0.04     0.07   0.03   0.09
  20   6    -0.03   0.02   0.09    -0.01  -0.00  -0.04     0.06  -0.00   0.04
  21   6    -0.02   0.00  -0.03    -0.01  -0.01  -0.06     0.08  -0.04  -0.02
  22   7    -0.02  -0.02  -0.09    -0.02  -0.00  -0.04     0.11  -0.04  -0.03
  23   6    -0.02   0.02   0.00    -0.02   0.01  -0.01     0.07  -0.07  -0.03
  24   6    -0.02   0.02   0.01    -0.02   0.02   0.05     0.06  -0.06  -0.01
  25   7    -0.00  -0.01  -0.08    -0.00  -0.01  -0.03     0.02  -0.06  -0.03
  26   1    -0.01   0.03   0.07    -0.01   0.02   0.07     0.03   0.00   0.02
  27   1    -0.01   0.02   0.07    -0.01   0.01   0.04     0.01   0.02   0.04
  28   1     0.00   0.02   0.07     0.00   0.01   0.05     0.02  -0.01   0.01
  29   1     0.00   0.02   0.07     0.00   0.01   0.07     0.03   0.01   0.03
  30   1    -0.00  -0.00   0.01     0.00  -0.00  -0.01     0.02   0.02   0.02
  31   1    -0.00   0.01   0.05     0.00  -0.00  -0.02     0.02   0.00   0.01
  32   1    -0.01   0.01   0.07    -0.00   0.01   0.04     0.03  -0.00   0.00
  33   1    -0.01   0.01   0.04    -0.01   0.01   0.05     0.03   0.01   0.02
  34   1    -0.01   0.01   0.06    -0.01   0.01   0.03     0.02   0.02   0.04
  35   1    -0.01   0.01   0.05    -0.00  -0.00  -0.02     0.01   0.00   0.02
  36   1    -0.01   0.01   0.02    -0.01   0.00   0.00     0.02  -0.02  -0.01
  37  28    -0.02  -0.14   0.45    -0.03   0.07  -0.19     0.16  -0.01   0.03
  38   6    -0.03   0.07  -0.18     0.00  -0.05   0.16     0.08  -0.02   0.00
  39   6    -0.02   0.07  -0.17     0.00  -0.04   0.13     0.05   0.02  -0.02
  40   6    -0.01   0.00   0.00    -0.00   0.01   0.01     0.01  -0.01  -0.02
  41   6     0.01  -0.00   0.00     0.00   0.03  -0.03    -0.04   0.00  -0.01
  42   6     0.00  -0.00  -0.00    -0.01   0.01   0.00     0.01   0.01   0.02
  43   6     0.00   0.06  -0.18    -0.02  -0.03   0.13     0.05  -0.01   0.02
  44   6    -0.00   0.06  -0.18    -0.03  -0.05   0.16     0.07   0.02   0.00
  45   6    -0.01  -0.01  -0.00    -0.02  -0.01   0.04     0.06   0.06   0.00
  46   7    -0.00  -0.04   0.10    -0.01   0.01  -0.04     0.02   0.05   0.02
  47   6    -0.01  -0.01   0.00    -0.02   0.00  -0.02     0.07   0.07  -0.02
  48   6    -0.01  -0.02   0.03    -0.02   0.01  -0.07     0.08   0.04  -0.01
  49   6    -0.01   0.03  -0.13    -0.02   0.00  -0.03     0.07   0.01  -0.01
  50   6    -0.01   0.05  -0.16    -0.02  -0.02   0.06     0.09  -0.01   0.02
  51   6    -0.02   0.00  -0.01    -0.02  -0.02   0.04     0.11  -0.00   0.02
  52   7    -0.02  -0.04   0.11    -0.02   0.01  -0.05     0.11   0.03   0.02
  53   6    -0.03   0.01  -0.05    -0.02  -0.04   0.11     0.12  -0.00   0.01
  54   6    -0.03   0.00  -0.01    -0.01  -0.02   0.05     0.11  -0.00  -0.01
  55   6    -0.03   0.04  -0.15    -0.00  -0.03   0.06     0.08   0.02  -0.05
  56   6    -0.02   0.04  -0.13    -0.00   0.01  -0.02     0.07  -0.00  -0.04
  57   6    -0.02  -0.00   0.03    -0.01   0.03  -0.06     0.08  -0.03  -0.00
  58   7    -0.02  -0.03   0.12    -0.02   0.02  -0.04     0.11  -0.03   0.00
  59   6    -0.02   0.01  -0.00    -0.00   0.02  -0.02     0.07  -0.07   0.01
  60   6    -0.02   0.02  -0.01    -0.00   0.00   0.04     0.06  -0.06   0.01
  61   7    -0.01  -0.02   0.11    -0.00   0.03  -0.03     0.02  -0.05   0.00
  62   1    -0.01   0.03  -0.09     0.00  -0.02   0.07     0.03  -0.01   0.00
  63   1    -0.01   0.03  -0.08     0.00  -0.02   0.05     0.01   0.02  -0.01
  64   1     0.00   0.03  -0.08    -0.01  -0.01   0.05     0.01  -0.01   0.01
  65   1    -0.00   0.03  -0.09    -0.01  -0.02   0.07     0.03   0.01  -0.00
  66   1    -0.00   0.00  -0.02    -0.01  -0.00  -0.00     0.02   0.02  -0.01
  67   1    -0.00   0.02  -0.07    -0.01   0.00  -0.01     0.02   0.00  -0.01
  68   1    -0.00   0.02  -0.08    -0.01  -0.01   0.04     0.02  -0.01   0.01
  69   1    -0.01   0.01  -0.04    -0.00  -0.02   0.06     0.03  -0.00   0.00
  70   1    -0.01   0.02  -0.08    -0.00  -0.02   0.04     0.02   0.01  -0.02
  71   1    -0.01   0.02  -0.06     0.00   0.00  -0.01     0.01   0.00  -0.01
  72   1    -0.01   0.01  -0.02     0.00   0.00   0.00     0.02  -0.02   0.01
  73   6     0.01  -0.00   0.03     0.01  -0.03  -0.06    -0.05  -0.00  -0.00
  74   6     0.01  -0.01   0.02     0.01  -0.01  -0.10    -0.06  -0.00  -0.01
  75   6     0.01  -0.00  -0.03     0.01   0.01  -0.10    -0.06   0.00  -0.02
  76   6     0.01   0.01  -0.04     0.01   0.03  -0.06    -0.05   0.01  -0.02
  77  28     0.05  -0.00   0.04     0.05   0.00   0.45    -0.30  -0.00   0.06
  78   6     0.03   0.00  -0.06     0.05   0.02  -0.15    -0.14  -0.00  -0.03
  79   6     0.03  -0.00  -0.03     0.05   0.02  -0.18    -0.12   0.01  -0.08
  80   6     0.02  -0.00  -0.00     0.03   0.00  -0.03    -0.11  -0.00  -0.04
  81   6     0.02  -0.00   0.01     0.01  -0.00  -0.05    -0.08   0.00  -0.01
  82   6     0.02  -0.00  -0.01     0.01   0.00  -0.04    -0.11   0.01   0.02
  83   6     0.02   0.00  -0.05    -0.01   0.02  -0.20    -0.13  -0.00   0.02
  84   6     0.02   0.00  -0.06    -0.01   0.01  -0.15    -0.14   0.01  -0.02
  85   6     0.02  -0.00  -0.02     0.01   0.00   0.03    -0.14   0.02  -0.03
  86   7     0.02  -0.00   0.00     0.02  -0.00   0.11    -0.13   0.02   0.00
  87   6     0.02   0.00   0.02     0.01   0.00   0.05    -0.13  -0.00  -0.06
  88   6     0.03   0.00   0.03     0.01  -0.00   0.03    -0.14  -0.02  -0.02
  89   6     0.03   0.00   0.03    -0.00  -0.02  -0.15    -0.14  -0.01  -0.01
  90   6     0.02  -0.00  -0.00    -0.01  -0.02  -0.20    -0.13   0.00   0.03
  91   6     0.02  -0.00  -0.00     0.01  -0.00  -0.04    -0.11  -0.01   0.03
  92   7     0.02   0.00   0.02     0.02   0.00   0.10    -0.13  -0.02   0.01
  93   6     0.01  -0.01  -0.01     0.01  -0.00  -0.05    -0.08  -0.00  -0.01
  94   6     0.02  -0.00   0.01     0.03  -0.01  -0.02    -0.11   0.00  -0.03
  95   6     0.02  -0.00   0.02     0.05  -0.02  -0.18    -0.12  -0.01  -0.08
  96   6     0.02  -0.00   0.03     0.05  -0.02  -0.15    -0.14   0.00  -0.02
  97   6     0.02  -0.00   0.02     0.03  -0.01   0.02    -0.13   0.02   0.04
  98   7     0.02  -0.00   0.02     0.02  -0.00   0.10    -0.13   0.02   0.02
  99   6     0.02  -0.00  -0.01     0.03  -0.00   0.02    -0.13  -0.00   0.07
 100   6     0.03   0.00  -0.03     0.03   0.01   0.02    -0.13  -0.02   0.03
 101   7     0.02   0.00  -0.00     0.03   0.00   0.10    -0.13  -0.02   0.02
 102   1     0.01   0.00  -0.03     0.02   0.01  -0.07    -0.04  -0.00  -0.01
 103   1     0.01  -0.00  -0.01     0.02   0.01  -0.09    -0.03   0.01  -0.04
 104   1     0.00   0.00  -0.02    -0.01   0.01  -0.10    -0.04  -0.01   0.02
 105   1     0.00   0.00  -0.02    -0.00   0.01  -0.07    -0.04   0.00  -0.01
 106   1     0.01   0.00   0.00     0.00   0.00  -0.00    -0.03  -0.00  -0.03
 107   1     0.01   0.00   0.01    -0.00  -0.01  -0.07    -0.04  -0.00  -0.01
 108   1     0.01  -0.00  -0.01    -0.01  -0.01  -0.10    -0.04   0.01   0.02
 109   1     0.01  -0.00   0.00     0.02  -0.01  -0.08    -0.03  -0.01  -0.04
 110   1     0.01  -0.00   0.01     0.02  -0.01  -0.07    -0.04   0.00  -0.01
 111   1     0.01  -0.00  -0.01     0.01  -0.00  -0.01    -0.03  -0.00   0.03
                     22                     23                     24
                        a                      a                      a 
 Frequencies --   112.5526               120.1226               123.1228
 Red. masses --    11.1755                10.5183                10.5343
 Frc consts  --     0.0000                 0.0000                 0.0000
 IR Inten    --    14.9032                 5.9556                 2.7935
 Raman Activ --     0.0000                 0.0000                 0.0000
 Depolar     --     0.0000                 0.0000                 0.0000
 Atom AN      X      Y      Z        X      Y      Z        X      Y      Z
   1  28    -0.01  -0.01   0.03    -0.00   0.01  -0.00    -0.01  -0.01  -0.00
   2   6    -0.02   0.04   0.15    -0.00  -0.01  -0.02    -0.00   0.02   0.05
   3   6    -0.01   0.01   0.07     0.01  -0.06  -0.15    -0.01   0.08   0.21
   4   6    -0.00  -0.03  -0.04     0.00  -0.03  -0.07    -0.01   0.04   0.10
   5   6    -0.00  -0.06  -0.13     0.00  -0.01  -0.00    -0.01   0.00  -0.01
   6   6     0.00  -0.03  -0.04     0.01   0.02   0.07    -0.01  -0.03  -0.11
   7   6     0.01  -0.01   0.06     0.02   0.04   0.16    -0.02  -0.05  -0.21
   8   6     0.02   0.02   0.16     0.01   0.01   0.03    -0.01  -0.01  -0.03
   9   6     0.01   0.00   0.08     0.00  -0.02  -0.10    -0.00   0.02   0.12
  10   7     0.00  -0.02  -0.01     0.00  -0.01  -0.04    -0.01   0.00   0.05
  11   6     0.02  -0.01  -0.02    -0.00  -0.04  -0.19    -0.00   0.04   0.24
  12   6     0.01  -0.01  -0.09    -0.00  -0.02  -0.09    -0.00   0.02   0.12
  13   6     0.02  -0.02  -0.16    -0.00   0.00   0.03     0.00  -0.00  -0.04
  14   6     0.01   0.01  -0.03    -0.01   0.02   0.16     0.01  -0.03  -0.21
  15   6    -0.00   0.02   0.08    -0.01   0.01   0.08     0.00  -0.01  -0.10
  16   7     0.00   0.01   0.03    -0.00  -0.01  -0.03    -0.00   0.01   0.04
  17   6    -0.01   0.04   0.17     0.00  -0.00   0.01    -0.01   0.01   0.01
  18   6    -0.01   0.02   0.09     0.01  -0.02  -0.08    -0.02   0.02   0.11
  19   6    -0.01  -0.00  -0.02     0.02  -0.04  -0.16    -0.03   0.05   0.21
  20   6     0.01  -0.04  -0.16     0.01  -0.00  -0.03    -0.01   0.00   0.03
  21   6     0.00  -0.03  -0.09    -0.01   0.02   0.08     0.00  -0.03  -0.12
  22   7    -0.01   0.00   0.03     0.00   0.01   0.03    -0.00  -0.01  -0.04
  23   6    -0.01  -0.01  -0.03    -0.02   0.05   0.18     0.02  -0.06  -0.23
  24   6    -0.01   0.01   0.07    -0.01   0.03   0.10     0.01  -0.03  -0.11
  25   7    -0.01  -0.02  -0.01    -0.00   0.01   0.04     0.00  -0.01  -0.05
  26   1    -0.01   0.02   0.07    -0.00  -0.00  -0.00    -0.00   0.01   0.02
  27   1    -0.00   0.00   0.02     0.01  -0.03  -0.08    -0.01   0.04   0.11
  28   1     0.00  -0.00   0.02     0.01   0.02   0.08    -0.01  -0.03  -0.11
  29   1     0.01   0.01   0.07     0.00   0.00   0.01    -0.00  -0.00  -0.01
  30   1     0.01  -0.00  -0.01    -0.00  -0.01  -0.07     0.00   0.02   0.10
  31   1     0.01  -0.01  -0.08    -0.00   0.00   0.01     0.00  -0.00  -0.01
  32   1     0.00   0.00  -0.01    -0.00   0.01   0.08     0.01  -0.02  -0.11
  33   1    -0.01   0.02   0.07     0.00  -0.00   0.00    -0.00   0.00   0.00
  34   1    -0.00   0.00  -0.00     0.01  -0.02  -0.08    -0.01   0.02   0.11
  35   1     0.00  -0.02  -0.08     0.00  -0.00  -0.01    -0.00  -0.00   0.00
  36   1    -0.00  -0.01  -0.01    -0.01   0.02   0.07     0.01  -0.03  -0.09
  37  28    -0.01  -0.01  -0.03     0.00   0.00   0.00     0.01   0.01   0.00
  38   6    -0.02   0.04  -0.15     0.00  -0.01   0.02     0.00  -0.02   0.05
  39   6    -0.01   0.00  -0.06     0.01  -0.07   0.17     0.01  -0.08   0.21
  40   6    -0.00  -0.03   0.04     0.00  -0.03   0.08     0.01  -0.04   0.10
  41   6    -0.00  -0.07   0.12     0.00  -0.00   0.00     0.01   0.00  -0.01
  42   6     0.00  -0.04   0.04     0.00   0.03  -0.08     0.01   0.04  -0.11
  43   6     0.01  -0.00  -0.06     0.01   0.06  -0.17     0.01   0.07  -0.21
  44   6     0.02   0.03  -0.15     0.01   0.01  -0.03     0.01   0.01  -0.03
  45   6     0.01   0.01  -0.07     0.00  -0.03   0.10    -0.00  -0.03   0.12
  46   7     0.00  -0.02   0.00     0.00  -0.01   0.04     0.00  -0.01   0.04
  47   6     0.01  -0.01   0.02    -0.00  -0.06   0.20    -0.00  -0.07   0.23
  48   6     0.01  -0.02   0.08    -0.00  -0.03   0.10    -0.00  -0.03   0.11
  49   6     0.01  -0.04   0.15    -0.00   0.01  -0.03    -0.00   0.01  -0.04
  50   6     0.01   0.00   0.03    -0.00   0.05  -0.17    -0.00   0.05  -0.21
  51   6     0.00   0.03  -0.08    -0.00   0.02  -0.09    -0.00   0.02  -0.10
  52   7     0.00   0.01  -0.03     0.00  -0.01   0.03    -0.00  -0.01   0.04
  53   6    -0.01   0.06  -0.17     0.00  -0.00  -0.00     0.00  -0.00   0.01
  54   6    -0.01   0.03  -0.08     0.01  -0.02   0.08     0.01  -0.03   0.11
  55   6    -0.01   0.00   0.02     0.01  -0.05   0.17     0.01  -0.06   0.20
  56   6    -0.01  -0.05   0.15     0.01  -0.01   0.03     0.01  -0.00   0.02
  57   6    -0.01  -0.03   0.08    -0.00   0.03  -0.09    -0.00   0.04  -0.12
  58   7    -0.01   0.00  -0.03     0.00   0.01  -0.03     0.00   0.02  -0.04
  59   6    -0.01  -0.02   0.02    -0.01   0.06  -0.19    -0.01   0.08  -0.23
  60   6    -0.01   0.01  -0.07    -0.00   0.03  -0.10    -0.00   0.04  -0.11
  61   7    -0.00  -0.02   0.01    -0.00   0.01  -0.04     0.00   0.01  -0.05
  62   1    -0.01   0.02  -0.07     0.00  -0.00   0.01     0.00  -0.01   0.02
  63   1    -0.00   0.00  -0.02     0.00  -0.03   0.09     0.00  -0.04   0.10
  64   1     0.00  -0.00  -0.02     0.01   0.03  -0.09     0.01   0.04  -0.10
  65   1     0.01   0.02  -0.07     0.00   0.00  -0.01     0.00   0.00  -0.01
  66   1     0.01  -0.00   0.01    -0.00  -0.02   0.08    -0.00  -0.03   0.09
  67   1     0.01  -0.02   0.08    -0.00   0.00  -0.01    -0.00   0.00  -0.01
  68   1     0.00   0.00   0.01    -0.00   0.02  -0.09    -0.00   0.03  -0.11
  69   1    -0.00   0.02  -0.07     0.00  -0.00  -0.00     0.00  -0.00   0.00
[...]
  95   6    -0.00   0.00  -0.00     0.15  -0.01   0.02    -0.14   0.01  -0.02
  96   6     0.00   0.00  -0.00     0.00  -0.10   0.01    -0.00   0.09  -0.01
  97   6    -0.00   0.00  -0.00    -0.00  -0.00  -0.00     0.00   0.00   0.00
  98   7     0.00   0.00   0.00    -0.00   0.00  -0.00     0.00  -0.00   0.00
  99   6     0.00  -0.00   0.00     0.00  -0.00   0.00    -0.00   0.00  -0.00
 100   6    -0.00  -0.00  -0.00    -0.00   0.00  -0.00    -0.00  -0.00  -0.00
 101   7    -0.00  -0.00   0.00    -0.00  -0.00  -0.00     0.00  -0.00   0.00
 102   1    -0.00  -0.00  -0.00    -0.01  -0.06  -0.00    -0.00  -0.02  -0.00
 103   1    -0.02  -0.00  -0.00    -0.12  -0.01  -0.01    -0.03  -0.00  -0.00
 104   1    -0.02   0.00   0.00     0.08  -0.01  -0.01    -0.02   0.00   0.00
 105   1    -0.00   0.00   0.00     0.00  -0.03  -0.00    -0.00   0.01   0.00
 106   1    -0.00  -0.00   0.00    -0.00   0.01  -0.00    -0.00   0.01  -0.00
 107   1     0.00   0.00  -0.00     0.03   0.27  -0.03     0.03   0.26  -0.03
 108   1     0.00   0.00  -0.00     0.43   0.04  -0.04     0.40   0.04  -0.04
 109   1     0.00  -0.00   0.00    -0.50   0.06  -0.05     0.46  -0.05   0.05
 110   1     0.00  -0.00   0.00    -0.03   0.32  -0.03     0.03  -0.29   0.03
 111   1    -0.00   0.00   0.00     0.00   0.01   0.00    -0.00  -0.01   0.00
                    322                    323                    324
                        a                      a                      a 
 Frequencies --  3171.5385              3171.8602              3172.7300
 Red. masses --     1.9622                 1.9620                 1.9573
 Frc consts  --     0.0000                 0.0000                 0.0000
 IR Inten    --   140.3792                13.2628                39.0197
 Raman Activ --     0.0000                 0.0000                 0.0000
 Depolar     --     0.0000                 0.0000                 0.0000
 Atom AN      X      Y      Z        X      Y      Z        X      Y      Z
   1  28     0.00  -0.00   0.00    -0.00   0.00  -0.00     0.00   0.00  -0.00
   2   6    -0.01   0.09  -0.03     0.00  -0.04   0.01    -0.00   0.03  -0.01
   3   6    -0.15   0.01  -0.01     0.06  -0.00   0.01    -0.05   0.00  -0.00
   4   6    -0.00  -0.00   0.00     0.00   0.00  -0.00    -0.00  -0.00   0.00
   5   6    -0.00   0.00  -0.00     0.00  -0.00   0.00    -0.00  -0.00   0.00
   6   6     0.00  -0.00   0.00    -0.00   0.00  -0.00    -0.00   0.01  -0.00
   7   6     0.03   0.00  -0.00    -0.01  -0.00   0.00    -0.16  -0.01   0.01
   8   6     0.00   0.02  -0.00    -0.00  -0.00   0.00    -0.00  -0.09   0.02
   9   6    -0.00  -0.00   0.00     0.00   0.00  -0.00     0.00  -0.00   0.00
  10   7    -0.00  -0.00   0.00     0.00   0.00  -0.00     0.00   0.00  -0.00
  11   6     0.00   0.00  -0.00    -0.00  -0.00   0.00    -0.00  -0.00   0.00
  12   6     0.00   0.00  -0.00    -0.00  -0.00   0.00    -0.00   0.00  -0.00
  13   6    -0.00   0.01  -0.00     0.00  -0.00   0.00     0.00  -0.00   0.00
  14   6    -0.01   0.00  -0.00     0.00  -0.00   0.00     0.00   0.00   0.00
  15   6    -0.00  -0.00   0.00     0.00   0.00   0.00     0.00   0.00  -0.00
  16   7     0.00  -0.00   0.00    -0.00   0.00  -0.00     0.00   0.00  -0.00
  17   6     0.00   0.00  -0.00     0.00  -0.00   0.00     0.00  -0.00  -0.00
  18   6     0.00  -0.00   0.00    -0.00   0.00  -0.00    -0.00   0.00  -0.00
  19   6     0.00   0.00   0.00    -0.00  -0.00  -0.00    -0.00  -0.00  -0.00
  20   6     0.00   0.01  -0.00    -0.00  -0.00   0.00    -0.00  -0.00   0.00
  21   6    -0.00  -0.00  -0.00     0.00   0.00  -0.00     0.00  -0.00   0.00
  22   7    -0.00  -0.00   0.00     0.00   0.00  -0.00     0.00   0.00  -0.00
  23   6    -0.00   0.00  -0.00     0.00  -0.00   0.00    -0.00   0.00  -0.00
  24   6     0.00   0.00  -0.00    -0.00  -0.00   0.00     0.00   0.00  -0.00
  25   7     0.00  -0.00   0.00    -0.00   0.00  -0.00     0.00  -0.00   0.00
  26   1     0.03  -0.28   0.09    -0.01   0.11  -0.04     0.01  -0.08   0.03
  27   1     0.50  -0.04   0.05    -0.21   0.02  -0.02     0.16  -0.01   0.02
  28   1    -0.11  -0.01   0.01     0.03   0.00  -0.00     0.51   0.05  -0.05
  29   1    -0.00  -0.06   0.01     0.00   0.01  -0.00     0.02   0.26  -0.07
  30   1     0.00  -0.00   0.00     0.00   0.00  -0.00    -0.00   0.01  -0.00
  31   1     0.00  -0.02   0.00    -0.00   0.01  -0.00    -0.00   0.01  -0.00
  32   1     0.02  -0.00   0.00    -0.01   0.00  -0.00    -0.01   0.00  -0.00
  33   1    -0.00   0.00  -0.00    -0.00  -0.00   0.00    -0.00  -0.00  -0.00
  34   1    -0.01  -0.00  -0.00     0.00   0.00   0.00     0.01   0.00   0.00
  35   1    -0.00  -0.02   0.00     0.00   0.01  -0.00     0.00   0.01  -0.00
  36   1    -0.00  -0.01   0.00     0.00   0.00  -0.00    -0.00  -0.00   0.00
  37  28     0.00  -0.00  -0.00    -0.00  -0.00  -0.00     0.00   0.00  -0.00
  38   6    -0.00   0.04   0.01    -0.00   0.06   0.02    -0.00   0.01   0.00
  39   6    -0.06   0.00   0.00    -0.12   0.01   0.01    -0.01   0.00   0.00
  40   6    -0.00  -0.00  -0.00    -0.00  -0.00  -0.00    -0.00  -0.00  -0.00
  41   6    -0.00   0.00   0.00     0.00   0.00   0.00    -0.00   0.00   0.00
  42   6     0.00  -0.00  -0.00     0.00  -0.00  -0.00    -0.00   0.00   0.00
  43   6     0.06   0.00   0.00     0.15   0.01   0.01    -0.01  -0.00  -0.00
  44   6     0.00   0.03   0.01     0.00   0.08   0.03    -0.00  -0.00  -0.00
  45   6    -0.00   0.00   0.00    -0.00   0.00   0.00     0.00  -0.00  -0.00
  46   7    -0.00  -0.00  -0.00    -0.00  -0.00  -0.00     0.00   0.00   0.00
  47   6     0.00   0.00   0.00     0.00   0.00   0.00    -0.00   0.00   0.00
  48   6     0.00   0.00   0.00     0.00  -0.00   0.00     0.00   0.00   0.00
  49   6    -0.00   0.01   0.00    -0.00   0.01   0.00    -0.00   0.00   0.00
  50   6    -0.00   0.00   0.00    -0.00   0.00   0.00    -0.00   0.00   0.00
  51   6    -0.00  -0.00  -0.00    -0.00  -0.00  -0.00    -0.00  -0.00  -0.00
  52   7     0.00  -0.00  -0.00     0.00  -0.00  -0.00     0.00  -0.00  -0.00
  53   6    -0.00   0.00   0.00     0.00   0.00   0.00    -0.00  -0.00   0.00
  54   6     0.00  -0.00  -0.00     0.00  -0.00  -0.00    -0.00   0.00   0.00
  55   6     0.00   0.00  -0.00     0.01   0.00  -0.00    -0.00  -0.00   0.00
  56   6     0.00   0.00   0.00     0.00   0.01   0.00    -0.00  -0.00  -0.00
  57   6    -0.00  -0.00   0.00    -0.00   0.00   0.00     0.00  -0.00  -0.00
  58   7    -0.00  -0.00  -0.00    -0.00  -0.00  -0.00     0.00   0.00  -0.00
  59   6    -0.00   0.00   0.00    -0.00   0.00   0.00    -0.00   0.00   0.00
  60   6     0.00   0.00   0.00     0.00   0.00   0.00     0.00   0.00   0.00
  61   7     0.00  -0.00  -0.00     0.00  -0.00  -0.00     0.00  -0.00  -0.00
  62   1     0.01  -0.11  -0.04     0.02  -0.19  -0.07     0.00  -0.02  -0.01
  63   1     0.21  -0.02  -0.02     0.39  -0.03  -0.03     0.05  -0.00  -0.00
  64   1    -0.20  -0.02  -0.02    -0.50  -0.05  -0.05     0.02   0.00   0.00
  65   1    -0.01  -0.11  -0.04    -0.03  -0.26  -0.09     0.00   0.01   0.00
  66   1     0.00  -0.00  -0.00     0.00  -0.01  -0.00    -0.00  -0.00  -0.00
  67   1     0.00  -0.02  -0.00     0.00  -0.02  -0.01     0.00  -0.01  -0.00
  68   1     0.02  -0.00  -0.00     0.02  -0.00  -0.00     0.01  -0.00  -0.00
  69   1     0.00   0.00  -0.00    -0.00   0.00   0.00     0.00   0.00  -0.00
  70   1    -0.01  -0.00   0.00    -0.02  -0.00   0.00     0.01   0.00  -0.00
  71   1    -0.00  -0.01  -0.00    -0.00  -0.02  -0.01     0.00   0.01   0.00
  72   1    -0.00  -0.00  -0.00    -0.00  -0.01  -0.00    -0.00  -0.00  -0.00
  73   6     0.00  -0.00  -0.00    -0.00   0.00   0.00     0.00   0.00   0.00
  74   6    -0.00  -0.00   0.00     0.00   0.00  -0.00    -0.00   0.00  -0.00
  75   6     0.00  -0.00  -0.00     0.00  -0.00  -0.00     0.00  -0.00   0.00
  76   6    -0.00   0.00   0.00    -0.00   0.00  -0.00    -0.00   0.00  -0.00
  77  28    -0.00  -0.00   0.00     0.00   0.00  -0.00    -0.00   0.00  -0.00
  78   6     0.01   0.10   0.01    -0.00  -0.03  -0.00     0.00   0.02   0.00
  79   6     0.17   0.01   0.02    -0.05  -0.00  -0.00     0.03   0.00   0.00
  80   6     0.00  -0.01  -0.00    -0.00   0.00   0.00     0.00  -0.00  -0.00
  81   6     0.00   0.00   0.00    -0.00  -0.00  -0.00     0.00  -0.00  -0.00
  82   6    -0.00  -0.00  -0.00     0.00  -0.00  -0.00     0.00   0.01   0.00
  83   6    -0.04   0.00   0.01    -0.00   0.00   0.00     0.19  -0.02  -0.02
  84   6    -0.00   0.02   0.00     0.00   0.00   0.00     0.00  -0.11  -0.01
  85   6     0.00   0.00  -0.00     0.00   0.00  -0.00    -0.00  -0.00   0.00
  86   7     0.00  -0.00  -0.00     0.00   0.00  -0.00    -0.00   0.00   0.00
  87   6    -0.00   0.00   0.00    -0.00  -0.00   0.00     0.00  -0.00  -0.00
  88   6     0.00   0.00  -0.00     0.00  -0.00  -0.00     0.00   0.00  -0.00
  89   6    -0.00  -0.01   0.00    -0.00  -0.07   0.01    -0.00  -0.01   0.00
  90   6    -0.02  -0.00   0.00    -0.12  -0.01   0.01    -0.02  -0.00   0.00
  91   6    -0.00   0.00  -0.00    -0.00   0.00  -0.00    -0.00   0.00  -0.00
  92   7     0.00   0.00   0.00     0.00   0.00  -0.00     0.00   0.00  -0.00
  93   6    -0.00  -0.00  -0.00    -0.00  -0.00   0.00    -0.00  -0.00   0.00
  94   6    -0.00   0.00   0.00     0.00   0.00  -0.00     0.00   0.00   0.00
  95   6     0.00  -0.00   0.00     0.08  -0.01   0.01     0.01  -0.00   0.00
  96   6    -0.00   0.00  -0.00     0.00  -0.04   0.00     0.00  -0.01   0.00
  97   6    -0.00  -0.00  -0.00    -0.00  -0.00  -0.00    -0.00  -0.00   0.00
  98   7     0.00  -0.00  -0.00    -0.00   0.00  -0.00    -0.00   0.00  -0.00
  99   6     0.00   0.00   0.00     0.00  -0.00   0.00     0.00   0.00   0.00
 100   6    -0.00   0.00  -0.00     0.00  -0.00   0.00    -0.00   0.00  -0.00
 101   7    -0.00  -0.00  -0.00     0.00   0.00   0.00    -0.00  -0.00  -0.00
 102   1    -0.03  -0.32  -0.03     0.01   0.10   0.01    -0.01  -0.05  -0.00
 103   1    -0.55  -0.05  -0.05     0.16   0.02   0.02    -0.09  -0.01  -0.01
 104   1     0.14  -0.02  -0.02     0.02  -0.00  -0.00    -0.62   0.07   0.07
 105   1     0.01  -0.07  -0.01     0.00  -0.00  -0.00    -0.03   0.34   0.02
 106   1    -0.00  -0.00   0.00    -0.00   0.00  -0.00     0.00   0.01  -0.00
 107   1     0.00   0.02  -0.00     0.02   0.22  -0.02     0.00   0.04  -0.00
 108   1     0.06   0.01  -0.01     0.40   0.04  -0.04     0.06   0.01  -0.01
 109   1    -0.01   0.00  -0.00    -0.25   0.03  -0.03    -0.03   0.00  -0.00
 110   1     0.00  -0.01   0.00    -0.01   0.13  -0.01    -0.00   0.03  -0.00
 111   1     0.00  -0.01   0.00     0.00   0.01   0.00     0.00  -0.00  -0.00
                    325                    326                    327
                        a                      a                      a 
 Frequencies --  3172.9636              3173.0787              3174.4906
 Red. masses --     1.9611                 1.9580                 1.9565
 Frc consts  --     0.0000                 0.0000                 0.0000
 IR Inten    --    55.5402                27.8843                63.4928
 Raman Activ --     0.0000                 0.0000                 0.0000
 Depolar     --     0.0000                 0.0000                 0.0000
 Atom AN      X      Y      Z        X      Y      Z        X      Y      Z
   1  28    -0.00   0.00  -0.00    -0.00   0.00  -0.00    -0.00  -0.00   0.00
   2   6     0.00  -0.02   0.01     0.00  -0.08   0.03     0.00  -0.04   0.01
   3   6     0.04  -0.00   0.00     0.16  -0.01   0.01     0.09  -0.00   0.01
   4   6     0.00   0.00  -0.00     0.00   0.00  -0.00     0.00   0.00  -0.00
   5   6     0.00  -0.00   0.00     0.00  -0.00   0.00     0.00   0.00  -0.00
   6   6    -0.00   0.00  -0.00    -0.00   0.00  -0.00     0.00  -0.01   0.00
   7   6    -0.01  -0.00   0.00    -0.10  -0.01   0.01     0.17   0.01  -0.02
   8   6    -0.00  -0.00   0.00    -0.00  -0.05   0.01     0.00   0.08  -0.02
   9   6     0.00   0.00  -0.00     0.00  -0.00  -0.00    -0.00   0.00   0.00
  10   7     0.00   0.00  -0.00     0.00   0.00  -0.00    -0.00  -0.00   0.00
  11   6    -0.00  -0.00   0.00    -0.00  -0.00   0.00     0.00   0.00  -0.00
  12   6    -0.00  -0.00   0.00     0.00   0.00   0.00     0.00  -0.00   0.00
  13   6     0.00  -0.00   0.00     0.00  -0.00   0.00    -0.00   0.00  -0.00
  14   6     0.00  -0.00   0.00     0.00  -0.00   0.00    -0.00  -0.00  -0.00
  15   6     0.00   0.00  -0.00     0.00   0.00   0.00    -0.00  -0.00   0.00
  16   7    -0.00   0.00  -0.00    -0.00   0.00  -0.00    -0.00  -0.00   0.00
  17   6     0.00  -0.00   0.00     0.00  -0.00   0.00     0.00   0.00   0.00
  18   6     0.00  -0.00   0.00    -0.00   0.00  -0.00     0.00   0.00  -0.00
  19   6     0.00   0.00   0.00    -0.00  -0.00  -0.00     0.00   0.00   0.00
  20   6     0.00   0.00  -0.00    -0.00  -0.01   0.00    -0.00  -0.00  -0.00
  21   6    -0.00   0.00  -0.00     0.00   0.00   0.00     0.00   0.00  -0.00
  22   7    -0.00   0.00  -0.00     0.00   0.00  -0.00    -0.00   0.00  -0.00
  23   6     0.00  -0.00   0.00     0.00  -0.00   0.00     0.00  -0.00   0.00
  24   6    -0.00  -0.00   0.00    -0.00  -0.00  -0.00    -0.00  -0.00  -0.00
  25   7    -0.00   0.00  -0.00    -0.00   0.00  -0.00    -0.00   0.00  -0.00
  26   1    -0.01   0.07  -0.02    -0.03   0.24  -0.08    -0.01   0.13  -0.04
  27   1    -0.15   0.01  -0.01    -0.52   0.04  -0.05    -0.28   0.02  -0.03
  28   1     0.03   0.00  -0.00     0.34   0.04  -0.03    -0.57  -0.06   0.06
  29   1     0.00   0.01  -0.00     0.01   0.16  -0.04    -0.02  -0.26   0.06
  30   1     0.00   0.00  -0.00    -0.00   0.00  -0.00     0.00  -0.01   0.00
  31   1    -0.00   0.01  -0.00    -0.00   0.01  -0.00     0.00  -0.01   0.00
  32   1    -0.01   0.00  -0.00    -0.01   0.00  -0.00     0.00  -0.00   0.00
  33   1    -0.00  -0.00  -0.00    -0.00  -0.00   0.00    -0.00   0.00   0.00
  34   1    -0.01  -0.00  -0.00     0.02   0.00   0.00    -0.00  -0.00  -0.00
  35   1    -0.00  -0.00   0.00     0.00   0.02  -0.00     0.00   0.00  -0.00
  36   1     0.00   0.00  -0.00     0.00   0.01  -0.00     0.00   0.00  -0.00
  37  28     0.00   0.00   0.00    -0.00  -0.00   0.00     0.00   0.00  -0.00
  38   6    -0.00   0.07   0.03     0.00  -0.02  -0.01     0.00  -0.00  -0.00
  39   6    -0.13   0.01   0.01     0.03  -0.00  -0.00     0.00  -0.00  -0.00
  40   6    -0.00  -0.00  -0.00     0.00   0.00   0.00     0.00   0.00   0.00
  41   6    -0.00  -0.00  -0.00     0.00  -0.00  -0.00    -0.00   0.00   0.00
  42   6    -0.00   0.00   0.00     0.00  -0.00  -0.00     0.00  -0.00  -0.00
  43   6    -0.15  -0.01  -0.01     0.03   0.00   0.00     0.00   0.00   0.00
  44   6    -0.00  -0.08  -0.03     0.00   0.02   0.01     0.00   0.00   0.00
  45   6     0.00  -0.00  -0.00    -0.00   0.00   0.00    -0.00  -0.00  -0.00
  46   7     0.00   0.00   0.00    -0.00  -0.00  -0.00    -0.00  -0.00  -0.00
  47   6    -0.00  -0.00  -0.00     0.00   0.00   0.00     0.00   0.00   0.00
  48   6    -0.00   0.00   0.00     0.00   0.00   0.00     0.00   0.00   0.00
  49   6     0.00  -0.00  -0.00    -0.00   0.00   0.00    -0.00   0.00   0.00
  50   6     0.00   0.00   0.00    -0.00   0.00   0.00    -0.00   0.00   0.00
  51   6    -0.00   0.00   0.00    -0.00  -0.00  -0.00    -0.00  -0.00  -0.00
  52   7     0.00   0.00   0.00     0.00  -0.00  -0.00     0.00  -0.00  -0.00
  53   6    -0.00  -0.00   0.00    -0.00   0.00   0.00    -0.00  -0.00   0.00
  54   6    -0.00  -0.00  -0.00    -0.00   0.00   0.00    -0.00   0.00   0.00
  55   6    -0.00  -0.00   0.00    -0.00  -0.00   0.00    -0.00  -0.00   0.00
  56   6     0.00   0.00   0.00    -0.00  -0.00  -0.00    -0.00  -0.00  -0.00
  57   6    -0.00  -0.00  -0.00     0.00  -0.00   0.00     0.00  -0.00  -0.00
  58   7     0.00  -0.00  -0.00     0.00   0.00   0.00     0.00   0.00   0.00
  59   6    -0.00   0.00   0.00     0.00  -0.00  -0.00     0.00  -0.00  -0.00
  60   6     0.00   0.00   0.00    -0.00  -0.00  -0.00    -0.00   0.00  -0.00
  61   7     0.00  -0.00  -0.00    -0.00   0.00   0.00    -0.00   0.00   0.00
  62   1     0.02  -0.21  -0.08    -0.01   0.05   0.02    -0.00   0.00   0.00
  63   1     0.42  -0.03  -0.03    -0.10   0.01   0.01    -0.01   0.00   0.00
  64   1     0.48   0.04   0.04    -0.09  -0.01  -0.01    -0.01  -0.00  -0.00
  65   1     0.02   0.24   0.08    -0.00  -0.05  -0.02    -0.00  -0.00  -0.00
  66   1    -0.00   0.01   0.00     0.00  -0.00  -0.00    -0.00  -0.00  -0.00
  67   1    -0.00   0.01   0.00     0.00  -0.00  -0.00     0.00  -0.01  -0.00
  68   1    -0.00   0.00   0.00     0.00  -0.00  -0.00     0.01  -0.00  -0.00
  69   1     0.00   0.00   0.00     0.00   0.00  -0.00     0.00   0.00  -0.00
  70   1     0.00   0.00  -0.00     0.00   0.00  -0.00     0.01   0.00  -0.00
  71   1    -0.00  -0.00  -0.00     0.00   0.00   0.00     0.00   0.01   0.00
  72   1    -0.00  -0.01  -0.00     0.00   0.00   0.00    -0.00   0.00   0.00
  73   6     0.00  -0.00  -0.00     0.00  -0.00  -0.00     0.00   0.00  -0.00
  74   6    -0.00   0.00  -0.00     0.00   0.00  -0.00     0.00  -0.00   0.00
  75   6    -0.00   0.00  -0.00     0.00   0.00  -0.00     0.00  -0.00   0.00
  76   6    -0.00   0.00  -0.00     0.00  -0.00   0.00    -0.00   0.00  -0.00
  77  28     0.00  -0.00  -0.00    -0.00  -0.00   0.00    -0.00   0.00   0.00
  78   6     0.00   0.02   0.00     0.00   0.08   0.01     0.00   0.04   0.00
  79   6     0.03   0.00   0.00     0.15   0.01   0.01     0.08   0.01   0.01
  80   6     0.00  -0.00  -0.00     0.00  -0.01  -0.00     0.00  -0.00  -0.00
  81   6     0.00   0.00   0.00     0.00   0.00   0.00     0.00  -0.00  -0.00
  82   6    -0.00  -0.00  -0.00    -0.00  -0.00  -0.00     0.00   0.00   0.00
  83   6    -0.02   0.00   0.00    -0.06   0.00   0.01     0.15  -0.01  -0.02
  84   6    -0.00   0.01   0.00    -0.00   0.03   0.00     0.00  -0.08  -0.01
  85   6     0.00   0.00  -0.00     0.00   0.00  -0.00    -0.00  -0.00   0.00
  86   7     0.00  -0.00  -0.00     0.00  -0.00  -0.00    -0.00   0.00   0.00
  87   6    -0.00  -0.00   0.00    -0.00   0.00   0.00     0.00  -0.00  -0.00
  88   6     0.00  -0.00  -0.00    -0.00   0.00   0.00    -0.00   0.00  -0.00
  89   6    -0.00  -0.06   0.01     0.00   0.02  -0.00     0.00   0.00  -0.00
  90   6    -0.11  -0.01   0.01     0.04   0.00  -0.00     0.00   0.00  -0.00
  91   6    -0.00   0.00  -0.00     0.00  -0.00   0.00     0.00  -0.00  -0.00
  92   7     0.00   0.00  -0.00    -0.00  -0.00   0.00    -0.00   0.00   0.00
  93   6    -0.00  -0.00   0.00     0.00   0.00  -0.00    -0.00  -0.00   0.00
  94   6    -0.00  -0.00   0.00     0.00   0.00  -0.00     0.00   0.00   0.00
  95   6    -0.10   0.01  -0.01     0.01  -0.00   0.00     0.01  -0.00   0.00
  96   6    -0.00   0.06  -0.01     0.00  -0.00   0.00     0.00  -0.00   0.00
  97   6     0.00   0.00   0.00    -0.00  -0.00  -0.00    -0.00  -0.00   0.00
  98   7     0.00  -0.00   0.00    -0.00  -0.00  -0.00    -0.00   0.00  -0.00
  99   6    -0.00   0.00  -0.00     0.00   0.00   0.00     0.00   0.00   0.00
 100   6    -0.00   0.00  -0.00    -0.00   0.00  -0.00    -0.00   0.00  -0.00
 101   7    -0.00  -0.00  -0.00    -0.00  -0.00  -0.00    -0.00  -0.00  -0.00
 102   1    -0.01  -0.05  -0.00    -0.03  -0.26  -0.02    -0.01  -0.13  -0.01
 103   1    -0.11  -0.01  -0.01    -0.51  -0.05  -0.05    -0.26  -0.03  -0.03
 104   1     0.06  -0.01  -0.01     0.19  -0.02  -0.02    -0.50   0.06   0.06
 105   1     0.00  -0.03  -0.00     0.01  -0.09  -0.01    -0.02   0.24   0.02
 106   1    -0.00   0.00  -0.00     0.00  -0.00   0.00     0.00   0.01  -0.00
 107   1     0.02   0.20  -0.02    -0.01  -0.08   0.01    -0.00  -0.00   0.00
 108   1     0.37   0.04  -0.04    -0.13  -0.01   0.01    -0.01  -0.00   0.00
 109   1     0.34  -0.04   0.04    -0.04   0.00  -0.00    -0.02   0.00  -0.00
 110   1     0.02  -0.19   0.02    -0.00   0.01  -0.00    -0.00   0.02  -0.00
 111   1    -0.00  -0.01   0.00     0.00  -0.01   0.00     0.00  -0.00   0.00
