111
 energy: -202.093134424813 gnorm: 0.616037135139 xtb: 6.4.1 (bd6e46d)
Ni       15.83846300000000    0.03559800000000   -0.00993100000000
C        18.16745400000000   -3.11119500000000    1.31275700000000
C        19.08356100000000   -2.16698800000000    1.26247500000000
C        18.67238100000000   -1.11308400000000    0.34118300000000
C        19.29125200000000    0.01126200000000   -0.00522600000000
C        18.58721000000000    1.23121100000000   -0.36933200000000
C        18.91532000000000    2.19126500000000   -1.21680500000000
C        17.88054000000000    3.20755100000000   -1.23370300000000
C        16.94427200000000    2.83108900000000   -0.38681100000000
N        17.34626300000000    1.59807800000000    0.17700600000000
C        15.68319800000000    3.47608800000000   -0.00766000000000
C        14.58798100000000    2.84130600000000    0.34310000000000
C        13.51435500000000    3.15926200000000    1.31212900000000
C        12.67679200000000    2.16250800000000    1.23496200000000
C        13.11509000000000    1.15882500000000    0.25451000000000
N        14.22002800000000    1.59767800000000   -0.22978200000000
C        12.50425500000000   -0.09444600000000   -0.15903800000000
C        13.16841600000000   -1.19895300000000   -0.41346200000000
C        12.79456700000000   -2.26189400000000   -1.37099000000000
C        13.74331400000000   -3.15565000000000   -1.28197000000000
C        14.72903800000000   -2.71820000000000   -0.29909300000000
N        14.37599200000000   -1.57239500000000    0.19770500000000
C        15.95992600000000   -3.37427100000000    0.14662900000000
C        17.08296700000000   -2.72840900000000    0.41375000000000
N        17.41156700000000   -1.48096800000000   -0.18465400000000
H        18.22771500000000   -4.02097600000000    1.93030400000000
H        19.99988800000000   -2.20693700000000    1.84052400000000
H        19.84268500000000    2.20806100000000   -1.81794900000000
H        17.89743900000000    4.11223900000000   -1.84632500000000
H        15.63547500000000    4.57089100000000   -0.01143700000000
H        13.46153400000000    4.03798700000000    1.93712100000000
H        11.76516200000000    2.12683800000000    1.85228600000000
H        11.40600500000000   -0.09153500000000   -0.25830800000000
H        11.92571100000000   -2.31435900000000   -2.01994000000000
H        13.74046800000000   -4.07195800000000   -1.88073000000000
H        15.92444400000000   -4.47007200000000    0.25855300000000
Ni       40.00276500000000   -0.01177800000000   -0.01436400000000
C        37.67377400000000    2.83501400000000    1.86914000000000
C        36.75766600000000    1.91652400000000    1.64456700000000
C        37.16884600000001    1.05182800000000    0.54375300000000
C        36.54997500000001    0.01126200000000   -0.00522600000000
C        37.25401800000000   -1.11996200000000   -0.58932900000000
C        36.92590700000001   -1.90613400000000   -1.60019600000000
C        37.96068700000000   -2.90164300000000   -1.80533600000000
C        38.89695500000000   -2.68882700000000   -0.90330600000000
N        38.49496500000000   -1.58181500000000   -0.12053500000000
C        40.15802900000000   -3.39296800000000   -0.65039300000000
C        41.25324700000001   -2.83427500000000   -0.18796000000000
C        42.32687200000000   -3.32648100000000    0.70526200000000
C        43.16443500000000   -2.33271400000000    0.81434700000000
C        42.72613700000000   -1.16456500000000    0.03711200000000
N        41.62119900000000   -1.50595700000000   -0.52018700000000
C        43.33697200000000    0.14367000000000   -0.13675700000000
C        42.67281200000000    1.27620400000000   -0.18186400000000
C        43.04666000000001    2.49832900000000   -0.92557900000000
C        42.09791300000000    3.36005700000000   -0.67230000000000
C        41.11218900000000    2.74786200000000    0.21236300000000
N        41.46523500000000    1.52978300000000    0.48797300000000
C        39.88130100000001    3.30985600000000    0.77205800000000
C        38.75826000000000    2.62565200000000    0.91472500000000
N        38.42966000000000    1.51087700000000    0.09529100000000
H        37.61351200000000    3.61443800000000    2.64474400000000
H        35.84133900000000    1.84854400000000    2.21999200000000
H        35.99854200000000   -1.81111700000000   -2.19402100000000
H        37.94378800000000   -3.67697800000000   -2.57515600000000
H        40.20575200000000   -4.46806600000000   -0.85720600000000
H        42.37969400000000   -4.30589700000000    1.15638900000000
H        44.07606500000000   -2.41218600000000    1.42757300000000
H        44.43522300000000    0.15922600000000   -0.23484500000000
H        43.91551600000000    2.67027300000000   -1.55353100000000
H        42.10075900000000    4.37153800000000   -1.09067800000000
H        39.91678400000000    4.36587300000000    1.08532700000000
C        21.90570000000000    0.01126200000000   -0.00522600000000
C        23.12190500000001    0.01126200000000   -0.00522600000000
C        32.71932200000000    0.01126200000000   -0.00522600000000
C        33.93552700000000    0.01126200000000   -0.00522600000000
Ni       27.95211000000000    0.02406400000000    0.00825900000000
C        25.67229900000000   -3.23738300000000   -0.90140700000000
C        24.71609000000000   -2.33803300000000   -1.00343300000000
C        25.10846400000000   -1.17572800000000   -0.20091700000000
C        24.47334700000000   -0.02445600000000    0.01134900000000
C        25.15880400000000    1.25014400000000    0.23757800000000
C        24.82351400000000    2.32874400000000    0.94181900000000
C        25.84805500000000    3.34806100000000    0.85123700000000
C        26.79865300000000    2.85113600000000    0.07787200000000
N        26.42165800000000    1.53453100000000   -0.33827100000000
C        28.04579200000000    3.46283800000000   -0.33899300000000
C        29.14734400000000    2.79558000000000   -0.67076500000000
C        30.14089000000000    3.04756500000000   -1.70493500000000
C        31.03477300000000    2.08670600000000   -1.60345100000000
C        30.65507500000000    1.17482200000000   -0.49947400000000
N        29.56016000000000    1.62414100000000    0.00789300000000
C        31.31228200000000   -0.02445600000000    0.01134900000000
C        30.68887100000000   -1.09363800000000    0.47286600000000
C        31.06758300000000   -2.02575300000000    1.54834100000000
C        30.12691500000000   -2.93989900000000    1.63420700000000
C        29.11861300000000   -2.64412000000000    0.63678000000000
N        29.45638800000000   -1.59074300000000   -0.01251500000000
C        27.86622000000000   -3.35112700000000    0.30558700000000
C        26.75234400000000   -2.75443100000000   -0.04175400000000
N        26.37023100000000   -1.47167400000000    0.37592800000000
H        25.67264300000000   -4.22845700000000   -1.39264100000000
H        23.80755500000000   -2.45972700000000   -1.58458100000000
H        23.89866200000000    2.44709500000000    1.51874400000000
H        25.87535000000000    4.33722500000000    1.30788700000000
H        28.13173200000000    4.56021500000000   -0.40101600000000
H        30.17356300000001    3.85378100000000   -2.43175900000000
H        31.92783500000001    1.97373800000000   -2.23722500000000
H        31.98233400000001   -1.95134700000000    2.15851100000000
H        30.14596100000000   -3.75350700000000    2.34247500000000
H        27.90470500000000   -4.45108700000000    0.36462300000000
111
 energy: -202.295872409714 gnorm: 0.331410120315 xtb: 6.4.1 (bd6e46d)
Ni       15.85069006586538    0.03262347935176   -0.00817855101748
C        18.17032042670148   -3.12147373190723    1.30032460018725
C        19.10264124741499   -2.16760527262828    1.25654745115744
C        18.67218423217562   -1.11412534980251    0.34811030329344
C        19.28382890108483    0.03790527304419   -0.00263766234367
C        18.57493828729823    1.22634538786374   -0.36282317943561
C        18.93128682547692    2.22385578733753   -1.23488904305811
C        17.91556087538775    3.20938219671326   -1.24762219041601
C        16.93742328865264    2.79988242745337   -0.38209602422580
N        17.31160377709205    1.56280756487512    0.16985298454774
C        15.70642020137607    3.47189288321551   -0.00649247663842
C        14.57952038469811    2.82158934808856    0.34422334863877
C        13.51209833718786    3.16856223848611    1.28927864889733
C        12.64611967773945    2.15553813962011    1.23696197714182
C        13.11231969237315    1.15700528733506    0.27589717445110
N        14.26952470059772    1.56114755053074   -0.19602648600407
C        12.49001968645723   -0.07004773477764   -0.15142686608596
C        13.17262914293176   -1.20020982676078   -0.41966695047813
C        12.78399839362116   -2.26477736951930   -1.35210928072879
C        13.75029606688262   -3.18103140577322   -1.27730026361250
C        14.74158178382773   -2.72520925065867   -0.31086731090052
N        14.40019819703290   -1.53652165925749    0.15737530006847
C        15.94117295962018   -3.38088400791031    0.13794634582351
C        17.08776815439014   -2.70915914553912    0.41878107761768
N        17.39760631929800   -1.46109320657320   -0.14103466543687
H        18.21626242682566   -4.01474715435782    1.91923218719245
H        20.00753252597844   -2.19461354811748    1.83708930724448
H        19.84156749142126    2.22127881373606   -1.82138700105175
H        17.90805448193006    4.10812836551834   -1.84787350245992
H        15.65888981570288    4.56403217307467   -0.00156185611565
H        13.47106496904966    4.03615493771084    1.92726996475352
H        11.75730390854445    2.11446506969862    1.85133685530136
H        11.40626022109263   -0.07885725220641   -0.26665663415315
H        11.92757212655452   -2.30219323613241   -2.00906579902035
H        13.75535348154508   -4.07891472795156   -1.87620983223931
H        15.91771824420114   -4.46529391604453    0.25895520690100
Ni       39.99057943079533   -0.00918413299825   -0.01211690147124
C        37.67096678827290    2.84744854338287    1.85882928826260
C        36.73868423776329    1.91822030732549    1.63884823234409
C        37.16925942245607    1.05154383760606    0.55089271533481
C        36.55758219757146   -0.01579712068631   -0.00684630836028
C        37.26654172570532   -1.11634833719377   -0.58198323651666
C        36.91001579919391   -1.93479176413193   -1.62389032034720
C        37.92569033593183   -2.90085850531497   -1.81934535500399
C        38.90385097581128   -2.65908893870645   -0.89289534826173
N        38.52974185378261   -1.54590209206828   -0.12104772886252
C        40.13481282858884   -3.38911070688185   -0.64847511923885
C        41.26170001459886   -2.81510568404611   -0.18318679471694
C        42.32912188438871   -3.33137416249203    0.68106679640378
C        43.19510067163689   -2.32621762274764    0.81759370442728
C        42.72892337894315   -1.16674027096450    0.05844002637070
N        41.57170343735139   -1.47633741065480   -0.48027587304053
C        43.35120724929875    0.11826986906318   -0.13380783284775
C        42.66858646849541    1.27859025173292   -0.18774699415837
C        43.05721866299432    2.49764297114854   -0.90649582730302
C        42.09091036314544    3.38412550380101   -0.66301392912013
C        41.09963526926338    2.75694417492430    0.20207756779018
N        41.44101671492663    1.50201433040138    0.44167987617456
C        39.90004303020092    3.31801983341074    0.76473720721881
C        38.75345119307881    2.60589382284486    0.91607483881820
N        38.44375125782048    1.48313132523605    0.13461617423406
H        37.62496849887123    3.61038413654114    2.63270834029990
H        35.83374625832614    1.83711701205940    2.21429942426471
H        35.99973071202432   -1.82342897015825   -2.19987882921561
H        37.93317739398326   -3.67264860018873   -2.57595028800308
H        40.18236600069048   -4.46319275858530   -0.84627649975044
H        42.37016551330513   -4.30227117678229    1.14703834913244
H        44.08392580231538   -2.39984915672611    1.42892291328936
H        44.43496963715346    0.14831704820044   -0.24539286017811
H        43.91365073213170    2.65629511170820   -1.54510688860289
H        42.08586612625079    4.37753551312548   -1.08494931292225
H        39.92351429502428    4.36113595759209    1.08484820740421
C        21.86263745768565    0.01032218477213   -0.00537184087850
C        23.08490705243572    0.02287018985003   -0.00859316945100
C        32.75291336024522    0.02085372068484    0.00062253590089
C        33.97208563483535    0.01122644268559   -0.00576353921897
Ni       27.94250469347388    0.02564380327506    0.00676669753828
C        25.67111088360081   -3.25858466634844   -0.89005172467242
C        24.70862291150231   -2.33863911132178   -0.99118170029138
C        25.13320616317974   -1.18544943808850   -0.20625242504181
C        24.47846934232663   -0.00018433169193    0.00766713404638
C        25.18928439082032    1.25242932797276    0.23604035411768
C        24.81160648263607    2.35977057090566    0.95309582737618
C        25.81862020310446    3.34889510754794    0.85850941253652
C        26.81125972544852    2.82390910456050    0.07596173650318
N        26.45868314290857    1.50907526851347   -0.31501211745805
C        28.02825461859758    3.45903523544342   -0.34203939358727
C        29.15556448424681    2.77847440579091   -0.67156849892314
C        30.15255605066812    3.05614162204349   -1.68675564713430
C        31.06080918809980    2.07433808253259   -1.60116813044184
C        30.65819215241806    1.16819521950211   -0.52052853461693
N        29.51405807667791    1.58784356716029   -0.02210304202046
C        31.33282317114392   -0.00531629699359    0.00155679614831
C        30.67907456625371   -1.10157994329339    0.48019977788595
C        31.08297244672980   -2.02772772782836    1.53430261209230
C        30.12440406840368   -2.95864244071583    1.63154709952691
C        29.10578913504536   -2.64566547816152    0.64788415590052
N        29.43047688621789   -1.53996088364622    0.00990138775064
C        27.88814911072087   -3.35786775776798    0.31614162514835
C        26.74190668864865   -2.73849133708606   -0.05110722672081
N        26.39464923754894   -1.44526657434920    0.32827361153561
H        25.67955693935394   -4.22538282070545   -1.38745720962598
H        23.80822047443715   -2.44607332301816   -1.57785475349947
H        23.89663688401542    2.45422589036071    1.52082582447294
H        25.85921773133509    4.32968217235587    1.31101535770788
H        28.10692852151591    4.55103887067348   -0.40962107348978
H        30.16434113754741    3.85164756385948   -2.41966613749896
H        31.93123313143521    1.96428456703667   -2.23368261532469
H        31.97667371695079   -1.94479781766473    2.14731151078188
H        30.13573159035602   -3.76185096683789    2.34286624171410
H        27.91381106730702   -4.44788126851997    0.36099950956772
111
 energy: -202.421827907335 gnorm: 0.138135398767 xtb: 6.4.1 (bd6e46d)
Ni       15.86140146607482    0.03221498592976   -0.00405980709326
C        18.16960777316077   -3.12498918383343    1.28575846286388
C        19.11925057869614   -2.16679767211247    1.24745868243185
C        18.66806347723654   -1.11142048827503    0.36170140977689
C        19.27773901005634    0.06169660893550   -0.00795008783012
C        18.56545385042396    1.21457159407956   -0.36155325945907
C        18.94255058600077    2.25617143221706   -1.24231572185081
C        17.95212490438907    3.20633768076237   -1.24667611340619
C        16.93008810016784    2.76355630514835   -0.37544548859924
N        17.27861775926250    1.52168987408678    0.13907850341152
C        15.73390700380914    3.45706758752226   -0.00563413030132
C        14.58486196667357    2.78781409274785    0.35672794889706
C        13.51819971685370    3.16822945559793    1.26056557507148
C        12.62074984271734    2.15248838992931    1.22639577119649
C        13.11118397356378    1.15157816697179    0.29993129273018
N        14.32759301063357    1.51681584826684   -0.14595776891402
C        12.48379188311029   -0.04666685610247   -0.14197948990624
C        13.18722214560143   -1.19211552710500   -0.43805414078393
C        12.78190232655729   -2.26301348174010   -1.33015929125562
C        13.75331050867348   -3.20155116410362   -1.26226139838781
C        14.75698036663893   -2.72661125344185   -0.32494758599735
N        14.43077389252648   -1.48597160522522    0.10149288119223
C        15.92451358978941   -3.37760609066583    0.12760592080476
C        17.08666710048501   -2.67916714055089    0.43049099496952
N        17.38088663179930   -1.43715051859635   -0.08976438109670
H        18.20331840103659   -4.00845001293101    1.90162995617395
H        20.01880761368737   -2.18173343771166    1.82713211771836
H        19.84137246938741    2.23279264734617   -1.82004735072491
H        17.91346993611654    4.10156855806857   -1.84084915739798
H        15.68284460478901    4.54640767646169   -0.00080685797342
H        13.48115549989050    4.03042134940535    1.90733941549309
H        11.74897734562864    2.10233509569820    1.84200274294233
H        11.40990675383292   -0.07089312036551   -0.26497944504417
H        11.93139806513804   -2.28995712694153   -1.99077378628273
H        13.77006182133949   -4.08679560372661   -1.86370143286492
H        15.91780035545750   -4.45476474695191    0.25160200085692
Ni       39.97989665303088   -0.00953729605594   -0.00799557951019
C        37.67173128040110    2.85358776070949    1.84517429493338
C        36.72226234215294    1.91896556094073    1.62966873011060
C        37.17396118139749    1.04655005265809    0.56335097167381
C        36.56463452533179   -0.03715756166146   -0.01842875910611
C        37.27640370456349   -1.10486574339057   -0.57886466164365
C        36.89890720581143   -1.96518385367951   -1.63726654689213
C        37.88917254022790   -2.89812931980492   -1.81783740520274
C        38.91124514653630   -2.62475831171031   -0.87958205558684
N        38.56283018752152   -1.49987920097669   -0.14363556014447
C        40.10735101987363   -3.37477023182299   -0.64488547689384
C        41.25637481477552   -2.78424814554348   -0.16461836591444
C        42.32300603026689   -3.32569964014665    0.65293691194221
C        43.22048364684288   -2.32124378806081    0.80775913008227
C        42.73007117786965   -1.16586492322973    0.08306180761157
N        41.51361831146622   -1.44208495825645   -0.42284489269818
C        43.35743382763616    0.09353417714139   -0.12886796894053
C        42.65398607901496    1.27405158221515   -0.20734939790900
C        43.05930548935966    2.49181819959933   -0.88529116292033
C        42.08789920823192    3.40149985465921   -0.64445441323600
C        41.08426223479373    2.76096996430620    0.18848843860176
N        41.41045346943846    1.46272827929363    0.37738110762421
C        39.91679591570492    3.31681322301003    0.75401012302948
C        38.75469806634005    2.57436353896878    0.92210405160238
N        38.46088420337306    1.45038816440987    0.18048054528060
H        37.63786374076461    3.60748295690974    2.61421380659319
H        35.82255302255377    1.82629605383268    2.20194519231245
H        36.00007073058320   -1.83500823055256   -2.20070796552541
H        37.92778000452986   -3.66755654895921   -2.56782930863411
H        40.15845499135477   -4.44606307207599   -0.84230140913817
H        42.36007398076513   -4.29292470960520    1.12853666573048
H        44.09226053630277   -2.38618387114889    1.42199518544752
H        44.43132554312372    0.14018352538572   -0.24521651502983
H        43.90982090880228    2.64086334162854   -1.52943629747708
H        42.07115789842665    4.38295664507555   -1.07123265922807
H        39.92347118220032    4.35224331720945    1.07565083144593
C        21.82226989049477    0.01761105212349   -0.00372881966782
C        23.04559116987152    0.03526459306520   -0.00646230435379
C        32.79356355772514    0.02000049516699    0.00272035867781
C        34.01557212363900    0.00143255098980   -0.00044352355669
Ni       27.93664667106921    0.02830216640905    0.00350107397919
C        25.67493753308361   -3.27179048351268   -0.87633087526656
C        24.70493625838830   -2.33353899969053   -0.97463492540623
C        25.15728548521444   -1.18392653622399   -0.21807707846623
C        24.47779371463662    0.02604980043837    0.00707804983449
C        25.21967489046765    1.24594873020899    0.23560373727594
C        24.80282332641789    2.38945201690387    0.95401624272261
C        25.78786573618076    3.34302670155843    0.85496486783395
C        26.82598058598364    2.79050837919845    0.07508684041755
N        26.49461390137911    1.47838031345895   -0.26872485822892
C        28.00760331210259    3.44523337839958   -0.34387525182792
C        29.15389255634867    2.74488779095217   -0.68100442508145
C        30.15931579635426    3.05570112369709   -1.66422579853112
C        31.08466958669845    2.06337900599237   -1.58670976773612
C        30.66523389638740    1.15488051353741   -0.54212233303175
N        29.46274809386952    1.54077329701864   -0.06479971974175
C        31.35733394427290    0.01232055434473   -0.00889678594083
C        30.66521461447438   -1.09699104045743    0.49509956403404
C        31.09117693844683   -2.02456219477380    1.51548509257237
C        30.12381115794300   -2.97313011906161    1.61644840401431
C        29.09087930304975   -2.63976247076688    0.65955212594199
N        29.40323705637106   -1.47246387096870    0.04732167748865
C        27.90955732494842   -3.35153342003438    0.32618049765596
C        26.74157439987907   -2.71485792931162   -0.07019641262559
N        26.41963655716940   -1.41646816146014    0.26971810587238
H        25.68675971206746   -4.22261524976692   -1.37458398596976
H        23.80848957874586   -2.42994059752089   -1.56278048362400
H        23.89407244625704    2.45806162713171    1.51681457831063
H        25.84489643681338    4.31823129925527    1.30746011492165
H        28.08068686042019    4.53233291539534   -0.41036727326716
H        30.15458337295936    3.84819153115304   -2.39753800708997
H        31.93711290725988    1.95566356733625   -2.22349447597959
H        31.97084310063724   -1.94024447587089    2.12968469550245
H        30.12426086885959   -3.76965060957647    2.33373141445330
H        27.91725020053881   -4.43563435480540    0.36438029013208
111
 energy: -202.495068608878 gnorm: 0.090078395965 xtb: 6.4.1 (bd6e46d)
Ni       15.87155494771773    0.03305073185748    0.00243504397506
C        18.17243304878246   -3.12091953197820    1.27277177828099
C        19.13427302063478   -2.16558911289764    1.23842756570161
C        18.66965984948238   -1.09904070824046    0.38512992777518
C        19.28705831423428    0.07475207920080   -0.00454249181148
C        18.56774438191015    1.20076504295231   -0.37076684875788
C        18.96004371978155    2.27535278808039   -1.24185999030538
C        17.97746950360931    3.20647838648750   -1.23947034654676
C        16.92897472186115    2.73039810896268   -0.37705299412876
N        17.26083360924466    1.47890903584021    0.09309653598639
C        15.76007477639158    3.42929948770122   -0.00049608882990
C        14.60789282716037    2.74737685728632    0.38166589573255
C        13.52462964943152    3.16167390067628    1.23719429781082
C        12.60629789712226    2.15427712150384    1.20887272151712
C        13.11915323019746    1.13511646985307    0.32861888652832
N        14.37885687145579    1.46790253152556   -0.08161960479994
C        12.48728836363455   -0.03329213575355   -0.13475047538285
C        13.20789747755117   -1.17517100031399   -0.46532524680707
C        12.78425148449838   -2.26228713780030   -1.31324762946769
C        13.75194043196285   -3.21315592181297   -1.24314137235471
C        14.77557431924608   -2.71358040420848   -0.34875752347806
N        14.46562461742357   -1.43615587374497    0.03546768286983
C        15.92059554177096   -3.36201813975240    0.11991904402783
C        17.08375840848919   -2.64938330602567    0.44795694075184
N        17.36872811455857   -1.40197588378758   -0.03373475355331
H        18.19217048711655   -4.00809243111949    1.87850460600057
H        20.03872301011004   -2.17252451404224    1.81005473170567
H        19.85889079371731    2.24673190485348   -1.81747646510400
H        17.91841455362805    4.10397226510072   -1.82738880137700
H        15.71273510144248    4.51678098682999   -0.00460130878700
H        13.48952587547921    4.02870278555465    1.87573682303202
H        11.73218428781995    2.09523968922173    1.82214869476320
H        11.41401717776322   -0.06335410525623   -0.25523676141737
H        11.92915962812943   -2.28194223074547   -1.96517037747538
H        13.78206405215452   -4.10225776484078   -1.83942694021252
H        15.92260514459887   -4.43895499144913    0.23693876696743
Ni       39.96993521457232   -0.01144504741347   -0.00180158208828
C        37.66895536640550    2.85209687962799    1.83167645114476
C        36.70736100514971    1.91952109767236    1.62075775777971
C        37.17248594017735    1.02973968083560    0.58465816216158
C        36.55560183198137   -0.05149377462041   -0.01586680326778
C        37.27431101166326   -1.08984581445304   -0.58503088281180
C        36.88154682536221   -1.98403772976500   -1.64033837126957
C        37.86390087895793   -2.89963890403692   -1.81083996014070
C        38.91250306789547   -2.59199189090089   -0.87513331212051
N        38.58106001455923   -1.44930360503232   -0.18109428104891
C        40.08127734472790   -3.34855786952268   -0.63471129494716
C        41.23339470337785   -2.74919605499957   -0.13260570170448
C        42.31660109789453   -3.31493331968244    0.63122554189129
C        43.23494499451415   -2.31974249048327    0.79024790064580
C        42.72209921076342   -1.15501895407895    0.11434862709082
N        41.46236514792302   -1.40598749396718   -0.35052193245243
C        43.35394560691669    0.07906223112839   -0.12424130609469
C        42.63334864533529    1.26247328214190   -0.23728306165491
C        43.05699166058692    2.48796800741508   -0.86882981046351
C        42.08930864248709    3.40935956601014   -0.62355011384625
C        41.06572317404959    2.75261568654323    0.16265757776830
N        41.37567679816722    1.42609274272162    0.30332554493475
C        39.92077599212002    3.30298829464554    0.74351953672709
C        38.75767037440779    2.54193283508260    0.93369329681140
N        38.47292077033322    1.40549729614776    0.22898856490070
H        37.64906114847327    3.61151875163135    2.59143169365299
H        35.80277665429704    1.82048663836685    2.18354969468356
H        35.98262747425859   -1.84914078079679   -2.20056099063267
H        37.92280280572947   -3.67249565559924   -2.55503965759646
H        40.12865167060458   -4.41636676889656   -0.84051289900225
H        42.35172439034669   -4.28537397564443    1.09784510330921
H        44.10906406168020   -2.37551411492865    1.40382821811895
H        44.42722074396607    0.13096747696536   -0.23704452906463
H        43.91208227400951    2.62822571405864   -1.50579295641270
H        42.05917567898387    4.39364531813426   -1.04454885873644
H        39.91874316267367    4.33948963537142    1.05832213332119
C        21.77932831561043    0.02992953026543   -0.00351349973295
C        23.00502658008002    0.04794118908824   -0.00522863453389
C        32.84265057981447    0.01495351959762   -0.00302446770657
C        34.06751762221324   -0.00663487829571   -0.00482573600384
Ni       27.93880965210283    0.03305833066033   -0.00251482099762
C        25.67659741470964   -3.27115405849070   -0.86252635927780
C        24.70076115086702   -2.32799171580085   -0.95799595833947
C        25.16509446038479   -1.16772599305758   -0.23911848473044
C        24.46180821567678    0.04541175623648    0.00280079461813
C        25.22831195617616    1.23356603339107    0.24308487561998
C        24.78911948705100    2.40438460780037    0.94920968430710
C        25.76697354957852    3.33894403472322    0.84724952398576
C        26.83533354134622    2.75821311714849    0.08554002260807
N        26.51776398032152    1.44155673619308   -0.20927035490529
C        27.99205051659981    3.41486635053100   -0.34604902604383
C        29.14183876094572    2.69942463535680   -0.69858268449742
C        30.16521081349978    3.04635392307581   -1.64380720644653
C        31.10592980436768    2.05916128229283   -1.56882222403615
C        30.67637330821996    1.13007809721724   -0.56399314113334
N        29.42693066011340    1.48304429708722   -0.11764129275310
C        31.39124255312720    0.02191663118778   -0.01574949228269
C        30.66253842821164   -1.07830180380338    0.51284315330199
C        31.09711470452046   -2.02391350126356    1.49902995597980
C        30.12737302772771   -2.97888080553698    1.59714657360197
C        29.07856411274071   -2.61446025968308    0.67700457817024
N        29.38371620636485   -1.40447035317187    0.09616177363718
C        27.92239377829432   -3.33009990004407    0.32924998104943
C        26.75076398711824   -2.68887830275119   -0.09580641712578
N        26.44502233689565   -1.38066199514449    0.20247047077985
H        25.69180392789508   -4.22403478160367   -1.35383670236578
H        23.80133750212186   -2.41634526404335   -1.53891141127275
H        23.87831402088548    2.46253355491534    1.50761144689763
H        25.82986998418122    4.31369833519185    1.29658254862502
H        28.05196562187657    4.50042619221968   -0.40900702054495
H        30.14818606575366    3.84773461693227   -2.36474482739206
H        31.95652172326894    1.95271680094646   -2.20784588567780
H        31.97593397058150   -1.94149287235891    2.10863341495396
H        30.11502336582702   -3.78079141261403    2.31138643102047