      -----------------------------------------------------------      
     |                   =====================                   |     
     |                           x T B                           |     
     |                   =====================                   |     
     |                         S. Grimme                         |     
     |          Mulliken Center for Theoretical Chemistry        |     
     |                    University of Bonn                     |     
      -----------------------------------------------------------      

   * xtb version 6.4.1 (bd6e46d) compiled by 'conda@4901f00b25ba' on 2021-06-10

   xtb is free software: you can redistribute it and/or modify it under
   the terms of the GNU Lesser General Public License as published by
   the Free Software Foundation, either version 3 of the License, or
   (at your option) any later version.
   
   xtb is distributed in the hope that it will be useful,
   but WITHOUT ANY WARRANTY; without even the implied warranty of
   MERCHANTABILITY or FITNESS FOR A PARTICULAR PURPOSE.  See the
   GNU Lesser General Public License for more details.
   
   Cite this work as:
   * C. Bannwarth, E. Caldeweyher, S. Ehlert, A. Hansen, P. Pracht,
     J. Seibert, S. Spicher, S. Grimme, WIREs Comput. Mol. Sci., 2020, 11,
     e01493. DOI: 10.1002/wcms.1493
   
   for GFN2-xTB:
   * C. Bannwarth, S. Ehlert and S. Grimme., J. Chem. Theory Comput., 2019,
     15, 1652-1671. DOI: 10.1021/acs.jctc.8b01176
   for GFN1-xTB:
   * S. Grimme, C. Bannwarth, P. Shushkov, J. Chem. Theory Comput., 2017,
     13, 1989-2009. DOI: 10.1021/acs.jctc.7b00118
   for GFN0-xTB:
   * P. Pracht, E. Caldeweyher, S. Ehlert, S. Grimme, ChemRxiv, 2019, preprint.
     DOI: 10.26434/chemrxiv.8326202.v1
   for GFN-FF:
   * S. Spicher and S. Grimme, Angew. Chem. Int. Ed., 2020, 59, 15665-15673.
     DOI: 10.1002/anie.202004239
   
   for DFT-D4:
   * E. Caldeweyher, C. Bannwarth and S. Grimme, J. Chem. Phys., 2017,
     147, 034112. DOI: 10.1063/1.4993215
   * E. Caldeweyher, S. Ehlert, A. Hansen, H. Neugebauer, S. Spicher,
     C. Bannwarth and S. Grimme, J. Chem. Phys., 2019, 150, 154122.
     DOI: 10.1063/1.5090222
   * E. Caldeweyher, J.-M. Mewes, S. Ehlert and S. Grimme, Phys. Chem. Chem. Phys.
     2020, 22, 8499-8512. DOI: 10.1039/D0CP00502A
   
   for sTDA-xTB:
   * S. Grimme and C. Bannwarth, J. Chem. Phys., 2016, 145, 054103.
     DOI: 10.1063/1.4959605
   
   in the mass-spec context:
   * V. Asgeirsson, C. Bauer and S. Grimme, Chem. Sci., 2017, 8, 4879.
     DOI: 10.1039/c7sc00601b
   * J. Koopman and S. Grimme, ACS Omega 2019, 4, 12, 15120-15133.
     DOI: 10.1021/acsomega.9b02011
   
   for metadynamics refer to:
   * S. Grimme, J. Chem. Theory Comput., 2019, 155, 2847-2862
     DOI: 10.1021/acs.jctc.9b00143
   
   for SPH calculations refer to:
   * S. Spicher and S. Grimme, J. Chem. Theory Comput., 2021, 17, 1701-1714
     DOI: 10.1021/acs.jctc.0c01306
   
   with help from (in alphabetical order)
   P. Atkinson, C. Bannwarth, F. Bohle, G. Brandenburg, E. Caldeweyher
   M. Checinski, S. Dohm, S. Ehlert, S. Ehrlich, I. Gerasimov, J. Koopman
   C. Lavigne, S. Lehtola, F. März, M. Müller, F. Musil, H. Neugebauer
   J. Pisarek, C. Plett, P. Pracht, J. Seibert, P. Shushkov, S. Spicher
   M. Stahn, M. Steiner, T. Strunk, J. Stückrath, T. Rose, and J. Unsleber
   
 * started run on 2021/11/21 at 19:25:14.679     

           -------------------------------------------------
          |                Calculation Setup                |
           -------------------------------------------------

          program call               : /home/jeff/miniconda3/bin/xtb /home/jeff/chem/final-year-proejct/free_base/_6_8_outenergy/input_structure.xyz --gfn 2 --parallel 1 --etemp 300 --chrg 0 --uhf 0 -I det_control.in
          coordinate file            : /home/jeff/chem/final-year-proejct/free_base/_6_8_outenergy/input_structure.xyz
          omp threads                :                     1
          number of atoms            :                   332
          number of electrons        :                  1066
          charge                     :                     0
          spin                       :                   0.0
          first test random number   :      0.34168056766009

   ID    Z sym.   atoms
    1    6 C      1-8, 10-14, 16-20, 22, 23, 38-45, 47-51, 53-57, 59, 60,
                  75-124, 126-130, 132-136, 138, 139, 153-160, 162-166,
                  168-172, 174, 175, 189-196, 198-202, 204-208, 210, 211,
                  225-232, 234-238, 240-244, 246, 247, 261-268, 270-274,
                  276-280, 282, 283, 297-304, 306-310, 312-316, 318, 319
    2    7 N      9, 15, 21, 24, 46, 52, 58, 61, 125, 131, 137, 140, 161,
                  167, 173, 176, 197, 203, 209, 212, 233, 239, 245, 248, 269,
                  275, 281, 284, 305, 311, 317, 320
    3    1 H      25-37, 62-74, 141-152, 177-188, 213-224, 249-260, 285-296,
                  321-332

           -------------------------------------------------
          |                 G F N 2 - x T B                 |
           -------------------------------------------------

        Reference                      10.1021/acs.jctc.8b01176
      * Hamiltonian:
        H0-scaling (s, p, d)           1.850000    2.230000    2.230000
        zeta-weighting                 0.500000
      * Dispersion:
        s8                             2.700000
        a1                             0.520000
        a2                             5.000000
        s9                             5.000000
      * Repulsion:
        kExp                           1.500000    1.000000
        rExp                           1.000000
      * Coulomb:
        alpha                          2.000000
        third order                    shell-resolved
        anisotropic                    true
        a3                             3.000000
        a5                             4.000000
        cn-shift                       1.200000
        cn-exp                         4.000000
        max-rad                        5.000000


          ...................................................
          :                      SETUP                      :
          :.................................................:
          :  # basis functions                1034          :
          :  # atomic orbitals                1034          :
          :  # shells                          566          :
          :  # electrons                      1066          :
          :  max. iterations                   250          :
          :  Hamiltonian                  GFN2-xTB          :
          :  restarted?                      false          :
          :  GBSA solvation                  false          :
          :  PC potential                    false          :
          :  electronic temp.          300.0000000     K    :
          :  accuracy                    1.0000000          :
          :  -> integral cutoff          0.2500000E+02      :
          :  -> integral neglect         0.1000000E-07      :
          :  -> SCF convergence          0.1000000E-05 Eh   :
          :  -> wf. convergence          0.1000000E-03 e    :
          :  Broyden damping             0.4000000          :
          ...................................................

 iter      E             dE          RMSdq      gap      omega  full diag
   1   -585.3991247 -0.585399E+03  0.621E+00    0.52       0.0  T
   2   -586.2065223 -0.807398E+00  0.394E+00    0.76       1.0  T
   3   -585.8980187  0.308504E+00  0.156E+00    0.58       1.0  T
   4   -586.2368028 -0.338784E+00  0.568E-01    0.75       1.0  T
   5   -586.3631411 -0.126338E+00  0.189E-01    0.74       1.0  T
   6   -586.3762664 -0.131253E-01  0.870E-02    0.74       1.0  T
   7   -586.3773949 -0.112843E-02  0.593E-02    0.74       1.0  T
   8   -586.3784996 -0.110470E-02  0.230E-02    0.74       1.0  T
   9   -586.3786197 -0.120097E-03  0.121E-02    0.74       1.0  T
  10   -586.3786386 -0.188971E-04  0.693E-03    0.74       1.0  T
  11   -586.3786596 -0.210349E-04  0.201E-03    0.74       2.7  T
  12   -586.3786610 -0.146276E-05  0.104E-03    0.74       5.3  T
  13   -586.3786614 -0.328887E-06  0.484E-04    0.74      11.3  T
  14   -586.3786614 -0.273880E-07  0.298E-04    0.74      18.4  T

   *** convergence criteria satisfied after 14 iterations ***

         #    Occupation            Energy/Eh            Energy/eV
      -------------------------------------------------------------
         1        2.0000           -0.6864878             -18.6803
       ...           ...                  ...                  ...
       527        2.0000           -0.3629067              -9.8752
       528        2.0000           -0.3601708              -9.8007
       529        2.0000           -0.3568552              -9.7105
       530        2.0000           -0.3533435              -9.6150
       531        2.0000           -0.3499764              -9.5233
       532        2.0000           -0.3471345              -9.4460
       533        2.0000           -0.3453882              -9.3985 (HOMO)
       534        0.0000           -0.3181388              -8.6570 (LUMO)
       535                         -0.3157346              -8.5916
       536                         -0.3125621              -8.5052
       537                         -0.3089628              -8.4073
       538                         -0.3052723              -8.3069
       ...                                ...                  ...
      1034                          1.7161293              46.6983
      -------------------------------------------------------------
                  HL-Gap            0.0272493 Eh            0.7415 eV
             Fermi-level           -0.3317277 Eh           -9.0268 eV

 SCC (total)                   0 d,  0 h,  0 min,  6.298 sec
 SCC setup                      ...        0 min,  0.018 sec (  0.283%)
 Dispersion                     ...        0 min,  0.036 sec (  0.578%)
 classical contributions        ...        0 min,  0.003 sec (  0.043%)
 integral evaluation            ...        0 min,  0.265 sec (  4.201%)
 iterations                     ...        0 min,  5.289 sec ( 83.977%)
 molecular gradient             ...        0 min,  0.636 sec ( 10.091%)
 printout                       ...        0 min,  0.052 sec (  0.825%)

         :::::::::::::::::::::::::::::::::::::::::::::::::::::
         ::                     SUMMARY                     ::
         :::::::::::::::::::::::::::::::::::::::::::::::::::::
         :: total energy            -574.894619912196 Eh    ::
         :: gradient norm              0.000526542257 Eh/a0 ::
         :: HOMO-LUMO gap              0.741491676784 eV    ::
         ::.................................................::
         :: SCC energy              -586.378661405792 Eh    ::
         :: -> isotropic ES            0.271663831153 Eh    ::
         :: -> anisotropic ES         -0.028857545439 Eh    ::
         :: -> anisotropic XC          0.430839587794 Eh    ::
         :: -> dispersion             -0.466669813238 Eh    ::
         :: repulsion energy          11.492454783024 Eh    ::
         :: add. restraining           0.000000000000 Eh    ::
         :: total charge               0.000000000047 e     ::
         :::::::::::::::::::::::::::::::::::::::::::::::::::::

           -------------------------------------------------
          |                Property Printout                |
           -------------------------------------------------

    * Orbital Energies and Occupations

         #    Occupation            Energy/Eh            Energy/eV
      -------------------------------------------------------------
         1        2.0000           -0.6864878             -18.6803
       ...           ...                  ...                  ...
       521        2.0000           -0.3714022             -10.1064
       522        2.0000           -0.3710577             -10.0970
       523        2.0000           -0.3710546             -10.0969
       524        2.0000           -0.3695245             -10.0553
       525        2.0000           -0.3695138             -10.0550
       526        2.0000           -0.3648199              -9.9273
       527        2.0000           -0.3629067              -9.8752
       528        2.0000           -0.3601708              -9.8007
       529        2.0000           -0.3568552              -9.7105
       530        2.0000           -0.3533435              -9.6150
       531        2.0000           -0.3499764              -9.5233
       532        2.0000           -0.3471345              -9.4460
       533        2.0000           -0.3453882              -9.3985 (HOMO)
       534        0.0000           -0.3181388              -8.6570 (LUMO)
       535                         -0.3157346              -8.5916
       536                         -0.3125621              -8.5052
       537                         -0.3089628              -8.4073
       538                         -0.3052723              -8.3069
       539                         -0.3020009              -8.2179
       540                         -0.3002634              -8.1706
       541                         -0.3002186              -8.1694
       542                         -0.2999627              -8.1624
       543                         -0.2998558              -8.1595
       544                         -0.2996747              -8.1546
       ...                                ...                  ...
      1034                          1.7161293              46.6983
      -------------------------------------------------------------
                  HL-Gap            0.0272493 Eh            0.7415 eV
             Fermi-level           -0.3317277 Eh           -9.0268 eV

     #   Z          covCN         q      C6AA      α(0)
     1   6 C        3.016    -0.055    29.335     8.884
     2   6 C        3.009    -0.053    29.299     8.879
     3   6 C        3.196     0.087    25.560     8.242
     4   6 C        2.952     0.011    27.762     8.642
     5   6 C        3.097     0.064    26.448     8.428
     6   6 C        3.026    -0.050    29.212     8.865
     7   6 C        3.034    -0.052    29.249     8.871
     8   6 C        3.073     0.064    26.485     8.438
     9   7 N        2.785    -0.081    22.816     7.094
    10   6 C        2.899    -0.055    29.362     8.885
    11   6 C        3.171     0.087    25.715     8.284
    12   6 C        3.012    -0.054    29.314     8.881
    13   6 C        3.010    -0.054    29.316     8.882
    14   6 C        3.174     0.087    25.705     8.280
    15   7 N        1.870    -0.321    29.169     8.006
    16   6 C        2.899    -0.057    29.404     8.891
    17   6 C        3.074     0.065    26.468     8.435
    18   6 C        3.026    -0.051    29.237     8.869
    19   6 C        3.031    -0.051    29.229     8.868
    20   6 C        3.069     0.066    26.459     8.434
    21   7 N        2.787    -0.081    22.810     7.093
    22   6 C        2.899    -0.055    29.362     8.885
    23   6 C        3.175     0.086    25.718     8.282
    24   7 N        1.870    -0.325    29.279     8.021
    25   1 H        0.926     0.019     2.752     2.594
    26   1 H        0.926     0.021     2.714     2.576
    27   1 H        0.926     0.043     2.404     2.425
    28   1 H        0.926     0.042     2.428     2.437
    29   1 H        0.860     0.214     1.037     1.595
    30   1 H        0.925     0.047     2.356     2.400
    31   1 H        0.926     0.020     2.738     2.588
    32   1 H        0.926     0.020     2.738     2.588
    33   1 H        0.926     0.046     2.365     2.405
    34   1 H        0.926     0.042     2.421     2.433
    35   1 H        0.926     0.042     2.421     2.433
    36   1 H        0.860     0.214     1.035     1.594
    37   1 H        0.925     0.047     2.355     2.400
    38   6 C        3.016    -0.055    29.335     8.884
    39   6 C        3.009    -0.053    29.300     8.879
    40   6 C        3.196     0.087    25.559     8.242
    41   6 C        2.952     0.011    27.762     8.642
    42   6 C        3.097     0.064    26.447     8.428
    43   6 C        3.026    -0.050    29.211     8.865
    44   6 C        3.034    -0.052    29.249     8.871
    45   6 C        3.073     0.064    26.485     8.438
    46   7 N        2.785    -0.081    22.816     7.094
    47   6 C        2.899    -0.055    29.361     8.885
    48   6 C        3.171     0.087    25.715     8.284
    49   6 C        3.012    -0.054    29.314     8.881
    50   6 C        3.010    -0.054    29.316     8.882
    51   6 C        3.174     0.087    25.705     8.280
    52   7 N        1.870    -0.321    29.169     8.006
    53   6 C        2.899    -0.057    29.404     8.891
    54   6 C        3.074     0.065    26.468     8.435
    55   6 C        3.026    -0.051    29.237     8.869
    56   6 C        3.031    -0.051    29.229     8.868
    57   6 C        3.069     0.066    26.459     8.434
    58   7 N        2.787    -0.081    22.809     7.093
    59   6 C        2.899    -0.055    29.362     8.885
    60   6 C        3.175     0.086    25.718     8.282
    61   7 N        1.870    -0.325    29.279     8.021
    62   1 H        0.926     0.019     2.752     2.594
    63   1 H        0.926     0.021     2.714     2.576
    64   1 H        0.926     0.043     2.404     2.425
    65   1 H        0.926     0.042     2.428     2.437
    66   1 H        0.860     0.214     1.037     1.595
    67   1 H        0.925     0.047     2.356     2.400
    68   1 H        0.926     0.020     2.738     2.588
    69   1 H        0.926     0.020     2.738     2.588
    70   1 H        0.926     0.046     2.365     2.405
    71   1 H        0.926     0.042     2.421     2.433
    72   1 H        0.926     0.042     2.421     2.433
    73   1 H        0.860     0.214     1.035     1.594
    74   1 H        0.925     0.047     2.355     2.400
    75   6 C        1.996    -0.020    31.576     9.075
    76   6 C        1.963    -0.012    31.388     9.047
    77   6 C        1.965    -0.003    31.148     9.013
    78   6 C        1.965    -0.004    31.170     9.016
    79   6 C        1.964    -0.011    31.360     9.043
    80   6 C        1.995    -0.021    31.601     9.078
    81   6 C        1.995    -0.020    31.582     9.076
    82   6 C        1.964    -0.011    31.368     9.045
    83   6 C        1.965    -0.003    31.148     9.013
    84   6 C        1.965    -0.003    31.155     9.014
    85   6 C        1.964    -0.011    31.361     9.044
    86   6 C        1.995    -0.021    31.589     9.077
    87   6 C        1.995    -0.020    31.583     9.076
    88   6 C        1.964    -0.011    31.364     9.044
    89   6 C        1.965    -0.003    31.148     9.013
    90   6 C        1.965    -0.003    31.151     9.013
    91   6 C        1.964    -0.011    31.362     9.044
    92   6 C        1.995    -0.020    31.585     9.076
    93   6 C        1.995    -0.020    31.584     9.076
    94   6 C        1.964    -0.011    31.362     9.044
    95   6 C        1.965    -0.003    31.149     9.013
    96   6 C        1.965    -0.003    31.149     9.013
    97   6 C        1.964    -0.011    31.363     9.044
    98   6 C        1.995    -0.020    31.584     9.076
    99   6 C        1.995    -0.020    31.585     9.076
   100   6 C        1.964    -0.011    31.362     9.044
   101   6 C        1.965    -0.003    31.151     9.013
   102   6 C        1.965    -0.003    31.148     9.013
   103   6 C        1.964    -0.011    31.364     9.044
   104   6 C        1.995    -0.020    31.583     9.076
   105   6 C        1.995    -0.021    31.589     9.077
   106   6 C        1.964    -0.011    31.361     9.044
   107   6 C        1.965    -0.003    31.155     9.014
   108   6 C        1.965    -0.003    31.148     9.013
   109   6 C        1.964    -0.011    31.368     9.045
   110   6 C        1.995    -0.020    31.582     9.076
   111   6 C        1.995    -0.021    31.602     9.078
   112   6 C        1.964    -0.011    31.360     9.043
   113   6 C        1.965    -0.004    31.170     9.016
   114   6 C        1.965    -0.003    31.148     9.013
   115   6 C        1.963    -0.012    31.388     9.047
   116   6 C        1.996    -0.020    31.577     9.075
   117   6 C        3.017    -0.054    29.328     8.883
   118   6 C        3.009    -0.053    29.296     8.879
   119   6 C        3.197     0.087    25.560     8.241
   120   6 C        2.952     0.012    27.747     8.640
   121   6 C        3.100     0.064    26.453     8.429
   122   6 C        3.025    -0.050    29.218     8.866
   123   6 C        3.037    -0.052    29.247     8.870
   124   6 C        3.073     0.064    26.489     8.439
   125   7 N        2.786    -0.081    22.817     7.094
   126   6 C        2.899    -0.053    29.305     8.876
   127   6 C        3.174     0.085    25.729     8.284
   128   6 C        3.017    -0.054    29.327     8.883
   129   6 C        3.009    -0.053    29.298     8.879
   130   6 C        3.197     0.087    25.555     8.240
   131   7 N        1.870    -0.324    29.257     8.018
   132   6 C        2.952     0.012    27.758     8.641
   133   6 C        3.100     0.064    26.451     8.428
   134   6 C        3.025    -0.050    29.220     8.867
   135   6 C        3.036    -0.052    29.245     8.870
   136   6 C        3.073     0.064    26.491     8.439
   137   7 N        2.786    -0.081    22.818     7.095
   138   6 C        2.899    -0.053    29.304     8.876
   139   6 C        3.174     0.085    25.730     8.285
   140   7 N        1.870    -0.324    29.255     8.017
   141   1 H        0.926     0.019     2.748     2.592
   142   1 H        0.926     0.021     2.712     2.575
   143   1 H        0.926     0.043     2.405     2.425
   144   1 H        0.926     0.042     2.429     2.437
   145   1 H        0.860     0.214     1.035     1.594
   146   1 H        0.925     0.048     2.345     2.395
   147   1 H        0.926     0.019     2.748     2.592
   148   1 H        0.926     0.021     2.714     2.576
   149   1 H        0.926     0.043     2.407     2.426
   150   1 H        0.926     0.042     2.429     2.437
   151   1 H        0.860     0.214     1.035     1.594
   152   1 H        0.925     0.048     2.345     2.394
   153   6 C        3.017    -0.054    29.327     8.883
   154   6 C        3.009    -0.053    29.297     8.879
   155   6 C        3.197     0.087    25.557     8.241
   156   6 C        2.952     0.012    27.750     8.640
   157   6 C        3.100     0.064    26.451     8.428
   158   6 C        3.025    -0.050    29.218     8.866
   159   6 C        3.037    -0.052    29.245     8.870
   160   6 C        3.073     0.064    26.489     8.439
   161   7 N        2.786    -0.081    22.816     7.094
   162   6 C        2.899    -0.052    29.302     8.876
   163   6 C        3.174     0.085    25.729     8.284
   164   6 C        3.017    -0.054    29.326     8.883
   165   6 C        3.009    -0.053    29.297     8.879
   166   6 C        3.197     0.087    25.556     8.241
   167   7 N        1.870    -0.324    29.254     8.017
   168   6 C        2.952     0.012    27.754     8.641
   169   6 C        3.100     0.064    26.450     8.428
   170   6 C        3.025    -0.050    29.219     8.867
   171   6 C        3.037    -0.052    29.245     8.870
   172   6 C        3.073     0.064    26.490     8.439
   173   7 N        2.786    -0.081    22.816     7.094
   174   6 C        2.899    -0.052    29.301     8.875
   175   6 C        3.174     0.085    25.730     8.284
   176   7 N        1.870    -0.324    29.253     8.017
   177   1 H        0.926     0.019     2.746     2.591
   178   1 H        0.926     0.021     2.712     2.575
   179   1 H        0.926     0.043     2.405     2.425
   180   1 H        0.926     0.042     2.427     2.436
   181   1 H        0.860     0.214     1.035     1.594
   182   1 H        0.925     0.048     2.343     2.394
   183   1 H        0.926     0.019     2.746     2.591
   184   1 H        0.926     0.021     2.713     2.576
   185   1 H        0.926     0.043     2.406     2.425
   186   1 H        0.926     0.042     2.427     2.436
   187   1 H        0.860     0.214     1.035     1.594
   188   1 H        0.925     0.048     2.343     2.394
   189   6 C        3.017    -0.054    29.326     8.883
   190   6 C        3.009    -0.053    29.296     8.879
   191   6 C        3.197     0.087    25.556     8.241
   192   6 C        2.952     0.012    27.751     8.640
   193   6 C        3.100     0.064    26.451     8.428
   194   6 C        3.025    -0.050    29.219     8.867
   195   6 C        3.037    -0.052    29.245     8.870
   196   6 C        3.073     0.064    26.489     8.439
   197   7 N        2.786    -0.081    22.815     7.094
   198   6 C        2.899    -0.052    29.301     8.875
   199   6 C        3.174     0.085    25.729     8.284
   200   6 C        3.017    -0.054    29.326     8.883
   201   6 C        3.009    -0.053    29.297     8.879
   202   6 C        3.197     0.087    25.555     8.240
   203   7 N        1.870    -0.324    29.253     8.017
   204   6 C        2.952     0.012    27.752     8.640
   205   6 C        3.100     0.064    26.451     8.428
   206   6 C        3.025    -0.050    29.219     8.867
   207   6 C        3.036    -0.052    29.245     8.870
   208   6 C        3.073     0.064    26.490     8.439
   209   7 N        2.786    -0.081    22.815     7.094
   210   6 C        2.899    -0.052    29.301     8.875
   211   6 C        3.174     0.085    25.729     8.284
   212   7 N        1.870    -0.324    29.253     8.017
   213   1 H        0.926     0.019     2.746     2.591
   214   1 H        0.926     0.021     2.712     2.575
   215   1 H        0.926     0.043     2.405     2.425
   216   1 H        0.926     0.042     2.427     2.436
   217   1 H        0.860     0.214     1.035     1.594
   218   1 H        0.925     0.048     2.343     2.394
   219   1 H        0.926     0.019     2.746     2.591
   220   1 H        0.926     0.021     2.712     2.575
   221   1 H        0.926     0.043     2.405     2.425
   222   1 H        0.926     0.042     2.427     2.436
   223   1 H        0.860     0.214     1.035     1.594
   224   1 H        0.925     0.048     2.343     2.394
   225   6 C        3.017    -0.054    29.326     8.883
   226   6 C        3.009    -0.053    29.297     8.879
   227   6 C        3.197     0.087    25.555     8.240
   228   6 C        2.952     0.012    27.752     8.640
   229   6 C        3.100     0.064    26.450     8.428
   230   6 C        3.025    -0.050    29.219     8.867
   231   6 C        3.036    -0.052    29.245     8.870
   232   6 C        3.073     0.064    26.490     8.439
   233   7 N        2.786    -0.081    22.815     7.094
   234   6 C        2.899    -0.052    29.301     8.875
   235   6 C        3.174     0.085    25.728     8.284
   236   6 C        3.017    -0.054    29.326     8.883
   237   6 C        3.009    -0.053    29.297     8.879
   238   6 C        3.197     0.087    25.554     8.240
   239   7 N        1.870    -0.324    29.253     8.017
   240   6 C        2.952     0.012    27.751     8.640
   241   6 C        3.100     0.064    26.451     8.428
   242   6 C        3.025    -0.050    29.218     8.866
   243   6 C        3.036    -0.052    29.245     8.870
   244   6 C        3.073     0.064    26.490     8.439
   245   7 N        2.786    -0.081    22.815     7.094
   246   6 C        2.899    -0.052    29.302     8.875
   247   6 C        3.174     0.085    25.729     8.284
   248   7 N        1.870    -0.324    29.253     8.017
   249   1 H        0.926     0.019     2.746     2.591
   250   1 H        0.926     0.021     2.712     2.575
   251   1 H        0.926     0.043     2.405     2.425
   252   1 H        0.926     0.042     2.427     2.436
   253   1 H        0.860     0.214     1.035     1.594
   254   1 H        0.925     0.048     2.343     2.394
   255   1 H        0.926     0.019     2.746     2.591
   256   1 H        0.926     0.021     2.712     2.575
   257   1 H        0.926     0.043     2.405     2.425
   258   1 H        0.926     0.042     2.427     2.436
   259   1 H        0.860     0.214     1.035     1.594
   260   1 H        0.925     0.048     2.343     2.394
   261   6 C        3.017    -0.054    29.326     8.883
   262   6 C        3.009    -0.053    29.297     8.879
   263   6 C        3.197     0.087    25.554     8.240
   264   6 C        2.952     0.012    27.754     8.641
   265   6 C        3.100     0.064    26.450     8.428
   266   6 C        3.025    -0.050    29.219     8.867
   267   6 C        3.036    -0.052    29.245     8.870
   268   6 C        3.073     0.064    26.490     8.439
   269   7 N        2.786    -0.081    22.815     7.094
   270   6 C        2.899    -0.052    29.302     8.875
   271   6 C        3.174     0.085    25.729     8.284
   272   6 C        3.017    -0.054    29.327     8.883
   273   6 C        3.009    -0.053    29.297     8.879
   274   6 C        3.197     0.087    25.556     8.241
   275   7 N        1.870    -0.324    29.253     8.017
   276   6 C        2.952     0.012    27.750     8.640
   277   6 C        3.100     0.064    26.451     8.428
   278   6 C        3.025    -0.050    29.218     8.866
   279   6 C        3.036    -0.052    29.246     8.870
   280   6 C        3.073     0.064    26.490     8.439
   281   7 N        2.786    -0.081    22.815     7.094
   282   6 C        2.899    -0.052    29.302     8.876
   283   6 C        3.174     0.085    25.729     8.284
   284   7 N        1.870    -0.324    29.254     8.017
   285   1 H        0.926     0.019     2.746     2.591
   286   1 H        0.926     0.021     2.712     2.575
   287   1 H        0.926     0.043     2.406     2.425
   288   1 H        0.926     0.042     2.427     2.436
   289   1 H        0.860     0.214     1.035     1.594
   290   1 H        0.925     0.048     2.343     2.394
   291   1 H        0.926     0.019     2.746     2.591
   292   1 H        0.926     0.021     2.712     2.575
   293   1 H        0.926     0.043     2.405     2.425
   294   1 H        0.926     0.042     2.427     2.436
   295   1 H        0.860     0.214     1.035     1.594
   296   1 H        0.925     0.048     2.343     2.394
   297   6 C        3.017    -0.054    29.327     8.883
   298   6 C        3.009    -0.053    29.298     8.879
   299   6 C        3.197     0.087    25.555     8.240
   300   6 C        2.952     0.012    27.758     8.641
   301   6 C        3.100     0.064    26.450     8.428
   302   6 C        3.025    -0.050    29.220     8.867
   303   6 C        3.036    -0.052    29.245     8.870
   304   6 C        3.073     0.064    26.491     8.439
   305   7 N        2.786    -0.081    22.817     7.095
   306   6 C        2.899    -0.053    29.304     8.876
   307   6 C        3.174     0.085    25.730     8.284
   308   6 C        3.017    -0.054    29.328     8.883
   309   6 C        3.009    -0.053    29.297     8.879
   310   6 C        3.197     0.087    25.558     8.241
   311   7 N        1.870    -0.324    29.254     8.017
   312   6 C        2.952     0.012    27.747     8.640
   313   6 C        3.100     0.064    26.453     8.429
   314   6 C        3.025    -0.050    29.217     8.866
   315   6 C        3.036    -0.052    29.247     8.870
   316   6 C        3.073     0.064    26.489     8.439
   317   7 N        2.786    -0.081    22.816     7.094
   318   6 C        2.899    -0.053    29.305     8.876
   319   6 C        3.174     0.085    25.729     8.284
   320   7 N        1.870    -0.324    29.257     8.018
   321   1 H        0.926     0.019     2.748     2.592
   322   1 H        0.926     0.021     2.714     2.576
   323   1 H        0.926     0.043     2.407     2.426
   324   1 H        0.926     0.042     2.429     2.437
   325   1 H        0.860     0.214     1.036     1.594
   326   1 H        0.925     0.048     2.345     2.394
   327   1 H        0.926     0.019     2.748     2.592
   328   1 H        0.926     0.021     2.712     2.575
   329   1 H        0.926     0.043     2.405     2.425
   330   1 H        0.926     0.041     2.429     2.437
   331   1 H        0.860     0.214     1.036     1.594
   332   1 H        0.925     0.048     2.345     2.395

 Mol. C6AA /au·bohr⁶  :    1926742.518122
 Mol. C8AA /au·bohr⁸  :   50071407.555927
 Mol. α(0) /au        :       2233.911368


Wiberg/Mayer (AO) data.
largest (>0.10) Wiberg bond orders for each atom

 ---------------------------------------------------------------------------
     #   Z sym  total        # sym  WBO       # sym  WBO       # sym  WBO
 ---------------------------------------------------------------------------
     1   6 C    3.960 --     2 C    1.717    23 C    1.115    25 H    0.973
     2   6 C    3.961 --     1 C    1.717     3 C    1.121    26 H    0.971
     3   6 C    3.915 --    24 N    1.362     4 C    1.242     2 C    1.121
     4   6 C    3.940 --     5 C    1.247     3 C    1.242    75 C    1.194
     5   6 C    3.901 --     4 C    1.247     6 C    1.237     9 N    1.226
     6   6 C    3.955 --     7 C    1.592     5 C    1.237    27 H    0.972
     7   6 C    3.948 --     6 C    1.592     8 C    1.224    28 H    0.973
     8   6 C    3.918 --    10 C    1.345     7 C    1.224     9 N    1.202
     9   7 N    3.590 --     5 C    1.226     8 C    1.202    29 H    0.900
    10   6 C    3.921 --    11 C    1.357     8 C    1.345    30 H    0.964
    11   6 C    3.939 --    10 C    1.357    15 N    1.324    12 C    1.107
    12   6 C    3.963 --    13 C    1.731    11 C    1.107    31 H    0.973
    13   6 C    3.962 --    12 C    1.731    14 C    1.109    32 H    0.973
    14   6 C    3.938 --    16 C    1.354    15 N    1.325    13 C    1.109
    15   7 N    3.001 --    14 C    1.325    11 C    1.324
    16   6 C    3.922 --    14 C    1.354    17 C    1.347    33 H    0.965
    17   6 C    3.921 --    16 C    1.347    18 C    1.216    21 N    1.210
    18   6 C    3.949 --    19 C    1.608    17 C    1.216    34 H    0.973
    19   6 C    3.953 --    18 C    1.608    20 C    1.215    35 H    0.973
    20   6 C    3.916 --    22 C    1.342    19 C    1.215    21 N    1.211
    21   7 N    3.586 --    20 C    1.211    17 C    1.210    36 H    0.900
    22   6 C    3.937 --    23 C    1.367    20 C    1.342    37 H    0.964
    23   6 C    3.924 --    22 C    1.367    24 N    1.298     1 C    1.115
    24   7 N    3.009 --     3 C    1.362    23 C    1.298
    25   1 H    0.999 --     1 C    0.973
    26   1 H    0.999 --     2 C    0.971
    27   1 H    0.998 --     6 C    0.972
    28   1 H    0.998 --     7 C    0.973
    29   1 H    0.954 --     9 N    0.900
    30   1 H    0.997 --    10 C    0.964
    31   1 H    0.999 --    12 C    0.973
    32   1 H    0.999 --    13 C    0.973
    33   1 H    0.997 --    16 C    0.965
    34   1 H    0.998 --    18 C    0.973
    35   1 H    0.998 --    19 C    0.973
    36   1 H    0.954 --    21 N    0.900
    37   1 H    0.997 --    22 C    0.964
    38   6 C    3.960 --    39 C    1.717    60 C    1.115    62 H    0.973
    39   6 C    3.961 --    38 C    1.717    40 C    1.121    63 H    0.971
    40   6 C    3.915 --    61 N    1.362    41 C    1.242    39 C    1.121
    41   6 C    3.940 --    42 C    1.247    40 C    1.242   116 C    1.194
    42   6 C    3.901 --    41 C    1.247    43 C    1.237    46 N    1.226
    43   6 C    3.955 --    44 C    1.592    42 C    1.237    64 H    0.972
    44   6 C    3.948 --    43 C    1.592    45 C    1.224    65 H    0.973
    45   6 C    3.918 --    47 C    1.345    44 C    1.224    46 N    1.202
    46   7 N    3.590 --    42 C    1.226    45 C    1.202    66 H    0.900
    47   6 C    3.921 --    48 C    1.357    45 C    1.345    67 H    0.964
    48   6 C    3.939 --    47 C    1.357    52 N    1.324    49 C    1.107
    49   6 C    3.963 --    50 C    1.731    48 C    1.107    68 H    0.973
    50   6 C    3.962 --    49 C    1.731    51 C    1.109    69 H    0.973
    51   6 C    3.938 --    53 C    1.354    52 N    1.325    50 C    1.109
    52   7 N    3.001 --    51 C    1.325    48 C    1.324
    53   6 C    3.922 --    51 C    1.354    54 C    1.347    70 H    0.965
    54   6 C    3.921 --    53 C    1.347    55 C    1.216    58 N    1.210
    55   6 C    3.949 --    56 C    1.608    54 C    1.216    71 H    0.973
    56   6 C    3.953 --    55 C    1.608    57 C    1.215    72 H    0.973
    57   6 C    3.916 --    59 C    1.342    56 C    1.215    58 N    1.211
    58   7 N    3.586 --    57 C    1.211    54 C    1.210    73 H    0.900
    59   6 C    3.937 --    60 C    1.367    57 C    1.342    74 H    0.964
    60   6 C    3.924 --    59 C    1.367    61 N    1.298    38 C    1.115
    61   7 N    3.009 --    40 C    1.362    60 C    1.298
    62   1 H    0.999 --    38 C    0.973
    63   1 H    0.999 --    39 C    0.971
    64   1 H    0.998 --    43 C    0.972
    65   1 H    0.998 --    44 C    0.973
    66   1 H    0.954 --    46 N    0.900
    67   1 H    0.997 --    47 C    0.964
    68   1 H    0.999 --    49 C    0.973
    69   1 H    0.999 --    50 C    0.973
    70   1 H    0.997 --    53 C    0.965
    71   1 H    0.998 --    55 C    0.973
    72   1 H    0.998 --    56 C    0.973
    73   1 H    0.954 --    58 N    0.900
    74   1 H    0.997 --    59 C    0.964
    75   6 C    3.882 --    76 C    2.435     4 C    1.194    78 C    0.192
    76   6 C    3.924 --    75 C    2.435    77 C    1.337
    77   6 C    3.915 --    78 C    2.349    76 C    1.337    80 C    0.191
    78   6 C    3.917 --    77 C    2.349    79 C    1.338    75 C    0.192
    79   6 C    3.920 --    80 C    2.431    78 C    1.338
    80   6 C    3.883 --    79 C    2.431   120 C    1.198    77 C    0.191
    81   6 C    3.881 --    82 C    2.428   132 C    1.200    84 C    0.191
    82   6 C    3.920 --    81 C    2.428    83 C    1.340
    83   6 C    3.915 --    84 C    2.345    82 C    1.340    86 C    0.191
    84   6 C    3.915 --    83 C    2.345    85 C    1.340    81 C    0.191
    85   6 C    3.919 --    86 C    2.428    84 C    1.340
    86   6 C    3.881 --    85 C    2.428   156 C    1.200    83 C    0.191
    87   6 C    3.881 --    88 C    2.428   168 C    1.200    90 C    0.191
    88   6 C    3.919 --    87 C    2.428    89 C    1.341
    89   6 C    3.915 --    90 C    2.345    88 C    1.341    92 C    0.191
    90   6 C    3.915 --    89 C    2.345    91 C    1.341    87 C    0.191
    91   6 C    3.919 --    92 C    2.428    90 C    1.341
    92   6 C    3.881 --    91 C    2.428   192 C    1.200    89 C    0.191
    93   6 C    3.881 --    94 C    2.428   204 C    1.200    96 C    0.191
    94   6 C    3.919 --    93 C    2.428    95 C    1.341
    95   6 C    3.915 --    96 C    2.345    94 C    1.341    98 C    0.191
    96   6 C    3.915 --    95 C    2.345    97 C    1.341    93 C    0.191
    97   6 C    3.919 --    98 C    2.428    96 C    1.341
    98   6 C    3.881 --    97 C    2.428   228 C    1.200    95 C    0.191
    99   6 C    3.881 --   100 C    2.428   240 C    1.200   102 C    0.191
   100   6 C    3.919 --    99 C    2.428   101 C    1.341
   101   6 C    3.915 --   102 C    2.345   100 C    1.341   104 C    0.191
   102   6 C    3.915 --   101 C    2.345   103 C    1.341    99 C    0.191
   103   6 C    3.919 --   104 C    2.428   102 C    1.341
   104   6 C    3.881 --   103 C    2.428   264 C    1.200   101 C    0.191
   105   6 C    3.881 --   106 C    2.428   276 C    1.200   108 C    0.191
   106   6 C    3.919 --   105 C    2.428   107 C    1.340
   107   6 C    3.915 --   108 C    2.345   106 C    1.340   110 C    0.191
   108   6 C    3.915 --   107 C    2.345   109 C    1.340   105 C    0.191
   109   6 C    3.920 --   110 C    2.428   108 C    1.340
   110   6 C    3.881 --   109 C    2.428   300 C    1.200   107 C    0.191
   111   6 C    3.883 --   112 C    2.431   312 C    1.199   114 C    0.191
   112   6 C    3.920 --   111 C    2.431   113 C    1.338
   113   6 C    3.917 --   114 C    2.349   112 C    1.338   116 C    0.192
   114   6 C    3.915 --   113 C    2.349   115 C    1.337   111 C    0.191
   115   6 C    3.924 --   116 C    2.434   114 C    1.337
   116   6 C    3.882 --   115 C    2.434    41 C    1.194   113 C    0.192
   117   6 C    3.961 --   118 C    1.716   139 C    1.115   141 H    0.973
   118   6 C    3.960 --   117 C    1.716   119 C    1.124   142 H    0.972
   119   6 C    3.916 --   140 N    1.363   120 C    1.240   118 C    1.124
   120   6 C    3.926 --   121 C    1.242   119 C    1.240    80 C    1.198
   121   6 C    3.902 --   120 C    1.242   122 C    1.242   125 N    1.227
   122   6 C    3.952 --   123 C    1.587   121 C    1.242   143 H    0.972
   123   6 C    3.949 --   122 C    1.587   124 C    1.228   144 H    0.973
   124   6 C    3.914 --   126 C    1.335   123 C    1.228   125 N    1.203
   125   7 N    3.586 --   121 C    1.227   124 C    1.203   145 H    0.898
   126   6 C    3.923 --   127 C    1.372   124 C    1.335   146 H    0.963
   127   6 C    3.926 --   126 C    1.372   131 N    1.294   128 C    1.115
   128   6 C    3.961 --   129 C    1.716   127 C    1.115   147 H    0.973
   129   6 C    3.960 --   128 C    1.716   130 C    1.123   148 H    0.972
   130   6 C    3.916 --   131 N    1.364   132 C    1.239   129 C    1.123
   131   7 N    3.000 --   130 C    1.364   127 C    1.294
   132   6 C    3.926 --   133 C    1.242   130 C    1.239    81 C    1.200
   133   6 C    3.902 --   132 C    1.242   134 C    1.241   137 N    1.227
   134   6 C    3.952 --   135 C    1.587   133 C    1.241   149 H    0.972
   135   6 C    3.949 --   134 C    1.587   136 C    1.228   150 H    0.973
   136   6 C    3.914 --   138 C    1.336   135 C    1.228   137 N    1.203
   137   7 N    3.586 --   133 C    1.227   136 C    1.203   151 H    0.898
   138   6 C    3.922 --   139 C    1.371   136 C    1.336   152 H    0.963
   139   6 C    3.926 --   138 C    1.371   140 N    1.295   117 C    1.115
   140   7 N    3.000 --   119 C    1.363   139 C    1.295
   141   1 H    0.999 --   117 C    0.973
   142   1 H    0.999 --   118 C    0.972
   143   1 H    0.998 --   122 C    0.972
   144   1 H    0.998 --   123 C    0.973
   145   1 H    0.954 --   125 N    0.898
   146   1 H    0.997 --   126 C    0.963
   147   1 H    0.999 --   128 C    0.973
   148   1 H    0.999 --   129 C    0.972
   149   1 H    0.998 --   134 C    0.972
   150   1 H    0.998 --   135 C    0.973
   151   1 H    0.954 --   137 N    0.898
   152   1 H    0.997 --   138 C    0.963
   153   6 C    3.961 --   154 C    1.716   175 C    1.115   177 H    0.973
   154   6 C    3.960 --   153 C    1.716   155 C    1.123   178 H    0.972
   155   6 C    3.915 --   176 N    1.364   156 C    1.239   154 C    1.123
   156   6 C    3.925 --   157 C    1.242   155 C    1.239    86 C    1.200
   157   6 C    3.902 --   156 C    1.242   158 C    1.242   161 N    1.227
   158   6 C    3.952 --   159 C    1.587   157 C    1.242   179 H    0.972
   159   6 C    3.949 --   158 C    1.587   160 C    1.228   180 H    0.973
   160   6 C    3.914 --   162 C    1.335   159 C    1.228   161 N    1.203
   161   7 N    3.586 --   157 C    1.227   160 C    1.203   181 H    0.898
   162   6 C    3.922 --   163 C    1.372   160 C    1.335   182 H    0.963
   163   6 C    3.926 --   162 C    1.372   167 N    1.294   164 C    1.115
   164   6 C    3.961 --   165 C    1.716   163 C    1.115   183 H    0.973
   165   6 C    3.960 --   164 C    1.716   166 C    1.123   184 H    0.972
   166   6 C    3.916 --   167 N    1.364   168 C    1.239   165 C    1.123
   167   7 N    2.999 --   166 C    1.364   163 C    1.294
   168   6 C    3.925 --   169 C    1.242   166 C    1.239    87 C    1.200
   169   6 C    3.902 --   170 C    1.242   168 C    1.242   173 N    1.227
   170   6 C    3.952 --   171 C    1.587   169 C    1.242   185 H    0.972
   171   6 C    3.949 --   170 C    1.587   172 C    1.228   186 H    0.973
   172   6 C    3.914 --   174 C    1.336   171 C    1.228   173 N    1.203
   173   7 N    3.586 --   169 C    1.227   172 C    1.203   187 H    0.898
   174   6 C    3.922 --   175 C    1.372   172 C    1.336   188 H    0.963
   175   6 C    3.926 --   174 C    1.372   176 N    1.294   153 C    1.115
   176   7 N    2.999 --   155 C    1.364   175 C    1.294
   177   1 H    0.999 --   153 C    0.973
   178   1 H    0.999 --   154 C    0.972
   179   1 H    0.998 --   158 C    0.972
   180   1 H    0.998 --   159 C    0.973
   181   1 H    0.954 --   161 N    0.898
   182   1 H    0.997 --   162 C    0.963
   183   1 H    0.999 --   164 C    0.973
   184   1 H    0.999 --   165 C    0.972
   185   1 H    0.998 --   170 C    0.972
   186   1 H    0.998 --   171 C    0.973
   187   1 H    0.954 --   173 N    0.898
   188   1 H    0.997 --   174 C    0.963
   189   6 C    3.961 --   190 C    1.716   211 C    1.115   213 H    0.973
   190   6 C    3.960 --   189 C    1.716   191 C    1.123   214 H    0.972
   191   6 C    3.916 --   212 N    1.364   192 C    1.239   190 C    1.123
   192   6 C    3.925 --   193 C    1.242   191 C    1.239    92 C    1.200
   193   6 C    3.902 --   194 C    1.242   192 C    1.242   197 N    1.227
   194   6 C    3.952 --   195 C    1.587   193 C    1.242   215 H    0.972
   195   6 C    3.949 --   194 C    1.587   196 C    1.228   216 H    0.973
   196   6 C    3.914 --   198 C    1.335   195 C    1.228   197 N    1.203
   197   7 N    3.586 --   193 C    1.227   196 C    1.203   217 H    0.898
   198   6 C    3.922 --   199 C    1.372   196 C    1.335   218 H    0.963
   199   6 C    3.926 --   198 C    1.372   203 N    1.294   200 C    1.115
   200   6 C    3.961 --   201 C    1.716   199 C    1.115   219 H    0.973
   201   6 C    3.960 --   200 C    1.716   202 C    1.123   220 H    0.972
   202   6 C    3.916 --   203 N    1.364   204 C    1.239   201 C    1.123
   203   7 N    2.999 --   202 C    1.364   199 C    1.294
   204   6 C    3.925 --   205 C    1.242   202 C    1.239    93 C    1.200
   205   6 C    3.902 --   204 C    1.242   206 C    1.242   209 N    1.227
   206   6 C    3.952 --   207 C    1.587   205 C    1.242   221 H    0.972
   207   6 C    3.949 --   206 C    1.587   208 C    1.228   222 H    0.973
   208   6 C    3.914 --   210 C    1.335   207 C    1.228   209 N    1.203
   209   7 N    3.586 --   205 C    1.227   208 C    1.203   223 H    0.898
   210   6 C    3.922 --   211 C    1.372   208 C    1.335   224 H    0.963
   211   6 C    3.926 --   210 C    1.372   212 N    1.294   189 C    1.115
   212   7 N    2.999 --   191 C    1.364   211 C    1.294
   213   1 H    0.999 --   189 C    0.973
   214   1 H    0.999 --   190 C    0.972
   215   1 H    0.998 --   194 C    0.972
   216   1 H    0.998 --   195 C    0.973
   217   1 H    0.954 --   197 N    0.898
   218   1 H    0.997 --   198 C    0.963
   219   1 H    0.999 --   200 C    0.973
   220   1 H    0.999 --   201 C    0.972
   221   1 H    0.998 --   206 C    0.972
   222   1 H    0.998 --   207 C    0.973
   223   1 H    0.954 --   209 N    0.898
   224   1 H    0.997 --   210 C    0.963
   225   6 C    3.961 --   226 C    1.716   247 C    1.115   249 H    0.973
   226   6 C    3.960 --   225 C    1.716   227 C    1.123   250 H    0.972
   227   6 C    3.916 --   248 N    1.364   228 C    1.239   226 C    1.123
   228   6 C    3.925 --   229 C    1.242   227 C    1.239    98 C    1.200
   229   6 C    3.902 --   228 C    1.242   230 C    1.242   233 N    1.227
   230   6 C    3.952 --   231 C    1.587   229 C    1.242   251 H    0.972
   231   6 C    3.949 --   230 C    1.587   232 C    1.228   252 H    0.973
   232   6 C    3.914 --   234 C    1.335   231 C    1.228   233 N    1.203
   233   7 N    3.586 --   229 C    1.227   232 C    1.203   253 H    0.898
   234   6 C    3.922 --   235 C    1.372   232 C    1.335   254 H    0.963
   235   6 C    3.926 --   234 C    1.372   239 N    1.294   236 C    1.115
   236   6 C    3.961 --   237 C    1.716   235 C    1.115   255 H    0.973
   237   6 C    3.960 --   236 C    1.716   238 C    1.123   256 H    0.972
   238   6 C    3.916 --   239 N    1.364   240 C    1.239   237 C    1.123
   239   7 N    2.999 --   238 C    1.364   235 C    1.294
   240   6 C    3.925 --   241 C    1.242   238 C    1.239    99 C    1.200
   241   6 C    3.902 --   240 C    1.242   242 C    1.242   245 N    1.227
   242   6 C    3.952 --   243 C    1.587   241 C    1.242   257 H    0.972
   243   6 C    3.949 --   242 C    1.587   244 C    1.228   258 H    0.973
   244   6 C    3.914 --   246 C    1.335   243 C    1.228   245 N    1.203
   245   7 N    3.586 --   241 C    1.227   244 C    1.203   259 H    0.898
   246   6 C    3.922 --   247 C    1.372   244 C    1.335   260 H    0.963
   247   6 C    3.926 --   246 C    1.372   248 N    1.294   225 C    1.115
   248   7 N    2.999 --   227 C    1.364   247 C    1.294
   249   1 H    0.999 --   225 C    0.973
   250   1 H    0.999 --   226 C    0.972
   251   1 H    0.998 --   230 C    0.972
   252   1 H    0.998 --   231 C    0.973
   253   1 H    0.954 --   233 N    0.898
   254   1 H    0.997 --   234 C    0.963
   255   1 H    0.999 --   236 C    0.973
   256   1 H    0.999 --   237 C    0.972
   257   1 H    0.998 --   242 C    0.972
   258   1 H    0.998 --   243 C    0.973
   259   1 H    0.954 --   245 N    0.898
   260   1 H    0.997 --   246 C    0.963
   261   6 C    3.961 --   262 C    1.716   283 C    1.115   285 H    0.973
   262   6 C    3.960 --   261 C    1.716   263 C    1.123   286 H    0.972
   263   6 C    3.916 --   284 N    1.364   264 C    1.239   262 C    1.123
   264   6 C    3.925 --   265 C    1.242   263 C    1.239   104 C    1.200
   265   6 C    3.902 --   264 C    1.242   266 C    1.242   269 N    1.227
   266   6 C    3.952 --   267 C    1.587   265 C    1.242   287 H    0.972
   267   6 C    3.949 --   266 C    1.587   268 C    1.228   288 H    0.973
   268   6 C    3.914 --   270 C    1.336   267 C    1.228   269 N    1.203
   269   7 N    3.586 --   265 C    1.227   268 C    1.203   289 H    0.898
   270   6 C    3.922 --   271 C    1.372   268 C    1.336   290 H    0.963
   271   6 C    3.926 --   270 C    1.372   275 N    1.294   272 C    1.115
   272   6 C    3.961 --   273 C    1.716   271 C    1.115   291 H    0.973
   273   6 C    3.960 --   272 C    1.716   274 C    1.123   292 H    0.972
   274   6 C    3.916 --   275 N    1.364   276 C    1.239   273 C    1.123
   275   7 N    2.999 --   274 C    1.364   271 C    1.294
   276   6 C    3.925 --   277 C    1.242   274 C    1.239   105 C    1.200
   277   6 C    3.902 --   276 C    1.242   278 C    1.242   281 N    1.227
   278   6 C    3.952 --   279 C    1.587   277 C    1.242   293 H    0.972
   279   6 C    3.949 --   278 C    1.587   280 C    1.228   294 H    0.973
   280   6 C    3.914 --   282 C    1.335   279 C    1.228   281 N    1.203
   281   7 N    3.586 --   277 C    1.227   280 C    1.203   295 H    0.898
   282   6 C    3.922 --   283 C    1.372   280 C    1.335   296 H    0.963
   283   6 C    3.926 --   282 C    1.372   284 N    1.294   261 C    1.115
   284   7 N    2.999 --   263 C    1.364   283 C    1.294
   285   1 H    0.999 --   261 C    0.973
   286   1 H    0.999 --   262 C    0.972
   287   1 H    0.998 --   266 C    0.972
   288   1 H    0.998 --   267 C    0.973
   289   1 H    0.954 --   269 N    0.898
   290   1 H    0.997 --   270 C    0.963
   291   1 H    0.999 --   272 C    0.973
   292   1 H    0.999 --   273 C    0.972
   293   1 H    0.998 --   278 C    0.972
   294   1 H    0.998 --   279 C    0.973
   295   1 H    0.954 --   281 N    0.898
   296   1 H    0.997 --   282 C    0.963
   297   6 C    3.961 --   298 C    1.716   319 C    1.115   321 H    0.973
   298   6 C    3.960 --   297 C    1.716   299 C    1.123   322 H    0.972
   299   6 C    3.916 --   320 N    1.364   300 C    1.239   298 C    1.123
   300   6 C    3.926 --   301 C    1.242   299 C    1.239   110 C    1.200
   301   6 C    3.902 --   300 C    1.242   302 C    1.241   305 N    1.227
   302   6 C    3.952 --   303 C    1.587   301 C    1.241   323 H    0.972
   303   6 C    3.949 --   302 C    1.587   304 C    1.228   324 H    0.973
   304   6 C    3.914 --   306 C    1.336   303 C    1.228   305 N    1.203
   305   7 N    3.586 --   301 C    1.227   304 C    1.203   325 H    0.898
   306   6 C    3.922 --   307 C    1.371   304 C    1.336   326 H    0.963
   307   6 C    3.926 --   306 C    1.371   311 N    1.295   308 C    1.115
   308   6 C    3.961 --   309 C    1.716   307 C    1.115   327 H    0.973
   309   6 C    3.960 --   308 C    1.716   310 C    1.123   328 H    0.972
   310   6 C    3.916 --   311 N    1.363   312 C    1.240   309 C    1.123
   311   7 N    3.000 --   310 C    1.363   307 C    1.295
   312   6 C    3.926 --   313 C    1.242   310 C    1.240   111 C    1.199
   313   6 C    3.902 --   312 C    1.242   314 C    1.242   317 N    1.227
   314   6 C    3.952 --   315 C    1.587   313 C    1.242   329 H    0.972
   315   6 C    3.949 --   314 C    1.587   316 C    1.228   330 H    0.973
   316   6 C    3.914 --   318 C    1.335   315 C    1.228   317 N    1.203
   317   7 N    3.586 --   313 C    1.227   316 C    1.203   331 H    0.898
   318   6 C    3.923 --   319 C    1.372   316 C    1.335   332 H    0.963
   319   6 C    3.926 --   318 C    1.372   320 N    1.294   297 C    1.115
   320   7 N    2.999 --   299 C    1.364   319 C    1.294
   321   1 H    0.999 --   297 C    0.973
   322   1 H    0.999 --   298 C    0.972
   323   1 H    0.998 --   302 C    0.972
   324   1 H    0.998 --   303 C    0.973
   325   1 H    0.954 --   305 N    0.898
   326   1 H    0.997 --   306 C    0.963
   327   1 H    0.999 --   308 C    0.973
   328   1 H    0.999 --   309 C    0.972
   329   1 H    0.998 --   314 C    0.972
   330   1 H    0.998 --   315 C    0.973
   331   1 H    0.954 --   317 N    0.898
   332   1 H    0.997 --   318 C    0.963
 ---------------------------------------------------------------------------

Topologies differ in total number of bonds
Writing topology from bond orders to xtbtopo.mol

molecular dipole:
                 x           y           z       tot (Debye)
 q only:        0.002      -0.000      -0.013
   full:        0.002      -0.001      -0.019       0.049
molecular quadrupole (traceless):
                xx          xy          yy          xz          yz          zz
 q only:      204.060     -87.238     -67.334       3.925      -6.514    -136.726
  q+dip:      338.305     -45.578     -51.615      -2.208     -22.458    -286.691
   full:      261.704     -43.908     -61.847      -2.305     -13.180    -199.857


           -------------------------------------------------
          | TOTAL ENERGY             -574.894619912196 Eh   |
          | GRADIENT NORM               0.000526542257 Eh/α |
          | HOMO-LUMO GAP               0.741491676784 eV   |
           -------------------------------------------------

------------------------------------------------------------------------
 * finished run on 2021/11/21 at 19:25:21.177     
------------------------------------------------------------------------
 total:
 * wall-time:     0 d,  0 h,  0 min,  6.499 sec
 *  cpu-time:     0 d,  0 h,  0 min,  6.499 sec
 * ratio c/w:     1.000 speedup
 SCF:
 * wall-time:     0 d,  0 h,  0 min,  6.304 sec
 *  cpu-time:     0 d,  0 h,  0 min,  6.304 sec
 * ratio c/w:     1.000 speedup

