 Entering Gaussian System
 *********************************************
 Gaussian 98:
 frequency output generated by the xtb code
 *********************************************
                         Standard orientation:
 --------------------------------------------------------------------
  Center     Atomic     Atomic              Coordinates (Angstroms)
  Number     Number      Type              X           Y           Z
 --------------------------------------------------------------------
    1         27             0        7.948149   -0.051887    0.003366
    2          6             0       10.422458   -3.478414    0.075084
    3          6             0       11.381123   -2.524951    0.062422
    4          6             0       10.699268   -1.267111    0.035194
    5          6             0       11.371598   -0.043554    0.026372
    6          6             0       10.692078    1.176275    0.027659
    7          6             0       11.367479    2.438060    0.044024
    8          6             0       10.403964    3.386341    0.069834
    9          6             0        9.151298    2.693828    0.063350
   10          7             0        9.338774    1.336718    0.035321
   11          6             0        7.935428    3.342134    0.077782
   12          6             0        6.725004    2.684989    0.041522
   13          6             0        5.463597    3.366523    0.027135
   14          6             0        4.512052    2.410426   -0.038339
   15          6             0        5.199390    1.151928   -0.056508
   16          7             0        6.553509    1.329548   -0.006300
   17          6             0        4.547038   -0.061016   -0.109489
   18          6             0        5.206405   -1.271224   -0.095680
   19          6             0        4.527114   -2.533842   -0.120758
   20          6             0        5.484089   -3.485439   -0.069818
   21          6             0        6.740727   -2.796863   -0.020342
   22          7             0        6.561073   -1.441807   -0.037854
   23          6             0        7.954053   -3.447498    0.030587
   24          6             0        9.166210   -2.792682    0.049877
   25          7             0        9.347000   -1.434524    0.028483
   26          1             0       10.532983   -4.545227    0.096022
   27          1             0       12.447859   -2.636622    0.071035
   28          1             0       12.433515    2.556016    0.038605
   29          1             0       10.508864    4.453570    0.089285
   30          1             0        7.932559    4.421136    0.107978
   31          1             0        5.349332    4.432761    0.059908
   32          1             0        3.445222    2.519435   -0.069552
   33          1             0        3.468573   -0.063255   -0.151981
   34          1             0        3.461459   -2.648832   -0.167495
   35          1             0        5.376515   -4.552844   -0.067197
   36          1             0        7.956713   -4.526858    0.045746
   37          6             0       12.769883   -0.038006    0.034306
   38          6             0       13.987280   -0.037405    0.056187
   39          6             0       15.329838   -0.027421    0.076487
   40          6             0       16.547066   -0.022325    0.107507
   41         27             0       21.347863    0.055080   -0.011763
   42          6             0       18.870082    3.425998    0.466038
   43          6             0       17.915722    2.475511    0.339948
   44          6             0       18.603301    1.230239    0.183155
   45          6             0       17.944334   -0.001067    0.130237
   46          6             0       18.642361   -1.210495    0.182121
   47          6             0       17.996150   -2.477700    0.338342
   48          6             0       18.981304   -3.397063    0.458492
   49          6             0       20.218417   -2.687246    0.335757
   50          7             0       19.997900   -1.344392    0.177567
   51          6             0       21.447585   -3.310662    0.290278
   52          6             0       22.617500   -2.646342   -0.012324
   53          6             0       23.864731   -3.312825   -0.249171
   54          6             0       24.744928   -2.359101   -0.625008
   55          6             0       24.040209   -1.111055   -0.575962
   56          7             0       22.737329   -1.299289   -0.209699
   57          6             0       24.645833    0.110823   -0.783243
   58          6             0       24.004611    1.310615   -0.555026
   59          6             0       24.671669    2.579768   -0.582296
   60          6             0       23.759803    3.501852   -0.202820
   61          6             0       22.531671    2.794932    0.015970
   62          7             0       22.694497    1.454360   -0.194576
   63          6             0       21.338839    3.419688    0.313148
   64          6             0       20.129954    2.757047    0.346659
   65          7             0       19.953835    1.408074    0.183035
   66          1             0       18.752983    4.482674    0.608470
   67          1             0       16.848588    2.580580    0.365203
   68          1             0       16.933049   -2.617509    0.367332
   69          1             0       18.899221   -4.457400    0.598029
   70          1             0       21.484730   -4.380509    0.428820
   71          1             0       24.016297   -4.370513   -0.152370
   72          1             0       25.777999   -2.462874   -0.895272
   73          1             0       25.686745    0.128612   -1.067985
   74          1             0       25.703488    2.718049   -0.841869
   75          1             0       23.878021    4.562454   -0.092322
   76          1             0       21.340713    4.489383    0.457983
 --------------------------------------------------------------------
     1 basis functions        1 primitive gaussians
     1 alpha electrons        1 beta electrons

 Harmonic frequencies (cm**-1), IR intensities (km*mol⁻¹),
 Raman scattering activities (A**4/amu), Raman depolarization ratios,
 reduced masses (AMU), force constants (mDyne/A) and normal coordinates:
                      1                      2                      3
                        a                      a                      a 
 Frequencies --   -12.6734                 4.1003                 8.3976
 Red. masses --    11.2789                11.2298                11.4330
 Frc consts  --     0.0000                 0.0000                 0.0000
 IR Inten    --   228.1453                 6.1083                 0.4537
 Raman Activ --     0.0000                 0.0000                 0.0000
 Depolar     --     0.0000                 0.0000                 0.0000
 Atom AN      X      Y      Z        X      Y      Z        X      Y      Z
   1  27    -0.00  -0.00  -0.06    -0.00  -0.01   0.00     0.00   0.02   0.00
   2   6     0.01  -0.00  -0.26     0.01  -0.00  -0.19    -0.13  -0.08  -0.00
   3   6     0.00  -0.00  -0.14     0.00   0.00  -0.13    -0.09  -0.12  -0.00
   4   6     0.00  -0.00  -0.06     0.00   0.00  -0.06    -0.04  -0.09  -0.00
   5   6     0.00  -0.00  -0.01    -0.00   0.00  -0.00     0.00  -0.12  -0.00
   6   6     0.00   0.00  -0.06    -0.00   0.00   0.06     0.05  -0.09  -0.00
   7   6     0.00   0.00  -0.14    -0.01   0.00   0.13     0.09  -0.12  -0.00
   8   6     0.01   0.00  -0.26    -0.01  -0.00   0.19     0.13  -0.08   0.00
   9   6     0.00   0.01  -0.22    -0.01  -0.00   0.15     0.10  -0.04   0.00
  10   7     0.00   0.00  -0.12    -0.00  -0.00   0.08     0.06  -0.05   0.00
  11   6     0.01   0.01  -0.24    -0.01  -0.01   0.20     0.13   0.01   0.00
  12   6     0.00   0.01  -0.08    -0.01  -0.01   0.16     0.10   0.06   0.00
  13   6     0.00   0.01   0.03    -0.01  -0.01   0.21     0.13   0.10   0.01
  14   6    -0.01  -0.00   0.26    -0.01  -0.01   0.15     0.09   0.14   0.01
  15   6    -0.01  -0.00   0.26    -0.00  -0.00   0.08     0.05   0.11   0.00
  16   7    -0.00   0.00   0.06    -0.00  -0.00   0.09     0.06   0.07   0.00
  17   6    -0.02  -0.00   0.39    -0.00  -0.00   0.00     0.00   0.14   0.00
  18   6    -0.01  -0.00   0.26     0.00  -0.00  -0.07    -0.05   0.11   0.00
  19   6    -0.01  -0.00   0.25     0.00  -0.00  -0.15    -0.09   0.14   0.00
  20   6    -0.00  -0.00   0.02     0.01  -0.00  -0.21    -0.13   0.10  -0.00
  21   6     0.00  -0.00  -0.08     0.01  -0.00  -0.16    -0.10   0.06  -0.00
  22   7    -0.01  -0.00   0.06     0.00  -0.00  -0.09    -0.06   0.07   0.00
  23   6     0.01  -0.01  -0.24     0.01  -0.00  -0.19    -0.13   0.01  -0.00
  24   6     0.01  -0.00  -0.22     0.00  -0.00  -0.15    -0.10  -0.04  -0.00
  25   7     0.00  -0.00  -0.11     0.00  -0.00  -0.08    -0.06  -0.05  -0.00
  26   1     0.00  -0.00  -0.10     0.00  -0.00  -0.07    -0.05  -0.03  -0.00
  27   1     0.00   0.00  -0.04     0.00   0.00  -0.04    -0.03  -0.05  -0.00
  28   1     0.00  -0.00  -0.04    -0.00   0.00   0.04     0.03  -0.05  -0.00
  29   1     0.00   0.00  -0.10    -0.00  -0.00   0.07     0.05  -0.03   0.00
  30   1     0.00   0.00  -0.10    -0.00  -0.00   0.08     0.05   0.00   0.00
  31   1     0.00   0.00  -0.02    -0.00  -0.00   0.08     0.05   0.03   0.00
  32   1    -0.00  -0.00   0.12    -0.00  -0.00   0.05     0.03   0.05   0.00
  33   1    -0.01  -0.00   0.16    -0.00  -0.00   0.00     0.00   0.05   0.00
  34   1    -0.01  -0.00   0.11     0.00  -0.00  -0.05    -0.03   0.05   0.00
  35   1     0.00  -0.00  -0.02     0.00  -0.00  -0.08    -0.05   0.03  -0.00
  36   1     0.00  -0.00  -0.10     0.00  -0.00  -0.07    -0.05   0.00  -0.00
  37   6     0.00   0.00   0.03    -0.00   0.01  -0.00     0.00  -0.17  -0.00
  38   6     0.00   0.00   0.05    -0.00   0.01  -0.00     0.00  -0.19  -0.00
  39   6     0.00   0.00   0.06    -0.00   0.01  -0.00     0.00  -0.19  -0.01
  40   6     0.00   0.00   0.06    -0.00   0.01  -0.00     0.00  -0.17  -0.01
  41  27     0.00   0.00   0.05     0.00   0.00  -0.00    -0.00   0.03  -0.00
  42   6     0.01  -0.00   0.05     0.00   0.03  -0.19    -0.13  -0.08  -0.02
  43   6     0.00   0.00   0.05     0.00   0.02  -0.14    -0.09  -0.12  -0.02
  44   6     0.00   0.00   0.05     0.00   0.01  -0.07    -0.05  -0.09  -0.01
  45   6     0.00   0.00   0.05    -0.00   0.01  -0.00     0.00  -0.12  -0.00
  46   6     0.00   0.00   0.05    -0.00   0.01   0.06     0.05  -0.09   0.00
  47   6     0.00   0.00   0.05    -0.00   0.02   0.13     0.09  -0.12   0.01
  48   6     0.01   0.00   0.05    -0.00   0.03   0.18     0.13  -0.08   0.01
  49   6     0.00   0.00   0.04    -0.00   0.02   0.15     0.10  -0.03   0.01
  50   7     0.00   0.00   0.04    -0.00   0.01   0.08     0.06  -0.04   0.01
  51   6     0.00   0.00   0.03    -0.00   0.02   0.19     0.13   0.02   0.02
  52   6     0.00   0.00   0.01    -0.00   0.00   0.16     0.10   0.06   0.02
  53   6    -0.00   0.00  -0.00     0.00  -0.01   0.20     0.13   0.11   0.03
  54   6    -0.01   0.00  -0.01     0.00  -0.03   0.15     0.09   0.14   0.03
  55   6    -0.01  -0.00  -0.01     0.00  -0.03   0.08     0.05   0.11   0.02
  56   7    -0.00   0.00   0.01     0.00  -0.01   0.09     0.06   0.07   0.01
  57   6    -0.01  -0.00  -0.02     0.00  -0.04   0.01    -0.00   0.13   0.01
  58   6    -0.01  -0.00  -0.01     0.00  -0.03  -0.07    -0.05   0.11  -0.01
  59   6    -0.01  -0.00  -0.02     0.00  -0.03  -0.14    -0.10   0.14  -0.02
  60   6    -0.00  -0.00  -0.00     0.00  -0.01  -0.20    -0.13   0.10  -0.03
  61   6     0.00  -0.00   0.01     0.00   0.00  -0.16    -0.11   0.06  -0.02
  62   7    -0.00  -0.00   0.01     0.00  -0.01  -0.08    -0.06   0.07  -0.01
  63   6     0.00  -0.00   0.03     0.00   0.02  -0.19    -0.13   0.01  -0.03
  64   6     0.00  -0.00   0.04     0.00   0.02  -0.16    -0.10  -0.03  -0.02
  65   7     0.00  -0.00   0.04     0.00   0.01  -0.09    -0.06  -0.04  -0.01
  66   1     0.00  -0.00   0.01     0.00   0.01  -0.07    -0.05  -0.02  -0.01
  67   1     0.00   0.00   0.02     0.00   0.01  -0.04    -0.03  -0.05  -0.01
  68   1     0.00   0.00   0.02    -0.00   0.01   0.04     0.03  -0.05   0.00
  69   1     0.00   0.00   0.02    -0.00   0.01   0.07     0.05  -0.02   0.01
  70   1     0.00   0.00   0.01    -0.00   0.01   0.07     0.05   0.01   0.01
  71   1    -0.00   0.00   0.00     0.00  -0.00   0.08     0.05   0.03   0.01
  72   1    -0.00  -0.00  -0.01     0.00  -0.01   0.05     0.03   0.05   0.01
  73   1    -0.00  -0.00  -0.01     0.00  -0.02   0.00    -0.00   0.05   0.00
  74   1    -0.00  -0.00  -0.01     0.00  -0.01  -0.04    -0.03   0.05  -0.00
  75   1     0.00  -0.00  -0.00     0.00  -0.00  -0.08    -0.05   0.03  -0.01
  76   1     0.00  -0.00   0.01     0.00   0.01  -0.07    -0.05   0.00  -0.01
                      4                      5                      6
                        a                      a                      a 
 Frequencies --     8.9826                21.9695                23.2367
 Red. masses --    11.5390                11.6248                10.9597
 Frc consts  --     0.0000                 0.0000                 0.0000
 IR Inten    --     0.1365                20.3834                 0.3231
 Raman Activ --     0.0000                 0.0000                 0.0000
 Depolar     --     0.0000                 0.0000                 0.0000
 Atom AN      X      Y      Z        X      Y      Z        X      Y      Z
   1  27     0.02   0.00  -0.05    -0.02  -0.00   0.02    -0.00  -0.00   0.00
   2   6     0.00  -0.00   0.02    -0.01  -0.00   0.04     0.01  -0.00  -0.30
   3   6     0.00  -0.00   0.07    -0.01  -0.00   0.18     0.00  -0.00  -0.29
   4   6     0.01  -0.00   0.06    -0.01  -0.00   0.17     0.00  -0.00  -0.13
   5   6     0.01  -0.00   0.10    -0.01  -0.00   0.23    -0.00   0.00   0.02
   6   6     0.01  -0.00   0.07    -0.01  -0.00   0.15    -0.00   0.00   0.16
   7   6     0.01  -0.00   0.08    -0.01  -0.00   0.13    -0.00  -0.00   0.32
   8   6     0.01  -0.00   0.03    -0.01   0.00  -0.00    -0.00  -0.00   0.30
   9   6     0.01  -0.00  -0.01    -0.01   0.00  -0.05    -0.00  -0.00   0.14
  10   7     0.01  -0.00   0.02    -0.01   0.00   0.05    -0.00   0.00   0.08
  11   6     0.01   0.00  -0.05    -0.01   0.01  -0.14    -0.00   0.00  -0.01
  12   6     0.01   0.00  -0.07    -0.01   0.00  -0.11    -0.00   0.00  -0.15
  13   6     0.01   0.00  -0.10    -0.01   0.00  -0.12     0.00   0.01  -0.30
  14   6     0.01   0.00  -0.10    -0.01   0.00  -0.02     0.00   0.00  -0.29
  15   6     0.01   0.00  -0.08    -0.01  -0.00   0.02     0.00   0.00  -0.14
  16   7     0.01   0.00  -0.06    -0.01   0.00  -0.03    -0.00   0.00  -0.08
  17   6     0.01   0.00  -0.08    -0.01  -0.00   0.05    -0.00  -0.00   0.00
  18   6     0.01   0.00  -0.08    -0.01  -0.00  -0.00    -0.01  -0.00   0.14
  19   6     0.01   0.00  -0.11    -0.01   0.00  -0.07    -0.01  -0.00   0.29
  20   6     0.01   0.00  -0.11    -0.01  -0.00  -0.16    -0.01  -0.00   0.28
  21   6     0.01   0.00  -0.08    -0.01  -0.00  -0.13    -0.00  -0.00   0.13
  22   7     0.01   0.00  -0.07    -0.01  -0.00  -0.05    -0.00  -0.00   0.08
  23   6     0.00  -0.00  -0.07    -0.01  -0.00  -0.14     0.00  -0.00  -0.02
  24   6     0.00  -0.00  -0.02    -0.01  -0.00  -0.03     0.00  -0.00  -0.15
  25   7     0.01  -0.00   0.01    -0.01  -0.00   0.06     0.00  -0.00  -0.08
  26   1     0.00  -0.00   0.00    -0.00  -0.00   0.00     0.00  -0.00  -0.12
  27   1     0.00  -0.00   0.03    -0.00  -0.00   0.08     0.00  -0.00  -0.11
  28   1     0.00  -0.00   0.03    -0.00  -0.00   0.06    -0.00  -0.00   0.12
  29   1     0.00  -0.00   0.01    -0.00   0.00  -0.02    -0.00  -0.00   0.11
  30   1     0.00   0.00  -0.02    -0.00   0.00  -0.06    -0.00   0.00  -0.00
  31   1     0.00   0.00  -0.03    -0.00   0.00  -0.05     0.00   0.00  -0.11
  32   1     0.00   0.00  -0.03    -0.00  -0.00   0.00     0.00   0.00  -0.11
  33   1     0.00   0.00  -0.03    -0.00  -0.00   0.02    -0.00  -0.00   0.00
  34   1     0.00   0.00  -0.04    -0.00   0.00  -0.02    -0.00  -0.00   0.11
  35   1     0.00   0.00  -0.04    -0.00  -0.00  -0.07    -0.00  -0.00   0.10
  36   1     0.00  -0.00  -0.02    -0.00  -0.00  -0.06     0.00  -0.00  -0.01
  37   6     0.01  -0.00   0.14    -0.01  -0.00   0.29    -0.00   0.00   0.02
  38   6     0.01  -0.01   0.17    -0.01  -0.00   0.30    -0.00   0.00   0.02
  39   6     0.01  -0.01   0.18    -0.01  -0.00   0.26    -0.00   0.00   0.02
  40   6     0.01  -0.00   0.18    -0.01  -0.00   0.19     0.00   0.00   0.02
  41  27    -0.02   0.00   0.01     0.02   0.00  -0.07     0.00   0.00  -0.01
  42   6     0.02  -0.01   0.20    -0.01   0.02  -0.17     0.00   0.00   0.00
  43   6     0.02  -0.01   0.21    -0.01   0.01  -0.04     0.00   0.00   0.02
  44   6     0.01  -0.00   0.15    -0.00   0.00   0.02     0.00   0.00   0.01
  45   6     0.01  -0.00   0.16    -0.00  -0.00   0.09     0.00   0.00   0.01
  46   6     0.01  -0.00   0.15    -0.00  -0.00   0.02    -0.00   0.00  -0.01
  47   6     0.02  -0.00   0.21    -0.01  -0.01  -0.02    -0.00  -0.00  -0.02
  48   6     0.03   0.01   0.20    -0.01  -0.02  -0.15    -0.00  -0.00  -0.03
  49   6     0.02   0.01   0.13    -0.01  -0.02  -0.16    -0.00  -0.00  -0.02
  50   7     0.01   0.00   0.11    -0.00  -0.01  -0.06    -0.00  -0.00  -0.01
  51   6     0.02   0.01   0.07    -0.02  -0.03  -0.21    -0.00  -0.00  -0.01
  52   6    -0.00   0.01  -0.04    -0.00  -0.02  -0.12     0.00  -0.00   0.01
  53   6    -0.02   0.01  -0.14     0.01  -0.02  -0.06     0.00  -0.00   0.02
  54   6    -0.06   0.00  -0.25     0.05  -0.00   0.09     0.01  -0.00   0.03
  55   6    -0.06   0.00  -0.21     0.06  -0.00   0.11     0.01  -0.00   0.02
  56   7    -0.03   0.01  -0.09     0.03  -0.01  -0.01     0.00  -0.00   0.01
  57   6    -0.08   0.00  -0.28     0.08   0.00   0.20     0.01  -0.00   0.01
  58   6    -0.06   0.00  -0.21     0.06   0.00   0.12     0.00  -0.00  -0.00
  59   6    -0.06   0.00  -0.25     0.06   0.00   0.11     0.00  -0.00  -0.02
  60   6    -0.02  -0.00  -0.15     0.01   0.02  -0.04    -0.00   0.00  -0.03
  61   6    -0.01  -0.01  -0.05    -0.00   0.02  -0.10    -0.00   0.00  -0.02
  62   7    -0.03  -0.00  -0.10     0.03   0.01  -0.00     0.00   0.00  -0.01
  63   6     0.02  -0.01   0.06    -0.02   0.03  -0.21     0.00   0.00  -0.02
  64   6     0.02  -0.01   0.12    -0.01   0.02  -0.17     0.00   0.00  -0.01
  65   7     0.01  -0.01   0.11    -0.00   0.01  -0.07     0.00   0.00  -0.00
  66   1     0.01  -0.00   0.07    -0.00   0.01  -0.07     0.00   0.00   0.00
  67   1     0.01  -0.00   0.07    -0.00  -0.00   0.00     0.00   0.00   0.01
  68   1     0.01  -0.00   0.07    -0.00   0.00   0.01    -0.00   0.00  -0.01
  69   1     0.01   0.00   0.07    -0.00  -0.01  -0.07    -0.00  -0.00  -0.01
  70   1     0.01   0.00   0.03    -0.01  -0.01  -0.08    -0.00  -0.00  -0.00
  71   1    -0.00   0.00  -0.04    -0.00  -0.01  -0.04     0.00  -0.00   0.01
  72   1    -0.02   0.00  -0.10     0.02   0.00   0.05     0.00  -0.00   0.01
  73   1    -0.03   0.00  -0.11     0.03   0.00   0.09     0.00  -0.00   0.01
  74   1    -0.03   0.00  -0.10     0.02  -0.00   0.06     0.00  -0.00  -0.01
  75   1    -0.00  -0.00  -0.04    -0.00   0.01  -0.03    -0.00   0.00  -0.01
  76   1     0.01  -0.00   0.02    -0.01   0.01  -0.08    -0.00   0.00  -0.01
                      7                      8                      9
                        a                      a                      a 
 Frequencies --    27.1864                35.7361                49.2269
 Red. masses --    11.0645                12.6269                11.6077
 Frc consts  --     0.0000                 0.0000                 0.0000
 IR Inten    --     0.2338                 0.3173                13.6291
 Raman Activ --     0.0000                 0.0000                 0.0000
 Depolar     --     0.0000                 0.0000                 0.0000
 Atom AN      X      Y      Z        X      Y      Z        X      Y      Z
   1  27     0.00  -0.03  -0.00     0.00   0.11   0.00    -0.01  -0.00   0.08
   2   6    -0.03  -0.04  -0.03     0.12   0.14  -0.01    -0.00  -0.00   0.05
   3   6    -0.02  -0.05  -0.03     0.08   0.17  -0.01    -0.00  -0.00   0.17
   4   6    -0.01  -0.04  -0.02     0.04   0.14  -0.00    -0.00  -0.00   0.17
   5   6     0.00  -0.05  -0.01     0.00   0.17   0.00    -0.00  -0.00   0.20
   6   6     0.01  -0.04   0.01    -0.04   0.14   0.00    -0.00  -0.00   0.17
   7   6     0.02  -0.05   0.02    -0.08   0.17   0.01     0.00  -0.00   0.17
   8   6     0.03  -0.04   0.03    -0.12   0.13   0.01     0.00   0.00   0.05
   9   6     0.03  -0.02   0.01    -0.09   0.09   0.00    -0.00   0.00  -0.02
  10   7     0.01  -0.03   0.01    -0.05   0.11   0.00    -0.00   0.00   0.08
  11   6     0.03  -0.01   0.01    -0.12   0.05   0.00     0.00   0.01  -0.14
  12   6     0.03  -0.00  -0.00    -0.09   0.01  -0.00    -0.00   0.01  -0.13
  13   6     0.03   0.01  -0.01    -0.12  -0.04  -0.00     0.00   0.01  -0.16
  14   6     0.02   0.02  -0.02    -0.08  -0.07  -0.00    -0.00   0.00  -0.02
  15   6     0.01   0.01  -0.01    -0.04  -0.05  -0.00    -0.01  -0.00   0.05
  16   7     0.01   0.00  -0.00    -0.05   0.00  -0.00    -0.00   0.00  -0.01
  17   6     0.00   0.02  -0.00     0.00  -0.07   0.00    -0.01  -0.00   0.12
  18   6    -0.01   0.01   0.01     0.04  -0.05   0.00    -0.01  -0.00   0.05
  19   6    -0.02   0.02   0.02     0.09  -0.07   0.01    -0.00  -0.00  -0.02
  20   6    -0.03   0.01   0.02     0.12  -0.04   0.00     0.00  -0.00  -0.15
  21   6    -0.03  -0.00   0.01     0.09   0.01   0.00     0.00  -0.00  -0.13
  22   7    -0.01   0.00   0.00     0.05   0.00   0.00    -0.00  -0.00  -0.01
  23   6    -0.03  -0.01  -0.00     0.12   0.05  -0.00     0.00  -0.00  -0.14
  24   6    -0.03  -0.02  -0.01     0.09   0.09  -0.00    -0.00  -0.00  -0.02
  25   7    -0.01  -0.03  -0.01     0.05   0.11  -0.00    -0.00  -0.00   0.08
  26   1    -0.01  -0.01  -0.01     0.04   0.04  -0.00    -0.00  -0.00   0.00
  27   1    -0.01  -0.02  -0.01     0.02   0.06  -0.00    -0.00  -0.00   0.07
  28   1     0.01  -0.02   0.01    -0.02   0.06   0.00     0.00  -0.00   0.07
  29   1     0.01  -0.01   0.01    -0.04   0.04   0.00     0.00   0.00   0.00
  30   1     0.01  -0.00   0.00    -0.04   0.01   0.00     0.00   0.00  -0.07
  31   1     0.01   0.00  -0.00    -0.04  -0.01  -0.00     0.00   0.00  -0.07
  32   1     0.01   0.01  -0.01    -0.03  -0.03  -0.00    -0.00   0.00   0.00
  33   1     0.00   0.01  -0.00     0.00  -0.03   0.00    -0.00  -0.00   0.05
  34   1    -0.01   0.01   0.01     0.03  -0.03   0.00    -0.00   0.00   0.00
  35   1    -0.01   0.00   0.01     0.05  -0.01   0.00     0.00  -0.00  -0.07
  36   1    -0.01  -0.00  -0.00     0.04   0.01  -0.00     0.00  -0.00  -0.07
  37   6     0.00  -0.05  -0.01     0.00   0.18  -0.00    -0.00  -0.00   0.15
  38   6     0.00  -0.03  -0.01     0.00   0.04  -0.00     0.00  -0.00   0.00
  39   6     0.00  -0.01  -0.01     0.00  -0.05  -0.00     0.00  -0.00  -0.13
  40   6     0.00   0.02  -0.00     0.00  -0.19  -0.00     0.01   0.00  -0.25
  41  27    -0.00   0.03   0.00    -0.00  -0.11  -0.00    -0.00   0.00  -0.06
  42   6    -0.01   0.05  -0.28    -0.13  -0.13  -0.09     0.01  -0.02   0.00
  43   6    -0.00   0.05  -0.29    -0.09  -0.17  -0.09     0.01   0.00  -0.17
  44   6     0.00   0.03  -0.13    -0.04  -0.15  -0.04     0.01   0.00  -0.19
  45   6     0.00   0.03  -0.00     0.00  -0.17  -0.00     0.01   0.00  -0.26
  46   6    -0.00   0.03   0.14     0.04  -0.15   0.04     0.01   0.00  -0.19
  47   6     0.00   0.05   0.29     0.09  -0.16   0.09     0.01   0.00  -0.17
  48   6     0.01   0.05   0.29     0.13  -0.13   0.09     0.01   0.03   0.00
  49   6     0.00   0.03   0.14     0.10  -0.09   0.05     0.01   0.03   0.07
  50   7    -0.00   0.03   0.07     0.05  -0.10   0.02     0.01   0.01  -0.06
  51   6    -0.01   0.02   0.00     0.12  -0.04   0.01     0.03   0.05   0.21
  52   6    -0.04  -0.00  -0.13     0.09  -0.01  -0.02     0.02   0.03   0.16
  53   6    -0.08  -0.02  -0.28     0.11   0.04  -0.06     0.02   0.03   0.17
  54   6    -0.08  -0.02  -0.28     0.07   0.07  -0.06    -0.02   0.01  -0.01
  55   6    -0.04  -0.00  -0.13     0.03   0.05  -0.03    -0.04   0.00  -0.09
  56   7    -0.03   0.00  -0.08     0.05   0.00  -0.01    -0.01   0.02   0.01
  57   6    -0.00   0.00  -0.01    -0.00   0.07  -0.00    -0.06  -0.00  -0.18
  58   6     0.04  -0.00   0.13    -0.04   0.05   0.03    -0.03  -0.00  -0.09
  59   6     0.07  -0.02   0.28    -0.08   0.07   0.06    -0.02  -0.01  -0.01
  60   6     0.07  -0.02   0.28    -0.11   0.03   0.06     0.02  -0.04   0.17
  61   6     0.04  -0.01   0.14    -0.09  -0.01   0.03     0.02  -0.04   0.16
  62   7     0.02   0.00   0.08    -0.05  -0.00   0.02    -0.01  -0.02   0.01
  63   6     0.01   0.01   0.01    -0.12  -0.05  -0.01     0.03  -0.05   0.21
  64   6    -0.00   0.03  -0.13    -0.10  -0.09  -0.05     0.01  -0.03   0.07
  65   7     0.00   0.03  -0.07    -0.05  -0.11  -0.03     0.01  -0.01  -0.06
  66   1    -0.00   0.02  -0.11    -0.05  -0.04  -0.04     0.00  -0.01   0.02
  67   1    -0.00   0.02  -0.11    -0.03  -0.06  -0.03     0.00   0.00  -0.08
  68   1     0.00   0.02   0.11     0.03  -0.06   0.03     0.00  -0.00  -0.08
  69   1     0.00   0.02   0.11     0.05  -0.04   0.04     0.00   0.01   0.02
  70   1    -0.00   0.00   0.00     0.05  -0.01   0.01     0.01   0.02   0.09
  71   1    -0.03  -0.01  -0.11     0.04   0.01  -0.02     0.01   0.01   0.08
  72   1    -0.03  -0.01  -0.11     0.02   0.03  -0.02    -0.01  -0.00  -0.02
  73   1    -0.00  -0.00  -0.00    -0.00   0.03  -0.00    -0.02  -0.00  -0.07
  74   1     0.03  -0.01   0.10    -0.02   0.03   0.02    -0.01   0.00  -0.02
  75   1     0.03  -0.01   0.11    -0.04   0.01   0.02     0.02  -0.01   0.08
  76   1     0.00   0.00   0.00    -0.05  -0.01  -0.00     0.01  -0.02   0.09
                     10                     11                     12
                        a                      a                      a 
 Frequencies --    78.3034                90.8247               100.3173
 Red. masses --    19.2434                13.3179                27.9692
 Frc consts  --     0.0000                 0.0000                 0.0000
 IR Inten    --     0.3031                25.3440                 1.5295
 Raman Activ --     0.0000                 0.0000                 0.0000
 Depolar     --     0.0000                 0.0000                 0.0000
 Atom AN      X      Y      Z        X      Y      Z        X      Y      Z
   1  27     0.27   0.00   0.04     0.05   0.00  -0.13     0.04  -0.00   0.30
   2   6     0.13  -0.02   0.01     0.02  -0.00  -0.12     0.03  -0.01  -0.12
   3   6     0.11   0.01   0.02     0.02   0.00  -0.10     0.02  -0.00  -0.11
   4   6     0.07  -0.01   0.02     0.01  -0.00  -0.05     0.00  -0.00   0.01
   5   6     0.04   0.00   0.01     0.00   0.00   0.03    -0.01  -0.00   0.01
   6   6     0.07   0.01   0.02     0.01   0.00  -0.05     0.00   0.00   0.01
   7   6     0.11  -0.00   0.02     0.02   0.00  -0.10     0.01  -0.00  -0.11
   8   6     0.13   0.02   0.01     0.02   0.01  -0.12     0.02   0.01  -0.12
   9   6     0.11   0.04   0.00     0.02   0.01  -0.05     0.02   0.01  -0.00
  10   7     0.09   0.04   0.02     0.01   0.01  -0.06     0.01   0.01   0.08
  11   6     0.12   0.05  -0.02     0.02   0.01   0.08     0.02   0.02  -0.00
  12   6     0.13   0.02  -0.02     0.02  -0.00   0.12     0.02   0.01   0.01
  13   6     0.12   0.01  -0.04     0.02  -0.01   0.20     0.02   0.01  -0.09
  14   6     0.13  -0.00  -0.01     0.02  -0.00   0.04     0.03   0.00  -0.11
  15   6     0.15   0.00   0.02     0.03   0.00  -0.09     0.03   0.00  -0.00
  16   7     0.16   0.02   0.01     0.03   0.00  -0.03     0.03   0.01   0.08
  17   6     0.16  -0.00   0.04     0.04   0.00  -0.18     0.04   0.00  -0.02
  18   6     0.15  -0.00   0.02     0.03   0.00  -0.09     0.03  -0.00  -0.00
  19   6     0.14   0.00  -0.01     0.02   0.00   0.04     0.03   0.00  -0.11
  20   6     0.12  -0.01  -0.04     0.01   0.00   0.20     0.03  -0.00  -0.09
  21   6     0.13  -0.02  -0.02     0.02  -0.00   0.12     0.02  -0.01   0.01
  22   7     0.16  -0.02   0.01     0.03  -0.00  -0.03     0.03  -0.01   0.08
  23   6     0.12  -0.04  -0.02     0.02  -0.01   0.08     0.02  -0.02  -0.00
  24   6     0.11  -0.04   0.00     0.02  -0.01  -0.05     0.02  -0.02  -0.00
  25   7     0.09  -0.04   0.02     0.01  -0.01  -0.06     0.01  -0.01   0.08
  26   1     0.04  -0.00   0.00     0.01  -0.00  -0.04     0.01  -0.00  -0.06
  27   1     0.03   0.01   0.01     0.01   0.00  -0.04     0.01   0.00  -0.06
  28   1     0.03  -0.01   0.01     0.00  -0.00  -0.04     0.00  -0.00  -0.06
  29   1     0.04   0.00   0.00     0.01   0.00  -0.04     0.01   0.00  -0.06
  30   1     0.03   0.01  -0.01     0.00   0.00   0.04     0.01   0.01  -0.02
  31   1     0.03   0.00  -0.02     0.00  -0.00   0.10     0.01   0.00  -0.05
  32   1     0.04  -0.00  -0.00     0.01  -0.00   0.01     0.01  -0.00  -0.05
  33   1     0.05  -0.00   0.01     0.01   0.00  -0.07     0.01   0.00  -0.03
  34   1     0.04   0.01  -0.00     0.01   0.00   0.01     0.01   0.00  -0.05
  35   1     0.03  -0.00  -0.02     0.00   0.00   0.10     0.01  -0.00  -0.05
  36   1     0.03  -0.01  -0.01     0.00  -0.00   0.04     0.01  -0.01  -0.02
  37   6     0.02   0.00  -0.01    -0.00   0.00   0.20    -0.01   0.00  -0.02
  38   6     0.01  -0.00  -0.04    -0.01   0.00   0.37    -0.01  -0.00  -0.02
  39   6    -0.01  -0.00  -0.05    -0.01   0.00   0.36    -0.02  -0.00  -0.02
  40   6    -0.01   0.00  -0.03    -0.01   0.00   0.18    -0.02  -0.00   0.00
  41  27    -0.26  -0.00   0.11    -0.07  -0.00  -0.14    -0.11   0.00  -0.51
  42   6    -0.13   0.03  -0.06    -0.02   0.01  -0.11    -0.01  -0.04   0.23
  43   6    -0.11   0.00  -0.05    -0.02   0.01  -0.12    -0.02  -0.02   0.21
  44   6    -0.07   0.02   0.00    -0.02   0.01  -0.06    -0.03  -0.00  -0.01
  45   6    -0.03   0.00  -0.00    -0.01   0.00   0.01    -0.03   0.00  -0.03
  46   6    -0.07  -0.01   0.00    -0.02  -0.00  -0.06    -0.03   0.00  -0.01
  47   6    -0.11   0.00  -0.05    -0.02  -0.01  -0.12    -0.02   0.02   0.21
  48   6    -0.14  -0.03  -0.06    -0.02  -0.01  -0.11    -0.01   0.04   0.23
  49   6    -0.12  -0.05  -0.01    -0.01  -0.00  -0.05    -0.02   0.01   0.01
  50   7    -0.09  -0.04   0.03    -0.02  -0.01  -0.06    -0.03  -0.00  -0.13
  51   6    -0.13  -0.06  -0.03     0.00   0.02   0.09    -0.02   0.02  -0.01
  52   6    -0.13  -0.03  -0.01     0.00   0.03   0.12    -0.03   0.01  -0.04
  53   6    -0.14  -0.02  -0.05     0.03   0.04   0.21     0.01   0.02   0.13
  54   6    -0.14  -0.00  -0.02    -0.02   0.02   0.05     0.04   0.01   0.18
  55   6    -0.15  -0.01   0.03    -0.05   0.00  -0.09     0.01  -0.00   0.02
  56   7    -0.15  -0.03   0.04    -0.04   0.01  -0.03    -0.04  -0.00  -0.13
  57   6    -0.15  -0.00   0.05    -0.07   0.00  -0.18     0.02  -0.00   0.07
  58   6    -0.15   0.00   0.03    -0.05  -0.00  -0.09     0.01  -0.00   0.02
  59   6    -0.14  -0.00  -0.02    -0.02  -0.02   0.04     0.03  -0.01   0.18
  60   6    -0.13   0.02  -0.05     0.03  -0.04   0.20     0.01  -0.02   0.13
  61   6    -0.13   0.03  -0.01     0.00  -0.03   0.12    -0.03  -0.01  -0.04
  62   7    -0.15   0.02   0.04    -0.04  -0.01  -0.03    -0.04   0.00  -0.13
  63   6    -0.12   0.06  -0.03     0.00  -0.02   0.10    -0.02  -0.02  -0.01
  64   6    -0.11   0.05  -0.01    -0.01   0.00  -0.05    -0.02  -0.01   0.01
  65   7    -0.09   0.04   0.03    -0.02   0.01  -0.06    -0.04   0.00  -0.13
  66   1    -0.04   0.01  -0.03    -0.00   0.00  -0.04    -0.00  -0.02   0.11
  67   1    -0.03  -0.01  -0.02    -0.00   0.01  -0.04    -0.01  -0.01   0.10
  68   1    -0.03   0.01  -0.02    -0.00  -0.01  -0.04    -0.01   0.01   0.10
  69   1    -0.05  -0.01  -0.03    -0.00  -0.00  -0.04    -0.00   0.02   0.11
  70   1    -0.04  -0.02  -0.02     0.00   0.01   0.05    -0.00   0.01   0.02
  71   1    -0.04  -0.01  -0.03     0.02   0.02   0.10     0.01   0.01   0.07
  72   1    -0.04   0.00  -0.01    -0.01   0.00   0.01     0.02   0.00   0.09
  73   1    -0.04  -0.00   0.01    -0.03   0.00  -0.07     0.02  -0.00   0.06
  74   1    -0.04  -0.01  -0.01    -0.01  -0.00   0.01     0.02  -0.01   0.09
  75   1    -0.04   0.01  -0.03     0.02  -0.02   0.10     0.01  -0.01   0.07
  76   1    -0.03   0.02  -0.02     0.00  -0.01   0.05    -0.00  -0.01   0.02
                     13                     14                     15
                        a                      a                      a 
 Frequencies --   101.0911               119.2395               120.0096
 Red. masses --    27.4379                10.5159                10.6874
 Frc consts  --     0.0000                 0.0000                 0.0000
 IR Inten    --     5.0803                 0.7071                 0.1858
 Raman Activ --     0.0000                 0.0000                 0.0000
 Depolar     --     0.0000                 0.0000                 0.0000
 Atom AN      X      Y      Z        X      Y      Z        X      Y      Z
   1  27     0.04   0.00  -0.52     0.00   0.01  -0.00     0.00  -0.00  -0.00
   2   6     0.01   0.00   0.25    -0.00  -0.00  -0.05    -0.00  -0.00  -0.00
   3   6     0.01   0.01   0.22    -0.00  -0.01  -0.31    -0.00  -0.01  -0.03
   4   6     0.01  -0.00  -0.02    -0.00  -0.00  -0.15    -0.00  -0.01  -0.01
   5   6     0.00   0.00  -0.04     0.00  -0.00   0.00    -0.00  -0.01  -0.00
   6   6     0.01   0.00  -0.02     0.00  -0.00   0.15     0.00  -0.00   0.01
   7   6     0.02  -0.00   0.22     0.01  -0.00   0.31     0.00  -0.01   0.03
   8   6     0.02  -0.00   0.25     0.00   0.00   0.05     0.00  -0.00   0.01
   9   6     0.02   0.01   0.02     0.00   0.01  -0.18     0.00  -0.00  -0.01
  10   7     0.01   0.01  -0.14     0.00   0.00  -0.07     0.00  -0.00  -0.01
  11   6     0.02   0.01  -0.01     0.00   0.01  -0.35     0.00  -0.00  -0.03
  12   6     0.02   0.00  -0.05    -0.00   0.01  -0.17     0.00   0.00  -0.01
  13   6     0.01  -0.00   0.13    -0.01  -0.00   0.05     0.00   0.00   0.00
  14   6     0.01  -0.01   0.19    -0.02  -0.01   0.31     0.00   0.00   0.02
  15   6     0.02  -0.00   0.03    -0.01  -0.01   0.15     0.00   0.00   0.01
  16   7     0.02   0.00  -0.13    -0.00   0.00  -0.05     0.00   0.00  -0.00
  17   6     0.01  -0.00   0.09    -0.00  -0.00  -0.00     0.00   0.00   0.00
  18   6     0.02  -0.00   0.03     0.01  -0.00  -0.16    -0.00   0.00  -0.01
  19   6     0.01  -0.00   0.19     0.02  -0.00  -0.31    -0.00   0.00  -0.03
  20   6     0.01  -0.00   0.13     0.01   0.00  -0.05    -0.00   0.00  -0.00
  21   6     0.02  -0.00  -0.05    -0.00   0.00   0.17    -0.00  -0.00   0.01
  22   7     0.02  -0.00  -0.13     0.00   0.00   0.05    -0.00  -0.00   0.00
  23   6     0.01  -0.01  -0.01    -0.01   0.01   0.35    -0.00  -0.00   0.03
  24   6     0.01  -0.00   0.01    -0.01   0.00   0.18    -0.00  -0.00   0.01
  25   7     0.01  -0.01  -0.14    -0.00   0.00   0.07    -0.00  -0.00   0.01
  26   1     0.00   0.00   0.12    -0.00  -0.00  -0.01    -0.00  -0.00  -0.00
  27   1     0.00   0.00   0.11     0.00  -0.00  -0.16    -0.00  -0.00  -0.01
  28   1     0.00  -0.00   0.11     0.00  -0.00   0.16     0.00  -0.00   0.01
  29   1     0.01  -0.00   0.12     0.00   0.00   0.01     0.00  -0.00   0.00
  30   1     0.00   0.00   0.02     0.00   0.00  -0.14     0.00  -0.00  -0.01
  31   1     0.00  -0.00   0.06    -0.00  -0.00   0.01     0.00   0.00   0.00
  32   1     0.00  -0.00   0.10    -0.01  -0.01   0.16     0.00   0.00   0.01
  33   1     0.00  -0.00   0.07    -0.00  -0.00  -0.00     0.00   0.00   0.00
  34   1     0.00   0.00   0.10     0.01  -0.00  -0.16    -0.00   0.00  -0.01
  35   1     0.00  -0.00   0.06     0.00   0.00  -0.01    -0.00   0.00  -0.00
  36   1     0.00  -0.00   0.02    -0.00   0.00   0.14    -0.00  -0.00   0.01
  37   6    -0.00  -0.00  -0.02     0.00  -0.01   0.00    -0.00   0.00  -0.00
  38   6    -0.00  -0.00  -0.04     0.00  -0.01   0.00    -0.00   0.04  -0.00
  39   6    -0.01  -0.00  -0.03     0.00  -0.01  -0.00    -0.00   0.04  -0.00
  40   6    -0.01  -0.00  -0.01     0.00  -0.00  -0.00    -0.00   0.04   0.00
  41  27    -0.07   0.00  -0.27    -0.00   0.01  -0.00     0.00  -0.06  -0.00
  42   6    -0.01  -0.02   0.13    -0.00   0.00   0.00     0.03   0.00  -0.06
  43   6    -0.01  -0.01   0.12    -0.00  -0.00   0.02     0.02   0.04  -0.30
  44   6    -0.02   0.00  -0.01    -0.00  -0.00   0.01     0.01   0.02  -0.14
  45   6    -0.01   0.00  -0.02     0.00  -0.00  -0.00    -0.00   0.02   0.00
  46   6    -0.02   0.00  -0.01     0.00  -0.00  -0.01    -0.01   0.02   0.14
  47   6    -0.01   0.02   0.12     0.00  -0.00  -0.02    -0.02   0.04   0.31
  48   6    -0.01   0.02   0.13     0.00   0.00  -0.00    -0.03   0.00   0.06
  49   6    -0.02   0.01   0.01     0.00   0.00   0.01    -0.03  -0.03  -0.17
  50   7    -0.02  -0.00  -0.07     0.00   0.00   0.00    -0.02  -0.02  -0.07
  51   6    -0.02   0.00  -0.01     0.00   0.00   0.03    -0.04  -0.05  -0.33
  52   6    -0.02   0.00  -0.03     0.00   0.00   0.01    -0.01  -0.03  -0.16
  53   6    -0.00   0.01   0.06    -0.00  -0.00  -0.00     0.05   0.01   0.05
  54   6     0.01   0.00   0.10    -0.01  -0.00  -0.02     0.11   0.05   0.29
  55   6    -0.00  -0.00   0.02    -0.01  -0.00  -0.01     0.06   0.02   0.14
  56   7    -0.02  -0.00  -0.07    -0.00   0.00   0.00     0.01  -0.01  -0.06
  57   6     0.01  -0.00   0.05    -0.00  -0.00  -0.00    -0.00   0.03   0.00
  58   6    -0.00   0.00   0.02     0.00  -0.00   0.01    -0.06   0.02  -0.14
  59   6     0.01  -0.01   0.10     0.01  -0.00   0.02    -0.11   0.05  -0.29
  60   6    -0.00  -0.01   0.06     0.00  -0.00   0.00    -0.05   0.01  -0.05
  61   6    -0.02  -0.00  -0.03    -0.00   0.00  -0.01     0.01  -0.03   0.16
  62   7    -0.02   0.00  -0.07     0.00   0.00  -0.00    -0.01  -0.01   0.06
  63   6    -0.02  -0.00  -0.01    -0.00   0.00  -0.03     0.04  -0.05   0.33
  64   6    -0.02  -0.01   0.01    -0.00   0.00  -0.01     0.03  -0.03   0.17
  65   7    -0.02   0.00  -0.07    -0.00   0.00  -0.00     0.02  -0.02   0.07
  66   1    -0.00  -0.01   0.06    -0.00   0.00   0.00     0.01   0.00  -0.02
  67   1    -0.00  -0.01   0.06    -0.00  -0.00   0.01     0.01   0.02  -0.16
  68   1    -0.00   0.01   0.06     0.00  -0.00  -0.01    -0.01   0.02   0.16
  69   1    -0.00   0.01   0.06     0.00   0.00  -0.00    -0.01   0.00   0.02
  70   1    -0.00   0.00   0.01     0.00   0.00   0.01    -0.02  -0.02  -0.13
  71   1     0.00   0.00   0.03    -0.00  -0.00  -0.00     0.02   0.00   0.01
  72   1     0.01   0.00   0.05    -0.00  -0.00  -0.01     0.05   0.02   0.15
  73   1     0.01  -0.00   0.04    -0.00  -0.00  -0.00    -0.00   0.01   0.00
  74   1     0.01  -0.00   0.05     0.00  -0.00   0.01    -0.05   0.02  -0.15
  75   1     0.00  -0.00   0.03     0.00  -0.00   0.00    -0.02   0.00  -0.01
  76   1    -0.00  -0.00   0.01    -0.00   0.00  -0.01     0.02  -0.02   0.13
                     16                     17                     18
                        a                      a                      a 
 Frequencies --   123.3001               151.0524               154.6002
 Red. masses --    11.3465                12.5679                11.3384
 Frc consts  --     0.0000                 0.0000                 0.0000
 IR Inten    --    51.2967                11.3232                 8.8114
 Raman Activ --     0.0000                 0.0000                 0.0000
 Depolar     --     0.0000                 0.0000                 0.0000
 Atom AN      X      Y      Z        X      Y      Z        X      Y      Z
   1  27    -0.01  -0.00   0.07    -0.00   0.09   0.00    -0.00  -0.00   0.01
   2   6    -0.00   0.01   0.18     0.03   0.06  -0.00    -0.00  -0.01  -0.13
   3   6    -0.00   0.00   0.00     0.01   0.07   0.00    -0.00  -0.01   0.08
   4   6    -0.00   0.00  -0.13    -0.01   0.06   0.01     0.00  -0.00   0.19
   5   6     0.00  -0.00  -0.23     0.00   0.06   0.00     0.01  -0.00   0.21
   6   6    -0.00  -0.00  -0.13     0.01   0.06   0.00     0.00  -0.00   0.19
   7   6    -0.00  -0.00   0.00    -0.01   0.07  -0.00     0.00   0.00   0.08
   8   6     0.00  -0.01   0.18    -0.03   0.06  -0.00    -0.00   0.00  -0.13
   9   6     0.00  -0.00   0.10    -0.02   0.04   0.00    -0.00  -0.00  -0.09
  10   7    -0.00  -0.00  -0.04     0.00   0.05   0.00     0.00  -0.00   0.10
  11   6     0.00  -0.00   0.02    -0.04   0.02   0.01    -0.00  -0.00  -0.09
  12   6     0.00   0.00  -0.08    -0.03   0.00   0.00    -0.01  -0.01   0.02
  13   6     0.01   0.01  -0.21    -0.05  -0.02   0.00    -0.01  -0.01   0.16
  14   6     0.00   0.01  -0.06    -0.03  -0.03  -0.01    -0.01  -0.00   0.07
  15   6    -0.01  -0.00   0.11    -0.01  -0.02  -0.01    -0.00  -0.00  -0.09
  16   7    -0.00   0.00   0.06    -0.02  -0.00  -0.00    -0.00  -0.00  -0.08
  17   6    -0.01  -0.00   0.22    -0.00  -0.03  -0.00    -0.00   0.00  -0.18
  18   6    -0.01  -0.00   0.11     0.01  -0.02   0.00    -0.00   0.00  -0.09
  19   6     0.00  -0.00  -0.06     0.03  -0.03   0.01    -0.01   0.00   0.07
  20   6     0.01  -0.00  -0.21     0.05  -0.02   0.00    -0.01   0.01   0.16
  21   6     0.00  -0.00  -0.08     0.03   0.00  -0.00    -0.01   0.01   0.02
  22   7    -0.00  -0.00   0.06     0.02   0.00  -0.00    -0.01   0.01  -0.08
  23   6     0.00   0.00   0.02     0.04   0.02  -0.01    -0.00   0.00  -0.09
  24   6    -0.00   0.00   0.10     0.02   0.05  -0.01    -0.00   0.00  -0.09
  25   7    -0.00   0.00  -0.04    -0.00   0.05   0.00     0.00   0.00   0.10
  26   1    -0.00   0.00   0.09     0.01   0.02  -0.00    -0.00  -0.00  -0.08
  27   1    -0.00   0.00  -0.01     0.00   0.02   0.00    -0.00  -0.00   0.04
  28   1    -0.00  -0.00  -0.01    -0.00   0.02  -0.00     0.00   0.00   0.04
  29   1     0.00  -0.00   0.09    -0.01   0.02  -0.00    -0.00   0.00  -0.08
  30   1     0.00  -0.00   0.00    -0.02   0.01   0.00    -0.00  -0.00  -0.04
  31   1     0.00   0.00  -0.11    -0.02  -0.01   0.00    -0.00  -0.00   0.09
  32   1     0.00   0.00  -0.02    -0.01  -0.01  -0.00    -0.00  -0.00   0.04
  33   1    -0.00  -0.00   0.08    -0.00  -0.01  -0.00    -0.00   0.00  -0.06
  34   1     0.00  -0.00  -0.02     0.01  -0.01   0.00    -0.00   0.00   0.04
  35   1     0.01  -0.00  -0.11     0.02  -0.01   0.00    -0.01   0.00   0.09
  36   1     0.00   0.00   0.00     0.02   0.01  -0.00    -0.00   0.00  -0.04
  37   6     0.00  -0.00  -0.25     0.00  -0.08  -0.00     0.01   0.00   0.01
  38   6    -0.00  -0.00  -0.08     0.00  -0.65  -0.01     0.02   0.01  -0.34
  39   6    -0.00  -0.00   0.08     0.00  -0.65  -0.00     0.02   0.01  -0.34
  40   6    -0.01  -0.00   0.25     0.00  -0.08   0.00     0.01   0.00  -0.01
  41  27    -0.04  -0.00  -0.05     0.00   0.08   0.00    -0.04  -0.00   0.01
  42   6     0.00   0.04  -0.18     0.03   0.06   0.01    -0.00   0.04  -0.12
  43   6    -0.00   0.03  -0.01     0.01   0.08  -0.01     0.00   0.02   0.08
  44   6    -0.01   0.00   0.13    -0.01   0.06  -0.00     0.00   0.00   0.19
  45   6    -0.01  -0.00   0.23    -0.00   0.06   0.00     0.01  -0.00   0.20
  46   6    -0.01  -0.00   0.13     0.01   0.07   0.01     0.00  -0.01   0.19
  47   6     0.00  -0.02  -0.01    -0.02   0.08   0.01     0.00  -0.02   0.08
  48   6     0.01  -0.04  -0.18    -0.03   0.06  -0.02     0.00  -0.05  -0.12
  49   6     0.00  -0.02  -0.10    -0.02   0.04  -0.02     0.00  -0.04  -0.08
  50   7    -0.01  -0.01   0.04     0.00   0.05  -0.00     0.00  -0.02   0.11
  51   6     0.02   0.00  -0.02    -0.04   0.01  -0.03     0.01  -0.02  -0.10
  52   6     0.03   0.02   0.08    -0.03   0.00  -0.01     0.02   0.00   0.01
  53   6     0.06   0.05   0.20    -0.04  -0.02   0.01     0.06   0.03   0.15
  54   6     0.02   0.03   0.06    -0.02  -0.03   0.03     0.03   0.03   0.07
  55   6    -0.03   0.01  -0.11    -0.01  -0.02   0.02    -0.02   0.00  -0.08
  56   7    -0.01   0.01  -0.06    -0.01   0.00  -0.00    -0.02  -0.00  -0.08
  57   6    -0.05   0.00  -0.21     0.00  -0.03  -0.00    -0.04   0.00  -0.16
  58   6    -0.03  -0.01  -0.11     0.01  -0.02  -0.02    -0.02  -0.00  -0.08
  59   6     0.02  -0.03   0.06     0.02  -0.03  -0.03     0.03  -0.03   0.07
  60   6     0.06  -0.05   0.20     0.04  -0.02  -0.00     0.06  -0.03   0.15
  61   6     0.03  -0.02   0.08     0.03   0.00   0.01     0.01  -0.00   0.01
  62   7    -0.01  -0.01  -0.06     0.02  -0.00  -0.00    -0.02   0.00  -0.08
  63   6     0.02  -0.00  -0.02     0.04   0.01   0.03     0.01   0.03  -0.10
  64   6     0.00   0.02  -0.10     0.02   0.04   0.02    -0.00   0.04  -0.08
  65   7    -0.01   0.01   0.04    -0.00   0.05   0.01     0.00   0.02   0.11
  66   1     0.00   0.02  -0.10     0.01   0.02   0.00    -0.00   0.02  -0.08
  67   1     0.00   0.01   0.00     0.00   0.03  -0.01     0.00   0.00   0.04
  68   1     0.00  -0.01   0.00    -0.00   0.03   0.01     0.00  -0.00   0.04
  69   1     0.00  -0.02  -0.10    -0.01   0.02  -0.01     0.00  -0.02  -0.08
  70   1     0.01   0.00  -0.01    -0.02   0.00  -0.01     0.00  -0.01  -0.04
  71   1     0.03   0.02   0.11    -0.02  -0.01   0.00     0.03   0.01   0.08
  72   1     0.01   0.01   0.02    -0.00  -0.01   0.01     0.01   0.01   0.04
  73   1    -0.02   0.00  -0.08     0.00  -0.01  -0.00    -0.02   0.00  -0.06
  74   1     0.01  -0.01   0.02     0.01  -0.01  -0.01     0.01  -0.01   0.04
  75   1     0.03  -0.02   0.11     0.02  -0.01  -0.00     0.03  -0.01   0.08
  76   1     0.01  -0.00  -0.01     0.02   0.00   0.01     0.00   0.01  -0.04
                     19                     20                     21
                        a                      a                      a 
 Frequencies --   183.3728               189.3519               192.5433
 Red. masses --    12.8273                12.0930                12.0748
 Frc consts  --     0.0000                 0.0000                 0.0000
 IR Inten    --     1.1015                 0.2517                 1.3035
 Raman Activ --     0.0000                 0.0000                 0.0000
 Depolar     --     0.0000                 0.0000                 0.0000
 Atom AN      X      Y      Z        X      Y      Z        X      Y      Z
   1  27    -0.04  -0.00   0.01     0.00  -0.00   0.01    -0.00   0.00  -0.00
   2   6    -0.03   0.05   0.00    -0.16   0.15  -0.00     0.01  -0.00  -0.00
   3   6     0.04  -0.01  -0.01    -0.16   0.15  -0.01     0.01  -0.00   0.00
   4   6     0.12   0.03  -0.01    -0.13   0.15  -0.00     0.01  -0.00   0.00
   5   6     0.18   0.00  -0.00    -0.00   0.08  -0.00     0.00  -0.00   0.00
   6   6     0.12  -0.03  -0.01     0.13   0.15   0.00    -0.00  -0.00  -0.00
   7   6     0.04   0.01  -0.01     0.15   0.15   0.01    -0.01  -0.00  -0.00
   8   6    -0.03  -0.05   0.00     0.15   0.15   0.00    -0.01  -0.00   0.00
   9   6     0.02  -0.13   0.00     0.15   0.14   0.00    -0.01  -0.01  -0.00
  10   7     0.11  -0.12  -0.01     0.16   0.16   0.00    -0.01  -0.01  -0.00
  11   6    -0.01  -0.18   0.01     0.09   0.00  -0.00    -0.01  -0.00   0.00
  12   6    -0.04  -0.12   0.00     0.16  -0.14   0.00    -0.01   0.01  -0.00
  13   6     0.00  -0.04  -0.01     0.16  -0.15   0.00    -0.01   0.01   0.00
  14   6    -0.06   0.02  -0.01     0.16  -0.15  -0.00    -0.01   0.01   0.00
  15   6    -0.14  -0.02   0.00     0.14  -0.15  -0.00    -0.01   0.01  -0.00
  16   7    -0.13  -0.11   0.00     0.17  -0.16   0.00    -0.01   0.01  -0.00
  17   6    -0.18  -0.00   0.01     0.00  -0.08  -0.00    -0.00   0.00  -0.00
  18   6    -0.14   0.02   0.00    -0.14  -0.15  -0.00     0.01   0.01   0.00
  19   6    -0.06  -0.02  -0.01    -0.16  -0.15  -0.00     0.01   0.00   0.00
  20   6     0.00   0.04  -0.01    -0.16  -0.16  -0.01     0.01   0.01   0.00
  21   6    -0.04   0.12   0.00    -0.16  -0.14  -0.01     0.01   0.01   0.00
  22   7    -0.13   0.11   0.01    -0.16  -0.16  -0.00     0.01   0.01   0.00
  23   6    -0.01   0.18   0.01    -0.09   0.00  -0.00     0.01   0.00  -0.00
  24   6     0.02   0.13   0.01    -0.16   0.14  -0.00     0.01  -0.00   0.00
  25   7     0.11   0.12  -0.01    -0.16   0.16  -0.00     0.01  -0.00   0.00
  26   1    -0.03   0.01   0.00    -0.04   0.04  -0.00     0.00  -0.00  -0.00
  27   1     0.01  -0.02  -0.00    -0.05   0.04  -0.00     0.00  -0.00  -0.00
  28   1     0.01   0.02  -0.00     0.04   0.04   0.00    -0.00  -0.00   0.00
  29   1    -0.03  -0.01   0.00     0.04   0.04  -0.00    -0.00  -0.00   0.00
  30   1    -0.00  -0.05   0.00    -0.02   0.00  -0.00     0.00  -0.00   0.00
  31   1     0.02  -0.01  -0.01     0.04  -0.04   0.00    -0.00   0.00   0.00
  32   1    -0.02   0.02  -0.01     0.05  -0.04  -0.00    -0.00   0.00   0.00
  33   1    -0.05  -0.00   0.00    -0.00   0.02  -0.00    -0.00  -0.00  -0.00
  34   1    -0.02  -0.02  -0.01    -0.05  -0.04  -0.00     0.00   0.00   0.00
  35   1     0.02   0.01  -0.01    -0.04  -0.05  -0.00     0.00   0.00   0.00
  36   1    -0.00   0.05   0.01     0.02   0.00  -0.00    -0.00   0.00  -0.00
  37   6     0.19   0.00   0.02     0.00  -0.04  -0.00     0.00  -0.01  -0.00
  38   6     0.19   0.00   0.03     0.00   0.05   0.00     0.00  -0.03  -0.00
  39   6     0.19   0.00   0.02     0.00   0.03   0.00     0.00  -0.05  -0.00
  40   6     0.19   0.00  -0.02     0.00   0.01   0.00     0.00   0.04   0.00
  41  27    -0.06  -0.00  -0.10    -0.00  -0.00  -0.00    -0.00   0.00  -0.01
  42   6    -0.03   0.05   0.02     0.01  -0.01  -0.00     0.16  -0.15  -0.01
  43   6     0.03  -0.01   0.00     0.01  -0.01  -0.00     0.16  -0.14  -0.04
  44   6     0.12   0.03  -0.02     0.01  -0.01  -0.00     0.14  -0.15  -0.03
  45   6     0.18   0.00  -0.03     0.00  -0.01  -0.00     0.00  -0.08   0.00
  46   6     0.12  -0.03  -0.02    -0.01  -0.01   0.00    -0.13  -0.15   0.03
  47   6     0.04   0.02   0.00    -0.01  -0.01   0.00    -0.15  -0.15   0.04
  48   6    -0.03  -0.05   0.02    -0.01  -0.01   0.00    -0.15  -0.16   0.01
  49   6     0.02  -0.13   0.00    -0.01  -0.01   0.00    -0.15  -0.14   0.01
  50   7     0.11  -0.12  -0.02    -0.01  -0.01   0.00    -0.15  -0.16   0.02
  51   6    -0.01  -0.17   0.00    -0.00  -0.00   0.00    -0.09  -0.00   0.01
  52   6    -0.04  -0.12   0.00    -0.00   0.01   0.00    -0.16   0.14   0.03
  53   6     0.00  -0.04   0.01    -0.00   0.01   0.00    -0.15   0.15   0.04
  54   6    -0.06   0.02   0.03    -0.01   0.01  -0.00    -0.16   0.15   0.01
  55   6    -0.13  -0.03   0.03    -0.01   0.01  -0.00    -0.14   0.15   0.01
  56   7    -0.13  -0.11   0.02    -0.01   0.01   0.00    -0.16   0.16   0.03
  57   6    -0.18  -0.00   0.03    -0.00   0.00   0.00    -0.00   0.08   0.00
  58   6    -0.14   0.02   0.03     0.00   0.01   0.00     0.14   0.15  -0.01
  59   6    -0.06  -0.02   0.03     0.00   0.01   0.00     0.16   0.15  -0.01
  60   6    -0.00   0.04   0.01     0.00   0.01  -0.00     0.15   0.16  -0.03
  61   6    -0.04   0.12   0.01     0.00   0.01  -0.00     0.15   0.14  -0.03
  62   7    -0.13   0.11   0.02     0.01   0.01  -0.00     0.16   0.17  -0.02
  63   6    -0.01   0.17   0.00     0.00   0.00  -0.00     0.09   0.00  -0.01
  64   6     0.01   0.13   0.01     0.01  -0.01  -0.00     0.16  -0.14  -0.01
  65   7     0.11   0.13  -0.02     0.01  -0.01  -0.00     0.16  -0.16  -0.03
  66   1    -0.03   0.01   0.01     0.00  -0.00  -0.00     0.04  -0.04   0.00
  67   1     0.01  -0.02   0.00     0.00  -0.00  -0.00     0.05  -0.04  -0.01
  68   1     0.01   0.03   0.00    -0.00  -0.00   0.00    -0.04  -0.04   0.01
  69   1    -0.03  -0.01   0.01    -0.00  -0.00   0.00    -0.04  -0.05  -0.00
  70   1    -0.00  -0.05  -0.00     0.00  -0.00   0.00     0.02  -0.00  -0.00
  71   1     0.02  -0.01   0.00    -0.00   0.00   0.00    -0.04   0.05   0.01
  72   1    -0.01   0.02   0.01    -0.00   0.00  -0.00    -0.05   0.04  -0.00
  73   1    -0.05  -0.00   0.01    -0.00  -0.00   0.00    -0.00  -0.02  -0.00
  74   1    -0.01  -0.03   0.01     0.00   0.00   0.00     0.05   0.04   0.00
  75   1     0.02   0.01   0.00     0.00   0.00  -0.00     0.04   0.05  -0.01
  76   1    -0.00   0.05   0.00    -0.00   0.00  -0.00    -0.02  -0.00   0.00
                     22                     23                     24
                        a                      a                      a 
 Frequencies --   225.1062               225.5292               226.7362
 Red. masses --    12.7562                13.3576                11.9387
 Frc consts  --     0.0000                 0.0000                 0.0000
 IR Inten    --     1.9295                68.9093                 3.5638
 Raman Activ --     0.0000                 0.0000                 0.0000
 Depolar     --     0.0000                 0.0000                 0.0000
 Atom AN      X      Y      Z        X      Y      Z        X      Y      Z
   1  27    -0.00  -0.00  -0.00     0.01   0.01   0.09    -0.01   0.02   0.00
   2   6     0.00  -0.00  -0.02    -0.00  -0.00  -0.00     0.01  -0.01  -0.16
   3   6     0.00  -0.00  -0.00    -0.00  -0.00  -0.05     0.00  -0.00  -0.03
   4   6     0.00  -0.00   0.02    -0.00  -0.00   0.06    -0.00   0.00   0.21
   5   6     0.00  -0.00   0.00    -0.00  -0.00  -0.04     0.00  -0.00  -0.00
   6   6     0.00  -0.00  -0.03    -0.00  -0.00   0.06     0.00  -0.00  -0.21
   7   6     0.00  -0.00   0.00    -0.00  -0.00  -0.05     0.01  -0.01   0.03
   8   6     0.00  -0.00   0.02    -0.00   0.00  -0.00     0.01  -0.01   0.15
   9   6     0.00  -0.00  -0.01    -0.00   0.00   0.09     0.00  -0.00  -0.10
  10   7     0.00  -0.00  -0.04    -0.00   0.00   0.19     0.00   0.00  -0.35
  11   6     0.00  -0.00   0.01    -0.00   0.01  -0.06     0.00  -0.01   0.06
  12   6     0.00  -0.00  -0.01     0.00   0.01  -0.13     0.00  -0.01  -0.06
  13   6     0.00  -0.00   0.02    -0.01  -0.00   0.04    -0.00  -0.01   0.21
  14   6     0.00   0.00  -0.00    -0.01  -0.01   0.12     0.00   0.00  -0.02
  15   6     0.00   0.00  -0.02     0.00  -0.00  -0.06     0.00   0.01  -0.25
  16   7     0.00  -0.00  -0.03     0.01   0.01  -0.19     0.01   0.00  -0.36
  17   6    -0.00   0.00   0.00     0.00  -0.00  -0.03    -0.01  -0.00  -0.00
  18   6    -0.00   0.00   0.02     0.00  -0.00  -0.07    -0.01  -0.00   0.25
  19   6    -0.00   0.00  -0.00    -0.01   0.00   0.12     0.00  -0.00   0.02
  20   6    -0.00   0.00  -0.02    -0.00  -0.00   0.04     0.02  -0.00  -0.21
  21   6    -0.00   0.00   0.01     0.00  -0.00  -0.13     0.00   0.00   0.05
  22   7    -0.00   0.00   0.04     0.01  -0.00  -0.20    -0.01   0.00   0.34
  23   6    -0.00   0.00  -0.00    -0.00  -0.00  -0.06     0.01  -0.00  -0.07
  24   6     0.00   0.00   0.01    -0.00  -0.00   0.09     0.00  -0.00   0.11
  25   7     0.00   0.00   0.03    -0.01  -0.00   0.19    -0.00   0.00   0.36
  26   1    -0.00  -0.00  -0.01    -0.00  -0.00  -0.02     0.00  -0.00  -0.12
  27   1     0.00  -0.00  -0.00    -0.00  -0.00  -0.04     0.00  -0.00  -0.05
  28   1     0.00  -0.00   0.01    -0.00  -0.00  -0.04     0.00  -0.00   0.05
  29   1     0.00  -0.00   0.01     0.00   0.00  -0.02     0.00  -0.00   0.12
  30   1     0.00  -0.00   0.01    -0.00   0.00  -0.03    -0.00  -0.01   0.11
  31   1     0.00  -0.00   0.01    -0.00  -0.00   0.04    -0.00  -0.01   0.15
  32   1     0.00   0.00   0.00    -0.00  -0.01   0.08    -0.00   0.00   0.02
  33   1    -0.00   0.00  -0.00    -0.00  -0.00   0.02    -0.00  -0.00   0.00
  34   1    -0.00  -0.00  -0.01    -0.00   0.00   0.08     0.00  -0.00  -0.02
  35   1     0.00  -0.00  -0.01    -0.00   0.00   0.04     0.01  -0.00  -0.15
  36   1     0.00   0.00  -0.01    -0.00  -0.00  -0.03     0.00  -0.00  -0.11
  37   6     0.00   0.00   0.00    -0.00  -0.00  -0.23    -0.00  -0.00  -0.00
  38   6     0.00   0.02   0.00    -0.00   0.00  -0.09    -0.00  -0.00  -0.00
  39   6     0.00   0.01  -0.00    -0.01   0.00   0.06    -0.00   0.00   0.00
  40   6     0.00  -0.04  -0.00    -0.01  -0.00   0.25    -0.00   0.00   0.00
  41  27     0.00   0.14   0.00     0.11   0.00  -0.08    -0.00  -0.01  -0.00
  42   6    -0.00  -0.04   0.15    -0.01  -0.01   0.01    -0.00   0.00  -0.01
  43   6    -0.01  -0.02   0.02    -0.01  -0.02   0.11    -0.00   0.00  -0.00
  44   6    -0.02   0.01  -0.21    -0.00   0.00  -0.08    -0.00  -0.00   0.02
  45   6    -0.00  -0.01   0.00    -0.00   0.00   0.04    -0.00   0.00   0.00
  46   6     0.02   0.01   0.22    -0.00  -0.00  -0.07    -0.00   0.00  -0.02
  47   6     0.01  -0.02  -0.02    -0.01   0.02   0.11    -0.00   0.00   0.00
  48   6     0.00  -0.04  -0.16    -0.01   0.01   0.00     0.00   0.00   0.01
  49   6     0.01  -0.01   0.10    -0.01  -0.02  -0.16    -0.00   0.00  -0.01
  50   7     0.02   0.03   0.35    -0.00  -0.03  -0.26    -0.00   0.00  -0.03
  51   6    -0.01  -0.03  -0.07    -0.00  -0.02   0.03     0.00   0.01   0.01
  52   6     0.00  -0.01   0.05     0.03  -0.01   0.18     0.00   0.00  -0.00
  53   6    -0.06  -0.05  -0.19    -0.02  -0.02  -0.02     0.01   0.01   0.02
  54   6    -0.00  -0.01   0.03    -0.06  -0.02  -0.14     0.00   0.00  -0.01
  55   6     0.05   0.01   0.24    -0.01  -0.00   0.08    -0.00  -0.00  -0.03
  56   7     0.07   0.02   0.33     0.04  -0.00   0.28    -0.01   0.00  -0.04
  57   6     0.00  -0.01   0.00    -0.05  -0.00  -0.01     0.00   0.00   0.00
  58   6    -0.05   0.01  -0.24    -0.01   0.00   0.07     0.01  -0.00   0.03
  59   6     0.01  -0.01  -0.02    -0.06   0.03  -0.14    -0.00   0.00   0.00
  60   6     0.05  -0.05   0.19    -0.02   0.02  -0.01    -0.01   0.00  -0.02
  61   6    -0.01  -0.02  -0.06     0.03   0.01   0.18    -0.00  -0.00   0.00
  62   7    -0.07   0.02  -0.34     0.04  -0.00   0.26     0.01  -0.01   0.03
  63   6     0.01  -0.04   0.08    -0.01   0.01   0.04    -0.00  -0.00  -0.01
  64   6    -0.01  -0.01  -0.09    -0.01   0.02  -0.16    -0.00  -0.00   0.01
  65   7    -0.03   0.02  -0.34    -0.01   0.03  -0.28    -0.00  -0.00   0.03
  66   1     0.00  -0.02   0.12    -0.00  -0.01   0.03     0.00   0.00  -0.01
  67   1    -0.00  -0.01   0.04    -0.00  -0.01   0.09    -0.00   0.00  -0.01
  68   1     0.00  -0.01  -0.05    -0.00   0.02   0.08    -0.00   0.00   0.00
  69   1    -0.00  -0.02  -0.12    -0.00   0.01   0.03     0.00   0.00   0.01
  70   1    -0.02  -0.02  -0.11    -0.01  -0.00   0.01     0.00   0.00   0.01
  71   1    -0.04  -0.02  -0.13    -0.01  -0.01  -0.04     0.00   0.00   0.01
  72   1    -0.01  -0.01  -0.02    -0.03  -0.01  -0.10     0.00  -0.00   0.00
  73   1     0.00  -0.01   0.00    -0.03   0.00  -0.06     0.00   0.00   0.00
  74   1     0.01  -0.00   0.02    -0.03   0.01  -0.10    -0.00   0.00  -0.00
  75   1     0.04  -0.02   0.14    -0.01   0.01  -0.03    -0.01   0.00  -0.02
  76   1     0.02  -0.02   0.11    -0.01   0.00   0.02    -0.00   0.00  -0.01
                     25                     26                     27
                        a                      a                      a 
 Frequencies --   229.4071               234.0446               243.3159
 Red. masses --    12.9167                19.1920                10.8453
 Frc consts  --     0.0000                 0.0000                 0.0000
 IR Inten    --   148.6885                43.5558                14.7200
 Raman Activ --     0.0000                 0.0000                 0.0000
 Depolar     --     0.0000                 0.0000                 0.0000
 Atom AN      X      Y      Z        X      Y      Z        X      Y      Z
   1  27     0.03   0.01  -0.06    -0.01   0.01  -0.31    -0.02   0.00   0.01
   2   6    -0.00   0.00  -0.01    -0.01  -0.01  -0.05    -0.00  -0.01  -0.20
   3   6     0.01  -0.01  -0.17    -0.02  -0.00  -0.18    -0.01   0.01   0.25
   4   6     0.02   0.00   0.06    -0.03  -0.00   0.02    -0.01   0.00   0.15
   5   6     0.02  -0.00   0.01    -0.02  -0.00   0.13    -0.01   0.00  -0.00
   6   6     0.02  -0.01   0.06    -0.02   0.00   0.02    -0.01   0.00  -0.16
   7   6     0.01   0.00  -0.17    -0.02   0.00  -0.18    -0.01   0.00  -0.25
   8   6     0.00  -0.01  -0.02    -0.01   0.01  -0.04     0.00   0.00   0.20
   9   6     0.01  -0.02   0.20    -0.01   0.02   0.16    -0.00   0.01   0.26
  10   7     0.02  -0.02   0.27    -0.03   0.02   0.12    -0.01   0.01   0.12
  11   6     0.00  -0.03   0.05    -0.01   0.03   0.20     0.00   0.02  -0.00
  12   6     0.00  -0.02  -0.16    -0.00   0.04  -0.02     0.01   0.03  -0.28
  13   6     0.01  -0.01  -0.02    -0.01   0.02  -0.10    -0.01   0.01  -0.15
  14   6    -0.01  -0.01   0.12     0.00  -0.00  -0.02    -0.01  -0.01   0.26
  15   6    -0.02  -0.01  -0.04     0.02   0.01   0.04     0.01  -0.00   0.11
  16   7    -0.01  -0.02  -0.25     0.02   0.03  -0.07     0.02   0.02  -0.19
  17   6    -0.04  -0.00   0.09     0.03  -0.00   0.21     0.02  -0.00  -0.00
  18   6    -0.02   0.00  -0.05     0.02  -0.01   0.05     0.02  -0.01  -0.11
  19   6    -0.01  -0.01   0.12     0.00  -0.00  -0.02     0.01  -0.00  -0.26
  20   6     0.01   0.01  -0.01    -0.01  -0.02  -0.10    -0.02  -0.01   0.16
  21   6     0.01   0.03  -0.17    -0.00  -0.04  -0.02    -0.02  -0.02   0.28
  22   7    -0.01   0.03  -0.27     0.02  -0.03  -0.06     0.00  -0.02   0.19
  23   6     0.00   0.04   0.05    -0.01  -0.04   0.19    -0.01  -0.02  -0.00
  24   6     0.00   0.02   0.19    -0.02  -0.02   0.16    -0.00  -0.01  -0.26
  25   7     0.02   0.02   0.26    -0.03  -0.02   0.12    -0.01  -0.01  -0.12
  26   1    -0.00   0.00  -0.03     0.00  -0.00  -0.04     0.00  -0.00  -0.10
  27   1     0.00  -0.01  -0.12    -0.00  -0.00  -0.11    -0.00   0.00   0.15
  28   1     0.00   0.00  -0.12    -0.01  -0.00  -0.11    -0.00   0.00  -0.15
  29   1    -0.00  -0.00  -0.04     0.00   0.00  -0.04     0.00  -0.00   0.10
  30   1    -0.00  -0.01   0.02    -0.00   0.01   0.09     0.00   0.01   0.01
  31   1     0.01  -0.00   0.01    -0.01   0.01  -0.05    -0.00   0.00  -0.07
  32   1    -0.00   0.00   0.09     0.00  -0.01  -0.01    -0.01  -0.01   0.17
  33   1    -0.01  -0.00   0.10     0.01  -0.00   0.11     0.01  -0.00  -0.00
  34   1    -0.00  -0.01   0.09     0.00   0.00  -0.01     0.01   0.00  -0.16
  35   1     0.01   0.00   0.02    -0.01  -0.01  -0.05    -0.01  -0.00   0.07
  36   1    -0.00   0.01   0.02    -0.00  -0.01   0.09     0.00  -0.01  -0.01
  37   6     0.01  -0.00  -0.09    -0.02  -0.00   0.24    -0.00   0.00  -0.01
  38   6     0.01   0.00   0.03    -0.01  -0.00   0.10    -0.00  -0.00  -0.00
  39   6     0.00   0.00   0.07    -0.00  -0.00  -0.08     0.00  -0.00   0.00
  40   6     0.00  -0.00   0.04     0.01   0.00  -0.25     0.01   0.00   0.00
  41  27    -0.10   0.00  -0.11     0.07  -0.00   0.27     0.01  -0.00  -0.02
  42   6     0.01   0.00  -0.02    -0.01  -0.00   0.04     0.01   0.01  -0.00
  43   6     0.00   0.03  -0.16     0.00  -0.03   0.14     0.01   0.00  -0.00
  44   6    -0.01  -0.00   0.03     0.01  -0.00  -0.01     0.01   0.00  -0.00
  45   6    -0.01  -0.00   0.04     0.01   0.00  -0.12     0.01   0.00   0.00
  46   6    -0.01   0.00   0.03     0.01   0.00  -0.01     0.01  -0.00   0.00
  47   6     0.00  -0.03  -0.16    -0.00   0.03   0.14     0.01  -0.00  -0.01
  48   6     0.01  -0.00  -0.02    -0.01   0.00   0.04     0.01  -0.00  -0.00
  49   6     0.01   0.04   0.16    -0.00  -0.03  -0.11     0.01  -0.01   0.01
  50   7    -0.01   0.03   0.18     0.01  -0.02  -0.06     0.02  -0.01   0.02
  51   6     0.01   0.05   0.09    -0.02  -0.06  -0.17     0.00  -0.02   0.01
  52   6    -0.03   0.03  -0.10     0.02  -0.03  -0.01     0.00  -0.02  -0.01
  53   6    -0.03   0.01  -0.05     0.06   0.01   0.08     0.01  -0.01   0.00
  54   6     0.02  -0.00   0.06     0.02   0.03   0.04     0.00   0.00   0.01
  55   6     0.03   0.00  -0.01    -0.03  -0.00  -0.04    -0.01  -0.01  -0.00
  56   7    -0.02   0.02  -0.17    -0.01  -0.03   0.02    -0.02  -0.02  -0.02
  57   6     0.08  -0.00   0.12    -0.08   0.00  -0.18    -0.02  -0.00   0.01
  58   6     0.03  -0.00  -0.01    -0.03   0.00  -0.05    -0.01   0.00   0.01
  59   6     0.02   0.00   0.06     0.02  -0.03   0.04    -0.00  -0.00  -0.00
  60   6    -0.03  -0.01  -0.05     0.06  -0.01   0.08     0.01   0.01  -0.01
  61   6    -0.03  -0.03  -0.10     0.01   0.03  -0.01     0.00   0.02   0.01
  62   7    -0.02  -0.02  -0.17    -0.01   0.03   0.02    -0.01   0.02   0.01
  63   6     0.01  -0.05   0.09    -0.02   0.06  -0.17     0.00   0.02   0.01
  64   6     0.01  -0.04   0.16    -0.00   0.03  -0.11     0.01   0.01   0.00
  65   7    -0.01  -0.03   0.18     0.01   0.02  -0.07     0.01   0.01  -0.00
  66   1     0.01   0.00  -0.03    -0.01  -0.00   0.03    -0.00   0.00  -0.00
  67   1     0.00   0.02  -0.11     0.00  -0.02   0.09     0.00  -0.00  -0.00
  68   1     0.00  -0.02  -0.11    -0.00   0.02   0.09     0.00  -0.00  -0.01
  69   1     0.01  -0.00  -0.03    -0.01   0.00   0.03    -0.00  -0.00  -0.00
  70   1     0.01   0.02   0.04    -0.01  -0.02  -0.08     0.00  -0.01   0.00
  71   1    -0.02   0.00  -0.01     0.03   0.01   0.04     0.01  -0.00   0.00
  72   1     0.01  -0.00   0.05     0.01   0.02   0.02     0.00   0.00   0.01
  73   1     0.04  -0.00   0.09    -0.03   0.00  -0.09    -0.01   0.00   0.00
  74   1     0.01   0.00   0.05     0.01  -0.02   0.02    -0.00  -0.00  -0.00
  75   1    -0.02  -0.00  -0.01     0.03  -0.01   0.05     0.01   0.00  -0.01
  76   1     0.01  -0.02   0.04    -0.01   0.02  -0.08    -0.00   0.01   0.00
                     28                     29                     30
                        a                      a                      a 
 Frequencies --   244.5513               245.6126               249.3996
 Red. masses --    13.8950                10.9636                12.1165
 Frc consts  --     0.0000                 0.0000                 0.0000
 IR Inten    --    35.3608                 1.2978                 2.2342
 Raman Activ --     0.0000                 0.0000                 0.0000
 Depolar     --     0.0000                 0.0000                 0.0000
 Atom AN      X      Y      Z        X      Y      Z        X      Y      Z
   1  27     0.11  -0.00  -0.03     0.01   0.00  -0.00     0.01   0.00  -0.00
   2   6     0.04   0.04  -0.04     0.00   0.00  -0.01    -0.00   0.00   0.18
   3   6     0.08  -0.00   0.03     0.00   0.00   0.01     0.00  -0.00  -0.00
   4   6     0.10   0.01   0.03     0.01   0.00   0.01     0.01  -0.01  -0.25
   5   6     0.08   0.00   0.03     0.01   0.00   0.00     0.00  -0.00   0.00
   6   6     0.10  -0.01  -0.02     0.01  -0.00  -0.01     0.00  -0.00   0.25
   7   6     0.08   0.00  -0.03     0.01   0.00  -0.01     0.00  -0.00   0.00
   8   6     0.04  -0.04   0.02     0.00  -0.00   0.01    -0.00   0.00  -0.18
   9   6     0.07  -0.09   0.03     0.00  -0.01   0.01     0.00  -0.00   0.07
  10   7     0.12  -0.08   0.00     0.01  -0.00  -0.01     0.00  -0.01   0.36
  11   6     0.03  -0.19   0.02     0.00  -0.01   0.00    -0.00  -0.00  -0.01
  12   6     0.03  -0.19  -0.02     0.00  -0.01  -0.00     0.00  -0.00  -0.07
  13   6     0.09  -0.08  -0.04     0.01  -0.00  -0.02    -0.00  -0.01   0.17
  14   6     0.00   0.01   0.01    -0.00   0.00   0.01    -0.00   0.00   0.00
  15   6    -0.11  -0.04   0.03    -0.01  -0.00   0.02     0.00   0.01  -0.23
  16   7    -0.09  -0.18   0.01    -0.01  -0.01   0.01     0.01   0.00  -0.33
  17   6    -0.19  -0.00   0.02    -0.01  -0.00   0.00    -0.01   0.00   0.00
  18   6    -0.11   0.04  -0.02    -0.01   0.00  -0.02    -0.01   0.00   0.23
  19   6     0.00  -0.01  -0.05     0.00  -0.00  -0.01     0.00  -0.00  -0.00
  20   6     0.09   0.08   0.02     0.01   0.01   0.02     0.01   0.00  -0.18
  21   6     0.02   0.19   0.05     0.00   0.01   0.01    -0.00   0.01   0.07
  22   7    -0.09   0.17   0.02    -0.01   0.01  -0.01    -0.02   0.01   0.34
  23   6     0.02   0.19   0.02     0.00   0.01   0.00     0.00   0.01   0.01
  24   6     0.06   0.09  -0.03     0.00   0.01  -0.01     0.00   0.00  -0.07
  25   7     0.12   0.08  -0.02     0.01   0.01   0.01     0.01  -0.00  -0.36
  26   1    -0.00   0.01  -0.02    -0.00   0.00  -0.01    -0.00   0.00   0.14
  27   1     0.02  -0.01   0.02     0.00  -0.00   0.00     0.00  -0.00   0.04
  28   1     0.02   0.01  -0.02     0.00   0.00  -0.00    -0.00   0.00  -0.04
  29   1    -0.00  -0.01   0.01    -0.00  -0.00   0.01    -0.00   0.00  -0.14
  30   1    -0.01  -0.05   0.01    -0.00  -0.00  -0.00    -0.00  -0.00  -0.01
  31   1     0.06  -0.02  -0.02     0.00  -0.00  -0.01    -0.00  -0.01   0.13
  32   1     0.00   0.03   0.01     0.00   0.00   0.00    -0.00  -0.00   0.04
  33   1    -0.05  -0.00   0.01    -0.00  -0.00   0.00    -0.00  -0.00   0.00
  34   1     0.00  -0.03  -0.03     0.00  -0.00  -0.00     0.00  -0.00  -0.04
  35   1     0.05   0.02   0.01     0.00   0.00   0.01     0.01  -0.00  -0.13
  36   1    -0.01   0.05   0.01    -0.00   0.00   0.00    -0.00   0.00   0.01
  37   6     0.04   0.00   0.04     0.00  -0.00   0.00     0.00  -0.00   0.00
  38   6     0.02   0.00   0.00     0.00  -0.01   0.00     0.00  -0.00  -0.00
  39   6    -0.02   0.01  -0.03    -0.00   0.00  -0.00    -0.00  -0.00  -0.00
  40   6    -0.04  -0.01  -0.01    -0.00   0.01  -0.00    -0.00   0.00   0.00
  41  27    -0.05  -0.00   0.16    -0.00  -0.00   0.01    -0.00   0.00   0.00
  42   6    -0.05  -0.04  -0.01    -0.01  -0.02   0.18    -0.00   0.00  -0.04
  43   6    -0.08  -0.01   0.08    -0.01   0.04  -0.24    -0.00   0.00  -0.00
  44   6    -0.11  -0.01  -0.00    -0.01   0.02  -0.13    -0.00  -0.01   0.06
  45   6    -0.09  -0.00  -0.02    -0.01   0.02  -0.00    -0.00  -0.00   0.00
  46   6    -0.11   0.01  -0.02    -0.00   0.03   0.12    -0.01  -0.01  -0.06
  47   6    -0.08   0.01   0.05    -0.00   0.04   0.25    -0.01   0.00   0.01
  48   6    -0.05   0.04   0.02     0.00  -0.01  -0.18    -0.00   0.01   0.04
  49   6    -0.08   0.09  -0.05    -0.01  -0.02  -0.27    -0.01   0.00  -0.02
  50   7    -0.12   0.07  -0.05    -0.01  -0.01  -0.17    -0.01  -0.01  -0.09
  51   6    -0.04   0.18  -0.06     0.02   0.01  -0.01    -0.00   0.01  -0.00
  52   6    -0.03   0.18  -0.01     0.08   0.04   0.27     0.00   0.01   0.02
  53   6    -0.09   0.08   0.02     0.04   0.01   0.14    -0.02  -0.00  -0.04
  54   6     0.00  -0.01   0.01    -0.06  -0.04  -0.25    -0.00  -0.00  -0.00
  55   6     0.11   0.04  -0.03    -0.01  -0.02  -0.09     0.02   0.01   0.05
  56   7     0.09   0.18  -0.01     0.06   0.03   0.21     0.02   0.02   0.08
  57   6     0.17   0.00  -0.08     0.01  -0.02  -0.01     0.01   0.00  -0.00
  58   6     0.11  -0.04  -0.03     0.03  -0.02   0.08    -0.01   0.01  -0.06
  59   6    -0.01   0.02  -0.03     0.06  -0.04   0.25     0.00   0.00   0.00
  60   6    -0.08  -0.08   0.03    -0.05   0.00  -0.13     0.01  -0.01   0.04
  61   6    -0.01  -0.19   0.03    -0.08   0.01  -0.27    -0.00  -0.01  -0.02
  62   7     0.11  -0.18   0.03    -0.05   0.00  -0.21    -0.02   0.00  -0.08
  63   6    -0.03  -0.18  -0.06    -0.03  -0.01  -0.00    -0.00  -0.01  -0.00
  64   6    -0.07  -0.08  -0.09    -0.01  -0.03   0.26    -0.00  -0.00   0.02
  65   7    -0.12  -0.07  -0.08    -0.01  -0.02   0.16    -0.00  -0.01   0.08
  66   1     0.00  -0.01   0.01    -0.00  -0.01   0.08    -0.00   0.00  -0.03
  67   1    -0.02   0.00   0.05    -0.00   0.02  -0.15    -0.00   0.00  -0.01
  68   1    -0.02  -0.00   0.03     0.00   0.02   0.16    -0.00   0.00   0.01
  69   1    -0.00   0.01   0.01     0.00  -0.01  -0.08    -0.00   0.00   0.03
  70   1     0.00   0.05  -0.02     0.00   0.00  -0.01    -0.00   0.00  -0.00
  71   1    -0.05   0.02   0.01     0.01   0.01   0.05    -0.01  -0.00  -0.03
  72   1    -0.00  -0.03   0.00    -0.04  -0.02  -0.16    -0.00  -0.00  -0.01
  73   1     0.04   0.00  -0.04     0.00  -0.00  -0.00     0.00  -0.00  -0.00
  74   1    -0.01   0.03  -0.02     0.04  -0.02   0.16     0.00   0.00   0.01
  75   1    -0.05  -0.02   0.02    -0.02   0.00  -0.05     0.01  -0.01   0.03
  76   1     0.00  -0.05  -0.03    -0.00  -0.00   0.00     0.00  -0.00  -0.00
                     31                     32                     33
                        a                      a                      a 
 Frequencies --   250.5512               251.9365               265.7414
 Red. masses --    11.9390                24.8406                44.3725
 Frc consts  --     0.0000                 0.0000                 0.0000
 IR Inten    --     0.3552                27.8814                 0.9665
 Raman Activ --     0.0000                 0.0000                 0.0000
 Depolar     --     0.0000                 0.0000                 0.0000
 Atom AN      X      Y      Z        X      Y      Z        X      Y      Z
   1  27     0.00  -0.00  -0.01     0.00   0.01   0.39    -0.03   0.83   0.00
   2   6    -0.00   0.00   0.05    -0.00   0.00   0.10    -0.07  -0.09   0.00
   3   6     0.00  -0.00  -0.01    -0.00   0.00   0.03    -0.02  -0.15   0.01
   4   6     0.00  -0.00  -0.07    -0.00  -0.00  -0.09     0.02  -0.11  -0.00
   5   6     0.00  -0.00   0.00    -0.00  -0.00  -0.18     0.00  -0.12   0.00
   6   6    -0.00  -0.00   0.07    -0.00  -0.00  -0.08    -0.02  -0.12  -0.00
   7   6    -0.00  -0.00   0.01    -0.00  -0.01   0.03     0.03  -0.15  -0.00
   8   6    -0.00   0.00  -0.05     0.00  -0.01   0.10     0.08  -0.09  -0.00
   9   6    -0.00   0.00   0.01    -0.00  -0.00  -0.01     0.03   0.01   0.00
  10   7    -0.00  -0.00   0.09    -0.00  -0.00  -0.02    -0.01  -0.00   0.00
  11   6    -0.00   0.00  -0.00     0.00   0.01  -0.16    -0.00  -0.01   0.00
  12   6    -0.00   0.00  -0.01    -0.00   0.01  -0.12    -0.03   0.01   0.01
  13   6    -0.00  -0.00   0.04    -0.01  -0.00   0.08    -0.09  -0.09  -0.01
  14   6     0.00   0.00  -0.01    -0.01  -0.01   0.12    -0.03  -0.16  -0.01
  15   6     0.00   0.00  -0.05     0.00   0.00  -0.08     0.02  -0.12   0.01
  16   7     0.00   0.00  -0.07     0.00   0.01  -0.13     0.02   0.00   0.02
  17   6    -0.00   0.00   0.00     0.01   0.00  -0.16    -0.00  -0.11  -0.00
  18   6    -0.00   0.00   0.06     0.01   0.00  -0.08    -0.03  -0.12  -0.00
  19   6     0.00   0.00   0.01    -0.01   0.00   0.12     0.03  -0.16   0.00
  20   6     0.00  -0.00  -0.05    -0.01   0.00   0.07     0.10  -0.09   0.01
  21   6    -0.00  -0.00   0.01     0.00  -0.00  -0.12     0.04   0.01  -0.00
  22   7    -0.00  -0.00   0.07     0.01  -0.00  -0.13    -0.02   0.00  -0.00
  23   6    -0.00  -0.00   0.01     0.00  -0.00  -0.16     0.01  -0.01  -0.00
  24   6    -0.00  -0.00  -0.01     0.00  -0.00  -0.01    -0.02   0.00  -0.01
  25   7     0.00  -0.00  -0.09    -0.00  -0.00  -0.02     0.02  -0.00  -0.02
  26   1    -0.00   0.00   0.04    -0.00   0.00   0.06    -0.05  -0.03   0.00
  27   1    -0.00  -0.00   0.00    -0.00   0.00   0.02    -0.01  -0.06   0.01
  28   1    -0.00   0.00  -0.00    -0.00  -0.00   0.02     0.01  -0.06  -0.00
  29   1    -0.00   0.00  -0.04     0.00  -0.00   0.06     0.05  -0.03  -0.00
  30   1    -0.00   0.00  -0.00     0.00   0.00  -0.06     0.00  -0.00  -0.00
  31   1    -0.00  -0.00   0.03    -0.01  -0.00   0.06    -0.05  -0.03  -0.01
  32   1    -0.00  -0.00   0.00    -0.00  -0.01   0.08    -0.01  -0.06  -0.01
  33   1    -0.00   0.00   0.00     0.00   0.00  -0.05    -0.00  -0.02  -0.00
  34   1     0.00   0.00  -0.01    -0.00   0.00   0.08     0.01  -0.07   0.00
  35   1     0.00  -0.00  -0.03    -0.00   0.00   0.06     0.06  -0.03   0.00
  36   1     0.00  -0.00   0.00     0.00  -0.00  -0.06     0.00  -0.00   0.00
  37   6     0.00   0.00   0.00    -0.00  -0.00  -0.18     0.00  -0.12   0.00
  38   6     0.00   0.00  -0.00    -0.01   0.00   0.18     0.00   0.01  -0.00
  39   6     0.00   0.00  -0.00    -0.01   0.00   0.18    -0.00   0.06  -0.00
  40   6     0.00  -0.00   0.00     0.00   0.00  -0.17    -0.00   0.03  -0.00
  41  27    -0.00   0.00  -0.00     0.02  -0.00   0.37     0.00  -0.09  -0.00
  42   6    -0.00  -0.03   0.20    -0.01  -0.03   0.10     0.01   0.01   0.00
  43   6    -0.01   0.01  -0.03    -0.00  -0.03   0.03     0.00   0.01   0.00
  44   6    -0.01   0.03  -0.27     0.01  -0.01  -0.09     0.00   0.01  -0.00
  45   6     0.00   0.01   0.00     0.00  -0.00  -0.18    -0.00   0.01   0.00
  46   6     0.01   0.03   0.27     0.00   0.00  -0.08    -0.00   0.01   0.00
  47   6     0.01   0.01   0.03    -0.00   0.02   0.03    -0.00   0.01  -0.00
  48   6     0.00  -0.03  -0.20    -0.01   0.03   0.09    -0.01   0.00  -0.00
  49   6     0.01   0.00   0.04    -0.00   0.00  -0.01    -0.00  -0.00   0.01
  50   7     0.02   0.04   0.34     0.00   0.00  -0.01    -0.00  -0.00   0.01
  51   6     0.01   0.00  -0.01    -0.02  -0.02  -0.16     0.00   0.00   0.00
  52   6    -0.00  -0.00  -0.04    -0.01  -0.02  -0.11     0.01  -0.00   0.00
  53   6     0.06   0.03   0.18     0.04   0.02   0.06     0.01   0.01  -0.01
  54   6     0.00  -0.01  -0.03     0.05   0.03   0.11     0.01   0.02  -0.01
  55   6    -0.05  -0.03  -0.23    -0.02   0.00  -0.08     0.00   0.01   0.00
  56   7    -0.07  -0.03  -0.30    -0.03  -0.01  -0.12     0.00  -0.00   0.01
  57   6    -0.00  -0.01   0.00    -0.04   0.00  -0.15     0.00   0.01   0.00
  58   6     0.05  -0.03   0.24    -0.02  -0.00  -0.07    -0.00   0.01  -0.00
  59   6    -0.00  -0.01   0.03     0.05  -0.03   0.11    -0.01   0.02   0.00
  60   6    -0.06   0.03  -0.18     0.04  -0.02   0.06    -0.01   0.01   0.01
  61   6     0.00  -0.00   0.04    -0.01   0.02  -0.11    -0.01  -0.00  -0.00
  62   7     0.07  -0.04   0.31    -0.03   0.01  -0.11    -0.00  -0.00  -0.01
  63   6    -0.01  -0.00   0.01    -0.02   0.02  -0.16    -0.00   0.00  -0.00
  64   6    -0.01   0.00  -0.04    -0.00  -0.00  -0.01     0.00  -0.00  -0.01
  65   7    -0.02   0.04  -0.34     0.00  -0.00  -0.02     0.00  -0.00  -0.01
  66   1     0.00  -0.02   0.15    -0.00  -0.01   0.06     0.00   0.00   0.00
  67   1    -0.00  -0.00   0.02    -0.00  -0.01   0.02     0.00   0.00   0.00
  68   1     0.00  -0.00  -0.02    -0.00   0.01   0.02    -0.00   0.00  -0.00
  69   1    -0.00  -0.02  -0.15    -0.01   0.01   0.05    -0.00   0.00  -0.00
  70   1     0.00  -0.00  -0.01    -0.01  -0.01  -0.06     0.00   0.00   0.00
  71   1     0.04   0.02   0.13     0.02   0.01   0.05     0.01   0.00  -0.00
  72   1     0.01   0.00   0.01     0.03   0.02   0.07     0.00   0.01  -0.00
  73   1    -0.00  -0.00   0.00    -0.01   0.00  -0.05     0.00   0.00   0.00
  74   1    -0.01   0.00  -0.02     0.03  -0.02   0.07    -0.00   0.01   0.00
  75   1    -0.04   0.02  -0.13     0.02  -0.01   0.05    -0.01   0.00   0.00
  76   1    -0.00  -0.00   0.01    -0.01   0.01  -0.06    -0.00  -0.00   0.00
                     34                     35                     36
                        a                      a                      a 
 Frequencies --   266.6617               271.1170               271.9304
 Red. masses --    44.4262                43.1713                43.2448
 Frc consts  --     0.0000                 0.0000                 0.0000
 IR Inten    --   235.2942                 0.4021               186.3537
 Raman Activ --     0.0000                 0.0000                 0.0000
 Depolar     --     0.0000                 0.0000                 0.0000
 Atom AN      X      Y      Z        X      Y      Z        X      Y      Z
   1  27    -0.83  -0.03  -0.01     0.00   0.09   0.00     0.01  -0.01   0.00
   2   6     0.17   0.02   0.00    -0.01  -0.01   0.00    -0.00   0.00   0.00
   3   6     0.09   0.09  -0.00    -0.00  -0.02   0.00    -0.00  -0.00  -0.00
   4   6    -0.01   0.03  -0.00     0.01  -0.02  -0.00    -0.00   0.00  -0.00
   5   6    -0.00   0.00   0.00     0.00  -0.01   0.00     0.00   0.00  -0.00
   6   6    -0.01  -0.02   0.01    -0.01  -0.02  -0.00    -0.00   0.00  -0.00
   7   6     0.09  -0.08  -0.00     0.00  -0.02  -0.00    -0.00   0.00  -0.00
   8   6     0.16  -0.01  -0.01     0.01  -0.01  -0.00    -0.01   0.00   0.00
[...]
  74   1     0.00   0.00  -0.00    -0.01  -0.00   0.00     0.03   0.00  -0.01
  75   1     0.00   0.00   0.00     0.00   0.01   0.00    -0.00  -0.01  -0.00
  76   1    -0.00  -0.00  -0.00     0.00   0.01   0.00    -0.00  -0.02  -0.00
                    214                    215                    216
                        a                      a                      a 
 Frequencies --  3155.1432              3163.0919              3163.4955
 Red. masses --     1.8108                 1.9799                 1.9811
 Frc consts  --     0.0000                 0.0000                 0.0000
 IR Inten    --  2414.6482                43.0424                50.5758
 Raman Activ --     0.0000                 0.0000                 0.0000
 Depolar     --     0.0000                 0.0000                 0.0000
 Atom AN      X      Y      Z        X      Y      Z        X      Y      Z
   1  27     0.00  -0.00  -0.00    -0.00  -0.00  -0.00    -0.00   0.00   0.00
   2   6    -0.00   0.01  -0.00     0.00   0.00  -0.00     0.00   0.00  -0.00
   3   6     0.01  -0.00   0.00    -0.00   0.00  -0.00    -0.00   0.00  -0.00
   4   6     0.00   0.00  -0.00    -0.00  -0.00   0.00    -0.00  -0.00  -0.00
   5   6     0.00  -0.00  -0.00    -0.00  -0.00  -0.00    -0.00  -0.00  -0.00
   6   6     0.00  -0.00  -0.00     0.00   0.00   0.00     0.00  -0.00  -0.00
   7   6     0.15   0.02  -0.00    -0.00  -0.00   0.00     0.00   0.00  -0.00
   8   6    -0.02  -0.22  -0.00     0.00  -0.00  -0.00    -0.00   0.00   0.00
   9   6     0.01  -0.00  -0.00     0.00   0.00   0.00    -0.00   0.00   0.00
  10   7    -0.00   0.00   0.00    -0.00  -0.00  -0.00    -0.00   0.00  -0.00
  11   6     0.00  -0.01  -0.00     0.00  -0.00  -0.00     0.00  -0.00  -0.00
  12   6    -0.00  -0.00  -0.00    -0.00  -0.00  -0.00    -0.01  -0.00  -0.00
  13   6     0.00  -0.00  -0.00     0.00  -0.01  -0.00     0.01  -0.16  -0.01
  14   6    -0.01   0.00  -0.00     0.01  -0.00   0.00     0.16  -0.01   0.00
  15   6    -0.00  -0.00  -0.00     0.00   0.00   0.00     0.00   0.01   0.00
  16   7     0.00   0.00   0.00    -0.00   0.00   0.00    -0.00   0.00  -0.00
  17   6    -0.00   0.00  -0.00     0.00  -0.00   0.00     0.00  -0.00  -0.00
  18   6     0.00   0.00   0.00     0.00  -0.00   0.00    -0.00   0.01  -0.00
  19   6    -0.00  -0.00  -0.00     0.00   0.00   0.00    -0.14  -0.01  -0.01
  20   6    -0.00  -0.00   0.00     0.00   0.00  -0.00    -0.01  -0.14   0.00
  21   6     0.00   0.00   0.00    -0.00   0.00  -0.00     0.01  -0.00   0.00
  22   7    -0.00  -0.00  -0.00    -0.00  -0.00  -0.00     0.00   0.00   0.00
  23   6    -0.00   0.00  -0.00     0.00   0.00  -0.00    -0.00  -0.00   0.00
  24   6     0.00   0.00   0.00     0.00  -0.00   0.00     0.00   0.00  -0.00
  25   7    -0.00  -0.00   0.00     0.00  -0.00   0.00     0.00   0.00   0.00
  26   1     0.00  -0.04   0.00     0.00  -0.00   0.00     0.00  -0.00   0.00
  27   1    -0.02   0.00  -0.00     0.00  -0.00   0.00     0.01  -0.00   0.00
  28   1    -0.56  -0.06   0.00     0.00   0.00  -0.00    -0.01  -0.00   0.00
  29   1     0.07   0.76   0.01     0.00   0.00   0.00     0.00  -0.00  -0.00
  30   1    -0.00   0.03   0.00     0.00   0.00   0.00     0.00   0.01   0.00
  31   1    -0.00   0.01   0.00    -0.00   0.02   0.00    -0.05   0.50   0.02
  32   1     0.03  -0.00   0.00    -0.02   0.00  -0.00    -0.50   0.05  -0.01
  33   1     0.00   0.00   0.00    -0.00  -0.00  -0.00    -0.00  -0.00  -0.00
  34   1     0.01   0.00   0.00    -0.01  -0.00  -0.00     0.44   0.05   0.02
  35   1     0.00   0.01  -0.00    -0.00  -0.01   0.00     0.05   0.46  -0.00
  36   1    -0.00  -0.00   0.00     0.00  -0.00   0.00    -0.00   0.01  -0.00
  37   6    -0.00   0.00  -0.00     0.00   0.00   0.00     0.00   0.00   0.00
  38   6     0.00  -0.00   0.00    -0.00   0.00  -0.00     0.00  -0.00   0.00
  39   6    -0.00  -0.00  -0.00     0.00   0.00   0.00    -0.00  -0.00   0.00
  40   6     0.00   0.00   0.00    -0.00  -0.00  -0.00     0.00  -0.00   0.00
  41  27    -0.00  -0.00   0.00    -0.00  -0.00   0.00    -0.00   0.00   0.00
  42   6     0.00  -0.04  -0.00    -0.00  -0.00  -0.00    -0.00   0.00   0.00
  43   6    -0.02   0.00   0.00     0.01  -0.00  -0.00    -0.00  -0.00  -0.00
  44   6    -0.00  -0.00  -0.00     0.00   0.00   0.00     0.00  -0.00  -0.00
  45   6    -0.00  -0.00  -0.00    -0.00  -0.00  -0.00    -0.00   0.00   0.00
  46   6    -0.00   0.00  -0.00     0.00  -0.00  -0.00    -0.00   0.00   0.00
  47   6    -0.00  -0.00   0.00    -0.00  -0.00   0.00     0.00   0.00  -0.00
  48   6     0.00   0.01  -0.00    -0.00  -0.00   0.00    -0.00   0.00  -0.00
  49   6    -0.00   0.00   0.00     0.00  -0.00   0.00    -0.00   0.00  -0.00
  50   7     0.00  -0.00  -0.00     0.00  -0.00   0.00    -0.00   0.00  -0.00
  51   6    -0.00   0.00  -0.00    -0.00   0.00  -0.00     0.00  -0.00   0.00
  52   6    -0.00   0.00   0.00     0.00   0.00  -0.00    -0.00  -0.00   0.00
  53   6     0.00  -0.00   0.00    -0.01   0.10  -0.01     0.00  -0.01   0.00
  54   6     0.00  -0.00  -0.00    -0.10   0.01   0.03     0.01  -0.00  -0.00
  55   6    -0.00   0.00  -0.00    -0.00  -0.00   0.00     0.00   0.00  -0.00
  56   7    -0.00   0.00   0.00     0.00  -0.00  -0.00    -0.00   0.00   0.00
  57   6    -0.00   0.00   0.00     0.00   0.00  -0.00     0.00  -0.00  -0.00
  58   6     0.00  -0.00  -0.00     0.00  -0.01  -0.00    -0.00  -0.00   0.00
  59   6     0.00   0.00  -0.00     0.17   0.02  -0.05     0.00   0.00  -0.00
  60   6    -0.00   0.00   0.00     0.01   0.19   0.02    -0.00   0.00   0.00
  61   6     0.00  -0.00  -0.00    -0.01   0.00   0.00    -0.00   0.00   0.00
  62   7    -0.00   0.00   0.00    -0.00  -0.00   0.00    -0.00   0.00   0.00
  63   6    -0.00  -0.00  -0.00     0.00   0.00   0.00     0.00  -0.00  -0.00
  64   6    -0.00  -0.00  -0.00    -0.00  -0.00  -0.00     0.00  -0.00   0.00
  65   7     0.00   0.00   0.00    -0.00  -0.00  -0.00    -0.00   0.00   0.00
  66   1    -0.01   0.13   0.02    -0.00   0.00   0.00     0.00  -0.00  -0.00
  67   1     0.09  -0.01  -0.00    -0.02   0.00   0.00     0.00  -0.00   0.00
  68   1     0.02   0.00  -0.00     0.00   0.00  -0.00    -0.00  -0.00   0.00
  69   1    -0.00  -0.02   0.00     0.00   0.00  -0.00    -0.00  -0.00   0.00
  70   1     0.00  -0.00   0.00    -0.00  -0.01   0.00     0.00   0.00  -0.00
  71   1    -0.00   0.00  -0.00     0.05  -0.33   0.03    -0.00   0.03  -0.00
  72   1    -0.00   0.00   0.00     0.31  -0.03  -0.08    -0.02   0.00   0.01
  73   1    -0.00   0.00   0.00    -0.01   0.00   0.00    -0.00  -0.00   0.00
  74   1    -0.01  -0.00   0.00    -0.56  -0.07   0.14    -0.00  -0.00   0.00
  75   1    -0.00  -0.00  -0.00    -0.07  -0.60  -0.06    -0.00  -0.00  -0.00
  76   1     0.00   0.00   0.00     0.00  -0.01  -0.00    -0.00   0.00   0.00
                    217                    218                    219
                        a                      a                      a 
 Frequencies --  3163.5918              3164.0238              3168.1662
 Red. masses --     1.9799                 1.9806                 1.9728
 Frc consts  --     0.0000                 0.0000                 0.0000
 IR Inten    --    11.7616                14.6073              2690.7378
 Raman Activ --     0.0000                 0.0000                 0.0000
 Depolar     --     0.0000                 0.0000                 0.0000
 Atom AN      X      Y      Z        X      Y      Z        X      Y      Z
   1  27    -0.00  -0.00  -0.00    -0.00  -0.00   0.00    -0.00   0.00   0.00
   2   6    -0.00   0.00  -0.00    -0.00  -0.00   0.00     0.01  -0.11   0.00
   3   6    -0.00   0.00  -0.00     0.01  -0.00   0.00     0.16  -0.01   0.00
   4   6     0.00  -0.00  -0.00     0.00   0.00  -0.00     0.00   0.01  -0.00
   5   6    -0.00   0.00  -0.00    -0.00  -0.00   0.00     0.00  -0.00   0.00
   6   6     0.00   0.00   0.00     0.00  -0.00  -0.00    -0.00  -0.00   0.00
   7   6    -0.00  -0.00   0.00     0.01   0.00  -0.00    -0.00   0.00   0.00
   8   6    -0.00  -0.00  -0.00    -0.00   0.00   0.00    -0.00  -0.00  -0.00
   9   6     0.00   0.00   0.00    -0.00   0.00  -0.00     0.00  -0.00  -0.00
  10   7    -0.00   0.00  -0.00    -0.00   0.00  -0.00    -0.00   0.00  -0.00
  11   6     0.00  -0.00  -0.00     0.00  -0.00  -0.00    -0.00  -0.00   0.00
  12   6    -0.00  -0.00  -0.00    -0.01  -0.00  -0.00     0.00  -0.00   0.00
  13   6     0.00  -0.03  -0.00     0.01  -0.14  -0.00    -0.00   0.00   0.00
  14   6     0.03  -0.00   0.00     0.14  -0.01   0.00    -0.00   0.00  -0.00
  15   6     0.00   0.00   0.00     0.00   0.01   0.00     0.00  -0.00  -0.00
  16   7    -0.00   0.00   0.00    -0.00   0.00   0.00     0.00  -0.00   0.00
  17   6     0.00   0.00   0.00     0.01   0.00   0.00    -0.00  -0.00  -0.00
  18   6     0.00  -0.00   0.00     0.00  -0.01   0.00     0.00   0.00  -0.00
  19   6     0.04   0.00   0.00     0.15   0.01   0.01    -0.00  -0.00  -0.00
  20   6     0.00   0.04  -0.00     0.01   0.15  -0.00    -0.00  -0.00   0.00
  21   6    -0.00   0.00  -0.00    -0.01   0.00  -0.00     0.00   0.00  -0.00
  22   7    -0.00  -0.00  -0.00    -0.00  -0.00  -0.00     0.00   0.00   0.00
  23   6     0.00   0.00  -0.00     0.00   0.00  -0.00     0.00  -0.00   0.00
  24   6     0.00  -0.00   0.00    -0.00  -0.00  -0.00    -0.00  -0.00  -0.00
  25   7    -0.00  -0.00   0.00    -0.00  -0.00   0.00    -0.00   0.00  -0.00
  26   1     0.00  -0.00   0.00    -0.00   0.00  -0.00    -0.04   0.34  -0.01
  27   1     0.00  -0.00   0.00    -0.04   0.00  -0.00    -0.52   0.05  -0.00
  28   1     0.00   0.00  -0.00    -0.03  -0.00   0.00     0.00   0.00  -0.00
  29   1     0.00   0.00   0.00    -0.00  -0.00  -0.00     0.00   0.01   0.00
  30   1     0.00   0.00   0.00     0.00   0.01   0.00    -0.00   0.00   0.00
  31   1    -0.01   0.10   0.00    -0.05   0.43   0.01     0.00  -0.00  -0.00
  32   1    -0.10   0.01  -0.00    -0.44   0.04  -0.01     0.00  -0.00   0.00
  33   1    -0.01   0.00  -0.00    -0.02  -0.00  -0.00     0.00   0.00   0.00
  34   1    -0.14  -0.01  -0.01    -0.47  -0.05  -0.02     0.00   0.00   0.00
  35   1    -0.01  -0.14   0.00    -0.05  -0.48   0.00     0.00   0.01  -0.00
  36   1     0.00  -0.00   0.00     0.00  -0.01   0.00     0.00   0.01  -0.00
  37   6     0.00  -0.00   0.00    -0.00  -0.00   0.00    -0.00  -0.00   0.00
  38   6    -0.00  -0.00  -0.00     0.00   0.00  -0.00     0.00   0.00  -0.00
  39   6     0.00  -0.00   0.00    -0.00   0.00  -0.00     0.00  -0.00   0.00
  40   6     0.00   0.00  -0.00     0.00   0.00   0.00    -0.00   0.00  -0.00
  41  27    -0.00   0.00   0.00     0.00  -0.00  -0.00    -0.00  -0.00   0.00
  42   6    -0.00  -0.00  -0.00     0.00   0.00   0.00    -0.00   0.01   0.00
  43   6     0.01  -0.00  -0.00    -0.01   0.00   0.00    -0.01   0.00   0.00
  44   6     0.00   0.00   0.00    -0.00  -0.00  -0.00    -0.00  -0.00  -0.00
  45   6    -0.00   0.00  -0.00    -0.00  -0.00   0.00     0.00   0.00  -0.00
  46   6     0.00  -0.00   0.00    -0.00   0.00  -0.00     0.00  -0.01   0.00
  47   6     0.01   0.00  -0.00    -0.01  -0.00   0.00     0.18   0.02  -0.00
  48   6    -0.00   0.00  -0.00     0.00  -0.00   0.00     0.00   0.14  -0.02
  49   6    -0.00   0.00   0.00     0.00   0.00  -0.00    -0.01   0.00   0.00
  50   7    -0.00   0.00  -0.00     0.00  -0.00  -0.00    -0.00  -0.00   0.00
  51   6     0.00  -0.00   0.00    -0.00   0.00  -0.00     0.00   0.00  -0.00
  52   6    -0.01  -0.00   0.00     0.00   0.00  -0.00     0.00  -0.00  -0.00
  53   6     0.02  -0.18   0.02    -0.00   0.04  -0.00    -0.00   0.00  -0.00
  54   6     0.17  -0.01  -0.05    -0.04   0.00   0.01    -0.00   0.00   0.00
  55   6     0.00   0.01  -0.00    -0.00  -0.00   0.00    -0.00  -0.00   0.00
  56   7    -0.00   0.00   0.00     0.00  -0.00  -0.00     0.00  -0.00   0.00
  57   6     0.01  -0.00  -0.00    -0.00   0.00   0.00    -0.00   0.00   0.00
  58   6     0.00  -0.00  -0.00    -0.00   0.00   0.00     0.00   0.00   0.00
  59   6     0.09   0.01  -0.02    -0.03  -0.00   0.01    -0.00  -0.00   0.00
  60   6     0.01   0.10   0.01    -0.00  -0.03  -0.00    -0.00  -0.00  -0.00
  61   6    -0.00   0.00   0.00     0.00  -0.00  -0.00     0.00  -0.00  -0.00
  62   7    -0.00  -0.00   0.00     0.00   0.00  -0.00     0.00   0.00  -0.00
  63   6     0.00   0.00   0.00    -0.00  -0.00  -0.00    -0.00   0.00   0.00
  64   6    -0.00  -0.00   0.00     0.00  -0.00  -0.00     0.00   0.00   0.00
  65   7    -0.00  -0.00   0.00     0.00   0.00  -0.00    -0.00  -0.00  -0.00
  66   1    -0.00   0.00   0.00     0.00  -0.00  -0.00     0.00  -0.02  -0.00
  67   1    -0.02   0.00   0.00     0.02  -0.00  -0.00     0.02  -0.00  -0.00
  68   1    -0.03  -0.00   0.00     0.02   0.00  -0.00    -0.57  -0.08   0.02
  69   1    -0.00  -0.00   0.00     0.00   0.01  -0.00    -0.03  -0.43   0.06
  70   1     0.00   0.01  -0.00    -0.00  -0.00   0.00     0.00  -0.01   0.00
  71   1    -0.08   0.56  -0.05     0.02  -0.14   0.01     0.00  -0.01   0.00
  72   1    -0.55   0.05   0.14     0.13  -0.01  -0.04     0.01  -0.00  -0.00
  73   1    -0.02  -0.00   0.01     0.01   0.00  -0.00     0.00  -0.00  -0.00
  74   1    -0.30  -0.04   0.07     0.10   0.01  -0.02     0.00   0.00  -0.00
  75   1    -0.03  -0.31  -0.03     0.01   0.10   0.01     0.00   0.00   0.00
  76   1     0.00  -0.01  -0.00    -0.00   0.00   0.00    -0.00  -0.00  -0.00
                    220                    221                    222
                        a                      a                      a 
 Frequencies --  3168.5891              3168.7414              3169.5095
 Red. masses --     1.9715                 1.9723                 1.9728
 Frc consts  --     0.0000                 0.0000                 0.0000
 IR Inten    --   967.9547              1663.7168               507.9405
 Raman Activ --     0.0000                 0.0000                 0.0000
 Depolar     --     0.0000                 0.0000                 0.0000
 Atom AN      X      Y      Z        X      Y      Z        X      Y      Z
   1  27    -0.00   0.00   0.00    -0.00  -0.00   0.00    -0.00  -0.00   0.00
   2   6     0.00  -0.10   0.00    -0.00   0.08  -0.00     0.00  -0.03   0.00
   3   6     0.14  -0.01   0.00    -0.11   0.01  -0.00     0.04  -0.00   0.00
   4   6     0.00   0.01  -0.00    -0.00  -0.00   0.00     0.00   0.00  -0.00
   5   6     0.00  -0.00   0.00     0.00   0.00  -0.00     0.00   0.00   0.00
   6   6     0.00  -0.00  -0.00     0.00  -0.00  -0.00     0.00  -0.01  -0.00
   7   6     0.02   0.00  -0.00     0.11   0.01  -0.00     0.21   0.02  -0.00
   8   6     0.00   0.01   0.00     0.00   0.08   0.00     0.01   0.16   0.00
   9   6    -0.00   0.00   0.00    -0.00   0.00   0.00    -0.01   0.00   0.00
  10   7    -0.00  -0.00  -0.00    -0.00  -0.00  -0.00    -0.00  -0.00  -0.00
  11   6     0.00   0.00   0.00     0.00   0.00   0.00     0.00   0.00   0.00
  12   6     0.00   0.00   0.00    -0.00  -0.00  -0.00     0.00   0.00   0.00
  13   6    -0.00   0.00   0.00     0.00  -0.00  -0.00    -0.00   0.01   0.00
  14   6    -0.00   0.00  -0.00     0.00  -0.00   0.00    -0.01   0.00  -0.00
  15   6    -0.00  -0.00  -0.00     0.00   0.00   0.00    -0.00  -0.00  -0.00
  16   7     0.00  -0.00   0.00    -0.00  -0.00   0.00     0.00  -0.00   0.00
  17   6    -0.00  -0.00  -0.00     0.00   0.00   0.00    -0.00   0.00  -0.00
  18   6    -0.00   0.00  -0.00     0.00  -0.00  -0.00    -0.00   0.00  -0.00
  19   6    -0.00  -0.00  -0.00     0.00   0.00   0.00    -0.00  -0.00  -0.00
  20   6    -0.00  -0.00   0.00     0.00   0.00  -0.00    -0.00  -0.01   0.00
  21   6     0.00   0.00   0.00    -0.00   0.00  -0.00     0.00  -0.00   0.00
  22   7     0.00   0.00   0.00     0.00  -0.00   0.00     0.00   0.00   0.00
  23   6     0.00  -0.00   0.00    -0.00   0.00  -0.00     0.00  -0.00   0.00
  24   6    -0.00  -0.00  -0.00     0.00   0.00   0.00    -0.00  -0.00  -0.00
  25   7    -0.00   0.00  -0.00     0.00  -0.00   0.00    -0.00   0.00  -0.00
  26   1    -0.03   0.30  -0.01     0.02  -0.24   0.00    -0.01   0.09  -0.00
  27   1    -0.46   0.05  -0.00     0.35  -0.04   0.00    -0.15   0.02  -0.00
  28   1    -0.06  -0.01   0.00    -0.35  -0.04   0.00    -0.68  -0.08   0.00
  29   1    -0.00  -0.04  -0.00    -0.02  -0.26  -0.00    -0.05  -0.49  -0.01
  30   1     0.00  -0.00  -0.00     0.00  -0.00  -0.00     0.00  -0.01  -0.00
  31   1     0.00  -0.01  -0.00    -0.00   0.00   0.00     0.00  -0.02  -0.00
  32   1     0.01  -0.00   0.00    -0.01   0.00  -0.00     0.02  -0.00   0.00
  33   1     0.00   0.00   0.00    -0.00  -0.00  -0.00     0.00  -0.00   0.00
  34   1     0.01   0.00   0.00    -0.01  -0.00  -0.00     0.01   0.00   0.00
  35   1     0.00   0.01  -0.00    -0.00  -0.01   0.00     0.00   0.02  -0.00
  36   1     0.00   0.01  -0.00    -0.00  -0.01   0.00     0.00   0.00  -0.00
  37   6    -0.00  -0.00   0.00     0.00   0.00   0.00    -0.00   0.00   0.00
  38   6     0.00   0.00  -0.00    -0.00  -0.00   0.00     0.00  -0.00  -0.00
  39   6    -0.00   0.00   0.00     0.00   0.00   0.00    -0.00  -0.00  -0.00
  40   6    -0.00  -0.00  -0.00    -0.00  -0.00  -0.00     0.00   0.00   0.00
  41  27    -0.00   0.00  -0.00    -0.00   0.00   0.00     0.00  -0.00  -0.00
  42   6     0.01  -0.11  -0.02     0.01  -0.11  -0.02    -0.00   0.07   0.01
  43   6     0.16  -0.01  -0.00     0.15  -0.01  -0.00    -0.09   0.01   0.00
  44   6     0.00   0.01   0.00     0.00   0.01   0.00    -0.00  -0.00  -0.00
  45   6     0.00  -0.00  -0.00     0.00  -0.00  -0.00    -0.00   0.00   0.00
  46   6    -0.00   0.00  -0.00     0.00  -0.00   0.00    -0.00   0.00  -0.00
  47   6    -0.11  -0.01   0.00     0.10   0.01  -0.00    -0.04  -0.00   0.00
  48   6    -0.00  -0.08   0.01     0.00   0.07  -0.01    -0.00  -0.03   0.00
  49   6     0.00  -0.00  -0.00    -0.00   0.00   0.00     0.00  -0.00  -0.00
  50   7     0.00   0.00  -0.00    -0.00  -0.00   0.00     0.00   0.00  -0.00
  51   6    -0.00  -0.00   0.00     0.00   0.00  -0.00    -0.00  -0.00   0.00
  52   6    -0.00   0.00   0.00     0.00   0.00  -0.00    -0.00  -0.00   0.00
  53   6     0.00  -0.00   0.00    -0.00   0.00  -0.00     0.00  -0.00   0.00
  54   6     0.00  -0.00  -0.00    -0.00   0.00   0.00     0.00  -0.00  -0.00
  55   6     0.00   0.00  -0.00    -0.00  -0.00   0.00     0.00   0.00  -0.00
  56   7     0.00   0.00  -0.00     0.00  -0.00   0.00    -0.00   0.00  -0.00
  57   6     0.00  -0.00  -0.00    -0.00  -0.00   0.00     0.00   0.00  -0.00
  58   6     0.00   0.00  -0.00    -0.00   0.00   0.00     0.00  -0.00  -0.00
  59   6    -0.00   0.00   0.00    -0.00  -0.00   0.00     0.00   0.00  -0.00
  60   6    -0.00  -0.00  -0.00    -0.00  -0.01  -0.00     0.00   0.00   0.00
  61   6     0.00   0.00  -0.00     0.00  -0.00  -0.00    -0.00   0.00   0.00
  62   7    -0.00   0.00   0.00     0.00   0.00   0.00    -0.00  -0.00  -0.00
  63   6     0.00  -0.00  -0.00     0.00  -0.00  -0.00    -0.00   0.00   0.00
  64   6    -0.00  -0.00   0.00    -0.00  -0.00   0.00     0.00   0.00  -0.00
  65   7    -0.00   0.00   0.00    -0.00   0.00   0.00     0.00  -0.00  -0.00
  66   1    -0.04   0.36   0.05    -0.04   0.35   0.05     0.02  -0.21  -0.03
  67   1    -0.51   0.05   0.01    -0.50   0.05   0.01     0.30  -0.03  -0.01
  68   1     0.36   0.05  -0.01    -0.32  -0.04   0.01     0.13   0.02  -0.00
  69   1     0.02   0.27  -0.04    -0.02  -0.23   0.03     0.01   0.09  -0.01
  70   1    -0.00   0.01  -0.00     0.00  -0.01   0.00    -0.00   0.00  -0.00
  71   1    -0.00   0.01  -0.00     0.00  -0.02   0.00    -0.00   0.01  -0.00
  72   1    -0.01   0.00   0.00     0.01  -0.00  -0.00    -0.01   0.00   0.00
  73   1    -0.00   0.00   0.00     0.00   0.00  -0.00    -0.00  -0.00   0.00
  74   1     0.00   0.00  -0.00     0.01   0.00  -0.00    -0.01  -0.00   0.00
  75   1     0.00   0.00   0.00     0.00   0.02   0.00    -0.00  -0.02  -0.00
  76   1     0.00   0.01   0.00     0.00   0.01   0.00    -0.00  -0.01  -0.00
