      -----------------------------------------------------------      
     |                   =====================                   |     
     |                           x T B                           |     
     |                   =====================                   |     
     |                         S. Grimme                         |     
     |          Mulliken Center for Theoretical Chemistry        |     
     |                    University of Bonn                     |     
      -----------------------------------------------------------      

   * xtb version 6.4.1 (bd6e46d) compiled by 'conda@4901f00b25ba' on 2021-06-10

   xtb is free software: you can redistribute it and/or modify it under
   the terms of the GNU Lesser General Public License as published by
   the Free Software Foundation, either version 3 of the License, or
   (at your option) any later version.
   
   xtb is distributed in the hope that it will be useful,
   but WITHOUT ANY WARRANTY; without even the implied warranty of
   MERCHANTABILITY or FITNESS FOR A PARTICULAR PURPOSE.  See the
   GNU Lesser General Public License for more details.
   
   Cite this work as:
   * C. Bannwarth, E. Caldeweyher, S. Ehlert, A. Hansen, P. Pracht,
     J. Seibert, S. Spicher, S. Grimme, WIREs Comput. Mol. Sci., 2020, 11,
     e01493. DOI: 10.1002/wcms.1493
   
   for GFN2-xTB:
   * C. Bannwarth, S. Ehlert and S. Grimme., J. Chem. Theory Comput., 2019,
     15, 1652-1671. DOI: 10.1021/acs.jctc.8b01176
   for GFN1-xTB:
   * S. Grimme, C. Bannwarth, P. Shushkov, J. Chem. Theory Comput., 2017,
     13, 1989-2009. DOI: 10.1021/acs.jctc.7b00118
   for GFN0-xTB:
   * P. Pracht, E. Caldeweyher, S. Ehlert, S. Grimme, ChemRxiv, 2019, preprint.
     DOI: 10.26434/chemrxiv.8326202.v1
   for GFN-FF:
   * S. Spicher and S. Grimme, Angew. Chem. Int. Ed., 2020, 59, 15665-15673.
     DOI: 10.1002/anie.202004239
   
   for DFT-D4:
   * E. Caldeweyher, C. Bannwarth and S. Grimme, J. Chem. Phys., 2017,
     147, 034112. DOI: 10.1063/1.4993215
   * E. Caldeweyher, S. Ehlert, A. Hansen, H. Neugebauer, S. Spicher,
     C. Bannwarth and S. Grimme, J. Chem. Phys., 2019, 150, 154122.
     DOI: 10.1063/1.5090222
   * E. Caldeweyher, J.-M. Mewes, S. Ehlert and S. Grimme, Phys. Chem. Chem. Phys.
     2020, 22, 8499-8512. DOI: 10.1039/D0CP00502A
   
   for sTDA-xTB:
   * S. Grimme and C. Bannwarth, J. Chem. Phys., 2016, 145, 054103.
     DOI: 10.1063/1.4959605
   
   in the mass-spec context:
   * V. Asgeirsson, C. Bauer and S. Grimme, Chem. Sci., 2017, 8, 4879.
     DOI: 10.1039/c7sc00601b
   * J. Koopman and S. Grimme, ACS Omega 2019, 4, 12, 15120-15133.
     DOI: 10.1021/acsomega.9b02011
   
   for metadynamics refer to:
   * S. Grimme, J. Chem. Theory Comput., 2019, 155, 2847-2862
     DOI: 10.1021/acs.jctc.9b00143
   
   for SPH calculations refer to:
   * S. Spicher and S. Grimme, J. Chem. Theory Comput., 2021, 17, 1701-1714
     DOI: 10.1021/acs.jctc.0c01306
   
   with help from (in alphabetical order)
   P. Atkinson, C. Bannwarth, F. Bohle, G. Brandenburg, E. Caldeweyher
   M. Checinski, S. Dohm, S. Ehlert, S. Ehrlich, I. Gerasimov, J. Koopman
   C. Lavigne, S. Lehtola, F. März, M. Müller, F. Musil, H. Neugebauer
   J. Pisarek, C. Plett, P. Pracht, J. Seibert, P. Shushkov, S. Spicher
   M. Stahn, M. Steiner, T. Strunk, J. Stückrath, T. Rose, and J. Unsleber
   
 * started run on 2021/11/19 at 10:44:15.123     

           -------------------------------------------------
          |                Calculation Setup                |
           -------------------------------------------------

          program call               : /home/jeff/miniconda3/bin/xtb input_structure_1.xyz --gfn 2 --ohess normal --parallel 1 --etemp 300 --chrg 0 --uhf 0 -I det_control.in
          hostname                   : jelfscompute1
          coordinate file            : input_structure_1.xyz
          omp threads                :                     1
          number of atoms            :                    76
          number of electrons        :                   256
          charge                     :                     0
          spin                       :                   0.0
          first test random number   :      0.61859746624817

   ID    Z sym.   atoms
    1   27 Co     1, 41
    2    6 C      2-9, 11-15, 17-21, 23, 24, 37-40, 42-49, 51-55, 57-61, 63,
                  64
    3    7 N      10, 16, 22, 25, 50, 56, 62, 65
    4    1 H      26-36, 66-76

           -------------------------------------------------
          |                 G F N 2 - x T B                 |
           -------------------------------------------------

        Reference                      10.1021/acs.jctc.8b01176
      * Hamiltonian:
        H0-scaling (s, p, d)           1.850000    2.230000    2.230000
        zeta-weighting                 0.500000
      * Dispersion:
        s8                             2.700000
        a1                             0.520000
        a2                             5.000000
        s9                             5.000000
      * Repulsion:
        kExp                           1.500000    1.000000
        rExp                           1.000000
      * Coulomb:
        alpha                          2.000000
        third order                    shell-resolved
        anisotropic                    true
        a3                             3.000000
        a5                             4.000000
        cn-shift                       1.200000
        cn-exp                         4.000000
        max-rad                        5.000000


          ...................................................
          :                      SETUP                      :
          :.................................................:
          :  # basis functions                 250          :
          :  # atomic orbitals                 248          :
          :  # shells                          132          :
          :  # electrons                       256          :
          :  max. iterations                   250          :
          :  Hamiltonian                  GFN2-xTB          :
          :  restarted?                      false          :
          :  GBSA solvation                  false          :
          :  PC potential                    false          :
          :  electronic temp.          300.0000000     K    :
          :  accuracy                    1.0000000          :
          :  -> integral cutoff          0.2500000E+02      :
          :  -> integral neglect         0.1000000E-07      :
          :  -> SCF convergence          0.1000000E-05 Eh   :
          :  -> wf. convergence          0.1000000E-03 e    :
          :  Broyden damping             0.4000000          :
          ...................................................

 iter      E             dE          RMSdq      gap      omega  full diag
   1   -136.9824643 -0.136982E+03  0.820E+00    0.38       0.0  T
   2   -124.9243639  0.120581E+02  0.989E+00    0.01       1.0  T
   3   -117.7213515  0.720301E+01  0.104E+01    0.13       1.0  T
   4   -135.3085826 -0.175872E+02  0.670E+00    0.05       1.0  T
   5   -127.3786387  0.792994E+01  0.749E+00    0.04       1.0  T
   6   -134.9324321 -0.755379E+01  0.440E+00    0.11       1.0  T
   7   -137.7679941 -0.283556E+01  0.312E+00    0.10       1.0  T
   8   -138.0490851 -0.281091E+00  0.264E+00    0.14       1.0  T
   9   -138.0527070 -0.362184E-02  0.269E+00    0.33       1.0  T
  10   -138.0789757 -0.262687E-01  0.248E+00    0.37       1.0  T
  11   -138.1944427 -0.115467E+00  0.157E+00    0.04       1.0  T
  12   -138.1645143  0.299284E-01  0.121E+00    0.03       1.0  T
  13   -137.7988174  0.365697E+00  0.199E+00    0.04       1.0  T
  14   -137.7656495  0.331679E-01  0.207E+00    0.05       1.0  T
  15   -138.0446828 -0.279033E+00  0.151E+00    0.03       1.0  T
  16   -138.3285630 -0.283880E+00  0.577E-01    0.01       1.0  T
  17   -138.3321503 -0.358728E-02  0.534E-01    0.01       1.0  T
  18   -138.3328385 -0.688207E-03  0.456E-01    0.01       1.0  T
  19   -138.1516522  0.181186E+00  0.136E+00    0.02       1.0  T
  20   -138.1968930 -0.452409E-01  0.118E+00    0.02       1.0  T
  21   -138.2579769 -0.610839E-01  0.933E-01    0.03       1.0  T
  22   -138.2699770 -0.120001E-01  0.834E-01    0.03       1.0  T
  23   -138.3353103 -0.653333E-01  0.422E-01    0.03       1.0  T
  24   -138.3376792 -0.236886E-02  0.345E-01    0.03       1.0  T
  25   -138.3414769 -0.379776E-02  0.284E-01    0.02       1.0  T
  26   -138.3457806 -0.430369E-02  0.136E-01    0.02       1.0  T
  27   -138.3439853  0.179536E-02  0.162E-01    0.02       1.0  T
  28   -138.3466321 -0.264685E-02  0.532E-02    0.02       1.0  T
  29   -138.3446857  0.194638E-02  0.140E-01    0.02       1.0  T
  30   -138.3469910 -0.230527E-02  0.127E-02    0.01       1.0  T
  31   -138.3460311  0.959951E-03  0.905E-02    0.02       1.0  T
  32   -138.3468333 -0.802276E-03  0.399E-02    0.01       1.0  T
  33   -138.3469746 -0.141232E-03  0.157E-02    0.01       1.0  T
  34   -138.3469183  0.562656E-04  0.268E-02    0.01       1.0  T
  35   -138.3469879 -0.696141E-04  0.973E-03    0.01       1.2  T
  36   -138.3469947 -0.679467E-05  0.563E-03    0.01       2.0  T
  37   -138.3469981 -0.341358E-05  0.797E-04    0.01      14.4  T
  38   -138.3469979  0.270288E-06  0.169E-03    0.01       6.8  T
  39   -138.3469981 -0.261453E-06  0.826E-04    0.01      13.9  T
  40   -138.3469982 -0.795618E-07  0.183E-04    0.01      62.7  T

   *** convergence criteria satisfied after 40 iterations ***

         #    Occupation            Energy/Eh            Energy/eV
      -------------------------------------------------------------
         1        2.0000           -0.7112726             -19.3547
       ...           ...                  ...                  ...
       122        1.9754           -0.3388945              -9.2218
       123        1.9628           -0.3384958              -9.2109
       124        1.9158           -0.3376980              -9.1892
       125        1.8933           -0.3374619              -9.1828
       126        1.8041           -0.3368384              -9.1658
       127        1.6683           -0.3362638              -9.1502
       128        1.5048           -0.3357850              -9.1372 (HOMO)
       129        1.2910           -0.3352986              -9.1239 (LUMO)
       130        0.0000           -0.3233114              -8.7978
       131                         -0.3039210              -8.2701
       132                         -0.3011145              -8.1937
       133                         -0.3001429              -8.1673
       ...                                ...                  ...
       248                          7.3417698             199.7797
      -------------------------------------------------------------
                  HL-Gap            0.0004864 Eh            0.0132 eV
             Fermi-level           -0.3347291 Eh           -9.1084 eV

 SCC (total)                   0 d,  0 h,  0 min,  0.590 sec
 SCC setup                      ...        0 min,  0.001 sec (  0.187%)
 Dispersion                     ...        0 min,  0.002 sec (  0.403%)
 classical contributions        ...        0 min,  0.000 sec (  0.071%)
 integral evaluation            ...        0 min,  0.026 sec (  4.479%)
 iterations                     ...        0 min,  0.479 sec ( 81.132%)
 molecular gradient             ...        0 min,  0.080 sec ( 13.552%)
 printout                       ...        0 min,  0.001 sec (  0.175%)

         :::::::::::::::::::::::::::::::::::::::::::::::::::::
         ::                     SUMMARY                     ::
         :::::::::::::::::::::::::::::::::::::::::::::::::::::
         :: total energy            -134.511933805902 Eh    ::
         :: gradient norm              4.335087947904 Eh/a0 ::
         :: HOMO-LUMO gap              0.013235527867 eV    ::
         ::.................................................::
         :: SCC energy              -138.346998198083 Eh    ::
         :: -> isotropic ES            0.053573613949 Eh    ::
         :: -> anisotropic ES          0.017574400397 Eh    ::
         :: -> anisotropic XC          0.079365384398 Eh    ::
         :: -> dispersion             -0.115448659714 Eh    ::
         :: repulsion energy           3.835178193465 Eh    ::
         :: add. restraining           0.000000000000 Eh    ::
         :: total charge               0.000000000025 e     ::
         :::::::::::::::::::::::::::::::::::::::::::::::::::::

      ----------------------------------------------------------- 
     |                   =====================                   |
     |                        A N C O P T                        |
     |                   =====================                   |
     |               Approximate Normal Coordinate               |
     |                Rational Function Optimizer                |
      ----------------------------------------------------------- 

          ...................................................
          :                      SETUP                      :
          :.................................................:
          :   optimization level            normal          :
          :   max. optcycles                   228          :
          :   ANC micro-cycles                  20          :
          :   degrees of freedom               222          :
          :.................................................:
          :   RF solver                   davidson          :
          :   write xtbopt.log                true          :
          :   linear?                        false          :
          :   energy convergence         0.5000000E-05 Eh   :
          :   grad. convergence          0.1000000E-02 Eh/α :
          :   maximium RF displ.         1.0000000          :
          :   Hlow (freq-cutoff)         0.1000000E-01      :
          :   Hmax (freq-cutoff)         5.0000000          :
          :   S6 in model hess.         20.0000000          :
          ...................................................

generating ANC from model Hessian ...
Using Lindh-Hessian (1995)
 Shifting diagonal of input Hessian by    1.0032269895478218E-002
 Lowest  eigenvalues of input Hessian
    0.010000    0.010008    0.010016    0.000000    0.000000    0.000000
    0.000000    0.000000    0.000000    0.010448    0.011070    0.011257
    0.011511    0.011747    0.011906    0.012037    0.012858    0.013472
 Highest eigenvalues
    2.226897    2.355754    4.358696    4.516066    4.726575    4.872997


........................................................................
.............................. CYCLE    1 ..............................
........................................................................
   1   -138.3469982 -0.138347E+03  0.244E-04    0.01       0.0  T
   2   -138.3469496  0.485568E-04  0.205E-02    0.01       1.0  T
   3   -138.3469982 -0.485514E-04  0.337E-04    0.01      34.0  T
   4   -138.3469982  0.406237E-08  0.489E-04    0.01      23.4  T
   5   -138.3469982 -0.148485E-07  0.106E-04    0.01     108.2  T
     SCC iter.                  ...        0 min,  0.055 sec
     gradient                   ...        0 min,  0.080 sec
 * total energy  :  -134.5119338 Eh     change       -0.2480931E-08 Eh
   gradient norm :     4.3350884 Eh/α   predicted     0.0000000E+00 (-100.00%)
   displ. norm   :     0.6415867 α      lambda       -0.2714801E+01
   maximum displ.:     0.4427017 α      in ANC's #222, #221, #218, ...

........................................................................
.............................. CYCLE    2 ..............................
........................................................................
   1   -138.4449923 -0.138445E+03  0.873E-01    0.00       0.0  T
   2   -138.0607395  0.384253E+00  0.204E+00    0.04       1.0  T
   3   -138.0995143 -0.387748E-01  0.196E+00    0.03       1.0  T
   4   -138.4767423 -0.377228E+00  0.321E-01    0.00       1.0  T
   5   -138.3813683  0.953740E-01  0.920E-01    0.03       1.0  T
   6   -138.1389296  0.242439E+00  0.174E+00    0.04       1.0  T
   7   -138.4117849 -0.272855E+00  0.764E-01    0.03       1.0  T
   8   -138.3730947  0.386902E-01  0.957E-01    0.04       1.0  T
   9   -138.4319167 -0.588221E-01  0.635E-01    0.03       1.0  T
  10   -138.4774675 -0.455508E-01  0.664E-02    0.01       1.0  T
  11   -138.4653922  0.120753E-01  0.330E-01    0.01       1.0  T
  12   -138.4761136 -0.107214E-01  0.124E-01    0.00       1.0  T
  13   -138.4745801  0.153355E-02  0.168E-01    0.00       1.0  T
  14   -138.4743280  0.252027E-03  0.174E-01    0.01       1.0  T
  15   -138.4774797 -0.315163E-02  0.522E-02    0.00       1.0  T
  16   -138.4777712 -0.291575E-03  0.117E-02    0.00       1.0  T
  17   -138.4777766 -0.536420E-05  0.962E-03    0.00       1.2  T
  18   -138.4777580  0.186405E-04  0.160E-02    0.00       1.0  T
  19   -138.4777864 -0.284595E-04  0.295E-03    0.00       3.9  T
  20   -138.4777872 -0.743902E-06  0.145E-03    0.00       7.9  T
  21   -138.4777874 -0.230355E-06  0.263E-04    0.00      43.6  T
  22   -138.4777874 -0.429404E-08  0.175E-04    0.00      65.4  T
     SCC iter.                  ...        0 min,  0.235 sec
     gradient                   ...        0 min,  0.079 sec
 * total energy  :  -135.6836307 Eh     change       -0.1171697E+01 Eh
   gradient norm :     0.6684217 Eh/α   predicted    -0.1916154E+01 (  63.54%)
   displ. norm   :     0.5650013 α      lambda       -0.2772372E+00
   maximum displ.:     0.1775445 α      in ANC's #76, #82, #112, ...

........................................................................
.............................. CYCLE    3 ..............................
........................................................................
   1   -138.3818931 -0.138382E+03  0.825E-01    0.02       0.0  T
   2   -126.4407727  0.119411E+02  0.944E+00    0.32       1.0  T
   3   -138.1248336 -0.116841E+02  0.186E+00    0.02       1.0  T
   4   -138.2063460 -0.815124E-01  0.139E+00    0.02       1.0  T
   5   -138.0610389  0.145307E+00  0.188E+00    0.05       1.0  T
   6   -138.0683967 -0.735785E-02  0.178E+00    0.04       1.0  T
   7   -138.1986005 -0.130204E+00  0.142E+00    0.02       1.0  T
   8   -138.4243053 -0.225705E+00  0.333E-01    0.01       1.0  T
   9   -138.4308192 -0.651389E-02  0.204E-01    0.01       1.0  T
  10   -138.4074317  0.233875E-01  0.530E-01    0.02       1.0  T
  11   -138.3371101  0.703215E-01  0.954E-01    0.03       1.0  T
  12   -138.4263310 -0.892209E-01  0.302E-01    0.01       1.0  T
  13   -138.4340488 -0.771778E-02  0.866E-02    0.00       1.0  T
  14   -138.4290685  0.498024E-02  0.252E-01    0.01       1.0  T
  15   -138.4289284  0.140129E-03  0.249E-01    0.01       1.0  T
  16   -138.4305718 -0.164345E-02  0.211E-01    0.00       1.0  T
  17   -138.4310454 -0.473527E-03  0.195E-01    0.00       1.0  T
  18   -138.4331584 -0.211305E-02  0.120E-01    0.00       1.0  T
  19   -138.4340487 -0.890292E-03  0.598E-02    0.00       1.0  T
  20   -138.4342587 -0.209996E-03  0.326E-02    0.00       1.0  T
  21   -138.4343311 -0.723732E-04  0.148E-02    0.00       1.0  T
  22   -138.4343395 -0.843027E-05  0.976E-03    0.00       1.2  T
  23   -138.4343466 -0.710991E-05  0.338E-03    0.00       3.4  T
  24   -138.4343472 -0.596456E-06  0.186E-03    0.00       6.2  T
  25   -138.4343476 -0.333311E-06  0.394E-04    0.00      29.1  T
  26   -138.4343476 -0.162014E-07  0.153E-04    0.00      74.9  T
     SCC iter.                  ...        0 min,  0.277 sec
     gradient                   ...        0 min,  0.079 sec
 * total energy  :  -135.8720774 Eh     change       -0.1884467E+00 Eh
   gradient norm :     0.3820003 Eh/α   predicted    -0.1828715E+00 (  -2.96%)
   displ. norm   :     0.6522391 α      lambda       -0.1438293E+00
   maximum displ.:     0.2354164 α      in ANC's #76, #52, #82, ...

........................................................................
.............................. CYCLE    4 ..............................
........................................................................
   1   -138.3622490 -0.138362E+03  0.965E-01    0.02       0.0  T
   2   -125.6931149  0.126691E+02  0.952E+00    0.65       1.0  T
   3   -137.9882774 -0.122952E+02  0.220E+00    0.04       1.0  T
   4   -138.0998623 -0.111585E+00  0.177E+00    0.05       1.0  T
   5   -138.4514971 -0.351635E+00  0.280E-01    0.00       1.0  T
   6   -138.1836582  0.267839E+00  0.151E+00    0.02       1.0  T
   7   -138.3422168 -0.158559E+00  0.957E-01    0.04       1.0  T
   8   -138.4358104 -0.935935E-01  0.408E-01    0.01       1.0  T
   9   -138.3982414  0.375689E-01  0.701E-01    0.03       1.0  T
  10   -138.4542585 -0.560171E-01  0.801E-02    0.01       1.0  T
  11   -138.4134414  0.408171E-01  0.608E-01    0.03       1.0  T
  12   -138.4530119 -0.395705E-01  0.135E-01    0.01       1.0  T
  13   -138.4534759 -0.464062E-03  0.115E-01    0.01       1.0  T
  14   -138.4545589 -0.108295E-02  0.410E-02    0.00       1.0  T
  15   -138.4546225 -0.636510E-04  0.208E-02    0.00       1.0  T
  16   -138.4546126  0.994432E-05  0.155E-02    0.00       1.0  T
  17   -138.4546312 -0.186171E-04  0.102E-02    0.00       1.1  T
  18   -138.4545675  0.637242E-04  0.262E-02    0.00       1.0  T
  19   -138.4545914 -0.239360E-04  0.211E-02    0.00       1.0  T
  20   -138.4546304 -0.389445E-04  0.845E-03    0.00       1.4  T
  21   -138.4546349 -0.452503E-05  0.459E-03    0.00       2.5  T
  22   -138.4546363 -0.145593E-05  0.217E-03    0.00       5.3  T
  23   -138.4546367 -0.408450E-06  0.302E-04    0.00      37.9  T
  24   -138.4546367 -0.353913E-08  0.149E-04    0.00      76.9  T
     SCC iter.                  ...        0 min,  0.256 sec
     gradient                   ...        0 min,  0.079 sec
 * total energy  :  -135.9825322 Eh     change       -0.1104548E+00 Eh
   gradient norm :     0.2107812 Eh/α   predicted    -0.1025084E+00 (  -7.19%)
   displ. norm   :     0.7075166 α      lambda       -0.8489074E-01
   maximum displ.:     0.2670076 α      in ANC's #52, #76, #37, ...

........................................................................
.............................. CYCLE    5 ..............................
........................................................................
   1   -138.4013688 -0.138401E+03  0.971E-01    0.02       0.0  T
   2   -125.6749928  0.127264E+02  0.946E+00    0.73       1.0  T
   3   -138.0778672 -0.124029E+02  0.206E+00    0.04       1.0  T
   4   -138.1607276 -0.828605E-01  0.171E+00    0.05       1.0  T
   5   -138.4205797 -0.259852E+00  0.804E-01    0.04       1.0  T
   6   -138.2077652  0.212814E+00  0.155E+00    0.02       1.0  T
   7   -138.2589461 -0.511809E-01  0.145E+00    0.02       1.0  T
   8   -138.3863940 -0.127448E+00  0.982E-01    0.02       1.0  T
   9   -138.2279898  0.158404E+00  0.151E+00    0.05       1.0  T
  10   -138.4858732 -0.257883E+00  0.282E-01    0.02       1.0  T
  11   -138.4797012  0.617202E-02  0.364E-01    0.02       1.0  T
  12   -138.4946208 -0.149196E-01  0.573E-02    0.01       1.0  T
  13   -138.4911199  0.350098E-02  0.188E-01    0.01       1.0  T
  14   -138.4927444 -0.162451E-02  0.144E-01    0.01       1.0  T
  15   -138.4947601 -0.201573E-02  0.232E-02    0.01       1.0  T
  16   -138.4947688 -0.867816E-05  0.187E-02    0.01       1.0  T
  17   -138.4947746 -0.580818E-05  0.235E-02    0.01       1.0  T
  18   -138.4947875 -0.129637E-04  0.121E-02    0.01       1.0  T
  19   -138.4947923 -0.472203E-05  0.923E-03    0.01       1.2  T
  20   -138.4947959 -0.365349E-05  0.949E-03    0.01       1.2  T
  21   -138.4948020 -0.607033E-05  0.440E-03    0.01       2.6  T
  22   -138.4948037 -0.169033E-05  0.712E-04    0.01      16.1  T
  23   -138.4948036  0.918731E-07  0.114E-03    0.01      10.0  T
  24   -138.4948037 -0.107356E-06  0.249E-04    0.01      46.0  T
  25   -138.4948037 -0.123066E-08  0.983E-05    0.01     116.7  T
     SCC iter.                  ...        0 min,  0.262 sec
     gradient                   ...        0 min,  0.080 sec
 * total energy  :  -136.0499277 Eh     change       -0.6739541E-01 Eh
   gradient norm :     0.1233816 Eh/α   predicted    -0.6369299E-01 (  -5.49%)
   displ. norm   :     0.7466995 α      lambda       -0.5437219E-01
   maximum displ.:     0.3186137 α      in ANC's #52, #37, #76, ...

........................................................................
.............................. CYCLE    6 ..............................
........................................................................
   1   -138.4575966 -0.138458E+03  0.850E-01    0.03       0.0  T
   2   -126.0323759  0.124252E+02  0.931E+00    0.34       1.0  T
   3   -138.1463358 -0.121140E+02  0.193E+00    0.05       1.0  T
   4   -138.2940160 -0.147680E+00  0.142E+00    0.05       1.0  T
   5   -138.3669598 -0.729438E-01  0.119E+00    0.03       1.0  T
   6   -138.2443610  0.122599E+00  0.158E+00    0.03       1.0  T
   7   -138.3649180 -0.120557E+00  0.120E+00    0.03       1.0  T
   8   -138.5180576 -0.153140E+00  0.254E-01    0.00       1.0  T
   9   -138.5207799 -0.272234E-02  0.195E-01    0.00       1.0  T
  10   -138.5228916 -0.211167E-02  0.127E-01    0.00       1.0  T
  11   -138.5234543 -0.562692E-03  0.105E-01    0.01       1.0  T
  12   -138.5237262 -0.271900E-03  0.917E-02    0.01       1.0  T
  13   -138.5219298  0.179638E-02  0.157E-01    0.01       1.0  T
  14   -138.5228536 -0.923745E-03  0.126E-01    0.01       1.0  T
  15   -138.5242894 -0.143583E-02  0.457E-02    0.01       1.0  T
  16   -138.5243578 -0.683659E-04  0.365E-02    0.01       1.0  T
  17   -138.5240600  0.297780E-03  0.632E-02    0.01       1.0  T
  18   -138.5243968 -0.336795E-03  0.272E-02    0.01       1.0  T
  19   -138.5244513 -0.544833E-04  0.136E-02    0.01       1.0  T
  20   -138.5244652 -0.138858E-04  0.664E-03    0.01       1.7  T
  21   -138.5244694 -0.422218E-05  0.135E-03    0.01       8.5  T
  22   -138.5244695 -0.167256E-06  0.131E-04    0.01      87.6  T
  23   -138.5244695 -0.219231E-08  0.369E-05    0.01     311.1  T
     SCC iter.                  ...        0 min,  0.245 sec
     gradient                   ...        0 min,  0.080 sec
 * total energy  :  -136.0943316 Eh     change       -0.4440396E-01 Eh
   gradient norm :     0.0858719 Eh/α   predicted    -0.4234399E-01 (  -4.64%)
   displ. norm   :     0.7545397 α      lambda       -0.3694450E-01
   maximum displ.:     0.2990374 α      in ANC's #52, #37, #11, ...

........................................................................
.............................. CYCLE    7 ..............................
........................................................................
   1   -138.4999931 -0.138500E+03  0.753E-01    0.03       0.0  T
   2   -132.0545557  0.644544E+01  0.689E+00    0.02       1.0  T
   3   -138.1762550 -0.612170E+01  0.190E+00    0.05       1.0  T
   4   -138.3552628 -0.179008E+00  0.132E+00    0.05       1.0  T
   5   -138.2739230  0.813398E-01  0.158E+00    0.05       1.0  T
   6   -138.2491953  0.247277E-01  0.165E+00    0.05       1.0  T
   7   -138.3905412 -0.141346E+00  0.119E+00    0.05       1.0  T
   8   -138.5499934 -0.159452E+00  0.146E-01    0.01       1.0  T
   9   -138.5514641 -0.147066E-02  0.844E-02    0.00       1.0  T
  10   -138.5469924  0.447165E-02  0.215E-01    0.01       1.0  T
  11   -138.5480680 -0.107561E-02  0.188E-01    0.01       1.0  T
  12   -138.5473655  0.702576E-03  0.202E-01    0.01       1.0  T
  13   -138.5511446 -0.377912E-02  0.775E-02    0.01       1.0  T
  14   -138.5512775 -0.132969E-03  0.678E-02    0.01       1.0  T
  15   -138.5513310 -0.535008E-04  0.623E-02    0.01       1.0  T
  16   -138.5516024 -0.271379E-03  0.348E-02    0.01       1.0  T
  17   -138.5516833 -0.808381E-04  0.190E-02    0.00       1.0  T
  18   -138.5517199 -0.365867E-04  0.210E-03    0.00       5.5  T
  19   -138.5517172  0.261686E-05  0.525E-03    0.00       2.2  T
  20   -138.5517196 -0.238879E-05  0.220E-03    0.00       5.2  T
  21   -138.5517201 -0.430773E-06  0.837E-04    0.00      13.7  T
  22   -138.5517201 -0.638097E-07  0.308E-04    0.00      37.3  T
     SCC iter.                  ...        0 min,  0.232 sec
     gradient                   ...        0 min,  0.080 sec
 * total energy  :  -136.1247743 Eh     change       -0.3044272E-01 Eh
   gradient norm :     0.0599700 Eh/α   predicted    -0.2898909E-01 (  -4.77%)
   displ. norm   :     0.7562464 α      lambda       -0.2535022E-01
   maximum displ.:     0.2986574 α      in ANC's #11, #52, #7, ...

........................................................................
.............................. CYCLE    8 ..............................
........................................................................
   1   -138.5335311 -0.138534E+03  0.664E-01    0.03       0.0  T
   2   -133.9385609  0.459497E+01  0.585E+00    0.01       1.0  T
   3   -138.2307629 -0.429220E+01  0.180E+00    0.05       1.0  T
   4   -138.5528578 -0.322095E+00  0.419E-01    0.02       1.0  T
   5   -138.3833472  0.169511E+00  0.131E+00    0.06       1.0  T
   6   -138.5661710 -0.182824E+00  0.220E-01    0.01       1.0  T
   7   -138.5554318  0.107392E-01  0.353E-01    0.01       1.0  T
   8   -138.5567413 -0.130950E-02  0.366E-01    0.02       1.0  T
   9   -138.5608593 -0.411802E-02  0.308E-01    0.02       1.0  T
  10   -138.5690102 -0.815092E-02  0.137E-01    0.01       1.0  T
  11   -138.5703867 -0.137651E-02  0.730E-02    0.01       1.0  T
  12   -138.5705831 -0.196377E-03  0.569E-02    0.00       1.0  T
  13   -138.5708685 -0.285372E-03  0.178E-02    0.00       1.0  T
  14   -138.5708871 -0.186630E-04  0.801E-03    0.00       1.4  T
  15   -138.5708921 -0.500996E-05  0.243E-03    0.00       4.7  T
  16   -138.5708921  0.523335E-07  0.263E-03    0.00       4.4  T
  17   -138.5708927 -0.666781E-06  0.118E-03    0.00       9.7  T
  18   -138.5708929 -0.132344E-06  0.255E-04    0.00      45.0  T
  19   -138.5708929  0.235582E-07  0.535E-04    0.00      21.5  T
     SCC iter.                  ...        0 min,  0.200 sec
     gradient                   ...        0 min,  0.080 sec
 * total energy  :  -136.1454933 Eh     change       -0.2071894E-01 Eh
   gradient norm :     0.0387191 Eh/α   predicted    -0.1992415E-01 (  -3.84%)
   displ. norm   :     0.7576716 α      lambda       -0.1672179E-01
   maximum displ.:     0.3829319 α      in ANC's #11, #7, #15, ...

........................................................................
.............................. CYCLE    9 ..............................
........................................................................
   1   -138.5617379 -0.138562E+03  0.528E-01    0.02       0.0  T
   2   -138.0414951  0.520243E+00  0.226E+00    0.07       1.0  T
   3   -138.2923190 -0.250824E+00  0.162E+00    0.05       1.0  T
   4   -138.3096213 -0.173023E-01  0.157E+00    0.06       1.0  T
   5   -138.4170774 -0.107456E+00  0.122E+00    0.06       1.0  T
   6   -138.5412809 -0.124203E+00  0.616E-01    0.03       1.0  T
   7   -138.4711114  0.701695E-01  0.100E+00    0.05       1.0  T
   8   -138.5829971 -0.111886E+00  0.964E-02    0.01       1.0  T
   9   -138.5698273  0.131697E-01  0.353E-01    0.02       1.0  T
  10   -138.5823755 -0.125481E-01  0.113E-01    0.01       1.0  T
  11   -138.5837586 -0.138315E-02  0.547E-03    0.00       2.1  T
  12   -138.5837025  0.561402E-04  0.228E-02    0.00       1.0  T
  13   -138.5837528 -0.503437E-04  0.793E-03    0.00       1.4  T
  14   -138.5837537 -0.823865E-06  0.742E-03    0.00       1.5  T
  15   -138.5837578 -0.413331E-05  0.425E-03    0.00       2.7  T
  16   -138.5837597 -0.185957E-05  0.121E-03    0.00       9.5  T
  17   -138.5837595  0.158078E-06  0.168E-03    0.00       6.8  T
  18   -138.5837598 -0.290853E-06  0.477E-04    0.00      24.0  T
  19   -138.5837598 -0.235710E-07  0.130E-04    0.00      88.3  T
     SCC iter.                  ...        0 min,  0.203 sec
     gradient                   ...        0 min,  0.080 sec
 * total energy  :  -136.1592456 Eh     change       -0.1375229E-01 Eh
   gradient norm :     0.0274611 Eh/α   predicted    -0.1316060E-01 (  -4.30%)
   displ. norm   :     0.7730248 α      lambda       -0.1169093E-01
   maximum displ.:     0.4333224 α      in ANC's #11, #7, #15, ...

........................................................................
.............................. CYCLE   10 ..............................
........................................................................
   1   -138.5839118 -0.138584E+03  0.333E-01    0.01       0.0  T
   2   -138.1908089  0.393103E+00  0.193E+00    0.06       1.0  T
   3   -138.5626381 -0.371829E+00  0.515E-01    0.03       1.0  T
   4   -138.2818465  0.280792E+00  0.168E+00    0.05       1.0  T
   5   -138.3971754 -0.115329E+00  0.131E+00    0.05       1.0  T
   6   -138.2993232  0.978523E-01  0.161E+00    0.05       1.0  T
   7   -138.4411862 -0.141863E+00  0.115E+00    0.05       1.0  T
   8   -138.5807118 -0.139526E+00  0.304E-01    0.01       1.0  T
   9   -138.5867929 -0.608107E-02  0.192E-01    0.01       1.0  T
  10   -138.5902471 -0.345421E-02  0.717E-02    0.01       1.0  T
  11   -138.5907264 -0.479293E-03  0.228E-02    0.00       1.0  T
  12   -138.5884205  0.230584E-02  0.145E-01    0.01       1.0  T
  13   -138.5901833 -0.176276E-02  0.719E-02    0.00       1.0  T
  14   -138.5907106 -0.527364E-03  0.221E-02    0.00       1.0  T
  15   -138.5906714  0.391936E-04  0.289E-02    0.00       1.0  T
  16   -138.5907646 -0.931338E-04  0.175E-03    0.00       6.5  T
  17   -138.5907646  0.279478E-07  0.181E-03    0.00       6.3  T
  18   -138.5907649 -0.307171E-06  0.733E-04    0.00      15.6  T
  19   -138.5907649 -0.583624E-07  0.154E-04    0.00      74.3  T
     SCC iter.                  ...        0 min,  0.203 sec
     gradient                   ...        0 min,  0.080 sec
 * total energy  :  -136.1691746 Eh     change       -0.9929020E-02 Eh
   gradient norm :     0.0235997 Eh/α   predicted    -0.9338523E-02 (  -5.95%)
   displ. norm   :     0.8125470 α      lambda       -0.9565928E-02
   maximum displ.:     0.4697301 α      in ANC's #7, #11, #15, ...

........................................................................
.............................. CYCLE   11 ..............................
........................................................................
   1   -138.5946030 -0.138595E+03  0.209E-01    0.00       0.0  T
   2   -138.2756318  0.318971E+00  0.169E+00    0.05       1.0  T
   3   -138.4822572 -0.206625E+00  0.100E+00    0.03       1.0  T
   4   -138.3736198  0.108637E+00  0.140E+00    0.04       1.0  T
   5   -138.5272444 -0.153625E+00  0.777E-01    0.03       1.0  T
   6   -138.5927620 -0.655176E-01  0.155E-01    0.00       1.0  T
   7   -138.5618247  0.309373E-01  0.542E-01    0.03       1.0  T
   8   -138.5849466 -0.231220E-01  0.303E-01    0.02       1.0  T
   9   -138.5943491 -0.940249E-02  0.908E-02    0.01       1.0  T
  10   -138.5949719 -0.622766E-03  0.522E-02    0.00       1.0  T
  11   -138.5952112 -0.239305E-03  0.252E-02    0.01       1.0  T
  12   -138.5952687 -0.575410E-04  0.112E-02    0.00       1.0  T
  13   -138.5952751 -0.635671E-05  0.827E-03    0.00       1.4  T
  14   -138.5952822 -0.709512E-05  0.247E-03    0.01       4.6  T
  15   -138.5952828 -0.607268E-06  0.874E-04    0.01      13.1  T
  16   -138.5952829 -0.818936E-07  0.207E-04    0.01      55.3  T
     SCC iter.                  ...        0 min,  0.171 sec
     gradient                   ...        0 min,  0.080 sec
 * total energy  :  -136.1770609 Eh     change       -0.7886289E-02 Eh
   gradient norm :     0.0216964 Eh/α   predicted    -0.7940845E-02 (   0.69%)
   displ. norm   :     0.8454294 α      lambda       -0.9207885E-02
   maximum displ.:     0.5092672 α      in ANC's #7, #11, #15, ...

........................................................................
.............................. CYCLE   12 ..............................
........................................................................
   1   -138.5945508 -0.138595E+03  0.217E-01    0.01       0.0  T
   2   -138.3753234  0.219227E+00  0.139E+00    0.03       1.0  T
   3   -138.4614466 -0.861233E-01  0.108E+00    0.04       1.0  T
   4   -138.5749384 -0.113492E+00  0.419E-01    0.01       1.0  T
   5   -138.5938986 -0.189602E-01  0.906E-02    0.01       1.0  T
   6   -138.5909505  0.294808E-02  0.183E-01    0.00       1.0  T
   7   -138.5937595 -0.280900E-02  0.872E-02    0.01       1.0  T
   8   -138.5946470 -0.887509E-03  0.789E-03    0.01       1.5  T
   9   -138.5946502 -0.310676E-05  0.364E-03    0.01       3.2  T
  10   -138.5946498  0.316152E-06  0.354E-03    0.01       3.2  T
  11   -138.5946510 -0.117486E-05  0.141E-03    0.01       8.1  T
  12   -138.5946512 -0.178795E-06  0.671E-04    0.01      17.1  T
  13   -138.5946511  0.673658E-07  0.992E-04    0.01      11.6  T
     SCC iter.                  ...        0 min,  0.139 sec
     gradient                   ...        0 min,  0.079 sec
 * total energy  :  -136.1835331 Eh     change       -0.6472199E-02 Eh
   gradient norm :     0.0224261 Eh/α   predicted    -0.7894609E-02 (  21.98%)
   displ. norm   :     0.7372336 α      lambda       -0.6716873E-02
   maximum displ.:     0.4891681 α      in ANC's #7, #11, #15, ...

........................................................................
.............................. CYCLE   13 ..............................
........................................................................
   1   -138.5877983 -0.138588E+03  0.238E-01    0.02       0.0  T
   2   -138.2131997  0.374599E+00  0.185E+00    0.03       1.0  T
   3   -138.5362857 -0.323086E+00  0.687E-01    0.02       1.0  T
   4   -138.2913033  0.244982E+00  0.161E+00    0.03       1.0  T
   5   -138.2972234 -0.592011E-02  0.158E+00    0.03       1.0  T
   6   -138.5906478 -0.293424E+00  0.108E-01    0.01       1.0  T
   7   -138.5881512  0.249655E-02  0.178E-01    0.00       1.0  T
   8   -138.5802519  0.789930E-02  0.311E-01    0.02       1.0  T
   9   -138.5751602  0.509176E-02  0.374E-01    0.01       1.0  T
  10   -138.5850155 -0.985537E-02  0.238E-01    0.02       1.0  T
  11   -138.5916763 -0.666079E-02  0.181E-02    0.01       1.0  T
  12   -138.5917012 -0.248502E-04  0.101E-02    0.01       1.1  T
  13   -138.5916708  0.303398E-04  0.188E-02    0.01       1.0  T
  14   -138.5917050 -0.341458E-04  0.809E-03    0.01       1.4  T
  15   -138.5917118 -0.680043E-05  0.293E-03    0.01       3.9  T
  16   -138.5917121 -0.300927E-06  0.245E-03    0.01       4.7  T
  17   -138.5917128 -0.706160E-06  0.201E-04    0.01      57.1  T
  18   -138.5917128  0.168646E-08  0.224E-04    0.01      51.2  T
     SCC iter.                  ...        0 min,  0.191 sec
     gradient                   ...        0 min,  0.079 sec
 * total energy  :  -136.1892352 Eh     change       -0.5702091E-02 Eh
   gradient norm :     0.0200329 Eh/α   predicted    -0.5183793E-02 (  -9.09%)
   displ. norm   :     0.7741203 α      lambda       -0.5931212E-02
   maximum displ.:     0.5366979 α      in ANC's #7, #11, #15, ...

........................................................................
.............................. CYCLE   14 ..............................
........................................................................
   1   -138.5849221 -0.138585E+03  0.348E-01    0.02       0.0  T
   2   -138.1452889  0.439633E+00  0.205E+00    0.02       1.0  T
   3   -138.3028575 -0.157569E+00  0.156E+00    0.02       1.0  T
   4   -138.4953168 -0.192459E+00  0.913E-01    0.03       1.0  T
   5   -138.5138553 -0.185385E-01  0.819E-01    0.03       1.0  T
   6   -138.5106540  0.320140E-02  0.837E-01    0.02       1.0  T
   7   -138.5690894 -0.584354E-01  0.467E-01    0.01       1.0  T
   8   -138.4976511  0.714383E-01  0.898E-01    0.02       1.0  T
   9   -138.5863223 -0.886712E-01  0.271E-01    0.02       1.0  T
  10   -138.5879510 -0.162871E-02  0.245E-01    0.00       1.0  T
  11   -138.5940341 -0.608315E-02  0.990E-02    0.01       1.0  T
  12   -138.5952139 -0.117976E-02  0.395E-03    0.01       2.9  T
  13   -138.5952139 -0.404662E-07  0.381E-03    0.01       3.0  T
  14   -138.5952147 -0.705328E-06  0.294E-03    0.01       3.9  T
  15   -138.5952155 -0.889585E-06  0.107E-03    0.01      10.8  T
  16   -138.5952155  0.406772E-08  0.109E-03    0.01      10.5  T
  17   -138.5952156 -0.915259E-07  0.654E-04    0.01      17.5  T
  18   -138.5952157 -0.492954E-07  0.116E-04    0.01      98.6  T
     SCC iter.                  ...        0 min,  0.190 sec
     gradient                   ...        0 min,  0.079 sec
 * total energy  :  -136.1940760 Eh     change       -0.4840799E-02 Eh
   gradient norm :     0.0267447 Eh/α   predicted    -0.4742785E-02 (  -2.02%)
   displ. norm   :     0.7743972 α      lambda       -0.5241253E-02
   maximum displ.:     0.5585992 α      in ANC's #7, #11, #5, ...

........................................................................
.............................. CYCLE   15 ..............................
........................................................................
   1   -138.5729228 -0.138573E+03  0.384E-01    0.03       0.0  T
   2   -138.0894966  0.483426E+00  0.217E+00    0.01       1.0  T
   3   -138.2805226 -0.191026E+00  0.160E+00    0.02       1.0  T
   4   -138.5510576 -0.270535E+00  0.553E-01    0.03       1.0  T
   5   -138.5839362 -0.328786E-01  0.186E-01    0.00       1.0  T
   6   -138.5415603  0.423759E-01  0.616E-01    0.01       1.0  T
   7   -138.5822652 -0.407049E-01  0.216E-01    0.00       1.0  T
   8   -138.5095256  0.727397E-01  0.800E-01    0.02       1.0  T
   9   -138.5693055 -0.597799E-01  0.391E-01    0.03       1.0  T
  10   -138.5743665 -0.506101E-02  0.333E-01    0.02       1.0  T
  11   -138.5879228 -0.135563E-01  0.146E-02    0.01       1.0  T
  12   -138.5878829  0.399667E-04  0.208E-02    0.01       1.0  T
  13   -138.5878404  0.424571E-04  0.275E-02    0.01       1.0  T
  14   -138.5879124 -0.720001E-04  0.127E-02    0.01       1.0  T
  15   -138.5879323 -0.198696E-04  0.950E-04    0.01      12.1  T
  16   -138.5879323 -0.383053E-07  0.695E-04    0.01      16.5  T
  17   -138.5879321  0.235509E-06  0.155E-03    0.01       7.4  T
  18   -138.5879324 -0.290411E-06  0.583E-05    0.01     196.7  T
     SCC iter.                  ...        0 min,  0.193 sec
     gradient                   ...        0 min,  0.079 sec
 * total energy  :  -136.1982439 Eh     change       -0.4167901E-02 Eh
   gradient norm :     0.0194460 Eh/α   predicted    -0.4192199E-02 (   0.58%)
   displ. norm   :     0.7619559 α      lambda       -0.4129276E-02
   maximum displ.:     0.5659872 α      in ANC's #7, #11, #5, ...

........................................................................
.............................. CYCLE   16 ..............................
........................................................................
   1   -138.5733191 -0.138573E+03  0.317E-01    0.02       0.0  T
   2   -138.1523858  0.420933E+00  0.197E+00    0.01       1.0  T
   3   -138.3053875 -0.153002E+00  0.151E+00    0.02       1.0  T
   4   -138.3568103 -0.514228E-01  0.135E+00    0.03       1.0  T
   5   -138.2992267  0.575836E-01  0.151E+00    0.03       1.0  T
   6   -138.3664816 -0.672548E-01  0.132E+00    0.03       1.0  T
   7   -138.5711957 -0.204714E+00  0.316E-01    0.02       1.0  T
   8   -138.5808207 -0.962502E-02  0.118E-01    0.01       1.0  T
   9   -138.5808831 -0.624410E-04  0.983E-02    0.01       1.0  T
  10   -138.5542730  0.266102E-01  0.471E-01    0.01       1.0  T
  11   -138.5787106 -0.244376E-01  0.153E-01    0.01       1.0  T
  12   -138.5736315  0.507904E-02  0.253E-01    0.00       1.0  T
  13   -138.5803231 -0.669155E-02  0.100E-01    0.01       1.0  T
  14   -138.5813218 -0.998782E-03  0.439E-02    0.01       1.0  T
  15   -138.5814946 -0.172777E-03  0.231E-02    0.01       1.0  T
  16   -138.5815469 -0.522324E-04  0.104E-02    0.01       1.1  T
  17   -138.5815602 -0.133274E-04  0.308E-04    0.01      37.3  T
  18   -138.5815600  0.199530E-06  0.130E-03    0.01       8.8  T
  19   -138.5815601 -0.153814E-06  0.663E-04    0.01      17.3  T
  20   -138.5815602 -0.426294E-07  0.312E-04    0.01      36.8  T
     SCC iter.                  ...        0 min,  0.211 sec
     gradient                   ...        0 min,  0.079 sec
 * total energy  :  -136.2012566 Eh     change       -0.3012711E-02 Eh
   gradient norm :     0.0197676 Eh/α   predicted    -0.3263319E-02 (   8.32%)
   displ. norm   :     0.7169578 α      lambda       -0.3916333E-02
   maximum displ.:     0.5481249 α      in ANC's #7, #11, #5, ...

........................................................................
.............................. CYCLE   17 ..............................
........................................................................
   1   -138.5682283 -0.138568E+03  0.336E-01    0.02       0.0  T
   2   -138.1368259  0.431402E+00  0.200E+00    0.01       1.0  T
   3   -138.2869785 -0.150153E+00  0.154E+00    0.02       1.0  T
   4   -138.3278594 -0.408809E-01  0.142E+00    0.03       1.0  T
   5   -138.2900155  0.378438E-01  0.152E+00    0.03       1.0  T
   6   -138.3400450 -0.500295E-01  0.138E+00    0.03       1.0  T
   7   -138.5681197 -0.228075E+00  0.310E-01    0.02       1.0  T
   8   -138.5752078 -0.708808E-02  0.181E-01    0.01       1.0  T
   9   -138.5652894  0.991837E-02  0.320E-01    0.00       1.0  T
  10   -138.5762839 -0.109945E-01  0.110E-01    0.01       1.0  T
  11   -138.5207961  0.554877E-01  0.680E-01    0.02       1.0  T
  12   -138.5751604 -0.543642E-01  0.143E-01    0.01       1.0  T
  13   -138.5775015 -0.234118E-02  0.368E-02    0.01       1.0  T
  14   -138.5773023  0.199208E-03  0.539E-02    0.01       1.0  T
  15   -138.5776093 -0.306998E-03  0.205E-02    0.01       1.0  T
  16   -138.5776563 -0.469461E-04  0.622E-03    0.01       1.8  T
  17   -138.5776603 -0.403834E-05  0.233E-03    0.01       4.9  T
  18   -138.5776609 -0.578148E-06  0.847E-04    0.01      13.5  T
  19   -138.5776609 -0.425956E-07  0.606E-04    0.01      18.9  T
     SCC iter.                  ...        0 min,  0.203 sec
     gradient                   ...        0 min,  0.079 sec
 * total energy  :  -136.2035987 Eh     change       -0.2342160E-02 Eh
   gradient norm :     0.0222053 Eh/α   predicted    -0.2964721E-02 (  26.58%)
   displ. norm   :     0.5987989 α      lambda       -0.2624095E-02
   maximum displ.:     0.4669922 α      in ANC's #7, #5, #11, ...

........................................................................
.............................. CYCLE   18 ..............................
........................................................................
   1   -138.5724862 -0.138572E+03  0.271E-01    0.02       0.0  T
   2   -138.1594521  0.413034E+00  0.193E+00    0.01       1.0  T
   3   -138.3016068 -0.142155E+00  0.151E+00    0.02       1.0  T
   4   -138.5025465 -0.200940E+00  0.790E-01    0.03       1.0  T
   5   -138.3868626  0.115684E+00  0.125E+00    0.03       1.0  T
   6   -138.3646324  0.222302E-01  0.131E+00    0.03       1.0  T
   7   -138.4748145 -0.110182E+00  0.928E-01    0.03       1.0  T
   8   -138.5777029 -0.102888E+00  0.178E-01    0.01       1.0  T
   9   -138.5793028 -0.159990E-02  0.112E-01    0.01       1.0  T
  10   -138.5793653 -0.624976E-04  0.792E-02    0.00       1.0  T
  11   -138.5795643 -0.199066E-03  0.658E-02    0.01       1.0  T
  12   -138.5797464 -0.182069E-03  0.297E-02    0.01       1.0  T
  13   -138.5796809  0.655067E-04  0.379E-02    0.01       1.0  T
  14   -138.5798393 -0.158413E-03  0.113E-02    0.01       1.0  T
  15   -138.5798481 -0.882010E-05  0.662E-03    0.01       1.7  T
  16   -138.5798524 -0.429639E-05  0.285E-03    0.01       4.0  T
  17   -138.5798494  0.303231E-05  0.571E-03    0.01       2.0  T
  18   -138.5798520 -0.261305E-05  0.339E-03    0.01       3.4  T
  19   -138.5798533 -0.125519E-05  0.118E-03    0.01       9.7  T
  20   -138.5798534 -0.167243E-06  0.223E-04    0.01      51.5  T
  21   -138.5798534 -0.441511E-08  0.118E-04    0.01      97.2  T
     SCC iter.                  ...        0 min,  0.224 sec
     gradient                   ...        0 min,  0.079 sec
 * total energy  :  -136.2054504 Eh     change       -0.1851660E-02 Eh
   gradient norm :     0.0193349 Eh/α   predicted    -0.1782499E-02 (  -3.74%)
   displ. norm   :     0.6422121 α      lambda       -0.2246964E-02
   maximum displ.:     0.5115256 α      in ANC's #7, #5, #11, ...

........................................................................
.............................. CYCLE   19 ..............................
........................................................................
   1   -138.5727680 -0.138573E+03  0.229E-01    0.01       0.0  T
   2   -138.1940499  0.378718E+00  0.182E+00    0.02       1.0  T
   3   -138.4239339 -0.229884E+00  0.111E+00    0.02       1.0  T
   4   -138.2868419  0.137092E+00  0.153E+00    0.03       1.0  T
   5   -138.2676924  0.191495E-01  0.159E+00    0.03       1.0  T
   6   -138.2660645  0.162793E-02  0.159E+00    0.03       1.0  T
   7   -138.2784138 -0.123494E-01  0.155E+00    0.03       1.0  T
   8   -138.4023716 -0.123958E+00  0.119E+00    0.03       1.0  T
   9   -138.5294406 -0.127069E+00  0.626E-01    0.03       1.0  T
  10   -138.4586933  0.707473E-01  0.976E-01    0.03       1.0  T
  11   -138.5747898 -0.116097E+00  0.137E-01    0.00       1.0  T
  12   -138.5735367  0.125311E-02  0.165E-01    0.00       1.0  T
  13   -138.5751517 -0.161491E-02  0.118E-01    0.00       1.0  T
  14   -138.5767887 -0.163709E-02  0.137E-02    0.01       1.0  T
  15   -138.5756687  0.112000E-02  0.953E-02    0.00       1.0  T
  16   -138.5767370 -0.106826E-02  0.224E-02    0.01       1.0  T
  17   -138.5764187  0.318316E-03  0.556E-02    0.01       1.0  T
  18   -138.5766793 -0.260622E-03  0.311E-02    0.01       1.0  T
  19   -138.5767548 -0.755107E-04  0.189E-02    0.01       1.0  T
  20   -138.5767948 -0.400294E-04  0.588E-03    0.01       1.9  T
  21   -138.5767989 -0.402091E-05  0.154E-03    0.01       7.5  T
  22   -138.5767985  0.321973E-06  0.222E-03    0.01       5.2  T
  23   -138.5767991 -0.558826E-06  0.625E-04    0.01      18.4  T
  24   -138.5767991  0.201811E-07  0.747E-04    0.01      15.4  T
     SCC iter.                  ...        0 min,  0.253 sec
     gradient                   ...        0 min,  0.079 sec
 * total energy  :  -136.2070496 Eh     change       -0.1599218E-02 Eh
   gradient norm :     0.0160067 Eh/α   predicted    -0.1586853E-02 (  -0.77%)
   displ. norm   :     0.6184919 α      lambda       -0.1915086E-02
   maximum displ.:     0.5043325 α      in ANC's #7, #5, #4, ...

........................................................................
.............................. CYCLE   20 ..............................
........................................................................
   1   -138.5798396 -0.138580E+03  0.160E-01    0.01       0.0  T
   2   -138.2397164  0.340123E+00  0.169E+00    0.02       1.0  T
   3   -138.5723924 -0.332676E+00  0.274E-01    0.00       1.0  T
   4   -138.2952123  0.277180E+00  0.152E+00    0.03       1.0  T
   5   -138.4130734 -0.117861E+00  0.116E+00    0.03       1.0  T
   6   -138.4359356 -0.228622E-01  0.108E+00    0.02       1.0  T
   7   -138.5710576 -0.135122E+00  0.285E-01    0.02       1.0  T
   8   -138.5808773 -0.981975E-02  0.447E-02    0.01       1.0  T
   9   -138.5809898 -0.112448E-03  0.262E-02    0.01       1.0  T
  10   -138.5807040  0.285776E-03  0.523E-02    0.01       1.0  T
  11   -138.5809495 -0.245501E-03  0.241E-02    0.01       1.0  T
  12   -138.5806675  0.282029E-03  0.526E-02    0.01       1.0  T
  13   -138.5809714 -0.303972E-03  0.158E-02    0.01       1.0  T
  14   -138.5809790 -0.757834E-05  0.121E-02    0.01       1.0  T
  15   -138.5809932 -0.141866E-04  0.495E-03    0.01       2.3  T
  16   -138.5809957 -0.252982E-05  0.154E-03    0.01       7.5  T
  17   -138.5809960 -0.276906E-06  0.631E-05    0.01     181.7  T
  18   -138.5809960  0.142177E-08  0.116E-04    0.01      98.8  T
     SCC iter.                  ...        0 min,  0.192 sec
     gradient                   ...        0 min,  0.079 sec
 * total energy  :  -136.2083714 Eh     change       -0.1321833E-02 Eh
   gradient norm :     0.0186482 Eh/α   predicted    -0.1323836E-02 (   0.15%)
   displ. norm   :     0.6186559 α      lambda       -0.2014682E-02
   maximum displ.:     0.4601876 α      in ANC's #7, #5, #14, ...
 * RMSD in coord.:     1.2282412 α      energy gain  -0.1696438E+01 Eh

generating ANC from model Hessian ...
Using Lindh-Hessian (1995)
 Shifting diagonal of input Hessian by    1.0023897052316594E-002
 Lowest  eigenvalues of input Hessian
    0.010000    0.010007    0.010010    0.000000    0.000000    0.000000
    0.000000    0.000000    0.000000    0.010088    0.010525    0.011328
    0.011539    0.011756    0.012267    0.012548    0.012876    0.012932
 Highest eigenvalues
    2.145196    2.147293    2.151297    2.152489    2.390075    2.912357


........................................................................
.............................. CYCLE   21 ..............................
........................................................................
   1   -138.5798011 -0.138580E+03  0.192E-01    0.01       0.0  T
   2   -138.2180979  0.361703E+00  0.176E+00    0.02       1.0  T
   3   -138.5062632 -0.288165E+00  0.787E-01    0.02       1.0  T
   4   -138.2880962  0.218167E+00  0.154E+00    0.03       1.0  T
   5   -138.2723386  0.157575E-01  0.159E+00    0.03       1.0  T
   6   -138.2729138 -0.575129E-03  0.158E+00    0.03       1.0  T
   7   -138.2860510 -0.131372E-01  0.155E+00    0.03       1.0  T
   8   -138.3999245 -0.113874E+00  0.121E+00    0.04       1.0  T
   9   -138.5308352 -0.130911E+00  0.648E-01    0.03       1.0  T
  10   -138.4224130  0.108422E+00  0.113E+00    0.04       1.0  T
  11   -138.5663926 -0.143980E+00  0.361E-01    0.02       1.0  T
  12   -138.5808290 -0.144365E-01  0.114E-01    0.00       1.0  T
  13   -138.5733556  0.747339E-02  0.270E-01    0.00       1.0  T
  14   -138.5818088 -0.845318E-02  0.716E-02    0.00       1.0  T
  15   -138.5812197  0.589068E-03  0.100E-01    0.01       1.0  T
  16   -138.5814731 -0.253410E-03  0.882E-02    0.01       1.0  T
  17   -138.5824221 -0.949013E-03  0.555E-03    0.01       2.1  T
  18   -138.5824223 -0.105875E-06  0.266E-03    0.01       4.3  T
  19   -138.5824142  0.807701E-05  0.831E-03    0.01       1.4  T
  20   -138.5824221 -0.791365E-05  0.142E-03    0.01       8.1  T
  21   -138.5824222 -0.138979E-06  0.838E-04    0.01      13.7  T
  22   -138.5824223 -0.869179E-07  0.759E-05    0.01     151.1  T
     SCC iter.                  ...        0 min,  0.235 sec
     gradient                   ...        0 min,  0.079 sec
 * total energy  :  -136.2097497 Eh     change       -0.1378249E-02 Eh
   gradient norm :     0.0188539 Eh/α   predicted     0.0000000E+00 (-100.00%)
   displ. norm   :     0.2178950 α      lambda       -0.1138891E-02
   maximum displ.:     0.1504566 α      in ANC's #8, #13, #6, ...

........................................................................
.............................. CYCLE   22 ..............................
........................................................................
   1   -138.5862197 -0.138586E+03  0.599E-02    0.01       0.0  T
   2   -138.4725942  0.113625E+00  0.959E-01    0.02       1.0  T
   3   -138.5840800 -0.111486E+00  0.136E-01    0.01       1.0  T
   4   -138.5829063  0.117371E-02  0.163E-01    0.00       1.0  T
   5   -138.5862050 -0.329863E-02  0.176E-02    0.01       1.0  T
   6   -138.5861741  0.308932E-04  0.231E-02    0.01       1.0  T
   7   -138.5862373 -0.632660E-04  0.433E-03    0.01       2.7  T
   8   -138.5862349  0.244799E-05  0.592E-03    0.01       1.9  T
   9   -138.5862392 -0.431999E-05  0.321E-04    0.01      35.8  T
  10   -138.5862392  0.152672E-07  0.402E-04    0.01      28.5  T
  11   -138.5862392 -0.192706E-07  0.930E-05    0.01     123.3  T
     SCC iter.                  ...        0 min,  0.116 sec
     gradient                   ...        0 min,  0.079 sec
 * total energy  :  -136.2106365 Eh     change       -0.8868387E-03 Eh
   gradient norm :     0.0086280 Eh/α   predicted    -0.5965353E-03 ( -32.73%)
   displ. norm   :     0.4703802 α      lambda       -0.1519526E-02
   maximum displ.:     0.3313383 α      in ANC's #8, #13, #6, ...

........................................................................
.............................. CYCLE   23 ..............................
........................................................................
   1   -138.5904738 -0.138590E+03  0.139E-01    0.01       0.0  T
   2   -138.2882869  0.302187E+00  0.157E+00    0.02       1.0  T
   3   -138.5713486 -0.283062E+00  0.400E-01    0.02       1.0  T
   4   -138.4644292  0.106919E+00  0.101E+00    0.03       1.0  T
   5   -138.5855481 -0.121119E+00  0.205E-01    0.02       1.0  T
   6   -138.5871617 -0.161367E-02  0.167E-01    0.00       1.0  T
   7   -138.5847649  0.239679E-02  0.216E-01    0.00       1.0  T
   8   -138.5905095 -0.574457E-02  0.306E-02    0.01       1.0  T
   9   -138.5905893 -0.797835E-04  0.162E-02    0.01       1.0  T
  10   -138.5905882  0.109041E-05  0.160E-02    0.01       1.0  T
  11   -138.5906186 -0.303666E-04  0.350E-03    0.01       3.3  T
  12   -138.5906164  0.218816E-05  0.545E-03    0.01       2.1  T
  13   -138.5906201 -0.366946E-05  0.473E-04    0.01      24.3  T
  14   -138.5906201 -0.428025E-08  0.393E-04    0.01      29.2  T
  15   -138.5906201 -0.111977E-07  0.263E-04    0.01      43.7  T
     SCC iter.                  ...        0 min,  0.161 sec
     gradient                   ...        0 min,  0.079 sec
 * total energy  :  -136.2115478 Eh     change       -0.9112891E-03 Eh
   gradient norm :     0.0112489 Eh/α   predicted    -0.9278680E-03 (   1.82%)
   displ. norm   :     0.4158632 α      lambda       -0.1044446E-02
   maximum displ.:     0.2865657 α      in ANC's #8, #6, #13, ...

........................................................................
.............................. CYCLE   24 ..............................
........................................................................
   1   -138.5928063 -0.138593E+03  0.123E-01    0.01       0.0  T
   2   -138.2790589  0.313747E+00  0.161E+00    0.02       1.0  T
   3   -138.5848764 -0.305817E+00  0.264E-01    0.02       1.0  T
   4   -138.4904344  0.944421E-01  0.907E-01    0.03       1.0  T
   5   -138.5844590 -0.940246E-01  0.263E-01    0.02       1.0  T
   6   -138.5906430 -0.618397E-02  0.139E-01    0.00       1.0  T
   7   -138.5871737  0.346933E-02  0.216E-01    0.00       1.0  T
   8   -138.5881336 -0.959945E-03  0.198E-01    0.00       1.0  T
   9   -138.5924943 -0.436069E-02  0.649E-02    0.00       1.0  T
  10   -138.5929081 -0.413804E-03  0.301E-02    0.01       1.0  T
  11   -138.5929632 -0.551115E-04  0.217E-02    0.01       1.0  T
  12   -138.5930146 -0.513783E-04  0.767E-03    0.01       1.5  T
  13   -138.5930219 -0.728849E-05  0.354E-04    0.01      32.4  T
  14   -138.5930219  0.983064E-08  0.346E-04    0.01      33.2  T
  15   -138.5930219 -0.889875E-08  0.192E-04    0.01      59.7  T
     SCC iter.                  ...        0 min,  0.160 sec
     gradient                   ...        0 min,  0.079 sec
 * total energy  :  -136.2122634 Eh     change       -0.7155827E-03 Eh
   gradient norm :     0.0144658 Eh/α   predicted    -0.6125414E-03 ( -14.40%)
   displ. norm   :     0.3788705 α      lambda       -0.7687129E-03
   maximum displ.:     0.2775768 α      in ANC's #8, #6, #13, ...

........................................................................
.............................. CYCLE   25 ..............................
........................................................................
   1   -138.5946748 -0.138595E+03  0.971E-02    0.01       0.0  T
   2   -138.2680090  0.326666E+00  0.164E+00    0.02       1.0  T
   3   -138.5937890 -0.325780E+00  0.114E-01    0.00       1.0  T
   4   -138.5019592  0.918298E-01  0.864E-01    0.03       1.0  T
   5   -138.5932782 -0.913190E-01  0.124E-01    0.01       1.0  T
   6   -138.5893918  0.388635E-02  0.216E-01    0.00       1.0  T
   7   -138.5951971 -0.580523E-02  0.773E-03    0.01       1.5  T
   8   -138.5951992 -0.215817E-05  0.538E-03    0.01       2.1  T
   9   -138.5950024  0.196848E-03  0.398E-02    0.01       1.0  T
  10   -138.5951917 -0.189353E-03  0.882E-03    0.01       1.3  T
  11   -138.5951739  0.178353E-04  0.147E-02    0.01       1.0  T
  12   -138.5951935 -0.195645E-04  0.764E-03    0.01       1.5  T
  13   -138.5951984 -0.493858E-05  0.424E-03    0.01       2.7  T
  14   -138.5952004 -0.198501E-05  0.133E-03    0.01       8.6  T
  15   -138.5952005 -0.106839E-06  0.919E-04    0.01      12.5  T
  16   -138.5952006 -0.101322E-06  0.158E-04    0.01      72.5  T
     SCC iter.                  ...        0 min,  0.168 sec
     gradient                   ...        0 min,  0.079 sec
 * total energy  :  -136.2129348 Eh     change       -0.6714199E-03 Eh
   gradient norm :     0.0109531 Eh/α   predicted    -0.4395291E-03 ( -34.54%)
   displ. norm   :     0.4523479 α      lambda       -0.9065601E-03
   maximum displ.:     0.3299818 α      in ANC's #8, #6, #5, ...

........................................................................
.............................. CYCLE   26 ..............................
........................................................................
   1   -138.5972445 -0.138597E+03  0.142E-01    0.01       0.0  T
   2   -138.2500415  0.347203E+00  0.171E+00    0.02       1.0  T
   3   -138.5666066 -0.316565E+00  0.510E-01    0.01       1.0  T
   4   -138.3640259  0.202581E+00  0.137E+00    0.03       1.0  T
   5   -138.3203512  0.436747E-01  0.150E+00    0.04       1.0  T
   6   -138.3723800 -0.520288E-01  0.135E+00    0.04       1.0  T
   7   -138.5721138 -0.199734E+00  0.467E-01    0.03       1.0  T
   8   -138.5986024 -0.264886E-01  0.602E-02    0.00       1.0  T
   9   -138.5953854  0.321693E-02  0.171E-01    0.01       1.0  T
  10   -138.5953564  0.289807E-04  0.168E-01    0.01       1.0  T
  11   -138.5987833 -0.342685E-02  0.222E-02    0.01       1.0  T
  12   -138.5987795  0.381605E-05  0.207E-02    0.01       1.0  T
  13   -138.5983921  0.387373E-03  0.584E-02    0.01       1.0  T
  14   -138.5987775 -0.385386E-03  0.132E-02    0.01       1.0  T
  15   -138.5987211  0.563430E-04  0.249E-02    0.01       1.0  T
  16   -138.5987914 -0.702412E-04  0.759E-03    0.01       1.5  T
  17   -138.5987984 -0.697513E-05  0.135E-03    0.01       8.5  T
  18   -138.5987977  0.638997E-06  0.262E-03    0.01       4.4  T
  19   -138.5987984 -0.655000E-06  0.127E-03    0.01       9.0  T
  20   -138.5987986 -0.198223E-06  0.155E-04    0.01      74.1  T
  21   -138.5987986  0.417089E-08  0.239E-04    0.01      48.1  T
     SCC iter.                  ...        0 min,  0.224 sec
     gradient                   ...        0 min,  0.078 sec
 * total energy  :  -136.2136795 Eh     change       -0.7447326E-03 Eh
   gradient norm :     0.0053757 Eh/α   predicted    -0.5460300E-03 ( -26.68%)
   displ. norm   :     0.5014907 α      lambda       -0.7222755E-03
   maximum displ.:     0.3631050 α      in ANC's #8, #6, #5, ...

........................................................................
.............................. CYCLE   27 ..............................
........................................................................
   1   -138.5981353 -0.138598E+03  0.156E-01    0.01       0.0  T
   2   -138.2436928  0.354443E+00  0.173E+00    0.02       1.0  T
   3   -138.5389702 -0.295277E+00  0.703E-01    0.02       1.0  T
   4   -138.3655145  0.173456E+00  0.137E+00    0.04       1.0  T
   5   -138.2964686  0.690460E-01  0.157E+00    0.04       1.0  T
   6   -138.2898194  0.664916E-02  0.158E+00    0.04       1.0  T
   7   -138.2953268 -0.550739E-02  0.157E+00    0.04       1.0  T
   8   -138.3550479 -0.597211E-01  0.140E+00    0.04       1.0  T
   9   -138.5701745 -0.215127E+00  0.500E-01    0.03       1.0  T
  10   -138.4385147  0.131660E+00  0.114E+00    0.04       1.0  T
  11   -138.5951890 -0.156674E+00  0.206E-01    0.01       1.0  T
  12   -138.5993014 -0.411247E-02  0.852E-02    0.00       1.0  T
  13   -138.5936467  0.565472E-02  0.229E-01    0.00       1.0  T
  14   -138.5960212 -0.237449E-02  0.182E-01    0.00       1.0  T
  15   -138.6000212 -0.400003E-02  0.406E-02    0.01       1.0  T
  16   -138.5996292  0.391997E-03  0.674E-02    0.01       1.0  T
  17   -138.6001477 -0.518503E-03  0.141E-02    0.01       1.0  T
  18   -138.6001641 -0.163529E-04  0.586E-03    0.01       2.0  T
  19   -138.6001557  0.837179E-05  0.938E-03    0.01       1.2  T
  20   -138.6001592 -0.352312E-05  0.740E-03    0.01       1.5  T
  21   -138.6001659 -0.664800E-05  0.116E-03    0.01       9.9  T
  22   -138.6001661 -0.165910E-06  0.763E-05    0.01     150.3  T
  23   -138.6001661  0.809661E-08  0.265E-04    0.01      43.3  T
     SCC iter.                  ...        0 min,  0.247 sec
     gradient                   ...        0 min,  0.078 sec
 * total energy  :  -136.2143018 Eh     change       -0.6222868E-03 Eh
   gradient norm :     0.0065753 Eh/α   predicted    -0.4519630E-03 ( -27.37%)
   displ. norm   :     0.4993245 α      lambda       -0.6288061E-03
   maximum displ.:     0.3574136 α      in ANC's #8, #6, #5, ...

........................................................................
.............................. CYCLE   28 ..............................
........................................................................
   1   -138.5988928 -0.138599E+03  0.147E-01    0.01       0.0  T
   2   -138.2479071  0.350986E+00  0.172E+00    0.03       1.0  T
   3   -138.5511350 -0.303228E+00  0.632E-01    0.02       1.0  T
   4   -138.3696744  0.181461E+00  0.136E+00    0.04       1.0  T
   5   -138.3029557  0.667187E-01  0.155E+00    0.04       1.0  T
   6   -138.2969367  0.601903E-02  0.156E+00    0.04       1.0  T
   7   -138.3126921 -0.157554E-01  0.152E+00    0.04       1.0  T
   8   -138.5385084 -0.225816E+00  0.710E-01    0.04       1.0  T
   9   -138.5589915 -0.204831E-01  0.582E-01    0.03       1.0  T
  10   -138.5943469 -0.353555E-01  0.227E-01    0.02       1.0  T
  11   -138.5902374  0.410953E-02  0.290E-01    0.01       1.0  T
  12   -138.5983594 -0.812200E-02  0.139E-01    0.01       1.0  T
  13   -138.6006341 -0.227473E-02  0.213E-02    0.01       1.0  T
  14   -138.6006559 -0.217399E-04  0.125E-02    0.01       1.0  T
  15   -138.6006540  0.191448E-05  0.121E-02    0.01       1.0  T
  16   -138.6006652 -0.111869E-04  0.336E-03    0.01       3.4  T
  17   -138.6006517  0.134096E-04  0.107E-02    0.01       1.1  T
  18   -138.6006661 -0.143062E-04  0.606E-04    0.01      18.9  T
  19   -138.6006657  0.369709E-06  0.179E-03    0.01       6.4  T
  20   -138.6006661 -0.378986E-06  0.307E-04    0.01      37.3  T
  21   -138.6006660  0.235045E-07  0.533E-04    0.01      21.5  T
     SCC iter.                  ...        0 min,  0.224 sec
     gradient                   ...        0 min,  0.078 sec
 * total energy  :  -136.2148706 Eh     change       -0.5687839E-03 Eh
   gradient norm :     0.0071250 Eh/α   predicted    -0.3927951E-03 ( -30.94%)
   displ. norm   :     0.5404988 α      lambda       -0.6562612E-03
   maximum displ.:     0.3849662 α      in ANC's #8, #6, #5, ...

........................................................................
.............................. CYCLE   29 ..............................
........................................................................
   1   -138.5995890 -0.138600E+03  0.143E-01    0.01       0.0  T
   2   -138.2521358  0.347453E+00  0.171E+00    0.03       1.0  T
   3   -138.5661727 -0.314037E+00  0.532E-01    0.02       1.0  T
   4   -138.3565535  0.209619E+00  0.140E+00    0.04       1.0  T
   5   -138.3168544  0.396992E-01  0.151E+00    0.04       1.0  T
   6   -138.3563476 -0.394932E-01  0.140E+00    0.04       1.0  T
   7   -138.5691704 -0.212823E+00  0.510E-01    0.03       1.0  T
   8   -138.5982277 -0.290572E-01  0.160E-01    0.00       1.0  T
   9   -138.5812912  0.169365E-01  0.402E-01    0.02       1.0  T
  10   -138.5940116 -0.127204E-01  0.241E-01    0.02       1.0  T
  11   -138.6009950 -0.698341E-02  0.377E-02    0.00       1.0  T
  12   -138.6003096  0.685434E-03  0.830E-02    0.01       1.0  T
  13   -138.6005509 -0.241337E-03  0.688E-02    0.01       1.0  T
  14   -138.6009889 -0.438017E-03  0.316E-02    0.00       1.0  T
  15   -138.6010188 -0.299029E-04  0.270E-02    0.00       1.0  T
  16   -138.6011099 -0.910536E-04  0.189E-03    0.01       6.1  T
  17   -138.6011096  0.240314E-06  0.194E-03    0.01       5.9  T
  18   -138.6011077  0.194057E-05  0.431E-03    0.01       2.7  T
  19   -138.6011097 -0.199722E-05  0.161E-03    0.01       7.1  T
  20   -138.6011100 -0.317266E-06  0.203E-04    0.01      56.4  T
  21   -138.6011100 -0.197980E-08  0.159E-04    0.01      72.3  T
     SCC iter.                  ...        0 min,  0.221 sec
     gradient                   ...        0 min,  0.078 sec
 * total energy  :  -136.2154640 Eh     change       -0.5933495E-03 Eh
   gradient norm :     0.0060231 Eh/α   predicted    -0.4239942E-03 ( -28.54%)
   displ. norm   :     0.6145458 α      lambda       -0.6773543E-03
   maximum displ.:     0.4365854 α      in ANC's #8, #6, #5, ...

........................................................................
.............................. CYCLE   30 ..............................
........................................................................
   1   -138.5993011 -0.138599E+03  0.142E-01    0.01       0.0  T
   2   -138.2567830  0.342518E+00  0.170E+00    0.03       1.0  T
   3   -138.5841908 -0.327408E+00  0.366E-01    0.01       1.0  T
   4   -138.3469553  0.237235E+00  0.143E+00    0.04       1.0  T
   5   -138.3930791 -0.461238E-01  0.129E+00    0.04       1.0  T
   6   -138.6000331 -0.206954E+00  0.722E-02    0.00       1.0  T
   7   -138.5724625  0.275706E-01  0.473E-01    0.01       1.0  T
   8   -138.5989732 -0.265107E-01  0.117E-01    0.01       1.0  T
   9   -138.6005036 -0.153033E-02  0.285E-02    0.01       1.0  T
  10   -138.6003299  0.173641E-03  0.425E-02    0.00       1.0  T
  11   -138.6004883 -0.158357E-03  0.194E-02    0.00       1.0  T
  12   -138.6004774  0.108554E-04  0.160E-02    0.00       1.0  T
  13   -138.6004672  0.102089E-04  0.171E-02    0.00       1.0  T
  14   -138.6005036 -0.363807E-04  0.154E-03    0.01       7.5  T
  15   -138.6005036 -0.570024E-07  0.138E-03    0.01       8.3  T
  16   -138.6005038 -0.207894E-06  0.467E-04    0.01      24.6  T
  17   -138.6005038  0.222128E-07  0.624E-04    0.01      18.4  T
     SCC iter.                  ...        0 min,  0.183 sec
     gradient                   ...        0 min,  0.078 sec
 * total energy  :  -136.2160638 Eh     change       -0.5998434E-03 Eh
   gradient norm :     0.0046202 Eh/α   predicted    -0.4665863E-03 ( -22.22%)
   displ. norm   :     0.6717745 α      lambda       -0.6245307E-03
   maximum displ.:     0.4774644 α      in ANC's #8, #6, #5, ...

........................................................................
.............................. CYCLE   31 ..............................
........................................................................
   1   -138.5984454 -0.138598E+03  0.138E-01    0.01       0.0  T
   2   -138.2624381  0.336007E+00  0.168E+00    0.03       1.0  T
   3   -138.5954564 -0.333018E+00  0.186E-01    0.00       1.0  T
   4   -138.3898847  0.205572E+00  0.130E+00    0.04       1.0  T
   5   -138.5673278 -0.177443E+00  0.506E-01    0.03       1.0  T
   6   -138.5479579  0.193699E-01  0.642E-01    0.02       1.0  T
   7   -138.5953965 -0.474387E-01  0.178E-01    0.01       1.0  T
   8   -138.5987752 -0.337868E-02  0.655E-02    0.00       1.0  T
   9   -138.5991791 -0.403937E-03  0.322E-02    0.00       1.0  T
  10   -138.5991391  0.400536E-04  0.360E-02    0.00       1.0  T
  11   -138.5992697 -0.130623E-03  0.149E-02    0.00       1.0  T
  12   -138.5992395  0.302150E-04  0.204E-02    0.00       1.0  T
  13   -138.5992847 -0.452518E-04  0.577E-03    0.01       2.0  T
  14   -138.5992828  0.190812E-05  0.521E-03    0.00       2.2  T
  15   -138.5992857 -0.282308E-05  0.125E-03    0.01       9.2  T
  16   -138.5992857 -0.405449E-07  0.823E-04    0.01      13.9  T
  17   -138.5992858 -0.809274E-07  0.526E-05    0.01     218.1  T
     SCC iter.                  ...        0 min,  0.182 sec
     gradient                   ...        0 min,  0.078 sec
 * total energy  :  -136.2166014 Eh     change       -0.5375623E-03 Eh
   gradient norm :     0.0039562 Eh/α   predicted    -0.4531861E-03 ( -15.70%)
   displ. norm   :     0.7014114 α      lambda       -0.5164782E-03
   maximum displ.:     0.5007507 α      in ANC's #8, #6, #5, ...

........................................................................
.............................. CYCLE   32 ..............................
........................................................................
   1   -138.5971970 -0.138597E+03  0.135E-01    0.01       0.0  T
   2   -138.2658225  0.331375E+00  0.166E+00    0.03       1.0  T
   3   -138.5974399 -0.331617E+00  0.861E-02    0.00       1.0  T
   4   -138.5035598  0.938800E-01  0.870E-01    0.04       1.0  T
   5   -138.5971088 -0.935489E-01  0.762E-02    0.00       1.0  T
   6   -138.5973657 -0.256949E-03  0.611E-02    0.00       1.0  T
   7   -138.5967326  0.633155E-03  0.933E-02    0.00       1.0  T
   8   -138.5977171 -0.984584E-03  0.290E-02    0.00       1.0  T
   9   -138.5974705  0.246635E-03  0.527E-02    0.00       1.0  T
  10   -138.5977470 -0.276535E-03  0.237E-02    0.00       1.0  T
  11   -138.5977734 -0.263583E-04  0.184E-02    0.00       1.0  T
  12   -138.5977929 -0.195301E-04  0.134E-02    0.00       1.0  T
  13   -138.5978139 -0.209337E-04  0.339E-03    0.00       3.4  T
  14   -138.5978149 -0.106580E-05  0.163E-03    0.00       7.0  T
  15   -138.5978152 -0.264469E-06  0.719E-04    0.00      15.9  T
  16   -138.5978153 -0.644345E-07  0.259E-05    0.00     442.6  T
     SCC iter.                  ...        0 min,  0.168 sec
     gradient                   ...        0 min,  0.078 sec
 * total energy  :  -136.2170298 Eh     change       -0.4284081E-03 Eh
   gradient norm :     0.0037168 Eh/α   predicted    -0.3852876E-03 ( -10.07%)
   displ. norm   :     0.6834801 α      lambda       -0.3828773E-03
   maximum displ.:     0.4915121 α      in ANC's #8, #6, #5, ...

........................................................................
.............................. CYCLE   33 ..............................
........................................................................
   1   -138.5969833 -0.138597E+03  0.128E-01    0.01       0.0  T
   2   -138.2684884  0.328495E+00  0.165E+00    0.03       1.0  T
   3   -138.5974561 -0.328968E+00  0.656E-02    0.00       1.0  T
   4   -138.5594071  0.380490E-01  0.552E-01    0.03       1.0  T
   5   -138.5910376 -0.316305E-01  0.227E-01    0.00       1.0  T
   6   -138.5973328 -0.629518E-02  0.356E-02    0.01       1.0  T
   7   -138.5968231  0.509676E-03  0.728E-02    0.00       1.0  T
   8   -138.5966899  0.133213E-03  0.796E-02    0.00       1.0  T
   9   -138.5972195 -0.529628E-03  0.457E-02    0.00       1.0  T
  10   -138.5974412 -0.221632E-03  0.175E-02    0.00       1.0  T
  11   -138.5974668 -0.256573E-04  0.995E-03    0.00       1.2  T
  12   -138.5974706 -0.379531E-05  0.823E-03    0.00       1.4  T
  13   -138.5974788 -0.815548E-05  0.152E-03    0.00       7.6  T
  14   -138.5974791 -0.281984E-06  0.124E-04    0.00      92.2  T
  15   -138.5974791  0.109193E-07  0.321E-04    0.00      35.7  T
     SCC iter.                  ...        0 min,  0.158 sec
     gradient                   ...        0 min,  0.079 sec
 * total energy  :  -136.2173370 Eh     change       -0.3072605E-03 Eh
   gradient norm :     0.0035832 Eh/α   predicted    -0.2808695E-03 (  -8.59%)
   displ. norm   :     0.6092782 α      lambda       -0.2647284E-03
   maximum displ.:     0.4406032 α      in ANC's #8, #6, #5, ...

........................................................................
.............................. CYCLE   34 ..............................
........................................................................
   1   -138.5982659 -0.138598E+03  0.112E-01    0.01       0.0  T
   2   -138.2731157  0.325150E+00  0.164E+00    0.03       1.0  T
   3   -138.5986168 -0.325501E+00  0.587E-02    0.01       1.0  T
   4   -138.5897242  0.889252E-02  0.267E-01    0.02       1.0  T
   5   -138.5863216  0.340267E-02  0.314E-01    0.01       1.0  T
   6   -138.5985942 -0.122727E-01  0.210E-02    0.01       1.0  T
   7   -138.5982333  0.360936E-03  0.575E-02    0.00       1.0  T
   8   -138.5978972  0.336080E-03  0.774E-02    0.00       1.0  T
   9   -138.5982533 -0.356122E-03  0.560E-02    0.00       1.0  T
  10   -138.5986429 -0.389517E-03  0.269E-03    0.00       4.3  T
  11   -138.5986427  0.130741E-06  0.285E-03    0.00       4.0  T
  12   -138.5986437 -0.921956E-06  0.832E-04    0.00      13.8  T
  13   -138.5986436  0.202031E-07  0.903E-04    0.00      12.7  T
     SCC iter.                  ...        0 min,  0.137 sec
     gradient                   ...        0 min,  0.078 sec
 * total energy  :  -136.2175482 Eh     change       -0.2111319E-03 Eh
   gradient norm :     0.0033258 Eh/α   predicted    -0.1815021E-03 ( -14.03%)
   displ. norm   :     0.5622578 α      lambda       -0.2007841E-03
   maximum displ.:     0.4073155 α      in ANC's #8, #6, #5, ...

........................................................................
.............................. CYCLE   35 ..............................
........................................................................
   1   -138.6004365 -0.138600E+03  0.104E-01    0.01       0.0  T
   2   -138.2761017  0.324335E+00  0.164E+00    0.03       1.0  T
   3   -138.6007233 -0.324622E+00  0.569E-02    0.01       1.0  T
   4   -138.5972304  0.349294E-02  0.169E-01    0.01       1.0  T
   5   -138.5882016  0.902876E-02  0.318E-01    0.01       1.0  T
   6   -138.6007827 -0.125811E-01  0.789E-03    0.00       1.5  T
   7   -138.6003994  0.383318E-03  0.559E-02    0.00       1.0  T
   8   -138.6002605  0.138904E-03  0.651E-02    0.00       1.0  T
   9   -138.6004987 -0.238188E-03  0.481E-02    0.00       1.0  T
  10   -138.6007851 -0.286421E-03  0.445E-03    0.00       2.6  T
  11   -138.6007875 -0.235053E-05  0.571E-04    0.00      20.1  T
  12   -138.6007874  0.115792E-06  0.990E-04    0.00      11.6  T
  13   -138.6007875 -0.115907E-06  0.163E-04    0.00      70.5  T
     SCC iter.                  ...        0 min,  0.139 sec
     gradient                   ...        0 min,  0.078 sec
 * total energy  :  -136.2177084 Eh     change       -0.1602368E-03 Eh
   gradient norm :     0.0029220 Eh/α   predicted    -0.1321324E-03 ( -17.54%)
   displ. norm   :     0.5343090 α      lambda       -0.1594649E-03
   maximum displ.:     0.3864512 α      in ANC's #8, #6, #5, ...

........................................................................
.............................. CYCLE   36 ..............................
........................................................................
[...]
    52   6 C       56   7 N                                       1.3666994
    55   6 C       56   7 N                                       1.3664106
    55   6 C       57   6 C                                       1.3793956
    57   6 C       58   6 C                                       1.3794013
    58   6 C       59   6 C                                       1.4340370
    59   6 C       60   6 C                                       1.3511999
    60   6 C       61   6 C                                       1.4338462
    58   6 C       62   7 N                                       1.3663768
    61   6 C       62   7 N                                       1.3667396
    61   6 C       63   6 C                                       1.3789424
    42   6 C       64   6 C                                       1.4314416
    63   6 C       64   6 C                                       1.3789920
    44   6 C       65   7 N                                       1.3621928
    64   6 C       65   7 N                                       1.3702260
    42   6 C       66   1 H                                       1.0726432
    43   6 C       67   1 H                                       1.0725914
    47   6 C       68   1 H                                       1.0726461
    48   6 C       69   1 H                                       1.0726236
    51   6 C       70   1 H                                       1.0794195
    53   6 C       71   1 H                                       1.0728680
    54   6 C       72   1 H                                       1.0728690
    57   6 C       73   1 H                                       1.0793021
    59   6 C       74   1 H                                       1.0729165
    60   6 C       75   1 H                                       1.0728746
    63   6 C       76   1 H                                       1.0794572

 * 3 distinct bonds (by element types)

   Z      Z             #   av. dist./Å        max./Å        min./Å
   1 H    6 C          22     1.0745547     1.0794700     1.0725478
   6 C    6 C          42     1.3880985     1.4341035     1.2175937
   6 C    7 N          16     1.3665084     1.3703046     1.3621429

           -------------------------------------------------
          |               Frequency Printout                |
           -------------------------------------------------
 projected vibrational frequencies (cm⁻¹)
eigval :       -0.00    -0.00    -0.00     0.00     0.00     0.00
eigval :      -12.67     4.10     8.40     8.98    21.97    23.24
eigval :       27.19    35.74    49.23    78.30    90.82   100.32
eigval :      101.09   119.24   120.01   123.30   151.05   154.60
eigval :      183.37   189.35   192.54   225.11   225.53   226.74
eigval :      229.41   234.04   243.32   244.55   245.61   249.40
eigval :      250.55   251.94   265.74   266.66   271.12   271.93
eigval :      294.15   316.56   317.27   321.23   322.72   343.19
eigval :      348.70   358.41   361.80   369.99   372.07   378.81
eigval :      381.86   383.15   388.99   390.11   394.70   401.67
eigval :      405.55   412.02   422.34   423.93   437.04   438.13
eigval :      459.31   460.48   505.44   509.92   529.55   618.75
eigval :      619.31   623.20   623.38   625.43   625.87   637.22
eigval :      638.60   643.15   643.51   658.51   659.08   666.22
eigval :      666.91   673.09   673.86   722.34   723.44   724.00
eigval :      725.17   759.87   760.56   761.26   768.01   779.51
eigval :      781.02   781.07   782.32   799.05   800.01   800.38
eigval :      800.68   806.24   806.47   810.41   811.20   818.39
eigval :      818.94   819.16   826.08   826.73   833.89   834.59
eigval :      837.03   837.73   843.97   844.46   844.77   845.47
eigval :      845.62   845.90   845.95   846.47   929.71   987.32
eigval :      990.31  1002.11  1002.58  1003.66  1017.95  1022.11
eigval :     1022.26  1026.91  1027.03  1031.08  1035.34  1035.61
eigval :     1040.11  1040.38  1066.67  1067.19  1069.05  1070.24
eigval :     1071.37  1072.43  1073.46  1073.88  1126.35  1140.09
eigval :     1141.09  1141.63  1167.27  1173.79  1174.95  1175.51
eigval :     1224.77  1225.64  1225.75  1244.68  1245.61  1281.68
eigval :     1282.18  1303.67  1305.72  1307.44  1310.55  1318.00
eigval :     1320.02  1330.34  1330.87  1331.85  1332.31  1340.37
eigval :     1341.84  1352.58  1355.39  1356.36  1356.50  1402.91
eigval :     1467.29  1470.34  1471.96  1480.47  1490.97  1493.30
eigval :     1504.28  1508.41  1513.04  1517.44  1531.65  1531.99
eigval :     1535.75  1537.45  1543.62  1548.22  1559.01  1562.73
eigval :     1572.66  1578.56  1583.91  1589.80  1613.56  1620.26
eigval :     2235.09  2238.72  3093.16  3093.32  3093.55  3093.69
eigval :     3094.54  3094.69  3149.25  3149.62  3149.69  3149.97
eigval :     3153.73  3154.31  3154.46  3155.14  3163.09  3163.50
eigval :     3163.59  3164.02  3168.17  3168.59  3168.74  3169.51
 reduced masses (amu)
   1: 13.58   2: 18.79   3: 16.92   4: 18.76   5: 18.58   6: 18.44   7: 11.28   8: 11.23
   9: 11.43  10: 11.54  11: 11.62  12: 10.96  13: 11.06  14: 12.63  15: 11.61  16: 19.24
  17: 13.32  18: 27.97  19: 27.44  20: 10.52  21: 10.69  22: 11.35  23: 12.57  24: 11.34
  25: 12.83  26: 12.09  27: 12.07  28: 12.76  29: 13.36  30: 11.94  31: 12.92  32: 19.19
  33: 10.85  34: 13.90  35: 10.96  36: 12.12  37: 11.94  38: 24.84  39: 44.37  40: 44.43
  41: 43.17  42: 43.24  43: 20.73  44: 12.12  45: 14.06  46: 12.34  47: 16.66  48: 12.19
  49: 12.37  50: 12.64  51: 12.05  52: 12.09  53: 12.03  54: 13.51  55: 13.56  56: 13.21
  57:  9.96  58: 10.40  59: 15.51  60: 14.14  61: 14.48  62: 15.35  63:  9.96  64: 10.55
  65: 10.25  66: 10.24  67: 11.76  68: 11.78  69: 11.72  70: 11.71  71: 11.99  72: 11.07
  73: 11.08  74: 11.15  75: 11.10  76: 10.78  77: 10.75  78: 11.17  79: 11.18  80: 11.10
  81: 11.12  82: 11.39  83: 11.41  84: 11.54  85: 11.55  86: 11.49  87: 11.50  88: 11.14
  89: 11.08  90: 10.95  91: 10.97  92: 11.16  93: 11.17  94: 11.23  95: 11.28  96: 11.33
  97: 10.88  98: 11.38  99: 11.04 100: 11.44 101:  3.88 102:  4.10 103: 11.65 104:  4.01
 105:  4.22 106:  4.28 107:  4.02 108:  4.34 109:  9.92 110:  5.45 111:  3.89 112:  3.88
 113:  3.90 114:  3.90 115:  4.03 116:  4.04 117:  3.37 118:  3.39 119:  3.46 120:  3.50
 121:  3.47 122:  3.51 123:  3.49 124:  3.50 125: 11.57 126: 12.38 127: 12.29 128: 12.07
 129: 12.10 130: 12.07 131: 11.38 132:  9.27 133:  9.20 134:  9.53 135:  9.45 136: 10.44
 137:  9.37 138:  9.46 139:  9.07 140:  9.12 141:  1.57 142:  1.56 143:  1.84 144:  1.84
 145:  1.92 146:  1.89 147:  2.07 148:  2.01 149:  5.66 150:  5.47 151:  5.54 152:  5.56
 153:  6.43 154:  7.18 155:  7.27 156:  6.32 157: 11.12 158:  8.71 159:  8.73 160:  8.45
 161:  8.32 162:  8.85 163:  8.92 164: 10.98 165: 10.65 166: 10.60 167: 10.65 168: 10.28
 169: 10.23 170: 11.52 171: 10.13 172:  9.98 173: 11.50 174: 12.20 175: 12.00 176:  9.72
 177:  9.23 178:  9.23 179:  9.64 180: 11.61 181: 11.51 182: 11.52 183: 11.52 184: 11.55
 185: 11.73 186: 11.75 187: 11.45 188: 11.44 189: 11.71 190: 11.72 191: 11.80 192: 11.75
 193: 11.71 194: 11.85 195: 11.65 196: 11.65 197: 11.60 198: 11.61 199: 11.62 200: 11.64
 201: 11.64 202: 11.65 203: 11.75 204: 11.76 205: 12.01 206: 12.01 207:  1.82 208:  1.82
 209:  1.82 210:  1.82 211:  1.82 212:  1.82 213:  1.81 214:  1.81 215:  1.80 216:  1.80
 217:  1.81 218:  1.81 219:  1.81 220:  1.81 221:  1.98 222:  1.98 223:  1.98 224:  1.98
 225:  1.97 226:  1.97 227:  1.97 228:  1.97
 IR intensities (km·mol⁻¹)
   1: 33.91   2:170.01   3: 72.31   4:  0.13   5:188.89   6:  2.97   7:228.15   8:  6.11
   9:  0.45  10:  0.14  11: 20.38  12:  0.32  13:  0.23  14:  0.32  15: 13.63  16:  0.30
  17: 25.34  18:  1.53  19:  5.08  20:  0.71  21:  0.19  22: 51.30  23: 11.32  24:  8.81
  25:  1.10  26:  0.25  27:  1.30  28:  1.93  29: 68.91  30:  3.56  31:148.69  32: 43.56
  33: 14.72  34: 35.36  35:  1.30  36:  2.23  37:  0.36  38: 27.88  39:  0.97  40:235.29
  41:  0.40  42:186.35  43:  5.42  44:  0.02  45:  2.55  46:  1.36  47: 86.93  48:  9.77
  49:  4.73  50:  1.55  51: 20.89  52:  5.11  53: 39.44  54:  3.28  55:  1.10  56: 15.55
  57: 15.37  58:  0.48  59:******  60:  1.14  61:  1.65  62: 29.34  63: 22.57  64: 99.18
  65:406.09  66:134.34  67:  1.11  68:  1.74  69:  8.54  70: 10.46  71:141.61  72:  2.91
  73:  1.59  74:  0.23  75:  2.58  76:192.20  77:  0.52  78:  0.62  79:  2.76  80:206.72
  81:280.13  82:143.05  83:  2.66  84:263.46  85:146.62  86: 58.68  87:303.65  88: 74.68
  89:  0.08  90: 12.40  91:  1.61  92: 12.08  93:  1.27  94:  0.16  95:  6.13  96:  6.50
  97: 31.63  98:  1.24  99:  0.03 100: 26.24 101: 61.04 102:148.54 103:  0.82 104:  5.59
 105:  8.49 106: 65.30 107: 26.85 108:  0.05 109:  4.10 110:  0.10 111: 57.85 112:  6.07
 113:  1.23 114:  5.45 115:482.12 116:143.07 117:  0.15 118:  0.17 119: 16.99 120:  0.72
 121: 33.28 122:  3.43 123:  0.44 124:  3.45 125:300.07 126:179.97 127:431.09 128:  5.83
 129: 49.68 130: 50.32 131:125.49 132:  0.51 133:  0.33 134:  0.52 135:  7.04 136: 18.34
Refinement of some symmetry elements was terminated before convergence was reached.
Some symmetry elements may remain unidentified.
Molecule has no symmetry elements
It seems to be the C1 point group
 137: 36.97 138:  1.66 139:  3.46 140: 31.48 141:  8.14 142:  7.88 143:641.77 144: 32.37
 145:  6.76 146: 83.47 147:****** 148:****** 149:****** 150:  9.27 151:  2.14 152:  2.45
 153: 53.41 154:  0.91 155:  0.41 156:  6.98 157: 84.74 158:  5.17 159:  0.12 160:  7.73
 161: 14.05 162:  5.28 163:  3.79 164:  8.90 165: 14.84 166:  6.02 167:750.58 168:  0.05
 169:  0.19 170: 57.47 171: 12.85 172: 34.44 173:****** 174:  5.25 175: 61.55 176: 11.03
 177:  8.47 178: 10.46 179: 28.74 180:  2.50 181: 50.89 182: 10.29 183: 13.26 184:  5.84
 185:431.77 186: 37.84 187: 11.04 188:  0.10 189:261.44 190:142.02 191:  8.10 192: 10.54
 193:  1.92 194:  4.91 195: 38.58 196: 19.34 197:  4.92 198:  5.71 199: 14.33 200:  1.06
 201:428.75 202:312.74 203: 12.30 204:  0.18 205:  6.22 206:180.05 207: 33.89 208:245.69
 209: 14.88 210:219.08 211: 84.20 212:  0.77 213:  7.01 214:  8.15 215: 18.92 216: 26.87
 217:****** 218: 45.35 219:****** 220:****** 221: 43.04 222: 50.58 223: 11.76 224: 14.61
 225:****** 226:967.95 227:****** 228:507.94
 Raman intensities (amu)
   1:  0.00   2:  0.00   3:  0.00   4:  0.00   5:  0.00   6:  0.00   7:  0.00   8:  0.00
   9:  0.00  10:  0.00  11:  0.00  12:  0.00  13:  0.00  14:  0.00  15:  0.00  16:  0.00
  17:  0.00  18:  0.00  19:  0.00  20:  0.00  21:  0.00  22:  0.00  23:  0.00  24:  0.00
  25:  0.00  26:  0.00  27:  0.00  28:  0.00  29:  0.00  30:  0.00  31:  0.00  32:  0.00
  33:  0.00  34:  0.00  35:  0.00  36:  0.00  37:  0.00  38:  0.00  39:  0.00  40:  0.00
  41:  0.00  42:  0.00  43:  0.00  44:  0.00  45:  0.00  46:  0.00  47:  0.00  48:  0.00
  49:  0.00  50:  0.00  51:  0.00  52:  0.00  53:  0.00  54:  0.00  55:  0.00  56:  0.00
  57:  0.00  58:  0.00  59:  0.00  60:  0.00  61:  0.00  62:  0.00  63:  0.00  64:  0.00
  65:  0.00  66:  0.00  67:  0.00  68:  0.00  69:  0.00  70:  0.00  71:  0.00  72:  0.00
  73:  0.00  74:  0.00  75:  0.00  76:  0.00  77:  0.00  78:  0.00  79:  0.00  80:  0.00
  81:  0.00  82:  0.00  83:  0.00  84:  0.00  85:  0.00  86:  0.00  87:  0.00  88:  0.00
  89:  0.00  90:  0.00  91:  0.00  92:  0.00  93:  0.00  94:  0.00  95:  0.00  96:  0.00
  97:  0.00  98:  0.00  99:  0.00 100:  0.00 101:  0.00 102:  0.00 103:  0.00 104:  0.00
 105:  0.00 106:  0.00 107:  0.00 108:  0.00 109:  0.00 110:  0.00 111:  0.00 112:  0.00
 113:  0.00 114:  0.00 115:  0.00 116:  0.00 117:  0.00 118:  0.00 119:  0.00 120:  0.00
 121:  0.00 122:  0.00 123:  0.00 124:  0.00 125:  0.00 126:  0.00 127:  0.00 128:  0.00
 129:  0.00 130:  0.00 131:  0.00 132:  0.00 133:  0.00 134:  0.00 135:  0.00 136:  0.00
 137:  0.00 138:  0.00 139:  0.00 140:  0.00 141:  0.00 142:  0.00 143:  0.00 144:  0.00
 145:  0.00 146:  0.00 147:  0.00 148:  0.00 149:  0.00 150:  0.00 151:  0.00 152:  0.00
 153:  0.00 154:  0.00 155:  0.00 156:  0.00 157:  0.00 158:  0.00 159:  0.00 160:  0.00
 161:  0.00 162:  0.00 163:  0.00 164:  0.00 165:  0.00 166:  0.00 167:  0.00 168:  0.00
 169:  0.00 170:  0.00 171:  0.00 172:  0.00 173:  0.00 174:  0.00 175:  0.00 176:  0.00
 177:  0.00 178:  0.00 179:  0.00 180:  0.00 181:  0.00 182:  0.00 183:  0.00 184:  0.00
 185:  0.00 186:  0.00 187:  0.00 188:  0.00 189:  0.00 190:  0.00 191:  0.00 192:  0.00
 193:  0.00 194:  0.00 195:  0.00 196:  0.00 197:  0.00 198:  0.00 199:  0.00 200:  0.00
 201:  0.00 202:  0.00 203:  0.00 204:  0.00 205:  0.00 206:  0.00 207:  0.00 208:  0.00
 209:  0.00 210:  0.00 211:  0.00 212:  0.00 213:  0.00 214:  0.00 215:  0.00 216:  0.00
 217:  0.00 218:  0.00 219:  0.00 220:  0.00 221:  0.00 222:  0.00 223:  0.00 224:  0.00
 225:  0.00 226:  0.00 227:  0.00 228:  0.00
 output can be read by thermo (or use thermo option).
 writing <g98.out> molden fake output.
 recommended (thermochemical) frequency scaling factor: 1.0
           -------------------------------------------------
          |             Thermodynamic Functions             |
           -------------------------------------------------

c1  symmetry found (for desy threshold:  0.10E+00) used in thermo
 inverting freq            1   12.673357062782204     

          ...................................................
          :                      SETUP                      :
          :.................................................:
          :  # frequencies                         222      :
          :  # imaginary freq.                       0      :
          :  linear?                             false      :
          :  only rotor calc.                    false      :
          :  symmetry                               c1      :
          :  rotational number                       1      :
          :  scaling factor                  1.0000000      :
          :  rotor cutoff                   50.0000000 cm⁻¹ :
          :  imag. cutoff                  -20.0000000 cm⁻¹ :
          :.................................................:

    mode    ω/cm⁻¹     T·S(HO)/kcal·mol⁻¹    T·S(FR)/kcal·mol⁻¹   T·S(vib)
   ------------------------------------------------------------------------
       1     12.67    -2.24816 (  0.41%)    -1.46313 ( 99.59%)    -1.46636
       2      4.10    -2.91666 (  0.00%)    -1.79739 (100.00%)    -1.79745
       3      8.40    -2.49194 (  0.08%)    -1.58505 ( 99.92%)    -1.58577
       4      8.98    -2.45205 (  0.10%)    -1.56510 ( 99.90%)    -1.56602
       5     21.97    -1.92238 (  3.59%)    -1.30016 ( 96.41%)    -1.32252
       6     23.24    -1.88919 (  4.46%)    -1.28355 ( 95.54%)    -1.31054
       7     27.19    -1.79630 (  8.04%)    -1.23705 ( 91.96%)    -1.28200
       8     35.74    -1.63459 ( 20.69%)    -1.15604 ( 79.31%)    -1.25507
       9     49.23    -1.44549 ( 48.44%)    -1.06116 ( 51.56%)    -1.24734
      10     78.30    -1.17261 ( 85.75%)    -0.92366 ( 14.25%)    -1.13712
      11     90.82    -1.08593 ( 91.59%)    -0.87972 (  8.41%)    -1.06858
      12    100.32    -1.02806 ( 94.19%)    -0.85027 (  5.81%)    -1.01773
      13    101.09    -1.02360 ( 94.35%)    -0.84799 (  5.65%)    -1.01368
      14    119.24    -0.92804 ( 97.00%)    -0.79908 (  3.00%)    -0.92417
      15    120.01    -0.92433 ( 97.08%)    -0.79717 (  2.92%)    -0.92061
      16    123.30    -0.90875 ( 97.37%)    -0.78916 (  2.63%)    -0.90561
      17    151.05    -0.79276 ( 98.81%)    -0.72902 (  1.19%)    -0.79200
      18    154.60    -0.77961 ( 98.92%)    -0.72215 (  1.08%)    -0.77899
      19    183.37    -0.68389 ( 99.45%)    -0.67158 (  0.55%)    -0.68383
      20    189.35    -0.66611 ( 99.52%)    -0.66208 (  0.48%)    -0.66610
      21    192.54    -0.65688 ( 99.55%)    -0.65713 (  0.45%)    -0.65689
      22    225.11    -0.57174 ( 99.76%)    -0.61084 (  0.24%)    -0.57184
      23    225.53    -0.57073 ( 99.76%)    -0.61028 (  0.24%)    -0.57083
      24    226.74    -0.56787 ( 99.76%)    -0.60870 (  0.24%)    -0.56796
      25    229.41    -0.56159 ( 99.77%)    -0.60523 (  0.23%)    -0.56169
      26    234.04    -0.55089 ( 99.79%)    -0.59930 (  0.21%)    -0.55099
      27    243.32    -0.53026 ( 99.82%)    -0.58779 (  0.18%)    -0.53036
      28    244.55    -0.52758 ( 99.83%)    -0.58629 (  0.17%)    -0.52768
      29    245.61    -0.52530 ( 99.83%)    -0.58501 (  0.17%)    -0.52540
      30    249.40    -0.51724 ( 99.84%)    -0.58048 (  0.16%)    -0.51734
      31    250.55    -0.51481 ( 99.84%)    -0.57911 (  0.16%)    -0.51492
      32    251.94    -0.51192 ( 99.85%)    -0.57748 (  0.15%)    -0.51202
      33    265.74    -0.48412 ( 99.87%)    -0.56168 (  0.13%)    -0.48422
      34    266.66    -0.48233 ( 99.88%)    -0.56065 (  0.12%)    -0.48243
      35    271.12    -0.47378 ( 99.88%)    -0.55574 (  0.12%)    -0.47388
      36    271.93    -0.47224 ( 99.89%)    -0.55486 (  0.11%)    -0.47234
      37    294.15    -0.43230 ( 99.92%)    -0.53159 (  0.08%)    -0.43239
   ------------------------------------------------------------------------

   temp. (K)  partition function   enthalpy   heat capacity  entropy
                                   cal/mol     cal/K/mol   cal/K/mol   J/K/mol
 298.15  VIB  0.266E+20            24598.873    164.525    151.113
         ROT  0.178E+09              888.752      2.981     40.735
         INT  0.474E+28            25487.625    167.506    191.847
         TR   0.211E+29             1481.254      4.968     45.822
         TOT                       26968.8788   172.4740   237.6698   994.4102

       T/K    H(0)-H(T)+PV         H(T)/Eh          T*S/Eh         G(T)/Eh
   ------------------------------------------------------------------------
    298.15    0.429776E-01    0.573371E+00    0.112925E+00    0.460447E+00
   ------------------------------------------------------------------------

         :::::::::::::::::::::::::::::::::::::::::::::::::::::
         ::                  THERMODYNAMIC                  ::
         :::::::::::::::::::::::::::::::::::::::::::::::::::::
         :: total free energy        -135.757643696604 Eh   ::
         ::.................................................::
         :: total energy             -136.218090264476 Eh   ::
         :: zero point energy           0.530393492106 Eh   ::
         :: G(RRHO) w/o ZPVE           -0.069946924234 Eh   ::
         :: G(RRHO) contrib.            0.460446567872 Eh   ::
         :::::::::::::::::::::::::::::::::::::::::::::::::::::
imag cut-off (cm-1) :    5.00
 found            1  significant imaginary frequency
 writing imag mode distorted coords to xtbhess.xyz
 for further optimization.

optimized geometry written to: xtbopt.xyz


           -------------------------------------------------
          | TOTAL ENERGY             -136.218090264476 Eh   |
          | TOTAL ENTHALPY           -135.644719128360 Eh   |
          | TOTAL FREE ENERGY        -135.757643696604 Eh   |
          | GRADIENT NORM               0.000845573077 Eh/α |
          | HOMO-LUMO GAP               0.004285588231 eV   |
           -------------------------------------------------

------------------------------------------------------------------------
 * finished run on 2021/11/19 at 10:45:54.314     
------------------------------------------------------------------------
 total:
 * wall-time:     0 d,  0 h,  1 min, 39.192 sec
 *  cpu-time:     0 d,  0 h,  1 min, 39.191 sec
 * ratio c/w:     1.000 speedup
 SCF:
 * wall-time:     0 d,  0 h,  0 min,  0.591 sec
 *  cpu-time:     0 d,  0 h,  0 min,  0.591 sec
 * ratio c/w:     1.000 speedup
 ANC optimizer:
 * wall-time:     0 d,  0 h,  0 min, 14.315 sec
 *  cpu-time:     0 d,  0 h,  0 min, 14.313 sec
 * ratio c/w:     1.000 speedup
 analytical hessian:
 * wall-time:     0 d,  0 h,  1 min, 24.207 sec
 *  cpu-time:     0 d,  0 h,  1 min, 24.208 sec
 * ratio c/w:     1.000 speedup

