76
 energy: -134.511933808382 gnorm: 4.335088447838 xtb: 6.4.1 (bd6e46d)
Co        8.41034900000000    0.02446900000000   -0.00463200000000
C        10.73934000000000   -3.12232400000000    1.31805700000000
C        11.65544700000000   -2.17811600000000    1.26777500000000
C        11.24426800000000   -1.12421200000000    0.34648300000000
C        11.86313800000000    0.00013400000000    0.00007300000000
C        11.15909600000000    1.22008200000000   -0.36403200000000
C        11.48720700000000    2.18013700000000   -1.21150600000000
C        10.45242700000000    3.19642200000000   -1.22840400000000
C         9.51615900000000    2.81996000000000   -0.38151200000000
N         9.91814900000000    1.58694900000000    0.18230500000000
C         8.25508400000000    3.46496000000000   -0.00236000000000
C         7.15986700000000    2.83017700000000    0.34840000000000
C         6.08624200000000    3.14813300000000    1.31742800000000
C         5.24867900000000    2.15137900000000    1.24026200000000
C         5.68697600000000    1.14769600000000    0.25981000000000
N         6.79191400000000    1.58654900000000   -0.22448200000000
C         5.07614100000000   -0.10557500000000   -0.15373800000000
C         5.74030200000000   -1.21008100000000   -0.40816300000000
C         5.36645300000000   -2.27302300000000   -1.36569000000000
C         6.31520000000000   -3.16677900000000   -1.27667100000000
C         7.30092400000000   -2.72932900000000   -0.29379300000000
N         6.94787800000000   -1.58352400000000    0.20300400000000
C         8.53181200000000   -3.38539900000000    0.15192800000000
C         9.65485400000000   -2.73953800000000    0.41904900000000
N         9.98345400000000   -1.49209700000000   -0.17935500000000
H        10.79960200000000   -4.03210400000000    1.93560300000000
H        12.57177500000000   -2.21806600000000    1.84582300000000
H        12.41457200000000    2.19693300000000   -1.81264900000000
H        10.46932600000000    4.10111100000000   -1.84102500000000
H         8.20736200000000    4.55976200000000   -0.00613800000000
H         6.03342000000000    4.02685800000000    1.94242000000000
H         4.33704800000000    2.11571000000000    1.85758600000000
H         3.97789100000000   -0.10266400000000   -0.25300900000000
H         4.49759800000000   -2.32548800000000   -2.01464000000000
H         6.31235400000000   -4.08308700000000   -1.87543000000000
H         8.49633000000000   -4.48120100000000    0.26385300000000
C        12.73429200000000   -0.00240700000000   -0.00131500000000
C        13.94226900000000    0.00504700000000    0.00038000000000
C        15.36103700000000    0.00574400000000    0.00551700000000
C        16.57655400000000   -0.00240700000000   -0.00131500000000
Co       20.93163600000000   -0.00913300000000   -0.16358000000000
C        18.38576700000000    3.22821100000000    1.12827000000000
C        17.45940800000000    2.30103600000000    0.98372300000000
C        18.06142100000000    1.13225600000000    0.32697900000000
C        17.46846800000000    0.00013400000000    0.00007300000000
C        18.10078300000000   -1.31305300000000   -0.02181800000000
C        17.58011900000000   -2.53261500000000    0.09969400000000
C        18.61566600000000   -3.53389700000000    0.01112700000000
C        19.76904200000000   -2.87842800000000   -0.16658500000000
N        19.48258800000000   -1.50770300000000   -0.19091100000000
C        21.11066600000000   -3.45005000000000   -0.31492400000000
C        22.25286000000000   -2.84482000000000   -0.14557800000000
C        23.53157100000000   -3.26367200000000    0.49097900000000
C        24.33144700000000   -2.25802400000000    0.35276900000000
C        23.68308500000000   -1.13245400000000   -0.35657500000000
N        22.49295700000000   -1.52999800000000   -0.61488800000000
C        24.19241100000000    0.18189900000000   -0.74339700000000
C        23.53302800000000    1.31106000000000   -0.64646700000000
C        23.93083500000000    2.59576500000000   -1.26687700000000
C        23.02363800000000    3.45889100000000   -0.92573600000000
C        22.01708000000000    2.79067800000000   -0.08734200000000
N        22.34700500000000    1.55198000000000    0.05009500000000
C        20.82163200000000    3.36193800000000    0.52621800000000
C        19.65501000000000    2.75155200000000    0.58571200000000
N        19.40399400000000    1.44918800000000    0.10138200000000
H        18.19414300000000    4.21041200000000    1.59604600000000
H        16.41709300000000    2.42588800000000    1.31565900000000
H        16.49410300000000   -2.69963900000000    0.24787100000000
H        18.44359000000000   -4.59540700000000    0.08067200000000
H        21.17159300000000   -4.51816600000000   -0.60100300000000
H        23.68472000000000   -4.22699200000000    0.95208100000000
H        25.35375300000000   -2.26078100000000    0.71973700000000
H        25.22647700000000    0.14857000000000   -1.14034300000000
H        24.80690000000000    2.79844500000000   -1.88984500000000
H        23.06329100000000    4.51013100000000   -1.24736400000000
H        20.90823000000000    4.35161300000000    0.95677700000000
76
 energy: -135.683630680819 gnorm: 0.668421693160 xtb: 6.4.1 (bd6e46d)
Co        8.41172704401509    0.02463375545630   -0.00436190395712
C        10.73639573508621   -3.12736484047520    1.31654244079690
C        11.65946571179141   -2.17451221905652    1.26660900319439
C        11.20827361802338   -1.14336380630338    0.35070271478125
C        11.69574955862888    0.00612601194420   -0.00009805019386
C        11.13141791652482    1.22658575556044   -0.36217542185572
C        11.49071712063999    2.18906316602304   -1.21832911215993
C        10.46247417864110    3.19857467966341   -1.23432916780909
C         9.51057131695803    2.81493071025968   -0.37673010375857
N         9.90857505738389    1.58319221648976    0.18196677896496
C         8.26239434399233    3.46752029687624   -0.00381418986631
C         7.15314232306209    2.82446748103899    0.34973361513753
C         6.09015408519620    3.15197873141390    1.31343037989877
C         5.23977454532860    2.14697792516970    1.24190587874654
C         5.68302512597072    1.14755300691813    0.26452858464337
N         6.80390564335142    1.58269199047831   -0.22309014073396
C         5.07126135848509   -0.09698995713973   -0.15134713679718
C         5.74312689666215   -1.21493745783686   -0.41022142308363
C         5.36274228851112   -2.26984065868632   -1.36283984159808
C         6.31909920763459   -3.17405063893513   -1.27675683132076
C         7.30473661276329   -2.73423986716835   -0.29569719497215
N         6.95006897286515   -1.57458697877964    0.19912199601609
C         8.52364780733312   -3.38924212565937    0.14928121663620
C         9.65937533092866   -2.73499259464439    0.42010910204514
N         9.97947614706026   -1.49327522086022   -0.17163662638118
H        10.79830679966816   -4.03041217804274    1.93382524190845
H        12.57195138886252   -2.21590427377049    1.84493518371288
H        12.41292828573836    2.19738088884510   -1.81194492012827
H        10.47002897806992    4.09997929020625   -1.84065861698743
H         8.20949260669736    4.55920281594986   -0.00501375609680
H         6.03433910023077    4.02640654441486    1.94170635696254
H         4.33760419338775    2.11416538539416    1.85658679256408
H         3.97903798603889   -0.10181037252592   -0.25384945493134
H         4.49825600065399   -2.32393597646684   -2.01337882179979
H         6.31415971828952   -4.08273420833583   -1.87430463888941
H         8.49574460149356   -4.47992372137657    0.26401824176107
C        12.89933952321501    0.00241856955746   -0.00280348324306
C        13.99982383269947    0.00614131353993    0.00015235778722
C        15.31059474672884    0.00480693427447    0.00431952109422
C        16.42426601679134   -0.00752937757428   -0.00475209932417
Co       20.92953847890641   -0.00921662607496   -0.16386947059369
C        18.38821445757652    3.23324706149601    1.12974092877718
C        17.45625051276355    2.29784298009314    0.98207528722382
C        18.09523725553493    1.15213004056639    0.33123648868857
C        17.61912274638228   -0.00678129680768    0.00123312020127
C        18.12830470005160   -1.31845541334654   -0.02334318648991
C        17.57549419791676   -2.54139509653622    0.10036833250608
C        18.60594604943769   -3.53464371234188    0.01145629653047
C        19.77438471826983   -2.87286791728885   -0.17036202571330
N        19.49034795152906   -1.50523991864411   -0.19022449806648
C        21.10094470890414   -3.45411709997574   -0.31559344827269
C        22.26173134474481   -2.83775497146503   -0.14618353366552
C        23.52477994746697   -3.26829232189625    0.48694116129266
C        24.34028866611633   -2.25123793816698    0.35193017587256
C        23.68747524182092   -1.13348267231232   -0.35373364631842
N        22.48160241324970   -1.52639926063566   -0.61032061431120
C        24.19736000364298    0.17294921564117   -0.74323268701658
C        23.53134236426000    1.31600300544889   -0.64782640552832
C        23.93531629237228    2.59125598269645   -1.26715626121257
C        23.01932166744822    3.46662966333610   -0.92331965093254
C        22.01544342366510    2.79555237595767   -0.08706641772887
N        22.34453739671537    1.54343093228218    0.04666818082135
C        20.82851161759060    3.36442897152829    0.52456373197842
C        19.64921940161346    2.74581911280980    0.58654274661036
N        19.40777164990885    1.45051541785060    0.10378540858903
H        18.19589072443933    4.20865477708015    1.59489619601705
H        16.41896062796021    2.42369008360811    1.31423960392400
H        16.49649811691130   -2.70035989435837    0.24770239433966
H        18.44330034922547   -4.59518399945444    0.08076614796268
H        21.16950621673984   -4.51774437929179   -0.59726092150297
H        23.68405176112925   -4.22650706219630    0.95185087703493
H        25.35432706526050   -2.25932910285922    0.71978373694749
H        25.22487127467177    0.14907280786878   -1.13979192801970
H        24.80578608323717    2.79662149279914   -1.88876513566123
H        23.06139749094168    4.50911946007531   -1.24598606249941
H        20.90855135619212    4.35250030667773    0.95544060745201
76
 energy: -135.872077417091 gnorm: 0.382000270066 xtb: 6.4.1 (bd6e46d)
Co        8.41560863088978    0.02325283824576   -0.00317926895598
C        10.73147195139683   -3.14446481038609    1.30557337179367
C        11.66004288150929   -2.18033181323841    1.25911659671124
C        11.14056570324585   -1.16978376867932    0.36681189673352
C        11.62238487721627    0.02737618518043    0.00247497193109
C        11.06365099218855    1.24301764987285   -0.36668275749108
C        11.48810382134698    2.22040094531906   -1.23158948678739
C        10.48574258108796    3.20819656207737   -1.24172639007909
C         9.49596401120609    2.80542672206012   -0.37534985410365
N         9.84212666550169    1.56710084975984    0.16514299754035
C         8.27771269782549    3.46830186025341   -0.00349528029923
C         7.14795889355196    2.80686002043255    0.35126895813921
C         6.08867209454337    3.15654854936675    1.29186683155638
C         5.21499282206833    2.14176425180061    1.24046588557570
C         5.68098950136569    1.14598199117762    0.28313276458122
N         6.84913195136535    1.54919882437839   -0.18988411333925
C         5.06146850481792   -0.07582870754397   -0.14393935370093
C         5.74782544415343   -1.21255708341342   -0.41708309560319
C         5.35665638589523   -2.27119697342344   -1.34509042495264
C         6.32405583451691   -3.19421979159667   -1.27002388917889
C         7.31375736328603   -2.74108646040027   -0.30617794199219
N         6.97291270627696   -1.54050666327471    0.15971486700891
C         8.50017131366236   -3.40374030161755    0.14321541975825
C         9.64801147782753   -2.73818204822529    0.42820493635451
N         9.92405029466632   -1.49843465513129   -0.12465235857350
H        10.78817888363457   -4.02924075176635    1.92551094403520
H        12.57246587119365   -2.20056406068980    1.83600615418472
H        12.40600589440073    2.20357165965367   -1.81046822637917
H        10.47875822827029    4.10024796524292   -1.84288990914958
H         8.22623623807020    4.55644176643808    0.00166297938017
H         6.04271891107773    4.02329637586641    1.93168723853324
H         4.33031943065457    2.10313308442769    1.85495455544127
H         3.97972626199261   -0.09145467125698   -0.25866804239584
H         4.50093773984913   -2.31271099083364   -2.00254680294172
H         6.32720004266371   -4.08904638391175   -1.86942974355342
H         8.48620554706448   -4.48233455292651    0.26324639524585
C        12.85142006337413    0.02196037118409   -0.00552419314882
C        14.05104282511748    0.01484465046264   -0.00178376526549
C        15.27086816490337   -0.00092889263743   -0.00022100924477
C        16.46022206770770   -0.02851798323676   -0.00256654693331
Co       20.92114894570505   -0.00573312273374   -0.16740411514251
C        18.39809582747702    3.24469050488677    1.13228037180700
C        17.46321324632831    2.30084363098430    0.97012898538458
C        18.15869765227432    1.18205775823341    0.33791895987871
C        17.69191233529085   -0.03056315127939    0.00890422539268
C        18.19652223333925   -1.33369173013221   -0.03177376330964
C        17.57942108074818   -2.56367561891016    0.09641111479959
C        18.58615729954484   -3.53511337504132    0.00455001165293
C        19.78627782332686   -2.86498907879538   -0.18848269312683
N        19.54295356710675   -1.50231507079912   -0.18330338699278
C        21.08182561487456   -3.45841117336935   -0.31565434006559
C        22.26869441364574   -2.81852425866042   -0.15303666319813
C        23.51577726714046   -3.26978857810847    0.46061839416979
C        24.36131425567806   -2.23934414241011    0.34231649678322
C        23.69222433918612   -1.13472032625731   -0.34100913820510
N        22.44397099321035   -1.49710500403583   -0.56721046846143
C        24.20893854807315    0.15059234438778   -0.73963259475328
C        23.52875338025042    1.31435904353393   -0.65720655478873
C        23.93992493568435    2.58461057771658   -1.25923087147801
C        23.01447685627329    3.48235891662437   -0.90906029480962
C        22.01414368668557    2.80187956484805   -0.08684761266467
N        22.32681887424038    1.51856686616219    0.01456170319346
C        20.84749880801699    3.37473619536855    0.52085869271559
C        19.65575191198397    2.74133319297265    0.59591775303492
N        19.45202656122919    1.46196653195155    0.12013743133308
H        18.20859288616331    4.20678417329322    1.59195300053513
H        16.43091815188441    2.40632562482194    1.30233704950857
H        16.50978087605721   -2.70572693337552    0.24694092951473
H        18.43751886681245   -4.59498369486071    0.08131590656864
H        21.15250185073829   -4.52024735741347   -0.56905280490069
H        23.67480090672334   -4.22062494009169    0.94450156771136
H        25.36472095134269   -2.24839868241283    0.72046110172785
H        25.22357228285150    0.14760067430775   -1.13658875033530
H        24.80172392173498    2.78333227632399   -1.88224898988626
H        23.04737102584779    4.51138337031518   -1.23603304583774
H        20.91442225114353    4.36434923294416    0.94310508180913
76
 energy: -135.982532241805 gnorm: 0.210781192923 xtb: 6.4.1 (bd6e46d)
Co        8.40838120498009    0.02170032560107   -0.00004929250008
C        10.72121035053161   -3.16461194176566    1.29041958717185
C        11.65094389536034   -2.18129030555695    1.25030666642227
C        11.07620971397084   -1.18357880159363    0.38885273397927
C        11.56534942222339    0.04984136943411    0.00568936516853
C        10.98713591493410    1.25650973946186   -0.37423131214689
C        11.47644422069695    2.25113699755085   -1.23797486873654
C        10.50551168285190    3.22349757621080   -1.24141604693168
C         9.47058703707665    2.80079844605951   -0.38061421257692
N         9.75943807018215    1.54825670155080    0.12038603921692
C         8.28963408051529    3.46849804878880   -0.00374709229227
C         7.15072965417400    2.78014035229968    0.36208625990146
C         6.08841120427813    3.15602758998497    1.26448462074880
C         5.18961325079975    2.13908900166719    1.23003214954451
C         5.68254463524126    1.13925121602915    0.30889192358781
N         6.90495597404778    1.50418332530596   -0.13504003714011
C         5.05694840228727   -0.05460072354585   -0.13492489142568
C         5.75967142132209   -1.20259086488327   -0.43471251554295
C         5.35314789691968   -2.27126643872115   -1.32359083628950
C         6.32390060357035   -3.21426115765076   -1.25607453938891
C         7.32204135880659   -2.74526775924011   -0.32262949406929
N         7.00453451779357   -1.49520441305263    0.09999576270715
C         8.46942609673680   -3.42202162286465    0.13757119996630
C         9.62368824329534   -2.74601206494728    0.44715600954616
N         9.85862589802308   -1.49754356966422   -0.05438694501764
H        10.77472162181108   -4.03664369414237    1.91012312749346
H        12.56854431826473   -2.17873514536716    1.81654768385094
H        12.39387384391163    2.20948028723867   -1.80114942712303
H        10.48679601829046    4.10814524790494   -1.84075264604438
H         8.24224655384606    4.55238837655706    0.00590945741312
H         6.05227453984788    4.01853980215926    1.91098493246236
H         4.31771559773719    2.08952678988717    1.84671164875091
H         3.98246395241196   -0.07991674052353   -0.25836241679407
H         4.50257163006141   -2.29882269711564   -1.98354213715466
H         6.34180336769193   -4.09993856516607   -1.85753076926796
H         8.46951254990675   -4.49164783495993    0.25753217922288
C        12.82655602723196    0.04304479858043   -0.01000501709010
C        14.02424518699367    0.02473513783665   -0.00664059096570
C        15.28572593567865   -0.00783890182903   -0.00765273323622
C        16.48110226676722   -0.05208324923647    0.00348183302462
Co       20.91990526713521   -0.00461991445450   -0.16972769464227
C        18.41854537709183    3.25531145743564    1.13290174283349
C        17.48311790139769    2.29814848379164    0.95473486815835
C        18.21814805600262    1.20268742291797    0.34250237772301
C        17.75127826781561   -0.05689964706172    0.02443746356509
C        18.27507588245861   -1.34718872041233   -0.03718884786087
C        17.59565428529595   -2.58205338675348    0.08784591794520
C        18.57263410693515   -3.53527262043102   -0.01047029426897
C        19.80821290764323   -2.86304289168232   -0.20566347637517
N        19.60491004412923   -1.50545777261067   -0.17343962803516
C        21.06620777428055   -3.46258989137431   -0.31034510590926
C        22.26973044832770   -2.79112363943530   -0.15362337032935
C        23.50303245688296   -3.26365760974533    0.42583607609806
C        24.37890295151354   -2.22795969475187    0.32207102374224
C        23.69421491828015   -1.13117416200928   -0.32110706845921
N        22.40072203850536   -1.45910837741127   -0.50586324398963
C        24.21665718784796    0.12826656953341   -0.73227336398330
C        23.51889416263213    1.30893276808634   -0.67673084638863
C        23.94063324736224    2.57476810851490   -1.24808557824236
C        23.01406745703336    3.49328517393131   -0.88667671004977
C        22.01419509302070    2.80546815362360   -0.09101730578012
N        22.30009881580892    1.48792329385205   -0.03651359200732
C        20.87396489255345    3.38902981000252    0.51645975501296
C        19.67446316345414    2.74112657310576    0.61187120881293
N        19.50167324778259    1.46995629230144    0.14774326333036
H        18.23077034625860    4.20836133066874    1.58659815402823
H        16.45311038804153    2.37910694074360    1.27991984138149
H        16.53397020387146   -2.70670984162090    0.24439531084846
H        18.43625243873782   -4.59518570881194    0.07769709610641
H        21.13538303797527   -4.52427921227572   -0.52813777496214
H        23.66203102466465   -4.20836293156408    0.92570201393410
H        25.37502575396216   -2.23447718492934    0.71369661382575
H        25.22420394601394    0.14680695949613   -1.12448669682822
H        24.79718031911132    2.76488993754216   -1.87108931777488
H        23.03060308374971    4.51409889737711   -1.21594066407403
H        20.92609134535099    4.38568639612820    0.92036049417005
76
 energy: -136.049927651649 gnorm: 0.123381622608 xtb: 6.4.1 (bd6e46d)
Co        8.37751843966577    0.02145727036185    0.00589464831007
C        10.70594619580856   -3.17864811487308    1.27824789996712
C        11.62916121428749   -2.17586481699355    1.24007570718275
C        11.01959628389858   -1.16944102780098    0.42043330996354
C        11.52615423171361    0.06779163477351    0.00856031888117
C        10.91636258777941    1.24803985516565   -0.38966852949840
C        11.45739773031762    2.26702329932625   -1.23536702275539
C        10.51300158172469    3.24308613627152   -1.23579146203390
C         9.43399725612777    2.80140997056324   -0.39640702234572
N         9.67494495860407    1.52495816750960    0.04834045904862
C         8.28885543271362    3.47073885930541   -0.00411059890651
C         7.16237408418598    2.74724370223145    0.38823464283702
C         6.08864692566011    3.14909921634123    1.24347409925231
C         5.17087638631774    2.13863369859529    1.21440399011356
C         5.68904792247317    1.12338021512208    0.34066126399967
N         6.95444988006962    1.45934289531029   -0.06717969518864
C         5.06163971164511   -0.04071838491397   -0.12736343792935
C         5.78032858755782   -1.18510848347222   -0.46670354633277
C         5.35208296948848   -2.26804981964825   -1.30924983006006
C         6.31508914593882   -3.22787817722336   -1.23885574464839
C         7.32771913912511   -2.74341251926991   -0.34525234761678
N         7.03726587934022   -1.45025339404181    0.03071055107962
C         8.43769171750090   -3.43874032682988    0.13562718783408
C         9.58593379864376   -2.75182395439157    0.48103005702095
N         9.78175871559288   -1.48046441085077    0.03056634395448
H        10.76461950114908   -4.05573299359714    1.88678490035295
H        12.55926665037401   -2.15551578910526    1.78294845007109
H        12.38169115861017    2.21078800972094   -1.78064523706427
H        10.49193005068345    4.13118441673056   -1.82933769194011
H         8.24499307385804    4.55059860810154    0.00332811156605
H         6.05625037502454    4.01778776190442    1.87933888455832
H         4.29662904278591    2.07897408491344    1.82605154726410
H         3.98820827064043   -0.07260759521823   -0.24617016317349
H         4.49617714091255   -2.28677754239182   -1.95843818784922
H         6.34887145850846   -4.11730581190168   -1.83366250508085
H         8.44745840558912   -4.50804352865882    0.24023067657419
C        12.82092953214415    0.05959689329375   -0.01685842615337
C        14.01783841664042    0.03129780200160   -0.01536786705590
C        15.28604782889710   -0.01052699138392   -0.01568205381195
C        16.47921898380668   -0.07186608470311    0.01489928219516
Co       20.93953288131093   -0.00913722945156   -0.16577765303070
C        18.44878977755090    3.25748928578654    1.13151003708040
C        17.51794287821232    2.28722658657568    0.93889554312081
C        18.26278659782832    1.19937176336524    0.34952188382909
C        17.78504673278684   -0.07951689483178    0.04771116554267
C        18.34230371623508   -1.34430814029043   -0.03764971562490
C        17.62108396606924   -2.58476508692400    0.07321586926757
C        18.57300698470623   -3.53762893859191   -0.03255730590886
C        19.83829898985282   -2.86819782302151   -0.21540144912658
N        19.66295357693800   -1.51089433490770   -0.16059781261524
C        21.06518147717332   -3.47050080074386   -0.29832547636086
C        22.26548915018468   -2.76034239898063   -0.14114486962013
C        23.49252845457205   -3.25075879935652    0.39503710346924
C        24.38872258191210   -2.21885054541265    0.29673864667185
C        23.69244224274223   -1.11762514461366   -0.29474739069527
N        22.36706841432652   -1.42374878763422   -0.44307661362709
C        24.21623398246694    0.11429564963563   -0.72328714987998
C        23.49860427175632    1.30101884241455   -0.70866888315247
C        23.93817644391484    2.56326181249608   -1.24031875491679
C        23.02086350066060    3.49552494203626   -0.86219392618381
C        22.01438848694700    2.80569607046763   -0.10269294244773
N        22.27048352188616    1.46104872736848   -0.09619294746949
C        20.90393464818401    3.40513320267938    0.51137208989651
C        19.70639914826705    2.74248890580261    0.63473202805224
N        19.55452214253484    1.46502889296477    0.18539120087674
H        18.26092842278276    4.21242634224084    1.57818777162627
H        16.48483716310705    2.34599397115925    1.24600124920943
H        16.56352151108122   -2.69607901954404    0.23852523425842
H        18.44508831800595   -4.59848284074525    0.06487537341291
H        21.13153929345393   -4.53438752089272   -0.47887932196238
H        23.65197683185263   -4.19561211997602    0.89176874333248
H        25.38469066119674   -2.22104933436166    0.69155164288550
H        25.22927632245543    0.14879079263514   -1.09643008726172
H        24.79810921751175    2.74440458716479   -1.85715472982566
H        23.01970077218821    4.51857461155350   -1.18189512025870
H        20.94437625153988    4.41606404365908    0.88275360485491
76
 energy: -136.094331607979 gnorm: 0.085872002319 xtb: 6.4.1 (bd6e46d)
Co        8.34052881125135    0.01796078606490    0.01543674014984
C        10.68579171329653   -3.18469212235376    1.27442480261960
C        11.59535001035239   -2.16789072220154    1.23234156837109
C        10.95857741230169   -1.13940128918900    0.46098734371880
C        11.48442485274983    0.07823294368053    0.01117623330193
C        10.85185572902577    1.22763783035933   -0.41830166798394
C        11.42999130548309    2.27026812468172   -1.23220139716868
C        10.50497603455569    3.26033530470648   -1.23387178880011
C         9.39296801812960    2.80134210384702   -0.42784940881157
N         9.59855832856099    1.50349196747663   -0.03127862967259
C         8.27258524774889    3.47369382801548   -0.00347016564580
C         7.17172427081710    2.71933045253487    0.42098361896938
C         6.07968093660821    3.14258867650492    1.23328745901356
C         5.15700619265509    2.13788470841802    1.20583043975542
C         5.69683717569564    1.10058342585393    0.37748318215254
N         6.98573413436352    1.42087071384042    0.00518604346866
C         5.06877714995347   -0.03739101479673   -0.12305610876451
C         5.79693615860709   -1.16791590389625   -0.50360698065193
C         5.34588841555873   -2.26591517934637   -1.30612641885589
C         6.29927795584873   -3.23410052353143   -1.22913801353544
C         7.32956492714034   -2.73578741083243   -0.37382328418717
N         7.06086665388527   -1.41847282788339   -0.03613181545370
C         8.41020700539991   -3.44684001639216    0.13771315650393
C         9.54021658133876   -2.74941609048137    0.52645285861479
N         9.70275871513958   -1.45497565820983    0.11537655425585
H        10.76123364722317   -4.08358742287484    1.85354678906321
H        12.54636114956327   -2.13538608973828    1.73882037527819
H        12.36945822976020    2.21293515947853   -1.75246574557036
H        10.50025495378159    4.16488613753815   -1.80648487220373
H         8.23398410369585    4.55124255185167    0.00218509835858
H         6.04769979665446    4.02780701958341    1.84222690147897
H         4.26460221815572    2.07600258626308    1.79477816006087
H         3.99365960368900   -0.06819544885095   -0.22795482396742
H         4.47488734515342   -2.28080989949444   -1.93200954341551
H         6.34159423869663   -4.14171701478332   -1.79894174728112
H         8.42044397006100   -4.52112356797395    0.21449413569413
C        12.80524451706022    0.06960369311883   -0.02399856212949
C        14.00156443590455    0.03621506922948   -0.02857575566844
C        15.29176448104934   -0.00664039806869   -0.02527112043951
C        16.48466408500395   -0.08462262182333    0.03159086212360
Co       20.96954830633198   -0.01261415710761   -0.15376731217198
C        18.48413228539695    3.25361318232745    1.13157299957149
C        17.56333679572150    2.27454041594386    0.92684173451366
C        18.30890335936197    1.18105653667316    0.36573681037529
C        17.81501551140556   -0.09400379074054    0.07633926885738
C        18.39612076813637   -1.33545426135600   -0.03226287100264
C        17.65355603960214   -2.57713721552711    0.05654513732027
C        18.58731884283048   -3.54254155470927   -0.05649684922427
C        19.86643046344737   -2.87691121566480   -0.22034188085062
N        19.71317256519995   -1.51656583349654   -0.14969054554866
C        21.08351926652105   -3.48321407356160   -0.28112045145512
C        22.26431848657198   -2.73731708738948   -0.12124293504183
C        23.49835006114124   -3.24007433434758    0.37136186455590
C        24.39755110649596   -2.21274048028609    0.27749512209714
C        23.68960066620219   -1.09762193564827   -0.26582594036774
N        22.34980184988886   -1.39625862405835   -0.38414106264648
C        24.21268081359199    0.11225932892500   -0.71676342803604
C        23.47932855016892    1.29436534769091   -0.74388993398184
C        23.94022985091300    2.55595416488859   -1.24040416972828
C        23.03539813763181    3.49327963336684   -0.84669268639028
C        22.01571299186363    2.80315220780440   -0.12208284712916