 Entering Gaussian System
 *********************************************
 Gaussian 98:
 frequency output generated by the xtb code
 *********************************************
                         Standard orientation:
 --------------------------------------------------------------------
  Center     Atomic     Atomic              Coordinates (Angstroms)
  Number     Number      Type              X           Y           Z
 --------------------------------------------------------------------
    1         29             0       11.912832   -0.004299   -0.007638
    2          6             0       14.437857   -3.431632    0.018623
    3          6             0       15.391294   -2.469881    0.018110
    4          6             0       14.703330   -1.210772    0.008216
    5          6             0       15.351269    0.033715    0.001300
    6          6             0       14.676196    1.263442   -0.006959
    7          6             0       15.336393    2.537344   -0.012213
    8          6             0       14.362103    3.477942   -0.015564
    9          6             0       13.110011    2.776603   -0.012818
   10          7             0       13.334732    1.434399   -0.008256
   11          6             0       11.873984    3.398005   -0.013253
   12          6             0       10.653064    2.747223   -0.012489
   13          6             0        9.380634    3.416607   -0.013265
   14          6             0        8.432997    2.451529   -0.016479
   15          6             0        9.125332    1.191292   -0.017547
   16          7             0       10.465544    1.403183   -0.013915
   17          6             0        8.497460   -0.042019   -0.024456
   18          6             0        9.152281   -1.261255   -0.024418
   19          6             0        8.487944   -2.536544   -0.032913
   20          6             0        9.456614   -3.480477   -0.025241
   21          6             0       10.713927   -2.783093   -0.012440
   22          7             0       10.496794   -1.443514   -0.013382
   23          6             0       11.948871   -3.406626    0.000413
   24          6             0       13.170774   -2.757988    0.008466
   25          7             0       13.365953   -1.411141    0.003458
   26          1             0       14.562034   -4.497202    0.024624
   27          1             0       16.458290   -2.580767    0.023449
   28          1             0       16.400759    2.671392   -0.012641
   29          1             0       14.462763    4.545967   -0.019783
   30          1             0       11.862433    4.478470   -0.014800
   31          1             0        9.253758    4.482065   -0.011838
   32          1             0        7.365376    2.558865   -0.017955
   33          1             0        7.417252   -0.053893   -0.030260
   34          1             0        7.422986   -2.667514   -0.043527
   35          1             0        9.353333   -4.548543   -0.028127
   36          1             0       11.961320   -4.487078    0.003027
   37         29             0       43.937984    0.024865   -0.005953
   38          6             0       41.424364    3.402589    0.623748
   39          6             0       40.467769    2.460052    0.448949
   40          6             0       41.151556    1.219627    0.219992
   41          6             0       40.499552   -0.002778   -0.001076
   42          6             0       41.170452   -1.214819   -0.221947
   43          6             0       40.505926   -2.466433   -0.446859
   44          6             0       41.476994   -3.394264   -0.620530
   45          6             0       42.731426   -2.707436   -0.501401
   46          7             0       42.511296   -1.386496   -0.259214
   47          6             0       43.965246   -3.321842   -0.619613
   48          6             0       45.188314   -2.684721   -0.508906
   49          6             0       46.458494   -3.346450   -0.635360
   50          6             0       47.409360   -2.399253   -0.467814
   51          6             0       46.721270   -1.157645   -0.238634
   52          7             0       45.380371   -1.362908   -0.269099
   53          6             0       47.353247    0.054348   -0.021895
   54          6             0       46.702582    1.254948    0.202660
   55          6             0       47.371279    2.507750    0.428390
   56          6             0       46.405840    3.437662    0.608918
   57          6             0       45.146117    2.754385    0.492560
   58          7             0       45.358674    1.436784    0.247016
   59          6             0       43.913295    3.370369    0.614363
   60          6             0       42.689194    2.736154    0.499953
   61          7             0       42.489582    1.412390    0.255168
   62          1             0       41.303763    4.450778    0.817703
   63          1             0       39.401144    2.572608    0.469119
   64          1             0       39.441074   -2.595763   -0.464988
   65          1             0       41.372619   -4.444809   -0.811523
   66          1             0       43.973091   -4.384710   -0.814001
   67          1             0       46.581786   -4.395063   -0.826624
   68          1             0       48.476625   -2.507584   -0.492322
   69          1             0       48.433480    0.063774   -0.027575
   70          1             0       48.436695    2.634656    0.442234
   71          1             0       46.512801    4.487679    0.802296
   72          1             0       43.904574    4.432555    0.812410
   73          6             0       16.747924    0.047742    0.002309
   74          6             0       17.967972    0.049231    0.002465
   75          6             0       19.304052    0.052285    0.001324
   76          6             0       20.528473    0.059096    0.006189
   77          6             0       21.864383    0.056586    0.005831
   78          6             0       23.084552    0.058237    0.002036
   79          6             0       32.766068   -0.013046   -0.008586
   80          6             0       33.986271   -0.016165   -0.005308
   81          6             0       35.322260   -0.018260   -0.003416
   82          6             0       36.546679   -0.017834   -0.000753
   83          6             0       37.882820   -0.014626   -0.000713
   84          6             0       39.102778   -0.012850   -0.000805
   85         29             0       27.925256    0.021651   -0.012473
   86          6             0       25.411880   -3.389468    0.398428
   87          6             0       24.453068   -2.438107    0.298012
   88          6             0       25.134305   -1.184992    0.142705
   89          6             0       24.480464    0.048459   -0.002577
   90          6             0       25.152375    1.271249   -0.153532
   91          6             0       24.489677    2.534355   -0.307680
   92          6             0       25.462469    3.470245   -0.418681
   93          6             0       26.715340    2.776228   -0.331201
   94          7             0       26.493031    1.443060   -0.172671
   95          6             0       27.950387    3.395937   -0.393756
   96          6             0       29.176014    2.760180   -0.310627
   97          6             0       30.439003    3.438353   -0.372540
   98          6             0       31.397726    2.487941   -0.262843
   99          6             0       30.716337    1.231740   -0.135573
  100          7             0       29.378445    1.422391   -0.164706
  101          6             0       31.370071   -0.003927   -0.011114
  102          6             0       30.698173   -1.230057    0.109513
  103          6             0       31.360786   -2.496715    0.231544
  104          6             0       30.387985   -3.433470    0.334927
  105          6             0       29.135231   -2.736280    0.276077
  106          7             0       29.357567   -1.401036    0.136476
  107          6             0       27.900299   -3.353746    0.358765
  108          6             0       26.674770   -2.714736    0.304795
  109          7             0       26.472170   -1.377712    0.152410
  110          1             0       25.293602   -4.448285    0.524193
  111          1             0       23.386721   -2.552577    0.323696
  112          1             0       23.425033    2.665253   -0.326150
  113          1             0       25.359917    4.530353   -0.547223
  114          1             0       27.958473    4.469640   -0.516474
  115          1             0       30.557382    4.498632   -0.484822
  116          1             0       32.464089    2.604741   -0.266361
  117          1             0       32.425385   -2.629235    0.235264
  118          1             0       30.490491   -4.496108    0.441187
  119          1             0       27.892209   -4.428015    0.476418
 --------------------------------------------------------------------
     1 basis functions        1 primitive gaussians
     1 alpha electrons        1 beta electrons

 Harmonic frequencies (cm**-1), IR intensities (km*mol⁻¹),
 Raman scattering activities (A**4/amu), Raman depolarization ratios,
 reduced masses (AMU), force constants (mDyne/A) and normal coordinates:
                      1                      2                      3
                        a                      a                      a 
 Frequencies --    -9.5642                -5.8515                 1.2370
 Red. masses --    11.4823                11.5505                18.8334
 Frc consts  --     0.0000                 0.0000                 0.0000
 IR Inten    --  1055.8689               288.8714                 0.1818
 Raman Activ --     0.0000                 0.0000                 0.0000
 Depolar     --     0.0000                 0.0000                 0.0000
 Atom AN      X      Y      Z        X      Y      Z        X      Y      Z
   1  29    -0.03   0.01   0.01     0.03   0.01  -0.03     0.00  -0.01  -0.17
   2   6    -0.03  -0.01  -0.17     0.02   0.01   0.15     0.01  -0.00  -0.06
   3   6    -0.02  -0.01  -0.13     0.02   0.01   0.12     0.00  -0.00  -0.03
   4   6    -0.02  -0.01  -0.07     0.01   0.01   0.07     0.00  -0.00  -0.03
   5   6    -0.01  -0.01  -0.01     0.01   0.01   0.02     0.00  -0.00  -0.01
   6   6    -0.01  -0.01   0.05     0.01   0.01  -0.03    -0.00  -0.00  -0.01
   7   6    -0.00  -0.01   0.11     0.01   0.01  -0.07    -0.00  -0.00   0.02
   8   6     0.00  -0.00   0.16     0.01   0.01  -0.11    -0.00  -0.00   0.01
   9   6    -0.00   0.00   0.13     0.01   0.01  -0.10    -0.00  -0.00  -0.02
  10   7    -0.01  -0.00   0.07     0.01   0.01  -0.05    -0.00  -0.00  -0.03
  11   6     0.00   0.01   0.17     0.01   0.01  -0.14    -0.00  -0.01  -0.04
  12   6    -0.00   0.01   0.14     0.01   0.01  -0.13    -0.00  -0.01  -0.07
  13   6    -0.00   0.02   0.18     0.01   0.00  -0.18    -0.00  -0.01  -0.08
  14   6    -0.01   0.02   0.14     0.01   0.00  -0.15    -0.00  -0.01  -0.11
  15   6    -0.01   0.02   0.08     0.01   0.00  -0.10    -0.00  -0.01  -0.12
  16   7    -0.01   0.01   0.09     0.01   0.01  -0.09    -0.00  -0.01  -0.09
  17   6    -0.02   0.02   0.02     0.01  -0.00  -0.06     0.00  -0.01  -0.14
  18   6    -0.02   0.02  -0.04     0.02  -0.00   0.00     0.00  -0.01  -0.14
  19   6    -0.03   0.02  -0.10     0.02  -0.00   0.04     0.00  -0.01  -0.17
  20   6    -0.03   0.02  -0.15     0.02  -0.00   0.09     0.01  -0.01  -0.16
  21   6    -0.03   0.01  -0.13     0.02   0.00   0.08     0.00  -0.01  -0.12
  22   7    -0.03   0.01  -0.07     0.02  -0.00   0.03     0.00  -0.01  -0.12
  23   6    -0.03   0.01  -0.16     0.02   0.00   0.12     0.01  -0.01  -0.11
  24   6    -0.03   0.00  -0.14     0.02   0.00   0.11     0.00  -0.00  -0.08
  25   7    -0.02  -0.00  -0.08     0.02   0.00   0.07     0.00  -0.00  -0.06
  26   1    -0.01  -0.00  -0.07     0.01   0.00   0.06     0.00  -0.00  -0.02
  27   1    -0.01  -0.01  -0.04     0.01   0.00   0.04     0.00   0.00  -0.00
  28   1    -0.00  -0.00   0.03     0.00   0.00  -0.02    -0.00   0.00   0.01
  29   1     0.00  -0.00   0.06     0.00   0.00  -0.04    -0.00  -0.00   0.01
  30   1     0.00   0.00   0.06     0.00   0.00  -0.05    -0.00  -0.00  -0.01
  31   1     0.00   0.01   0.07     0.00   0.00  -0.06    -0.00  -0.00  -0.02
  32   1    -0.00   0.01   0.04     0.00  -0.00  -0.05    -0.00  -0.00  -0.04
  33   1    -0.00   0.01   0.01     0.00  -0.00  -0.02     0.00  -0.00  -0.05
  34   1    -0.01   0.01  -0.03     0.00  -0.00   0.01     0.00  -0.00  -0.05
  35   1    -0.01   0.01  -0.06     0.00  -0.00   0.04     0.00  -0.00  -0.05
  36   1    -0.01   0.00  -0.06     0.01   0.00   0.05     0.00  -0.00  -0.03
  37  29     0.04   0.02   0.01    -0.03   0.02  -0.03    -0.00  -0.01  -0.17
  38   6     0.03   0.05  -0.21    -0.03   0.01  -0.08     0.01  -0.00  -0.02
  39   6     0.03   0.04  -0.15    -0.02  -0.00  -0.06     0.01  -0.00  -0.00
  40   6     0.02   0.03  -0.08    -0.02  -0.00  -0.03     0.01  -0.00  -0.02
  41   6     0.01   0.02  -0.00    -0.01  -0.01  -0.00    -0.00  -0.00  -0.01
  42   6     0.01   0.01   0.08    -0.00  -0.01   0.02    -0.01  -0.00  -0.02
  43   6     0.01  -0.00   0.15     0.00  -0.02   0.05    -0.01  -0.00  -0.00
  44   6     0.01  -0.02   0.21     0.00  -0.02   0.07    -0.01  -0.00  -0.02
  45   6     0.01  -0.01   0.17     0.00  -0.01   0.05    -0.01  -0.00  -0.05
  46   7     0.01   0.00   0.10    -0.00  -0.01   0.03    -0.01  -0.00  -0.05
  47   6     0.00  -0.03   0.20     0.00  -0.01   0.07    -0.01  -0.01  -0.07
  48   6     0.01  -0.02   0.17     0.00   0.00   0.05    -0.01  -0.01  -0.10
  49   6     0.00  -0.04   0.21     0.00   0.01   0.06    -0.02  -0.01  -0.12
  50   6     0.01  -0.03   0.16    -0.00   0.01   0.04    -0.01  -0.01  -0.14
  51   6     0.01  -0.02   0.08    -0.01   0.02   0.01    -0.01  -0.01  -0.13
  52   7     0.01  -0.01   0.10    -0.01   0.01   0.02    -0.01  -0.01  -0.11
  53   6     0.02  -0.01   0.01    -0.01   0.02  -0.02    -0.00  -0.01  -0.14
  54   6     0.02   0.01  -0.07    -0.02   0.03  -0.05     0.00  -0.01  -0.13
  55   6     0.02   0.02  -0.14    -0.02   0.03  -0.08     0.01  -0.01  -0.14
  56   6     0.02   0.03  -0.20    -0.03   0.03  -0.10     0.01  -0.01  -0.12
  57   6     0.02   0.03  -0.16    -0.03   0.03  -0.08     0.01  -0.01  -0.10
  58   7     0.02   0.01  -0.09    -0.02   0.02  -0.05     0.01  -0.01  -0.11
  59   6     0.03   0.04  -0.20    -0.03   0.02  -0.09     0.01  -0.00  -0.07
  60   6     0.03   0.04  -0.17    -0.02   0.01  -0.07     0.01  -0.00  -0.05
  61   7     0.02   0.02  -0.09    -0.02   0.01  -0.04     0.01  -0.00  -0.05
  62   1     0.01   0.02  -0.08    -0.01   0.00  -0.03     0.01  -0.00  -0.01
  63   1     0.01   0.01  -0.05    -0.01  -0.00  -0.02     0.00  -0.00   0.00
  64   1     0.00  -0.00   0.04     0.00  -0.01   0.02    -0.00  -0.00   0.01
  65   1     0.00  -0.01   0.08     0.00  -0.01   0.03    -0.01  -0.00  -0.00
  66   1    -0.00  -0.01   0.08     0.00  -0.00   0.03    -0.01  -0.00  -0.02
  67   1    -0.00  -0.01   0.08     0.00   0.00   0.03    -0.01  -0.00  -0.04
  68   1     0.00  -0.01   0.05    -0.00   0.01   0.01    -0.00  -0.00  -0.05
  69   1     0.01  -0.00   0.00    -0.00   0.01  -0.01    -0.00  -0.00  -0.05
  70   1     0.01   0.00  -0.04    -0.01   0.01  -0.02     0.00  -0.00  -0.05
  71   1     0.01   0.01  -0.07    -0.01   0.01  -0.03     0.01  -0.00  -0.04
  72   1     0.01   0.01  -0.08    -0.01   0.01  -0.03     0.01  -0.00  -0.02
  73   6    -0.01  -0.02  -0.01     0.01   0.01   0.03     0.00   0.00   0.02
  74   6    -0.01  -0.02  -0.02     0.01   0.01   0.04     0.00   0.00   0.03
  75   6    -0.01  -0.02  -0.02     0.01   0.01   0.04     0.00   0.00   0.05
  76   6    -0.01  -0.03  -0.02     0.01   0.01   0.04    -0.00   0.01   0.07
  77   6    -0.01  -0.03  -0.02     0.01   0.01   0.04    -0.00   0.01   0.09
  78   6    -0.01  -0.02  -0.01     0.01   0.01   0.04    -0.00   0.01   0.10
  79   6     0.01   0.00   0.00    -0.01  -0.03   0.00    -0.00   0.01   0.10
  80   6     0.01   0.01   0.00    -0.01  -0.03   0.00    -0.00   0.01   0.09
  81   6     0.01   0.01   0.00    -0.01  -0.03   0.00    -0.00   0.00   0.07
  82   6     0.01   0.02  -0.00    -0.01  -0.03  -0.00    -0.00   0.00   0.06
  83   6     0.01   0.02  -0.00    -0.01  -0.02  -0.00    -0.00   0.00   0.04
  84   6     0.01   0.02  -0.00    -0.01  -0.02  -0.00    -0.00  -0.00   0.02
  85  29    -0.00  -0.03  -0.01    -0.00  -0.02   0.04    -0.00   0.02   0.28
  86   6     0.01  -0.02  -0.05    -0.01  -0.03  -0.19    -0.00   0.01   0.16
  87   6     0.00  -0.03  -0.04    -0.00  -0.01  -0.12    -0.00   0.01   0.14
  88   6    -0.01  -0.02  -0.03     0.00  -0.01  -0.05    -0.00   0.01   0.13
  89   6    -0.01  -0.02  -0.01     0.01   0.00   0.03     0.00   0.01   0.11
  90   6    -0.01  -0.02   0.01     0.01   0.01   0.10     0.00   0.01   0.10
  91   6    -0.01  -0.01   0.02     0.01   0.02   0.18     0.00   0.01   0.09
  92   6    -0.01  -0.01   0.04     0.01   0.02   0.24     0.00   0.01   0.09
  93   6    -0.01  -0.01   0.03     0.01   0.01   0.19     0.00   0.01   0.10
  94   7    -0.01  -0.01   0.01     0.01   0.00   0.12     0.00   0.01   0.12
  95   6    -0.01  -0.01   0.04     0.01   0.02   0.22     0.00   0.01   0.10
  96   6    -0.01  -0.00   0.03     0.01   0.00   0.18     0.00   0.01   0.10
  97   6    -0.01   0.00   0.04     0.01   0.00   0.22     0.00   0.01   0.09
  98   6    -0.00   0.00   0.03     0.00  -0.01   0.16     0.00   0.01   0.09
  99   6     0.00  -0.00   0.01    -0.00  -0.01   0.08     0.00   0.01   0.10
 100   7     0.00  -0.01   0.02    -0.00  -0.01   0.11     0.00   0.01   0.12
 101   6     0.01  -0.00  -0.00    -0.01  -0.02   0.01    -0.00   0.01   0.11
 102   6     0.01  -0.01  -0.01    -0.01  -0.03  -0.07    -0.00   0.01   0.13
 103   6     0.01  -0.01  -0.02    -0.01  -0.04  -0.15    -0.00   0.01   0.14
 104   6     0.01  -0.01  -0.04    -0.01  -0.04  -0.21    -0.00   0.01   0.16
 105   6     0.01  -0.01  -0.03    -0.01  -0.03  -0.16    -0.00   0.01   0.16
 106   7     0.01  -0.01  -0.02    -0.01  -0.03  -0.08    -0.00   0.01   0.15
 107   6     0.01  -0.01  -0.04    -0.01  -0.04  -0.20    -0.00   0.01   0.17
 108   6     0.00  -0.02  -0.04    -0.01  -0.03  -0.15    -0.00   0.01   0.16
 109   7    -0.01  -0.02  -0.03     0.00  -0.02  -0.07    -0.00   0.01   0.15
 110   1     0.00  -0.01  -0.02    -0.00  -0.01  -0.07    -0.00   0.00   0.05
 111   1     0.00  -0.01  -0.01    -0.00  -0.00  -0.04    -0.00   0.00   0.04
 112   1    -0.00  -0.00   0.01     0.00   0.01   0.06     0.00   0.00   0.02
 113   1    -0.00  -0.00   0.01     0.00   0.01   0.09     0.00   0.00   0.02
 114   1    -0.00  -0.00   0.02     0.00   0.01   0.08     0.00   0.00   0.03
 115   1    -0.00   0.00   0.01     0.00   0.00   0.08     0.00   0.00   0.02
 116   1    -0.00   0.00   0.01     0.00  -0.00   0.05     0.00   0.00   0.03
 117   1     0.00  -0.00  -0.01    -0.00  -0.01  -0.05    -0.00   0.00   0.04
 118   1     0.00  -0.00  -0.01    -0.00  -0.01  -0.08    -0.00   0.00   0.05
 119   1     0.00  -0.00  -0.02    -0.00  -0.01  -0.08    -0.00   0.00   0.05
                      4                      5                      6
                        a                      a                      a 
 Frequencies --     2.1064                 6.4498                 6.7207
 Red. masses --    17.5024                11.5641                11.5485
 Frc consts  --     0.0000                 0.0000                 0.0000
 IR Inten    --     2.9416                 4.2890                 3.0984
 Raman Activ --     0.0000                 0.0000                 0.0000
 Depolar     --     0.0000                 0.0000                 0.0000
 Atom AN      X      Y      Z        X      Y      Z        X      Y      Z
   1  29     0.00  -0.16   0.01    -0.02   0.01  -0.00     0.00  -0.01   0.01
   2   6     0.07  -0.02   0.00    -0.09  -0.06  -0.01     0.05   0.03  -0.09
   3   6     0.05   0.00  -0.00    -0.07  -0.08  -0.04     0.04   0.05  -0.11
   4   6     0.02  -0.01  -0.00    -0.04  -0.06  -0.04     0.02   0.04  -0.09
   5   6    -0.00   0.00  -0.00    -0.00  -0.08  -0.06     0.00   0.05  -0.10
   6   6    -0.03  -0.01  -0.00     0.02  -0.07  -0.07    -0.02   0.04  -0.09
   7   6    -0.05   0.00  -0.01     0.06  -0.08  -0.11    -0.03   0.05  -0.11
   8   6    -0.07  -0.02  -0.00     0.08  -0.06  -0.11    -0.05   0.03  -0.09
   9   6    -0.06  -0.04  -0.00     0.06  -0.03  -0.07    -0.04   0.01  -0.05
  10   7    -0.03  -0.04  -0.00     0.03  -0.03  -0.06    -0.02   0.02  -0.05
  11   6    -0.07  -0.07   0.00     0.08   0.00  -0.06    -0.05  -0.00  -0.01
  12   6    -0.06  -0.09   0.00     0.06   0.04  -0.02    -0.04  -0.02   0.04
  13   6    -0.07  -0.12   0.01     0.08   0.07   0.00    -0.05  -0.04   0.09
  14   6    -0.05  -0.14   0.01     0.05   0.09   0.04    -0.03  -0.05   0.14
  15   6    -0.02  -0.12   0.01     0.02   0.07   0.05    -0.02  -0.04   0.12
  16   7    -0.03  -0.11   0.01     0.03   0.04   0.01    -0.02  -0.02   0.06
  17   6     0.00  -0.14   0.01    -0.01   0.09   0.08     0.00  -0.05   0.15
  18   6     0.03  -0.12   0.01    -0.04   0.07   0.08     0.02  -0.04   0.12
  19   6     0.05  -0.14   0.02    -0.07   0.09   0.11     0.04  -0.05   0.14
  20   6     0.07  -0.12   0.01    -0.09   0.07   0.10     0.05  -0.04   0.09
  21   6     0.06  -0.09   0.01    -0.08   0.04   0.06     0.04  -0.02   0.04
  22   7     0.03  -0.10   0.01    -0.05   0.04   0.05     0.02  -0.02   0.06
  23   6     0.07  -0.07   0.01    -0.09   0.01   0.04     0.05  -0.00  -0.01
  24   6     0.06  -0.04   0.00    -0.08  -0.03   0.01     0.04   0.02  -0.05
  25   7     0.03  -0.04   0.00    -0.04  -0.03  -0.01     0.02   0.02  -0.05
  26   1     0.03  -0.00   0.00    -0.03  -0.02   0.00     0.02   0.01  -0.03
  27   1     0.02   0.01  -0.00    -0.02  -0.03  -0.02     0.01   0.02  -0.04
  28   1    -0.02   0.01  -0.00     0.02  -0.03  -0.04    -0.01   0.02  -0.04
  29   1    -0.03  -0.00  -0.00     0.03  -0.02  -0.04    -0.02   0.01  -0.03
  30   1    -0.03  -0.02  -0.00     0.03   0.00  -0.02    -0.02  -0.00  -0.00
  31   1    -0.03  -0.04   0.00     0.03   0.02  -0.00    -0.02  -0.01   0.03
  32   1    -0.02  -0.05   0.00     0.02   0.03   0.02    -0.01  -0.02   0.05
  33   1     0.00  -0.05   0.00    -0.00   0.03   0.03     0.00  -0.02   0.06
  34   1     0.02  -0.05   0.01    -0.02   0.03   0.04     0.01  -0.02   0.05
  35   1     0.03  -0.03   0.00    -0.03   0.02   0.03     0.02  -0.01   0.03
  36   1     0.03  -0.02   0.00    -0.03   0.00   0.01     0.02  -0.00  -0.00
  37  29     0.00  -0.16   0.01     0.02  -0.00  -0.01    -0.00   0.01  -0.01
  38   6     0.07  -0.01  -0.02     0.10   0.05   0.06    -0.03  -0.04   0.09
  39   6     0.05   0.01  -0.02     0.07   0.08   0.07    -0.03  -0.05   0.11
  40   6     0.02  -0.01  -0.01     0.04   0.06   0.05    -0.01  -0.04   0.09
  41   6    -0.00   0.01  -0.00     0.00   0.08   0.05    -0.00  -0.05   0.10
  42   6    -0.03  -0.01   0.01    -0.03   0.06   0.03     0.01  -0.04   0.09
  43   6    -0.05   0.00   0.01    -0.06   0.08   0.04     0.02  -0.05   0.12
  44   6    -0.07  -0.02   0.02    -0.08   0.06   0.02     0.03  -0.04   0.10
  45   6    -0.06  -0.05   0.02    -0.07   0.03   0.00     0.03  -0.02   0.06
  46   7    -0.03  -0.04   0.01    -0.03   0.04   0.01     0.01  -0.02   0.06
  47   6    -0.07  -0.07   0.03    -0.08   0.00  -0.02     0.03  -0.00   0.02
  48   6    -0.06  -0.10   0.03    -0.07  -0.03  -0.04     0.03   0.02  -0.04
  49   6    -0.07  -0.13   0.03    -0.08  -0.06  -0.07     0.03   0.04  -0.09
  50   6    -0.05  -0.15   0.03    -0.06  -0.08  -0.08     0.02   0.06  -0.14
  51   6    -0.02  -0.13   0.02    -0.02  -0.07  -0.06     0.01   0.05  -0.12
  52   7    -0.03  -0.11   0.02    -0.03  -0.04  -0.04     0.01   0.03  -0.06
  53   6     0.00  -0.14   0.02     0.01  -0.08  -0.07    -0.00   0.06  -0.15
  54   6     0.03  -0.13   0.01     0.04  -0.07  -0.05    -0.01   0.05  -0.12
  55   6     0.05  -0.14  -0.00     0.07  -0.08  -0.06    -0.03   0.06  -0.15
  56   6     0.07  -0.12  -0.01     0.10  -0.06  -0.03    -0.04   0.05  -0.10
  57   6     0.06  -0.09  -0.01     0.08  -0.03  -0.01    -0.03   0.02  -0.05
  58   7     0.03  -0.10   0.00     0.05  -0.04  -0.03    -0.02   0.03  -0.07
  59   6     0.07  -0.06  -0.02     0.10  -0.01   0.02    -0.03   0.00   0.00
  60   6     0.06  -0.04  -0.02     0.08   0.02   0.03    -0.03  -0.02   0.04
  61   7     0.03  -0.04  -0.01     0.05   0.03   0.03    -0.02  -0.02   0.05
  62   1     0.03  -0.00  -0.01     0.04   0.02   0.02    -0.01  -0.01   0.03
  63   1     0.02   0.01  -0.01     0.02   0.03   0.02    -0.01  -0.02   0.04
  64   1    -0.02   0.01   0.00    -0.02   0.03   0.02     0.01  -0.02   0.05
  65   1    -0.03  -0.01   0.01    -0.03   0.02   0.01     0.01  -0.01   0.03
  66   1    -0.03  -0.02   0.01    -0.03   0.00  -0.01     0.01  -0.00   0.01
  67   1    -0.03  -0.04   0.01    -0.03  -0.02  -0.02     0.01   0.01  -0.02
  68   1    -0.02  -0.05   0.01    -0.02  -0.03  -0.03     0.01   0.02  -0.05
  69   1     0.00  -0.05   0.01     0.00  -0.03  -0.03    -0.00   0.02  -0.06
  70   1     0.02  -0.05   0.00     0.02  -0.03  -0.02    -0.01   0.02  -0.06
  71   1     0.03  -0.03  -0.01     0.04  -0.02  -0.01    -0.01   0.01  -0.03
  72   1     0.03  -0.02  -0.01     0.04  -0.00   0.01    -0.01   0.00   0.00
  73   6    -0.00   0.03  -0.00    -0.00  -0.11  -0.08     0.00   0.06  -0.13
  74   6    -0.00   0.05  -0.01    -0.00  -0.13  -0.08     0.00   0.07  -0.14
  75   6    -0.00   0.07  -0.01    -0.00  -0.14  -0.09     0.00   0.08  -0.15
  76   6    -0.00   0.09  -0.01    -0.00  -0.14  -0.08     0.00   0.08  -0.14
  77   6    -0.00   0.10  -0.01    -0.00  -0.13  -0.07     0.00   0.07  -0.13
  78   6    -0.00   0.10  -0.01    -0.00  -0.11  -0.06     0.00   0.06  -0.11
  79   6    -0.00   0.11  -0.01     0.00   0.11   0.07    -0.00  -0.06   0.11
  80   6    -0.00   0.10  -0.01     0.00   0.12   0.08    -0.00  -0.07   0.13
  81   6    -0.00   0.09  -0.01     0.00   0.14   0.08    -0.00  -0.08   0.14
  82   6    -0.00   0.08  -0.01     0.00   0.14   0.08    -0.00  -0.08   0.15
  83   6    -0.00   0.06  -0.01     0.00   0.13   0.07    -0.00  -0.08   0.14
  84   6    -0.00   0.03  -0.00     0.00   0.11   0.06    -0.00  -0.07   0.13
  85  29    -0.00   0.25  -0.02     0.00  -0.00   0.02     0.00  -0.00  -0.00
  86   6     0.00   0.10  -0.03     0.07  -0.06  -0.06    -0.05   0.03  -0.08
  87   6     0.00   0.10  -0.03     0.05  -0.09  -0.07    -0.04   0.04  -0.10
  88   6    -0.00   0.10  -0.02     0.02  -0.07  -0.05    -0.02   0.03  -0.08
  89   6    -0.00   0.11  -0.01    -0.00  -0.08  -0.05     0.00   0.04  -0.09
  90   6    -0.00   0.11   0.00    -0.03  -0.06  -0.02     0.02   0.04  -0.07
  91   6    -0.00   0.11   0.01    -0.05  -0.08  -0.02     0.04   0.04  -0.08
  92   6    -0.00   0.11   0.02    -0.07  -0.05   0.00     0.05   0.03  -0.05
  93   6    -0.00   0.11   0.01    -0.06  -0.03   0.02     0.04   0.02  -0.02
  94   7    -0.00   0.12   0.00    -0.03  -0.04  -0.00     0.02   0.02  -0.04
  95   6    -0.00   0.11   0.02    -0.07   0.00   0.04     0.05   0.00   0.01
  96   6    -0.00   0.11   0.01    -0.06   0.03   0.06     0.04  -0.02   0.04
  97   6    -0.00   0.11   0.02    -0.07   0.06   0.08     0.05  -0.03   0.08
  98   6    -0.00   0.11   0.01    -0.05   0.08   0.08     0.04  -0.04   0.10
  99   6    -0.00   0.11   0.00    -0.02   0.06   0.06     0.02  -0.04   0.08
 100   7    -0.00   0.12   0.00    -0.03   0.04   0.05     0.02  -0.02   0.05
 101   6    -0.00   0.11  -0.01     0.00   0.08   0.06    -0.00  -0.04   0.09
 102   6     0.00   0.11  -0.02     0.03   0.06   0.04    -0.02  -0.04   0.07
 103   6     0.00   0.11  -0.03     0.06   0.07   0.04    -0.04  -0.04   0.08
 104   6     0.00   0.11  -0.03     0.07   0.05   0.01    -0.05  -0.03   0.05
 105   6     0.00   0.11  -0.03     0.06   0.02   0.00    -0.04  -0.02   0.02
 106   7     0.00   0.11  -0.02     0.04   0.03   0.02    -0.02  -0.02   0.03
 107   6     0.00   0.10  -0.03     0.07  -0.00  -0.02    -0.05  -0.00  -0.01
 108   6     0.00   0.10  -0.03     0.06  -0.03  -0.04    -0.04   0.01  -0.04
 109   7    -0.00   0.11  -0.02     0.03  -0.04  -0.03    -0.02   0.02  -0.05
 110   1     0.00   0.03  -0.01     0.03  -0.02  -0.02    -0.02   0.01  -0.03
 111   1     0.00   0.03  -0.01     0.02  -0.03  -0.03    -0.01   0.02  -0.04
 112   1    -0.00   0.03   0.00    -0.02  -0.03  -0.01     0.01   0.02  -0.03
 113   1    -0.00   0.03   0.01    -0.03  -0.02   0.00     0.02   0.01  -0.02
 114   1    -0.00   0.03   0.01    -0.03   0.00   0.02     0.02   0.00   0.00
 115   1    -0.00   0.03   0.01    -0.03   0.02   0.03     0.02  -0.01   0.02
 116   1    -0.00   0.03   0.00    -0.02   0.03   0.03     0.01  -0.02   0.04
 117   1     0.00   0.03  -0.01     0.02   0.03   0.01    -0.01  -0.02   0.03
 118   1     0.00   0.03  -0.01     0.03   0.02   0.00    -0.02  -0.01   0.01
 119   1     0.00   0.03  -0.01     0.03  -0.00  -0.01    -0.02  -0.00  -0.01
                      7                      8                      9
                        a                      a                      a 
 Frequencies --    10.2659                17.8873                19.0769
 Red. masses --    13.0984                12.9604                13.1320
 Frc consts  --     0.0000                 0.0000                 0.0000
 IR Inten    --     8.6575                39.6852                18.1767
 Raman Activ --     0.0000                 0.0000                 0.0000
 Depolar     --     0.0000                 0.0000                 0.0000
 Atom AN      X      Y      Z        X      Y      Z        X      Y      Z
   1  29     0.01   0.00   0.05    -0.01   0.05   0.04    -0.00  -0.06   0.05
   2   6     0.00   0.00   0.13     0.06   0.07   0.09    -0.08  -0.08   0.11
   3   6     0.00   0.00   0.15     0.05   0.09   0.07    -0.06  -0.10   0.08
   4   6     0.00   0.00   0.12     0.02   0.08   0.05    -0.03  -0.09   0.05
   5   6     0.00   0.00   0.13    -0.00   0.09   0.03    -0.00  -0.10   0.03
   6   6     0.00   0.00   0.13    -0.03   0.08   0.04     0.03  -0.09   0.05
   7   6     0.00   0.00   0.17    -0.05   0.09   0.06     0.05  -0.10   0.09
   8   6     0.00   0.00   0.16    -0.07   0.07   0.08     0.08  -0.08   0.11
   9   6     0.00   0.00   0.11    -0.06   0.04   0.06     0.06  -0.05   0.09
  10   7     0.00   0.00   0.10    -0.03   0.05   0.05     0.03  -0.06   0.06
  11   6     0.00   0.00   0.07    -0.07   0.02   0.05     0.07  -0.02   0.08
  12   6     0.00   0.00  -0.01    -0.06  -0.01   0.01     0.06   0.00   0.02
  13   6     0.00   0.00  -0.07    -0.07  -0.03  -0.03     0.08   0.03  -0.02
  14   6     0.00  -0.00  -0.14    -0.05  -0.05  -0.07     0.05   0.06  -0.09
  15   6     0.00  -0.00  -0.12    -0.03  -0.04  -0.06     0.03   0.04  -0.08
  16   7     0.00   0.00  -0.04    -0.03  -0.01  -0.02     0.03   0.01  -0.01
  17   6     0.01  -0.00  -0.17    -0.00  -0.05  -0.09    -0.00   0.05  -0.12
  18   6     0.01  -0.00  -0.13     0.02  -0.04  -0.06    -0.03   0.04  -0.08
  19   6     0.01  -0.00  -0.16     0.05  -0.05  -0.07    -0.06   0.05  -0.09
  20   6     0.01  -0.00  -0.10     0.07  -0.03  -0.02    -0.08   0.03  -0.02
  21   6     0.00  -0.00  -0.03     0.05  -0.00   0.02    -0.06   0.00   0.02
  22   7     0.01  -0.00  -0.06     0.03  -0.01  -0.01    -0.04   0.01  -0.02
  23   6     0.00  -0.00   0.04     0.06   0.02   0.06    -0.08  -0.02   0.08
  24   6     0.00  -0.00   0.08     0.05   0.05   0.07    -0.06  -0.05   0.09
  25   7     0.00  -0.00   0.09     0.03   0.05   0.05    -0.04  -0.06   0.06
  26   1     0.00   0.00   0.04     0.02   0.02   0.03    -0.03  -0.02   0.04
  27   1     0.00   0.00   0.05     0.01   0.03   0.02    -0.02  -0.04   0.02
  28   1     0.00   0.00   0.06    -0.02   0.03   0.02     0.02  -0.04   0.03
  29   1     0.00   0.00   0.05    -0.03   0.02   0.03     0.03  -0.02   0.04
  30   1     0.00   0.00   0.03    -0.03   0.01   0.02     0.03  -0.01   0.03
  31   1     0.00  -0.00  -0.02    -0.03  -0.01  -0.00     0.03   0.01  -0.00
  32   1     0.00  -0.00  -0.06    -0.02  -0.02  -0.03     0.02   0.02  -0.04
  33   1     0.00  -0.00  -0.07    -0.00  -0.02  -0.04    -0.00   0.02  -0.05
  34   1     0.00  -0.00  -0.07     0.01  -0.02  -0.03    -0.02   0.02  -0.04
  35   1     0.00  -0.00  -0.03     0.03  -0.01  -0.00    -0.03   0.01  -0.00
  36   1     0.00  -0.00   0.01     0.02   0.01   0.02    -0.03  -0.01   0.03
  37  29    -0.01  -0.00   0.05     0.01   0.06  -0.05     0.00  -0.05  -0.04
  38   6     0.02  -0.00   0.15     0.07   0.09  -0.11    -0.08  -0.07  -0.08
  39   6     0.02   0.00   0.16     0.05   0.10  -0.08    -0.06  -0.09  -0.06
  40   6     0.01   0.00   0.13     0.03   0.08  -0.05    -0.03  -0.08  -0.04
  41   6    -0.00   0.01   0.13     0.00   0.09  -0.03     0.00  -0.10  -0.03
  42   6    -0.01   0.00   0.13    -0.02   0.09  -0.06     0.03  -0.08  -0.04
  43   6    -0.02   0.00   0.16    -0.04   0.11  -0.09     0.06  -0.09  -0.06
  44   6    -0.03  -0.00   0.15    -0.06   0.09  -0.12     0.08  -0.07  -0.07
  45   6    -0.03  -0.01   0.10    -0.05   0.06  -0.10     0.06  -0.04  -0.05
  46   7    -0.02  -0.00   0.09    -0.03   0.07  -0.07     0.03  -0.06  -0.04
  47   6    -0.03  -0.01   0.05    -0.06   0.04  -0.09     0.08  -0.02  -0.04
  48   6    -0.03  -0.00  -0.02    -0.05   0.00  -0.03     0.06   0.01  -0.01
  49   6    -0.03  -0.00  -0.09    -0.06  -0.03   0.01     0.08   0.03   0.02
  50   6    -0.03   0.00  -0.16    -0.04  -0.06   0.09     0.06   0.05   0.06
  51   6    -0.02   0.00  -0.13    -0.02  -0.05   0.08     0.03   0.03   0.05
  52   7    -0.02  -0.00  -0.05    -0.03  -0.01   0.01     0.04   0.01   0.01
  53   6    -0.01   0.01  -0.17     0.01  -0.07   0.13     0.00   0.04   0.07
  54   6     0.01   0.00  -0.13     0.03  -0.05   0.09    -0.03   0.03   0.05
  55   6     0.02   0.00  -0.16     0.05  -0.07   0.10    -0.06   0.05   0.05
  56   6     0.02  -0.00  -0.09     0.07  -0.04   0.03    -0.08   0.03   0.01
  57   6     0.02  -0.00  -0.02     0.06  -0.00  -0.02    -0.06   0.01  -0.01
  58   7     0.01  -0.00  -0.05     0.03  -0.01   0.02    -0.03   0.01   0.01
  59   6     0.02  -0.01   0.05     0.07   0.03  -0.07    -0.08  -0.02  -0.05
  60   6     0.02  -0.00   0.10     0.06   0.06  -0.09    -0.06  -0.04  -0.06
  61   7     0.01  -0.00   0.09     0.03   0.06  -0.06    -0.03  -0.05  -0.04
  62   1     0.01  -0.00   0.05     0.03   0.03  -0.04    -0.03  -0.02  -0.03
  63   1     0.01   0.00   0.06     0.02   0.04  -0.02    -0.02  -0.03  -0.02
  64   1    -0.01   0.00   0.06    -0.01   0.04  -0.03     0.02  -0.03  -0.02
  65   1    -0.01  -0.00   0.05    -0.02   0.03  -0.04     0.03  -0.02  -0.02
  66   1    -0.01  -0.00   0.02    -0.02   0.01  -0.04     0.03  -0.00  -0.02
  67   1    -0.01  -0.00  -0.02    -0.02  -0.01  -0.00     0.03   0.01   0.00
  68   1    -0.01   0.00  -0.06    -0.01  -0.03   0.04     0.02   0.02   0.03
  69   1    -0.00   0.00  -0.07     0.00  -0.03   0.05     0.00   0.02   0.03
  70   1     0.00   0.00  -0.06     0.02  -0.03   0.04    -0.02   0.02   0.02
  71   1     0.01  -0.00  -0.02     0.03  -0.01   0.01    -0.03   0.01   0.00
  72   1     0.01  -0.00   0.02     0.03   0.01  -0.03    -0.03  -0.00  -0.02
  73   6     0.00   0.00   0.14    -0.00   0.11   0.01    -0.00  -0.12   0.00
  74   6     0.00   0.00   0.13    -0.00   0.09  -0.02    -0.00  -0.10  -0.04
  75   6     0.00  -0.00   0.11    -0.00   0.07  -0.06    -0.00  -0.07  -0.09
  76   6     0.00  -0.00   0.08    -0.00   0.03  -0.08    -0.00  -0.02  -0.12
  77   6     0.00  -0.00   0.05    -0.00  -0.00  -0.10    -0.00   0.02  -0.14
  78   6     0.00  -0.00   0.01    -0.00  -0.04  -0.11    -0.00   0.05  -0.14
  79   6    -0.00   0.02   0.02     0.00  -0.06   0.14     0.00   0.05   0.10
  80   6    -0.00   0.02   0.06     0.00  -0.03   0.14     0.00   0.01   0.09
  81   6    -0.00   0.02   0.09     0.00   0.01   0.12     0.00  -0.03   0.07
  82   6    -0.00   0.02   0.12     0.00   0.05   0.09     0.00  -0.08   0.04
  83   6    -0.00   0.02   0.14     0.00   0.08   0.05     0.00  -0.11   0.01
  84   6    -0.00   0.01   0.15     0.00   0.11   0.00     0.00  -0.12  -0.02
  85  29    -0.00  -0.01  -0.16    -0.00  -0.14  -0.00     0.00   0.15   0.00
  86   6     0.01  -0.01  -0.08    -0.02  -0.05  -0.10    -0.01   0.06  -0.09
  87   6     0.01  -0.01  -0.05    -0.02  -0.05  -0.12    -0.01   0.06  -0.12
  88   6     0.00  -0.01  -0.04    -0.01  -0.05  -0.09    -0.00   0.06  -0.10
  89   6     0.00  -0.01  -0.03    -0.00  -0.05  -0.10    -0.00   0.06  -0.12
  90   6    -0.00  -0.01  -0.05     0.01  -0.05  -0.09     0.00   0.06  -0.10
  91   6    -0.01  -0.01  -0.07     0.01  -0.05  -0.12     0.01   0.06  -0.12
  92   6    -0.01  -0.01  -0.10     0.02  -0.05  -0.10     0.01   0.06  -0.08
  93   6    -0.01  -0.01  -0.11     0.01  -0.06  -0.06     0.01   0.06  -0.04
  94   7    -0.00  -0.01  -0.08     0.01  -0.06  -0.06     0.01   0.07  -0.05
  95   6    -0.01  -0.01  -0.13     0.02  -0.06  -0.01     0.01   0.06   0.02
  96   6    -0.01  -0.00  -0.11     0.01  -0.06   0.04     0.01   0.06   0.06
  97   6    -0.01  -0.00  -0.10     0.02  -0.06   0.09     0.01   0.06   0.10
  98   6    -0.01   0.01  -0.06     0.01  -0.06   0.12     0.01   0.06   0.12
  99   6    -0.00   0.01  -0.05     0.01  -0.06   0.10     0.01   0.06   0.09
 100   7    -0.01  -0.00  -0.08     0.01  -0.06   0.06     0.01   0.07   0.06
 101   6    -0.00   0.01  -0.02     0.00  -0.06   0.12     0.00   0.06   0.10
 102   6     0.00   0.01  -0.04    -0.00  -0.06   0.10    -0.00   0.06   0.09
 103   6     0.00   0.01  -0.04    -0.01  -0.06   0.13    -0.01   0.06   0.12
 104   6     0.01   0.00  -0.07    -0.02  -0.06   0.09    -0.01   0.06   0.10
 105   6     0.01  -0.00  -0.08    -0.01  -0.06   0.04    -0.01   0.06   0.05
 106   7     0.00   0.00  -0.07    -0.01  -0.06   0.06    -0.00   0.07   0.06
 107   6     0.01  -0.01  -0.10    -0.02  -0.06  -0.01    -0.01   0.06   0.01
 108   6     0.01  -0.01  -0.08    -0.02  -0.06  -0.05    -0.01   0.06  -0.04
 109   7     0.00  -0.01  -0.07    -0.01  -0.06  -0.06    -0.00   0.07  -0.06
 110   1     0.00  -0.00  -0.03    -0.01  -0.02  -0.03    -0.00   0.02  -0.03
 111   1     0.00  -0.00  -0.01    -0.01  -0.01  -0.04    -0.00   0.02  -0.05
 112   1    -0.00  -0.00  -0.02     0.00  -0.01  -0.04     0.00   0.02  -0.05
 113   1    -0.00  -0.00  -0.04     0.01  -0.02  -0.03     0.01   0.02  -0.02
 114   1    -0.00  -0.00  -0.04     0.01  -0.02  -0.00     0.01   0.02   0.01
 115   1    -0.00  -0.00  -0.04     0.01  -0.02   0.03     0.00   0.02   0.03
 116   1    -0.00   0.00  -0.01     0.00  -0.02   0.05     0.00   0.02   0.04
 117   1     0.00   0.00  -0.01    -0.00  -0.02   0.05    -0.00   0.02   0.04
 118   1     0.00   0.00  -0.02    -0.01  -0.02   0.03    -0.00   0.02   0.03
 119   1     0.00  -0.00  -0.03    -0.01  -0.02  -0.00    -0.00   0.02   0.00
                     10                     11                     12
                        a                      a                      a 
 Frequencies --    26.5272                28.3342                30.6421
 Red. masses --    11.9806                13.0762                18.7340
 Frc consts  --     0.0000                 0.0000                 0.0000
 IR Inten    --    27.5731                 8.2447                 5.6381
 Raman Activ --     0.0000                 0.0000                 0.0000
 Depolar     --     0.0000                 0.0000                 0.0000
 Atom AN      X      Y      Z        X      Y      Z        X      Y      Z
   1  29     0.02  -0.07  -0.02    -0.10  -0.01   0.04    -0.26  -0.00  -0.02
   2   6    -0.07  -0.09  -0.04    -0.06  -0.01   0.11    -0.11   0.02  -0.00
   3   6    -0.05  -0.11  -0.02    -0.05  -0.02   0.04    -0.10   0.01   0.02
   4   6    -0.02  -0.09  -0.00    -0.04  -0.01   0.00    -0.09   0.02   0.02
   5   6     0.01  -0.11   0.01    -0.03  -0.02  -0.05    -0.08   0.01   0.03
   6   6     0.03  -0.09  -0.00    -0.03  -0.02  -0.01    -0.10  -0.00  -0.00
   7   6     0.06  -0.11  -0.02    -0.04  -0.02   0.02    -0.11   0.01  -0.02
   8   6     0.09  -0.08  -0.04    -0.03  -0.02   0.08    -0.12  -0.01  -0.06
   9   6     0.07  -0.05  -0.04    -0.03  -0.02   0.08    -0.11  -0.02  -0.06
  10   7     0.04  -0.07  -0.02    -0.04  -0.02   0.03    -0.11  -0.02  -0.03
  11   6     0.08  -0.03  -0.05    -0.03  -0.01   0.10    -0.12  -0.02  -0.08
  12   6     0.07   0.00  -0.02    -0.03  -0.01   0.04    -0.12  -0.02  -0.05
  13   6     0.09   0.03  -0.00    -0.03   0.00   0.00    -0.11  -0.01  -0.05
  14   6     0.06   0.05   0.03    -0.04   0.01  -0.08    -0.12  -0.01  -0.01
  15   6     0.03   0.04   0.03    -0.04   0.00  -0.08    -0.12  -0.01   0.01
  16   7     0.04   0.01   0.00    -0.05  -0.01  -0.01    -0.13  -0.02  -0.02
  17   6     0.01   0.05   0.05    -0.05   0.01  -0.13    -0.12  -0.01   0.04
  18   6    -0.02   0.04   0.03    -0.05   0.01  -0.07    -0.11  -0.00   0.03
  19   6    -0.05   0.05   0.03    -0.05   0.01  -0.06    -0.10  -0.01   0.04
  20   6    -0.07   0.03  -0.00    -0.06   0.01   0.03    -0.10   0.00   0.01
  21   6    -0.06  -0.00  -0.02    -0.05   0.00   0.07    -0.10   0.01  -0.00
  22   7    -0.03   0.00   0.00    -0.06   0.01   0.00    -0.12   0.01   0.01
  23   6    -0.07  -0.03  -0.05    -0.06   0.00   0.13    -0.10   0.02  -0.02
  24   6    -0.06  -0.06  -0.04    -0.05  -0.00   0.11    -0.10   0.03  -0.01
  25   7    -0.03  -0.07  -0.02    -0.05  -0.00   0.05    -0.10   0.03  -0.00
  26   1    -0.03  -0.03  -0.02    -0.02  -0.00   0.05    -0.03   0.00  -0.00
  27   1    -0.01  -0.04  -0.00    -0.02  -0.01   0.01    -0.03   0.00   0.01
  28   1     0.02  -0.04  -0.00    -0.01  -0.01  -0.00    -0.03   0.00  -0.00
  29   1     0.03  -0.03  -0.02    -0.01  -0.01   0.03    -0.04  -0.00  -0.02
  30   1     0.03  -0.01  -0.02    -0.01  -0.00   0.04    -0.03  -0.01  -0.03
  31   1     0.03   0.01  -0.00    -0.01   0.00   0.01    -0.03  -0.00  -0.02
  32   1     0.02   0.02   0.02    -0.01   0.00  -0.04    -0.03  -0.00   0.00
  33   1     0.00   0.02   0.02    -0.01   0.00  -0.05    -0.04  -0.00   0.02
  34   1    -0.02   0.02   0.02    -0.02   0.00  -0.03    -0.03  -0.00   0.02
  35   1    -0.03   0.01  -0.01    -0.02   0.00   0.02    -0.02   0.00   0.00
  36   1    -0.03  -0.01  -0.02    -0.02   0.00   0.05    -0.03   0.01  -0.01
  37  29    -0.01   0.05  -0.01     0.10   0.03   0.04     0.26  -0.01  -0.02
  38   6     0.05   0.08  -0.04     0.09   0.02   0.11     0.09  -0.03  -0.02
  39   6     0.04   0.09  -0.00     0.07   0.05   0.04     0.09  -0.03   0.01
  40   6     0.02   0.07   0.01     0.05   0.04   0.01     0.09  -0.03   0.01
  41   6    -0.01   0.08   0.03     0.03   0.06  -0.03     0.08  -0.03   0.02
  42   6    -0.03   0.07   0.01     0.03   0.05   0.00     0.10  -0.02   0.00
  43   6    -0.05   0.09  -0.01     0.02   0.05   0.03     0.12  -0.02  -0.02
  44   6    -0.07   0.08  -0.04     0.01   0.03   0.09     0.14  -0.00  -0.05
  45   6    -0.06   0.05  -0.04     0.01   0.02   0.09     0.13   0.02  -0.04
  46   7    -0.03   0.06  -0.02     0.03   0.04   0.04     0.12   0.01  -0.01
  47   6    -0.07   0.03  -0.06     0.01   0.01   0.10     0.13   0.03  -0.06
  48   6    -0.06   0.00  -0.03     0.01  -0.00   0.04     0.13   0.02  -0.03
  49   6    -0.07  -0.02  -0.01     0.00  -0.01   0.00     0.13   0.02  -0.03
  50   6    -0.05  -0.05   0.03     0.02  -0.01  -0.08     0.13   0.02   0.01
  51   6    -0.03  -0.04   0.03     0.03  -0.00  -0.08     0.12   0.01   0.02
  52   7    -0.03  -0.01  -0.00     0.03   0.01  -0.00     0.13   0.02  -0.00
  53   6    -0.01  -0.05   0.06     0.05  -0.00  -0.12     0.12   0.01   0.04
  54   6     0.02  -0.04   0.03     0.06  -0.01  -0.07     0.11   0.00   0.03
  55   6     0.04  -0.05   0.03     0.07  -0.01  -0.06     0.09   0.01   0.03
  56   6     0.06  -0.02  -0.01     0.08  -0.02   0.02     0.08   0.00   0.00
  57   6     0.04   0.00  -0.02     0.08  -0.02   0.06     0.09  -0.01  -0.02
  58   7     0.02  -0.01   0.00     0.07  -0.01  -0.00     0.11  -0.01  -0.00
  59   6     0.05   0.03  -0.05     0.08  -0.01   0.12     0.09  -0.02  -0.04
  60   6     0.04   0.05  -0.04     0.08   0.00   0.10     0.09  -0.03  -0.03
  61   7     0.02   0.06  -0.01     0.06   0.02   0.04     0.10  -0.03  -0.02
  62   1     0.02   0.02  -0.02     0.03   0.00   0.04     0.03  -0.01  -0.01
  63   1     0.01   0.03   0.00     0.02   0.02   0.01     0.03  -0.01   0.01
  64   1    -0.02   0.03   0.00     0.00   0.02   0.00     0.04  -0.01  -0.00
  65   1    -0.03   0.02  -0.02     0.00   0.01   0.04     0.04   0.00  -0.02
  66   1    -0.03   0.01  -0.02    -0.00  -0.00   0.04     0.04   0.01  -0.02
  67   1    -0.03  -0.01  -0.01    -0.00  -0.01   0.01     0.04   0.01  -0.01
  68   1    -0.02  -0.02   0.01     0.00  -0.00  -0.04     0.04   0.00   0.01
  69   1    -0.00  -0.02   0.02     0.01  -0.00  -0.05     0.04   0.00   0.02
  70   1     0.01  -0.02   0.02     0.02  -0.00  -0.03     0.03   0.00   0.02
  71   1     0.02  -0.01  -0.01     0.03  -0.01   0.02     0.02   0.00  -0.00
  72   1     0.02   0.01  -0.02     0.03  -0.01   0.05     0.02  -0.00  -0.01
  73   6     0.01  -0.12   0.04    -0.03  -0.02  -0.11    -0.07   0.01   0.06
  74   6     0.01  -0.07   0.07    -0.03  -0.01  -0.16    -0.07   0.01   0.09
  75   6     0.00  -0.01   0.08    -0.03   0.01  -0.20    -0.07   0.01   0.10
  76   6     0.00   0.08   0.09    -0.03   0.03  -0.20    -0.07   0.01   0.10
  77   6     0.00   0.13   0.08    -0.03   0.04  -0.18    -0.06   0.00   0.09
  78   6     0.00   0.17   0.07    -0.02   0.04  -0.13    -0.06   0.00   0.07
  79   6    -0.00  -0.15   0.04     0.02  -0.09  -0.15     0.06   0.02   0.06
  80   6    -0.00  -0.12   0.07     0.02  -0.07  -0.19     0.06   0.01   0.08
  81   6    -0.00  -0.08   0.09     0.03  -0.03  -0.21     0.07  -0.01   0.09
  82   6    -0.00  -0.01   0.10     0.03   0.02  -0.19     0.07  -0.03   0.09
  83   6    -0.00   0.04   0.09     0.03   0.05  -0.15     0.07  -0.04   0.07
  84   6    -0.01   0.08   0.06     0.03   0.08  -0.09     0.08  -0.04   0.05
  85  29    -0.00   0.02  -0.03    -0.00  -0.02   0.06     0.00   0.01  -0.03
  86   6    -0.12   0.10  -0.01    -0.06   0.04   0.08     0.00  -0.01  -0.07
  87   6    -0.09   0.14   0.03    -0.05   0.04   0.00    -0.01  -0.02  -0.02
  88   6    -0.04   0.11   0.03    -0.04   0.03  -0.02    -0.04  -0.00   0.00
  89   6     0.00   0.14   0.05    -0.02   0.04  -0.06    -0.05   0.00   0.04
  90   6     0.05   0.11   0.03     0.00   0.03  -0.01    -0.05   0.00   0.03
  91   6     0.09   0.14   0.02     0.03   0.05   0.02    -0.03   0.02   0.04
  92   6     0.12   0.10  -0.01     0.05   0.04   0.10    -0.01   0.00   0.01
  93   6     0.10   0.05  -0.03     0.04   0.01   0.10    -0.02  -0.02  -0.01
  94   7     0.06   0.07  -0.00     0.01   0.01   0.04    -0.05  -0.01   0.01
  95   6     0.12   0.00  -0.06     0.05  -0.01   0.14    -0.01  -0.03  -0.04
  96   6     0.10  -0.04  -0.05     0.05  -0.03   0.08     0.01  -0.01  -0.04
  97   6     0.12  -0.09  -0.06     0.06  -0.04   0.05    -0.00   0.01  -0.05
  98   6     0.09  -0.12  -0.03     0.05  -0.06  -0.03     0.02   0.03  -0.02
  99   6     0.04  -0.10  -0.01     0.04  -0.06  -0.05     0.04   0.01   0.00
 100   7     0.05  -0.05  -0.03     0.04  -0.04   0.02     0.04  -0.00  -0.01
 101   6    -0.00  -0.12   0.01     0.02  -0.07  -0.09     0.05   0.02   0.03
 102   6    -0.05  -0.09  -0.01    -0.00  -0.06  -0.04     0.05   0.02   0.02
 103   6    -0.09  -0.12  -0.02    -0.03  -0.07  -0.02     0.03   0.01   0.02
 104   6    -0.12  -0.09  -0.05    -0.05  -0.04   0.06     0.01   0.01  -0.02
 105   6    -0.10  -0.04  -0.05    -0.04  -0.02   0.07     0.02   0.02  -0.04
 106   7    -0.06  -0.05  -0.02    -0.01  -0.03   0.02     0.05   0.02  -0.02
 107   6    -0.12   0.00  -0.05    -0.05   0.02   0.12     0.01   0.03  -0.08
 108   6    -0.10   0.05  -0.03    -0.05   0.03   0.08    -0.01   0.02  -0.06
 109   7    -0.05   0.07  -0.00    -0.04   0.02   0.03    -0.04   0.02  -0.03
 110   1    -0.05   0.03  -0.01    -0.02   0.01   0.03     0.00  -0.00  -0.03
 111   1    -0.03   0.05   0.01    -0.01   0.01  -0.01    -0.00  -0.01  -0.00
 112   1     0.03   0.05   0.01     0.01   0.02  -0.00    -0.01   0.01   0.02
 113   1     0.05   0.03  -0.01     0.02   0.01   0.04    -0.00   0.00   0.00
 114   1     0.05  -0.00  -0.02     0.02  -0.00   0.05    -0.00  -0.01  -0.02
 115   1     0.05  -0.03  -0.02     0.02  -0.01   0.03    -0.00   0.00  -0.02
 116   1     0.03  -0.05  -0.00     0.01  -0.02  -0.02     0.00   0.01  -0.01
 117   1    -0.03  -0.04  -0.00    -0.01  -0.03  -0.02     0.01  -0.00   0.01
 118   1    -0.05  -0.03  -0.02    -0.02  -0.01   0.03     0.00   0.00  -0.01
 119   1    -0.05   0.00  -0.02    -0.02   0.01   0.05     0.00   0.01  -0.03
                     13                     14                     15
                        a                      a                      a 
 Frequencies --    37.3330                38.5194                38.7425
 Red. masses --    10.9866                10.9301                10.9302
 Frc consts  --     0.0000                 0.0000                 0.0000
 IR Inten    --     0.3619                21.7322                 9.4694
 Raman Activ --     0.0000                 0.0000                 0.0000
 Depolar     --     0.0000                 0.0000                 0.0000
 Atom AN      X      Y      Z        X      Y      Z        X      Y      Z
   1  29    -0.03  -0.00  -0.00    -0.00  -0.00  -0.00     0.00   0.00  -0.00
   2   6    -0.01   0.00   0.03    -0.00  -0.00   0.03    -0.00   0.00   0.30
   3   6    -0.01   0.00   0.03    -0.00  -0.00   0.03    -0.00   0.00   0.30
   4   6    -0.01   0.00   0.02    -0.00  -0.00   0.01     0.00   0.00   0.14
   5   6    -0.01   0.00   0.00    -0.00   0.00   0.00     0.00  -0.00  -0.00
   6   6    -0.01  -0.00  -0.02    -0.00   0.00  -0.01     0.00  -0.00  -0.14
   7   6    -0.01  -0.00  -0.03    -0.00   0.00  -0.03     0.00  -0.00  -0.30
   8   6    -0.01  -0.00  -0.03    -0.00   0.00  -0.03     0.00  -0.00  -0.30
   9   6    -0.01  -0.00  -0.01    -0.00   0.00  -0.01     0.00  -0.00  -0.13
  10   7    -0.01  -0.00  -0.01    -0.00   0.00  -0.01     0.00   0.00  -0.07
  11   6    -0.01  -0.00   0.00    -0.00   0.00  -0.00     0.00  -0.00   0.00
  12   6    -0.01  -0.00   0.01    -0.00   0.00   0.01     0.00   0.00   0.14
  13   6    -0.01  -0.00   0.03    -0.00   0.00   0.03     0.00  -0.00   0.29
  14   6    -0.01  -0.00   0.03    -0.00  -0.00   0.03     0.00  -0.00   0.29
  15   6    -0.01  -0.00   0.01    -0.00  -0.00   0.01     0.00  -0.00   0.14
  16   7    -0.01  -0.00   0.01    -0.00   0.00   0.01     0.00   0.00   0.08
  17   6    -0.01  -0.00  -0.00    -0.00  -0.00   0.00     0.00   0.00  -0.00
  18   6    -0.01   0.00  -0.01    -0.00  -0.00  -0.01     0.00   0.00  -0.14
  19   6    -0.01  -0.00  -0.03    -0.00  -0.00  -0.02     0.00   0.00  -0.29
  20   6    -0.01   0.00  -0.03    -0.00  -0.00  -0.03     0.00   0.00  -0.29
  21   6    -0.01   0.00  -0.02    -0.00  -0.00  -0.01     0.00  -0.00  -0.14
  22   7    -0.01   0.00  -0.01    -0.00  -0.00  -0.01     0.00  -0.00  -0.08
  23   6    -0.01   0.00  -0.00    -0.00  -0.00  -0.00     0.00   0.00  -0.00
  24   6    -0.01   0.00   0.01    -0.00  -0.00   0.01     0.00   0.00   0.14
  25   7    -0.01   0.00   0.01    -0.00  -0.00   0.01     0.00  -0.00   0.07
  26   1    -0.00   0.00   0.01    -0.00  -0.00   0.01    -0.00   0.00   0.11
  27   1    -0.00  -0.00   0.01    -0.00  -0.00   0.01    -0.00   0.00   0.11
  28   1    -0.00   0.00  -0.01    -0.00   0.00  -0.01     0.00  -0.00  -0.12
  29   1    -0.00  -0.00  -0.01    -0.00   0.00  -0.01     0.00  -0.00  -0.11
  30   1    -0.00  -0.00   0.00    -0.00   0.00  -0.00     0.00  -0.00   0.00
  31   1    -0.00  -0.00   0.01    -0.00   0.00   0.01     0.00  -0.00   0.11
  32   1    -0.00  -0.00   0.01    -0.00   0.00   0.01     0.00  -0.00   0.11
  33   1    -0.00  -0.00  -0.00    -0.00  -0.00   0.00     0.00   0.00  -0.00
  34   1    -0.00  -0.00  -0.01    -0.00  -0.00  -0.01     0.00   0.00  -0.11
  35   1    -0.00   0.00  -0.01    -0.00  -0.00  -0.01     0.00   0.00  -0.11
  36   1    -0.00   0.00  -0.00    -0.00  -0.00  -0.00     0.00   0.00  -0.00
  37  29     0.03   0.00  -0.00     0.00  -0.00   0.00    -0.00  -0.00  -0.00
  38   6     0.01  -0.01   0.03    -0.00   0.05  -0.29    -0.00  -0.00   0.02
  39   6     0.01  -0.01   0.03     0.00   0.05  -0.30    -0.00  -0.00   0.02
  40   6     0.01  -0.00   0.02     0.00   0.02  -0.14    -0.00  -0.00   0.01
  41   6     0.01  -0.00   0.00     0.00  -0.00  -0.00    -0.00  -0.00   0.00
  42   6     0.01   0.00  -0.01     0.00  -0.03   0.14    -0.00   0.00  -0.01
  43   6     0.01   0.01  -0.03     0.00  -0.05   0.30    -0.00   0.00  -0.02
  44   6     0.01   0.01  -0.03     0.00  -0.05   0.29    -0.00   0.00  -0.02
  45   6     0.01   0.01  -0.02     0.00  -0.02   0.13    -0.00   0.00  -0.01
  46   7     0.01   0.00  -0.01     0.00  -0.01   0.07    -0.00   0.00  -0.01
  47   6     0.01   0.00  -0.00     0.00   0.00  -0.00    -0.00   0.00  -0.00
  48   6     0.01  -0.00   0.01     0.00   0.03  -0.14    -0.00  -0.00   0.01
  49   6     0.01  -0.00   0.03    -0.00   0.05  -0.29    -0.00  -0.00   0.02
  50   6     0.01  -0.01   0.03    -0.00   0.05  -0.29    -0.00  -0.00   0.02
  51   6     0.01  -0.00   0.02     0.00   0.03  -0.14    -0.00  -0.00   0.01
  52   7     0.01   0.00   0.01     0.00   0.02  -0.08    -0.00  -0.00   0.01
  53   6     0.01  -0.00   0.00     0.00   0.00  -0.00    -0.00  -0.00   0.00
  54   6     0.01   0.00  -0.01     0.00  -0.02   0.13    -0.00   0.00  -0.01
  55   6     0.01   0.01  -0.03     0.00  -0.05   0.29    -0.00   0.00  -0.02
  56   6     0.01   0.01  -0.03     0.00  -0.05   0.29    -0.00   0.00  -0.02
  57   6     0.01   0.00  -0.02     0.00  -0.03   0.14    -0.00   0.00  -0.01
  58   7     0.01   0.00  -0.01     0.00  -0.02   0.08    -0.00   0.00  -0.01
  59   6     0.01  -0.00  -0.00    -0.00  -0.00   0.01    -0.00   0.00  -0.00
  60   6     0.01  -0.00   0.01    -0.00   0.02  -0.13    -0.00  -0.00   0.01
  61   7     0.01  -0.00   0.01     0.00   0.01  -0.07    -0.00  -0.00   0.01
  62   1     0.00  -0.00   0.01    -0.00   0.02  -0.11    -0.00  -0.00   0.01
  63   1     0.00  -0.00   0.01     0.00   0.02  -0.11    -0.00  -0.00   0.01
  64   1     0.00   0.00  -0.01     0.00  -0.02   0.11    -0.00   0.00  -0.01
  65   1     0.00   0.00  -0.01     0.00  -0.02   0.11    -0.00   0.00  -0.01
  66   1     0.00   0.00  -0.00     0.00   0.00  -0.00    -0.00   0.00  -0.00
  67   1     0.00  -0.00   0.01    -0.00   0.02  -0.11    -0.00  -0.00   0.01
  68   1     0.00  -0.00   0.01    -0.00   0.02  -0.11    -0.00  -0.00   0.01
  69   1     0.00  -0.00   0.00     0.00   0.00  -0.00    -0.00  -0.00   0.00
  70   1     0.00   0.00  -0.01     0.00  -0.02   0.11    -0.00   0.00  -0.01
  71   1     0.00   0.00  -0.01     0.00  -0.02   0.11    -0.00   0.00  -0.01
  72   1     0.00  -0.00  -0.00    -0.00  -0.00   0.00    -0.00   0.00  -0.00
  73   6    -0.01   0.00   0.00    -0.00   0.00   0.00     0.00  -0.00  -0.00
  74   6    -0.01   0.00   0.00    -0.00  -0.00   0.00     0.00  -0.00  -0.00
  75   6    -0.01   0.00   0.00    -0.00  -0.00   0.00     0.00  -0.00  -0.00
  76   6    -0.01   0.00   0.00    -0.00  -0.00   0.00     0.00  -0.00  -0.00
  77   6    -0.01   0.00   0.00    -0.00  -0.00   0.00     0.00  -0.00   0.00
  78   6    -0.01   0.00   0.00    -0.00  -0.00   0.00     0.00   0.00   0.00
  79   6     0.01  -0.00   0.00     0.00   0.00   0.00    -0.00   0.00  -0.00
  80   6     0.01  -0.00   0.00     0.00   0.00   0.00    -0.00   0.00   0.00
  81   6     0.01  -0.00   0.00     0.00  -0.00   0.00    -0.00  -0.00   0.00
  82   6     0.01  -0.00   0.00     0.00  -0.00   0.00    -0.00  -0.00   0.00
  83   6     0.01  -0.00   0.00     0.00  -0.00  -0.00    -0.00  -0.00   0.00
  84   6     0.01  -0.00   0.00     0.00  -0.00  -0.00    -0.00  -0.00   0.00
  85  29     0.00   0.00  -0.00    -0.00   0.00  -0.00    -0.00   0.00   0.00
  86   6     0.00   0.04   0.29     0.00   0.00   0.03    -0.00  -0.00  -0.03
  87   6     0.00   0.03   0.30     0.00   0.00   0.03    -0.00  -0.00  -0.03
  88   6    -0.00   0.02   0.14    -0.00   0.00   0.01     0.00  -0.00  -0.01
  89   6    -0.00   0.00   0.00    -0.00  -0.00  -0.00     0.00   0.00   0.00
  90   6    -0.00  -0.02  -0.13    -0.00  -0.00  -0.01     0.00   0.00   0.02
  91   6    -0.00  -0.03  -0.29    -0.00  -0.00  -0.03    -0.00   0.00   0.04
  92   6     0.00  -0.03  -0.29    -0.00  -0.00  -0.03    -0.00   0.00   0.04
  93   6     0.00  -0.02  -0.13    -0.00  -0.00  -0.01    -0.00   0.00   0.02
  94   7    -0.00  -0.01  -0.07    -0.00  -0.00  -0.01     0.00   0.00   0.01
  95   6     0.00  -0.00  -0.00    -0.00  -0.00   0.00    -0.00   0.00   0.00
  96   6     0.00   0.01   0.13    -0.00   0.00   0.01    -0.00  -0.00  -0.02
  97   6    -0.00   0.03   0.29    -0.00   0.00   0.03    -0.00  -0.00  -0.03
  98   6     0.00   0.03   0.29    -0.00   0.00   0.03    -0.00  -0.00  -0.03
  99   6     0.00   0.01   0.13     0.00   0.00   0.01    -0.00  -0.00  -0.02
 100   7     0.00   0.01   0.07     0.00   0.00   0.01    -0.00  -0.00  -0.01
 101   6     0.00  -0.00  -0.00     0.00   0.00   0.00    -0.00   0.00  -0.00
 102   6     0.00  -0.01  -0.14     0.00  -0.00  -0.01    -0.00   0.00   0.01
 103   6    -0.00  -0.03  -0.30     0.00  -0.00  -0.03    -0.00   0.00   0.03
 104   6    -0.00  -0.03  -0.30     0.00  -0.00  -0.03     0.00   0.00   0.03
 105   6    -0.00  -0.01  -0.14     0.00  -0.00  -0.01    -0.00   0.00   0.01
 106   7     0.00  -0.01  -0.07     0.00   0.00  -0.01    -0.00   0.00   0.01
 107   6    -0.00   0.00  -0.00     0.00   0.00  -0.00    -0.00  -0.00  -0.00
 108   6     0.00   0.02   0.13     0.00   0.00   0.01    -0.00  -0.00  -0.02
 109   7    -0.00   0.01   0.07    -0.00   0.00   0.01     0.00  -0.00  -0.01
 110   1     0.00   0.01   0.11     0.00   0.00   0.01    -0.00  -0.00  -0.01
 111   1     0.00   0.01   0.11     0.00   0.00   0.01    -0.00  -0.00  -0.01
 112   1     0.00  -0.01  -0.11    -0.00  -0.00  -0.01    -0.00   0.00   0.01
 113   1     0.00  -0.01  -0.11    -0.00  -0.00  -0.01    -0.00   0.00   0.01
 114   1     0.00  -0.00  -0.00    -0.00  -0.00   0.00    -0.00   0.00   0.00
 115   1    -0.00   0.01   0.11    -0.00   0.00   0.01    -0.00  -0.00  -0.01
 116   1    -0.00   0.01   0.11    -0.00   0.00   0.01    -0.00  -0.00  -0.01
 117   1    -0.00  -0.01  -0.11     0.00  -0.00  -0.01    -0.00   0.00   0.01
 118   1    -0.00  -0.01  -0.11    -0.00  -0.00  -0.01     0.00   0.00   0.01
 119   1    -0.00   0.00  -0.00     0.00   0.00  -0.00    -0.00  -0.00  -0.00
                     16                     17                     18
                        a                      a                      a 
 Frequencies --    40.1936                52.4597                69.0669
 Red. masses --    11.3517                11.6427                13.5483
 Frc consts  --     0.0000                 0.0000                 0.0000
 IR Inten    --     3.1916                 0.8565                 2.3880
 Raman Activ --     0.0000                 0.0000                 0.0000
 Depolar     --     0.0000                 0.0000                 0.0000
 Atom AN      X      Y      Z        X      Y      Z        X      Y      Z
   1  29     0.00   0.01   0.01     0.00   0.00   0.05    -0.00  -0.01  -0.15
   2   6     0.01   0.01   0.07     0.00   0.00  -0.04    -0.00  -0.00   0.01
   3   6     0.00   0.01  -0.04     0.00   0.01   0.08    -0.00  -0.01  -0.09
   4   6     0.00   0.01  -0.08     0.00   0.01   0.11    -0.00  -0.01  -0.12
   5   6     0.00   0.01  -0.14    -0.00   0.01   0.17     0.00  -0.01  -0.13
   6   6    -0.00   0.01  -0.07    -0.00   0.01   0.12     0.00  -0.01  -0.12
   7   6    -0.00   0.01  -0.04    -0.00   0.01   0.08     0.00  -0.01  -0.09
   8   6    -0.00   0.01   0.08    -0.00   0.00  -0.04     0.00  -0.00   0.01
   9   6    -0.00   0.00   0.10    -0.00   0.00  -0.07     0.00  -0.00   0.03
  10   7    -0.00   0.00   0.00    -0.00   0.00   0.03     0.00  -0.00  -0.07
  11   6    -0.00   0.00   0.16    -0.00   0.00  -0.16     0.00  -0.00   0.14
  12   6    -0.00   0.00   0.09    -0.00   0.00  -0.11     0.00  -0.00   0.11
  13   6    -0.00  -0.00   0.07    -0.00  -0.00  -0.10     0.00   0.00   0.15
  14   6    -0.00  -0.00  -0.05    -0.00  -0.00   0.02     0.00   0.00   0.02
  15   6     0.00  -0.00  -0.08    -0.00  -0.00   0.07     0.00   0.00  -0.07
  16   7    -0.00  -0.00   0.01    -0.00  -0.00  -0.00     0.00  -0.00  -0.02
  17   6     0.00  -0.00  -0.14    -0.00  -0.00   0.14     0.00   0.00  -0.13
  18   6     0.00  -0.00  -0.08     0.00  -0.00   0.07    -0.00   0.00  -0.07
  19   6     0.01  -0.00  -0.05     0.00  -0.00   0.02    -0.00   0.00   0.02
  20   6     0.01  -0.00   0.07     0.00  -0.00  -0.10    -0.01   0.00   0.15
  21   6     0.01   0.00   0.09     0.00   0.00  -0.11    -0.00  -0.00   0.10
  22   7     0.00   0.00   0.01     0.00  -0.00  -0.00    -0.00   0.00  -0.02
  23   6     0.01   0.00   0.16     0.01   0.00  -0.16    -0.01  -0.00   0.14
  24   6     0.00   0.00   0.09     0.00   0.00  -0.07    -0.00  -0.00   0.03
  25   7     0.00   0.00   0.00     0.00   0.00   0.03    -0.00  -0.00  -0.07
  26   1     0.00   0.00   0.04     0.00   0.00  -0.03    -0.00  -0.00   0.02
  27   1     0.00   0.00  -0.03     0.00   0.00   0.04    -0.00  -0.00  -0.04
  28   1    -0.00   0.00  -0.03    -0.00   0.00   0.04     0.00  -0.00  -0.04
  29   1    -0.00   0.00   0.04    -0.00   0.00  -0.03     0.00  -0.00   0.02
  30   1    -0.00   0.00   0.07    -0.00   0.00  -0.07     0.00  -0.00   0.07
  31   1    -0.00  -0.00   0.04    -0.00  -0.00  -0.05     0.00   0.00   0.07
  32   1    -0.00  -0.00  -0.03    -0.00  -0.00   0.02     0.00   0.00   0.00
  33   1     0.00  -0.00  -0.06    -0.00  -0.00   0.06     0.00   0.00  -0.05
  34   1     0.00  -0.00  -0.03     0.00  -0.00   0.02    -0.00   0.00   0.00
  35   1     0.00  -0.00   0.04     0.00  -0.00  -0.05    -0.00   0.00   0.07
  36   1     0.00   0.00   0.07     0.00   0.00  -0.07    -0.00  -0.00   0.07
  37  29    -0.01  -0.00  -0.01    -0.00   0.00   0.05     0.00  -0.02   0.15
  38   6    -0.01   0.01  -0.08     0.01   0.02  -0.04     0.01   0.01  -0.01
  39   6    -0.01  -0.01   0.04     0.00  -0.00   0.08     0.01  -0.00   0.08
  40   6    -0.00  -0.02   0.08     0.00  -0.01   0.11     0.00  -0.01   0.11
  41   6    -0.00  -0.03   0.14    -0.00  -0.02   0.16     0.00  -0.01   0.13
  42   6    -0.00  -0.02   0.08    -0.00  -0.01   0.11    -0.00  -0.01   0.11
  43   6     0.00  -0.02   0.04    -0.01  -0.00   0.08    -0.00  -0.00   0.08
  44   6     0.00   0.01  -0.08    -0.01   0.02  -0.04    -0.01   0.01  -0.01
  45   6     0.00   0.01  -0.10    -0.01   0.02  -0.07    -0.01   0.01  -0.03
  46   7    -0.00  -0.00  -0.00    -0.00   0.00   0.03    -0.00  -0.00   0.07
  47   6     0.00   0.03  -0.16    -0.01   0.03  -0.15    -0.01   0.03  -0.13
  48   6     0.00   0.02  -0.09    -0.01   0.02  -0.10    -0.01   0.02  -0.10
  49   6     0.00   0.01  -0.07    -0.01   0.02  -0.10    -0.01   0.02  -0.14
  50   6     0.00  -0.01   0.05    -0.01  -0.01   0.02    -0.01  -0.00  -0.02
  51   6    -0.00  -0.01   0.08    -0.00  -0.02   0.07    -0.00  -0.02   0.07
  52   7    -0.00   0.00  -0.01    -0.00  -0.00  -0.00    -0.00  -0.00   0.02
  53   6    -0.00  -0.02   0.14    -0.00  -0.03   0.13     0.00  -0.03   0.13
  54   6    -0.00  -0.01   0.08     0.00  -0.02   0.07     0.00  -0.02   0.07
  55   6    -0.01  -0.01   0.05     0.01  -0.01   0.02     0.01  -0.00  -0.02
  56   6    -0.01   0.01  -0.07     0.01   0.02  -0.10     0.01   0.02  -0.14
  57   6    -0.01   0.02  -0.09     0.00   0.02  -0.10     0.01   0.02  -0.10
  58   7    -0.00   0.00  -0.01     0.00   0.00  -0.00     0.00  -0.00   0.02
  59   6    -0.01   0.03  -0.16     0.01   0.03  -0.15     0.01   0.03  -0.13
  60   6    -0.01   0.01  -0.10     0.00   0.02  -0.07     0.01   0.01  -0.03
  61   7    -0.00  -0.00  -0.00     0.00   0.00   0.03     0.00  -0.00   0.07
  62   1    -0.00   0.01  -0.04     0.00   0.01  -0.03     0.00   0.01  -0.02
  63   1    -0.00  -0.01   0.03     0.00  -0.00   0.04     0.00  -0.00   0.04
  64   1     0.00  -0.01   0.03    -0.00  -0.00   0.04    -0.00  -0.00   0.04
  65   1     0.00   0.01  -0.04    -0.00   0.01  -0.03    -0.00   0.01  -0.02
  66   1     0.00   0.01  -0.07    -0.00   0.01  -0.07    -0.00   0.01  -0.07
  67   1     0.00   0.01  -0.04    -0.00   0.01  -0.05    -0.00   0.01  -0.07
  68   1     0.00  -0.00   0.03    -0.00  -0.01   0.02    -0.00  -0.00  -0.00
  69   1    -0.00  -0.01   0.06     0.00  -0.01   0.06     0.00  -0.01   0.05
  70   1    -0.00  -0.00   0.03     0.00  -0.01   0.02     0.00  -0.00  -0.00
  71   1    -0.00   0.01  -0.04     0.00   0.01  -0.05     0.00   0.01  -0.07
  72   1    -0.00   0.01  -0.07     0.00   0.01  -0.07     0.00   0.01  -0.07
  73   6     0.00   0.01  -0.20    -0.00   0.00   0.18     0.00  -0.00  -0.06
  74   6     0.00  -0.00  -0.22    -0.00  -0.01   0.12     0.00   0.01   0.09
  75   6     0.00  -0.01  -0.20    -0.00  -0.02   0.03     0.00   0.03   0.19
  76   6     0.00  -0.02  -0.13     0.00  -0.03  -0.08     0.00   0.03   0.25
  77   6     0.00  -0.02  -0.05     0.00  -0.03  -0.16     0.00   0.03   0.22
  78   6     0.00  -0.02   0.04     0.00  -0.03  -0.20    -0.00   0.01   0.11
  79   6    -0.00   0.02  -0.04     0.00  -0.02  -0.20     0.00  -0.01  -0.11
  80   6    -0.00   0.01   0.05     0.00  -0.03  -0.17     0.00  -0.02  -0.22
  81   6    -0.00  -0.01   0.14     0.00  -0.04  -0.09     0.00  -0.02  -0.25
  82   6    -0.00  -0.03   0.21    -0.00  -0.04   0.02     0.00  -0.02  -0.19
  83   6    -0.00  -0.04   0.23    -0.00  -0.03   0.11     0.00  -0.01  -0.09
  84   6    -0.00  -0.04   0.21    -0.00  -0.02   0.18     0.00  -0.00   0.06
  85  29     0.00   0.01  -0.00     0.00   0.00  -0.07    -0.00  -0.00   0.00
  86   6     0.02   0.00   0.12     0.00   0.01   0.09    -0.00  -0.01  -0.13
  87   6     0.02  -0.00   0.14     0.00  -0.00  -0.05    -0.00  -0.01  -0.11
  88   6     0.01  -0.00   0.10     0.00  -0.01  -0.10    -0.00  -0.00  -0.04
  89   6     0.00  -0.01   0.09     0.00  -0.02  -0.17    -0.00   0.00   0.01
  90   6    -0.01  -0.00   0.10    -0.00  -0.01  -0.10     0.00  -0.00  -0.04
  91   6    -0.01  -0.00   0.15    -0.00  -0.00  -0.05     0.00  -0.01  -0.10
  92   6    -0.02   0.00   0.13    -0.00   0.01   0.09     0.00  -0.02  -0.13
  93   6    -0.02   0.00   0.07    -0.00   0.01   0.10     0.00  -0.01  -0.07
  94   7    -0.01   0.00   0.07    -0.00   0.00  -0.02     0.00  -0.00  -0.03
  95   6    -0.02   0.00  -0.00    -0.00   0.03   0.18     0.00  -0.00  -0.00
  96   6    -0.01   0.00  -0.07    -0.00   0.02   0.10    -0.00   0.01   0.07
  97   6    -0.02   0.00  -0.13    -0.00   0.02   0.10    -0.00   0.01   0.13
  98   6    -0.01   0.01  -0.15    -0.00   0.00  -0.04    -0.00   0.01   0.11
  99   6    -0.01   0.01  -0.10     0.00  -0.00  -0.10    -0.00   0.00   0.04
 100   7    -0.01   0.01  -0.07    -0.00   0.00  -0.02    -0.00   0.00   0.03
 101   6    -0.00   0.01  -0.09     0.00  -0.01  -0.16     0.00  -0.00  -0.01
 102   6     0.01   0.01  -0.10     0.00  -0.00  -0.10     0.00   0.00   0.04
 103   6     0.01   0.01  -0.14     0.00   0.00  -0.04     0.00   0.01   0.10
 104   6     0.02   0.00  -0.13     0.00   0.02   0.10     0.00   0.01   0.13
 105   6     0.02   0.00  -0.07     0.00   0.02   0.10    -0.00   0.01   0.07
 106   7     0.01   0.01  -0.07     0.00   0.00  -0.02    -0.00   0.00   0.03
 107   6     0.02   0.00  -0.00     0.01   0.02   0.18    -0.00  -0.00  -0.00
 108   6     0.02   0.00   0.07     0.00   0.01   0.10    -0.00  -0.01  -0.07
 109   7     0.01   0.00   0.07     0.00  -0.00  -0.02    -0.00  -0.00  -0.03
 110   1     0.01   0.00   0.04     0.00   0.01   0.05    -0.00  -0.01  -0.05
 111   1     0.01  -0.00   0.05     0.00  -0.00  -0.03    -0.00  -0.00  -0.04
 112   1    -0.00  -0.00   0.05    -0.00  -0.00  -0.03     0.00  -0.00  -0.04
 113   1    -0.01   0.00   0.04    -0.00   0.01   0.05     0.00  -0.01  -0.05
 114   1    -0.01   0.00  -0.00    -0.00   0.01   0.08     0.00  -0.00  -0.00
 115   1    -0.01   0.00  -0.04    -0.00   0.01   0.05    -0.00   0.01   0.05
 116   1    -0.00   0.00  -0.05    -0.00  -0.00  -0.03    -0.00   0.00   0.04
 117   1     0.00   0.00  -0.05     0.00  -0.00  -0.03     0.00   0.00   0.04
 118   1     0.01   0.00  -0.04     0.00   0.01   0.05     0.00   0.01   0.05
 119   1     0.01   0.00  -0.00     0.00   0.01   0.08    -0.00  -0.00  -0.00
                     19                     20                     21
                        a                      a                      a 
 Frequencies --    77.6147                83.9279                84.5713
 Red. masses --    26.3954                32.0106                30.6593
 Frc consts  --     0.0000                 0.0000                 0.0000
 IR Inten    --     2.5427                 1.9100               375.5012
 Raman Activ --     0.0000                 0.0000                 0.0000
 Depolar     --     0.0000                 0.0000                 0.0000
 Atom AN      X      Y      Z        X      Y      Z        X      Y      Z
   1  29    -0.00  -0.00   0.20    -0.00   0.01  -0.32     0.04  -0.00   0.48
   2   6    -0.00  -0.00  -0.03     0.00   0.01   0.11     0.02  -0.01  -0.18
   3   6    -0.00  -0.00   0.02     0.00   0.01   0.11     0.01  -0.01  -0.19
   4   6    -0.00  -0.00   0.06     0.00   0.01   0.00     0.00  -0.01  -0.02
   5   6    -0.00  -0.00   0.06     0.00   0.01   0.01    -0.01  -0.00  -0.03
   6   6    -0.00  -0.00   0.06    -0.00   0.01   0.00     0.00   0.00  -0.02
   7   6     0.00  -0.00   0.02    -0.00   0.01   0.11     0.01  -0.00  -0.19
   8   6     0.00  -0.00  -0.03    -0.01   0.01   0.11     0.02   0.00  -0.18
   9   6     0.00  -0.00  -0.01    -0.01   0.01  -0.00     0.01   0.01   0.00
  10   7    -0.00  -0.00   0.06    -0.00   0.01  -0.07     0.01   0.01   0.10
  11   6     0.00   0.00  -0.08    -0.01   0.00   0.00     0.02   0.01   0.02
  12   6     0.00   0.00  -0.06    -0.01  -0.00  -0.01     0.02   0.01   0.03
  13   6     0.00   0.00  -0.13    -0.01  -0.00   0.10     0.01   0.01  -0.12
  14   6     0.00   0.00  -0.05    -0.01  -0.01   0.11     0.02   0.00  -0.17
  15   6     0.00   0.00   0.04    -0.00  -0.00   0.01     0.02   0.00  -0.02
  16   7     0.00   0.00   0.04    -0.00  -0.00  -0.08     0.02   0.01   0.11
  17   6    -0.00   0.00   0.07    -0.00  -0.00   0.03     0.03   0.00  -0.07
  18   6    -0.00   0.00   0.04     0.00  -0.00   0.01     0.02  -0.00  -0.02
  19   6     0.00   0.00  -0.05     0.00  -0.01   0.11     0.02   0.00  -0.17
  20   6     0.00   0.00  -0.13     0.01  -0.00   0.10     0.01  -0.00  -0.12
  21   6     0.00  -0.00  -0.06     0.00   0.00  -0.01     0.01  -0.01   0.03
  22   7    -0.00  -0.00   0.04     0.00   0.00  -0.08     0.02  -0.01   0.11
  23   6    -0.00  -0.00  -0.08     0.01   0.01   0.00     0.01  -0.02   0.02
  24   6    -0.00  -0.00  -0.01     0.00   0.01  -0.00     0.01  -0.02   0.00
  25   7    -0.00  -0.00   0.06     0.00   0.01  -0.07     0.01  -0.02   0.10
  26   1    -0.00  -0.00  -0.02     0.00   0.00   0.05     0.01  -0.00  -0.08
  27   1    -0.00  -0.00   0.01     0.00   0.00   0.05     0.00  -0.00  -0.09
  28   1     0.00  -0.00   0.01    -0.00   0.00   0.05     0.00  -0.00  -0.09
  29   1     0.00  -0.00  -0.02    -0.00   0.00   0.05     0.01   0.00  -0.08
  30   1     0.00  -0.00  -0.04    -0.00   0.00   0.02     0.00   0.00  -0.02
  31   1     0.00   0.00  -0.06    -0.00  -0.00   0.05     0.00   0.00  -0.06
  32   1     0.00   0.00  -0.02    -0.00  -0.00   0.05     0.01  -0.00  -0.08
  33   1    -0.00   0.00   0.02    -0.00  -0.00   0.03     0.01   0.00  -0.05
  34   1     0.00   0.00  -0.02     0.00  -0.00   0.05     0.01   0.00  -0.08
  35   1     0.00   0.00  -0.06     0.00  -0.00   0.05     0.00  -0.00  -0.06
  36   1     0.00  -0.00  -0.04     0.00   0.00   0.02     0.00  -0.00  -0.02
  37  29     0.00  -0.03   0.20    -0.01   0.10  -0.43     0.04   0.07  -0.36
  38   6     0.00   0.01  -0.03     0.01  -0.01   0.15     0.02  -0.02   0.13
  39   6     0.00  -0.00   0.02     0.00  -0.01   0.15     0.02  -0.02   0.15
  40   6     0.00  -0.01   0.06     0.00   0.02   0.01     0.00   0.00   0.02
  41   6     0.00  -0.01   0.06    -0.00   0.02   0.02    -0.01   0.00   0.02
  42   6     0.00  -0.01   0.06    -0.00   0.02   0.01     0.00   0.01   0.02
  43   6     0.00  -0.00   0.02    -0.01  -0.01   0.15     0.01  -0.02   0.15
  44   6    -0.00   0.01  -0.03    -0.01  -0.01   0.15     0.01  -0.01   0.13
  45   6    -0.00   0.00  -0.01    -0.01   0.01  -0.00     0.01   0.02   0.00
  46   7     0.00  -0.01   0.06    -0.01   0.03  -0.09     0.00   0.03  -0.07
  47   6    -0.00   0.01  -0.08    -0.01   0.00   0.01     0.01   0.02  -0.01
  48   6    -0.00   0.01  -0.06    -0.01   0.00  -0.01     0.01   0.02  -0.02
  49   6    -0.00   0.02  -0.13    -0.02  -0.03   0.13     0.01  -0.01   0.09
  50   6     0.00   0.01  -0.05    -0.01  -0.03   0.14     0.02  -0.03   0.12
  51   6     0.00  -0.01   0.04    -0.01  -0.01   0.01     0.02  -0.00   0.02
  52   7     0.00  -0.01   0.04    -0.01   0.02  -0.10     0.02   0.03  -0.08
  53   6     0.00  -0.01   0.07    -0.00  -0.01   0.03     0.03  -0.01   0.05
  54   6     0.00  -0.01   0.04     0.00  -0.01   0.01     0.03  -0.01   0.02
  55   6     0.00   0.01  -0.05     0.01  -0.03   0.14     0.02  -0.03   0.12
  56   6     0.00   0.02  -0.13     0.01  -0.03   0.13     0.02  -0.02   0.09
  57   6     0.00   0.01  -0.06     0.01   0.00  -0.01     0.02  -0.01  -0.03
  58   7     0.00  -0.01   0.04     0.00   0.02  -0.10     0.03   0.01  -0.09
  59   6     0.00   0.01  -0.08     0.01   0.01   0.01     0.02  -0.01  -0.01
  60   6     0.00   0.00  -0.01     0.01   0.01  -0.00     0.02  -0.01  -0.00
  61   7     0.00  -0.01   0.06     0.00   0.03  -0.09     0.01   0.01  -0.08
  62   1     0.00   0.00  -0.02     0.00  -0.01   0.07     0.01  -0.01   0.06
  63   1     0.00  -0.00   0.01     0.00  -0.01   0.07     0.00  -0.01   0.07
  64   1     0.00  -0.00   0.01    -0.00  -0.01   0.07     0.00  -0.01   0.07
  65   1    -0.00   0.00  -0.02    -0.01  -0.01   0.07     0.01  -0.01   0.06
  66   1    -0.00   0.01  -0.04    -0.01  -0.00   0.02     0.00   0.00   0.01
  67   1    -0.00   0.01  -0.06    -0.01  -0.01   0.06     0.00  -0.01   0.05
  68   1    -0.00   0.00  -0.02    -0.00  -0.02   0.07     0.00  -0.01   0.06
  69   1     0.00  -0.00   0.02    -0.00  -0.01   0.04     0.01  -0.01   0.04
  70   1     0.00   0.00  -0.02     0.00  -0.02   0.07     0.01  -0.01   0.06
  71   1     0.00   0.01  -0.06     0.00  -0.01   0.06     0.01  -0.01   0.05
  72   1     0.00   0.01  -0.04     0.00  -0.00   0.02     0.01  -0.01   0.01
  73   6    -0.00  -0.00  -0.02     0.00   0.00   0.04    -0.01  -0.00  -0.06
  74   6    -0.00   0.00  -0.12     0.00  -0.04   0.04    -0.01   0.01  -0.02
  75   6    -0.00   0.01  -0.16     0.00  -0.06   0.02    -0.01   0.02   0.02
  76   6    -0.00   0.01  -0.14     0.00  -0.07  -0.02    -0.01   0.02   0.07
  77   6    -0.00   0.01  -0.08     0.00  -0.06  -0.03    -0.02   0.02   0.08
  78   6    -0.00   0.01   0.03     0.00  -0.01  -0.04    -0.02   0.00   0.05
  79   6    -0.00   0.00   0.03     0.00  -0.01  -0.06    -0.02  -0.00  -0.04
  80   6     0.00   0.02  -0.08     0.00  -0.08  -0.06    -0.01  -0.03  -0.06
  81   6     0.00   0.02  -0.15     0.00  -0.11  -0.04    -0.01  -0.04  -0.06
  82   6     0.00   0.03  -0.16     0.00  -0.11   0.01    -0.01  -0.05  -0.02
  83   6     0.00   0.02  -0.12     0.00  -0.08   0.04    -0.01  -0.04   0.01
  84   6     0.00   0.00  -0.02     0.00  -0.01   0.06    -0.01  -0.01   0.04
  85  29    -0.00   0.04   0.46     0.01   0.07   0.32    -0.07   0.00  -0.04
  86   6    -0.01  -0.02  -0.17     0.01  -0.01  -0.11    -0.02  -0.01  -0.03
  87   6    -0.00  -0.01  -0.07     0.01  -0.01  -0.11    -0.02  -0.01  -0.01
  88   6    -0.00   0.01   0.09     0.01   0.00  -0.00    -0.02  -0.00   0.00
  89   6    -0.00   0.01   0.11     0.00   0.00  -0.01    -0.02  -0.00   0.02
  90   6     0.00   0.01   0.09     0.00   0.00  -0.00    -0.03  -0.00  -0.00
  91   6     0.00  -0.01  -0.07    -0.00  -0.01  -0.11    -0.03  -0.01  -0.01
  92   6     0.00  -0.02  -0.17    -0.00  -0.01  -0.11    -0.03  -0.01  -0.03
  93   6     0.00  -0.01  -0.06    -0.00   0.01   0.00    -0.03  -0.00  -0.02
  94   7     0.00   0.01   0.12     0.00   0.02   0.07    -0.03  -0.00  -0.01
  95   6     0.00  -0.02  -0.14    -0.00   0.01  -0.00    -0.03   0.00  -0.00
  96   6     0.00  -0.01  -0.06     0.00   0.01   0.01    -0.03   0.00   0.02
  97   6     0.00  -0.02  -0.17     0.00   0.01  -0.09    -0.03   0.01   0.05
  98   6     0.00  -0.01  -0.07     0.00   0.01  -0.10    -0.03   0.01   0.04
  99   6     0.00   0.00   0.09     0.00   0.01  -0.00    -0.02   0.01   0.00
 100   7     0.00   0.01   0.12     0.00   0.02   0.07    -0.03   0.00  -0.01
 101   6    -0.00   0.01   0.11     0.00   0.01  -0.02    -0.02   0.01  -0.02
 102   6    -0.00   0.00   0.09     0.00   0.01  -0.00    -0.02   0.01   0.00
 103   6    -0.00  -0.01  -0.07     0.00   0.01  -0.10    -0.02   0.01   0.04
 104   6    -0.00  -0.02  -0.17     0.01   0.00  -0.09    -0.02   0.01   0.05
 105   6    -0.00  -0.01  -0.06     0.01   0.01   0.01    -0.02   0.01   0.02
 106   7    -0.00   0.01   0.12     0.00   0.02   0.07    -0.02   0.01  -0.01
 107   6    -0.00  -0.02  -0.14     0.01   0.01  -0.00    -0.02   0.00   0.00
 108   6    -0.00  -0.01  -0.06     0.01   0.01   0.00    -0.02  -0.01  -0.02
 109   7    -0.00   0.01   0.12     0.01   0.02   0.07    -0.02  -0.00  -0.01
 110   1    -0.00  -0.01  -0.09     0.00  -0.00  -0.05    -0.01  -0.00  -0.01
 111   1    -0.00  -0.00  -0.03     0.00  -0.01  -0.05    -0.01  -0.00  -0.00
 112   1     0.00  -0.00  -0.03    -0.00  -0.01  -0.05    -0.01  -0.00  -0.00
 113   1     0.00  -0.01  -0.09    -0.00  -0.00  -0.05    -0.01  -0.00  -0.01
 114   1     0.00  -0.01  -0.08    -0.00   0.00  -0.02    -0.01   0.00   0.00
 115   1     0.00  -0.01  -0.09     0.00  -0.00  -0.05    -0.01   0.00   0.02
 116   1     0.00  -0.00  -0.03     0.00  -0.00  -0.05    -0.01   0.01   0.02
 117   1    -0.00  -0.00  -0.03     0.00  -0.00  -0.05    -0.01   0.00   0.02
 118   1    -0.00  -0.01  -0.09     0.00  -0.00  -0.04    -0.01   0.00   0.02
 119   1    -0.00  -0.01  -0.08     0.00   0.00  -0.02    -0.00   0.00   0.00
                     22                     23                     24
                        a                      a                      a 
 Frequencies --    85.1864                87.7503                92.2598
 Red. masses --    22.0233                14.9066                15.9051
 Frc consts  --     0.0000                 0.0000                 0.0000
 IR Inten    --  6487.4592               103.5939                 1.1173
 Raman Activ --     0.0000                 0.0000                 0.0000
 Depolar     --     0.0000                 0.0000                 0.0000
 Atom AN      X      Y      Z        X      Y      Z        X      Y      Z
   1  29    -0.19   0.00   0.12    -0.02  -0.05  -0.09    -0.00   0.05  -0.06
   2   6    -0.08   0.03  -0.05    -0.04  -0.04   0.05     0.03   0.04   0.07
   3   6    -0.05   0.00  -0.05    -0.03  -0.06   0.06     0.02   0.05   0.09
   4   6    -0.01   0.02  -0.01    -0.01  -0.05   0.02     0.00   0.05   0.03
   5   6     0.03   0.01  -0.01     0.00  -0.05   0.01    -0.00   0.05   0.01
[...]
 119   1     0.00   0.00  -0.00    -0.00  -0.01   0.00    -0.00  -0.01   0.00
                    346                    347                    348
                        a                      a                      a 
 Frequencies --  3166.6217              3166.8888              3166.9615
 Red. masses --     1.9711                 1.9706                 1.9707
 Frc consts  --     0.0000                 0.0000                 0.0000
 IR Inten    --   157.9427               268.3858               800.0465
 Raman Activ --     0.0000                 0.0000                 0.0000
 Depolar     --     0.0000                 0.0000                 0.0000
 Atom AN      X      Y      Z        X      Y      Z        X      Y      Z
   1  29    -0.00  -0.00   0.00     0.00   0.00  -0.00    -0.00  -0.00   0.00
   2   6    -0.00   0.02  -0.00     0.01  -0.11   0.00     0.00  -0.00   0.00
   3   6    -0.02   0.00  -0.00     0.15  -0.01   0.00     0.01  -0.00   0.00
   4   6    -0.00  -0.00   0.00     0.00   0.01  -0.00    -0.00   0.00  -0.00
   5   6     0.00   0.00  -0.00     0.00  -0.00   0.00     0.00   0.00  -0.00
   6   6     0.00  -0.00   0.00    -0.00   0.00  -0.00     0.00  -0.00   0.00
   7   6     0.05   0.00  -0.00    -0.15  -0.01   0.00     0.12   0.01  -0.00
   8   6     0.00   0.04  -0.00    -0.00  -0.11   0.00     0.00   0.09  -0.00
   9   6    -0.00   0.00  -0.00     0.00  -0.00   0.00    -0.00   0.00  -0.00
  10   7    -0.00  -0.00  -0.00     0.00   0.00  -0.00    -0.00  -0.00  -0.00
  11   6     0.00   0.00  -0.00    -0.00  -0.00   0.00     0.00   0.00  -0.00
  12   6    -0.00  -0.00  -0.00    -0.00   0.00   0.00     0.00  -0.00   0.00
  13   6    -0.00  -0.00  -0.00     0.00  -0.00  -0.00    -0.00   0.00   0.00
  14   6     0.00  -0.00   0.00     0.00  -0.00   0.00    -0.00   0.00  -0.00
  15   6     0.00   0.00  -0.00     0.00   0.00   0.00    -0.00  -0.00   0.00
  16   7    -0.00  -0.00  -0.00     0.00   0.00   0.00    -0.00   0.00   0.00
  17   6     0.00   0.00   0.00     0.00  -0.00   0.00     0.00   0.00   0.00
  18   6     0.00  -0.00   0.00     0.00   0.00  -0.00     0.00  -0.00   0.00
  19   6     0.00  -0.00   0.00     0.00   0.00   0.00    -0.00  -0.00  -0.00
  20   6    -0.00   0.00   0.00    -0.00  -0.00  -0.00    -0.00  -0.00   0.00
  21   6    -0.00   0.00   0.00     0.00   0.00   0.00    -0.00   0.00   0.00
  22   7    -0.00  -0.00  -0.00     0.00   0.00  -0.00    -0.00  -0.00  -0.00
  23   6    -0.00   0.00  -0.00     0.00  -0.00   0.00     0.00   0.00   0.00
  24   6     0.00   0.00   0.00    -0.00  -0.00  -0.00    -0.00  -0.00   0.00
  25   7     0.00  -0.00   0.00    -0.00   0.00  -0.00     0.00  -0.00   0.00
  26   1     0.01  -0.06   0.00    -0.04   0.35  -0.00    -0.00   0.01  -0.00
  27   1     0.08  -0.01   0.00    -0.50   0.05  -0.00    -0.02   0.00  -0.00
  28   1    -0.17  -0.02   0.00     0.48   0.06  -0.00    -0.38  -0.05   0.00
  29   1    -0.01  -0.12   0.00     0.03   0.36  -0.00    -0.03  -0.28   0.00
  30   1     0.00  -0.00   0.00    -0.00   0.01  -0.00     0.00  -0.00   0.00
  31   1    -0.00   0.00  -0.00    -0.00   0.01   0.00     0.00  -0.01  -0.00
  32   1    -0.00   0.00  -0.00    -0.00   0.00  -0.00     0.00  -0.00   0.00
  33   1    -0.00  -0.00  -0.00    -0.00   0.00  -0.00    -0.00   0.00   0.00
  34   1    -0.00  -0.00  -0.00    -0.00  -0.00  -0.00     0.00   0.00   0.00
  35   1    -0.00  -0.00  -0.00     0.00   0.00   0.00     0.00   0.00   0.00
  36   1    -0.00  -0.00   0.00     0.00   0.01  -0.00     0.00  -0.00   0.00
  37  29     0.00   0.00  -0.00     0.00  -0.00  -0.00     0.00   0.00  -0.00
  38   6    -0.00   0.00   0.00     0.00  -0.00  -0.00     0.00  -0.01  -0.00
  39   6    -0.00   0.00   0.00     0.00  -0.00  -0.00     0.02  -0.00  -0.00
  40   6    -0.00  -0.00  -0.00    -0.00   0.00   0.00     0.00   0.00   0.00
  41   6     0.00  -0.00  -0.00     0.00   0.00   0.00     0.00  -0.00  -0.00
  42   6    -0.00   0.00   0.00     0.00  -0.00  -0.00     0.00  -0.00  -0.00
  43   6    -0.01  -0.00  -0.00     0.00   0.00   0.00     0.01   0.00   0.00
  44   6    -0.00  -0.00  -0.00     0.00   0.00   0.00     0.00   0.00   0.00
  45   6     0.00  -0.00  -0.00    -0.00   0.00   0.00    -0.00   0.00   0.00
  46   7    -0.00  -0.00  -0.00    -0.00  -0.00  -0.00    -0.00  -0.00  -0.00
  47   6    -0.00  -0.00  -0.00     0.00   0.00   0.00     0.00   0.00   0.00
  48   6     0.00  -0.00  -0.00     0.00  -0.00  -0.00     0.00  -0.00  -0.00
  49   6    -0.00   0.00   0.00    -0.00   0.00   0.00    -0.00   0.00   0.00
  50   6    -0.00   0.00   0.00    -0.00   0.00   0.00    -0.00   0.00   0.00
  51   6     0.00  -0.00  -0.00    -0.00  -0.00  -0.00    -0.00  -0.00  -0.00
  52   7     0.00  -0.00  -0.00     0.00  -0.00  -0.00     0.00  -0.00  -0.00
  53   6    -0.00  -0.00  -0.00    -0.00  -0.00   0.00    -0.00  -0.00   0.00
  54   6    -0.00   0.00   0.00     0.00   0.00   0.00    -0.00   0.00   0.00
  55   6    -0.00  -0.00  -0.00    -0.00  -0.00  -0.00    -0.00  -0.00  -0.00
  56   6    -0.00  -0.00  -0.00    -0.00  -0.00  -0.00    -0.00  -0.00  -0.00
  57   6     0.00   0.00   0.00     0.00   0.00   0.00     0.00   0.00   0.00
  58   7     0.00   0.00   0.00     0.00   0.00   0.00     0.00   0.00   0.00
  59   6    -0.00  -0.00  -0.00     0.00  -0.00  -0.00     0.00  -0.00  -0.00
  60   6     0.00   0.00   0.00    -0.00  -0.00   0.00    -0.00  -0.00  -0.00
  61   7    -0.00   0.00   0.00    -0.00   0.00   0.00    -0.00   0.00   0.00
  62   1     0.00  -0.00  -0.00    -0.00   0.00   0.00    -0.00   0.04   0.01
  63   1     0.01  -0.00  -0.00    -0.01   0.00   0.00    -0.06   0.01   0.00
  64   1     0.02   0.00   0.00    -0.01  -0.00  -0.00    -0.02  -0.00  -0.00
  65   1     0.00   0.01   0.00    -0.00  -0.01  -0.00    -0.00  -0.01  -0.00
  66   1    -0.00   0.00   0.00     0.00  -0.00  -0.00     0.00  -0.00  -0.00
  67   1     0.00  -0.00  -0.00     0.00  -0.00  -0.00     0.00  -0.00  -0.00
  68   1     0.00  -0.00  -0.00     0.00  -0.00  -0.00     0.01  -0.00  -0.00
  69   1     0.00  -0.00  -0.00     0.00  -0.00  -0.00     0.00  -0.00  -0.00
  70   1     0.00   0.00   0.00     0.00   0.00   0.00     0.00   0.00   0.00
  71   1     0.00   0.00   0.00     0.00   0.00   0.00     0.00   0.00   0.00
  72   1    -0.00   0.00   0.00     0.00   0.00   0.00     0.00   0.00   0.00
  73   6    -0.00   0.00   0.00    -0.00  -0.00   0.00    -0.00   0.00  -0.00
  74   6     0.00  -0.00   0.00     0.00   0.00  -0.00     0.00  -0.00   0.00
  75   6     0.00  -0.00   0.00     0.00   0.00  -0.00     0.00  -0.00  -0.00
  76   6    -0.00   0.00  -0.00    -0.00  -0.00  -0.00    -0.00  -0.00   0.00
  77   6     0.00   0.00  -0.00     0.00  -0.00  -0.00     0.00  -0.00   0.00
  78   6    -0.00  -0.00   0.00    -0.00  -0.00   0.00    -0.00   0.00  -0.00
  79   6    -0.00   0.00  -0.00    -0.00   0.00  -0.00    -0.00   0.00  -0.00
  80   6     0.00  -0.00   0.00     0.00  -0.00   0.00     0.00  -0.00   0.00
  81   6    -0.00  -0.00   0.00    -0.00  -0.00   0.00    -0.00  -0.00   0.00
  82   6     0.00   0.00  -0.00     0.00   0.00  -0.00     0.00   0.00   0.00
  83   6    -0.00   0.00   0.00    -0.00  -0.00  -0.00     0.00   0.00   0.00
  84   6     0.00  -0.00  -0.00    -0.00   0.00   0.00    -0.00  -0.00  -0.00
  85  29    -0.00   0.00  -0.00    -0.00  -0.00   0.00    -0.00  -0.00   0.00
  86   6    -0.00  -0.05   0.01     0.00   0.05  -0.01     0.01   0.14  -0.02
  87   6    -0.07  -0.00   0.00     0.07   0.00  -0.00     0.20   0.01  -0.00
  88   6    -0.00   0.00  -0.00     0.00  -0.00   0.00     0.00  -0.01   0.00
  89   6     0.00  -0.00   0.00     0.00  -0.00   0.00     0.00   0.00  -0.00
  90   6     0.00   0.01  -0.00     0.00   0.00  -0.00     0.00   0.00  -0.00
  91   6     0.21  -0.02   0.00     0.07  -0.01   0.00     0.03  -0.00   0.00
  92   6     0.01  -0.16   0.02     0.00  -0.05   0.01     0.00  -0.02   0.00
  93   6    -0.01  -0.00   0.00    -0.00  -0.00   0.00    -0.00  -0.00   0.00
  94   7    -0.00   0.00  -0.00    -0.00   0.00  -0.00    -0.00  -0.00  -0.00
  95   6     0.00  -0.00   0.00     0.00  -0.00   0.00     0.00   0.00  -0.00
  96   6    -0.00   0.00  -0.00    -0.00   0.00  -0.00    -0.00   0.00  -0.00
  97   6     0.00   0.02  -0.00     0.00   0.03  -0.00     0.00   0.03  -0.00
  98   6     0.03   0.00   0.00     0.04   0.00   0.00     0.05   0.00   0.00
  99   6     0.00  -0.00   0.00     0.00  -0.00   0.00     0.00  -0.00   0.00
 100   7    -0.00  -0.00   0.00    -0.00  -0.00   0.00    -0.00  -0.00   0.00
 101   6     0.00   0.00  -0.00     0.00   0.00  -0.00     0.00   0.00  -0.00
 102   6     0.00   0.00  -0.00    -0.00  -0.00   0.00    -0.00  -0.00   0.00
 103   6     0.00  -0.00  -0.00    -0.00   0.00   0.00    -0.02   0.00   0.00
 104   6     0.00  -0.00   0.00    -0.00   0.00  -0.00    -0.00   0.02  -0.00
 105   6    -0.00   0.00   0.00     0.00   0.00  -0.00     0.00   0.00  -0.00
 106   7    -0.00   0.00  -0.00    -0.00  -0.00  -0.00    -0.00  -0.00  -0.00
 107   6    -0.00  -0.00   0.00     0.00   0.00  -0.00     0.00   0.00  -0.00
 108   6     0.00  -0.00   0.00    -0.00   0.00  -0.00    -0.01   0.00  -0.00
 109   7     0.00   0.00  -0.00    -0.00  -0.00   0.00    -0.00  -0.00   0.00
 110   1     0.02   0.16  -0.02    -0.02  -0.15   0.02    -0.05  -0.45   0.05
 111   1     0.23   0.02  -0.01    -0.22  -0.02   0.01    -0.64  -0.07   0.02
 112   1    -0.70   0.09  -0.01    -0.22   0.03  -0.00    -0.10   0.01  -0.00
 113   1    -0.05   0.52  -0.06    -0.02   0.16  -0.02    -0.01   0.07  -0.01
 114   1     0.00   0.01  -0.00     0.00   0.00  -0.00     0.00  -0.00   0.00
 115   1    -0.01  -0.06   0.01    -0.01  -0.09   0.01    -0.01  -0.10   0.01
 116   1    -0.09  -0.01   0.00    -0.13  -0.01   0.00    -0.15  -0.02   0.00
 117   1    -0.00   0.00  -0.00     0.02  -0.00   0.00     0.06  -0.01   0.00
 118   1    -0.00   0.00  -0.00     0.00  -0.01   0.00     0.01  -0.05   0.01
 119   1    -0.00   0.00  -0.00     0.00  -0.00   0.00     0.00  -0.01   0.00
                    349                    350                    351
                        a                      a                      a 
 Frequencies --  3167.1764              3167.2127              3167.4128
 Red. masses --     1.9710                 1.9712                 1.9704
 Frc consts  --     0.0000                 0.0000                 0.0000
 IR Inten    -- 13260.4160             21638.1838               404.8665
 Raman Activ --     0.0000                 0.0000                 0.0000
 Depolar     --     0.0000                 0.0000                 0.0000
 Atom AN      X      Y      Z        X      Y      Z        X      Y      Z
   1  29    -0.00   0.00  -0.00     0.00   0.00   0.00    -0.00   0.00  -0.00
   2   6     0.01  -0.11   0.00    -0.00   0.02  -0.00     0.00  -0.06   0.00
   3   6     0.16  -0.01   0.00    -0.03   0.00  -0.00     0.08  -0.01   0.00
   4   6     0.00   0.01  -0.00    -0.00  -0.00   0.00     0.00   0.00  -0.00
   5   6     0.00  -0.00   0.00    -0.00   0.00  -0.00     0.00  -0.00   0.00
   6   6     0.00  -0.00   0.00    -0.00   0.00  -0.00     0.00  -0.00   0.00
   7   6     0.10   0.01  -0.00    -0.03  -0.00   0.00     0.07   0.01  -0.00
   8   6     0.00   0.08  -0.00    -0.00  -0.02   0.00     0.00   0.06  -0.00
   9   6    -0.00   0.00  -0.00     0.00  -0.00   0.00    -0.00   0.00  -0.00
  10   7    -0.00  -0.00   0.00     0.00   0.00  -0.00    -0.00  -0.00   0.00
  11   6     0.00   0.00  -0.00    -0.00  -0.00   0.00     0.00   0.00  -0.00
  12   6     0.00   0.00  -0.00    -0.00  -0.00   0.00     0.00   0.00  -0.00
  13   6    -0.00   0.00   0.00     0.00  -0.00  -0.00    -0.00   0.01   0.00
  14   6    -0.00   0.00  -0.00     0.00  -0.00   0.00    -0.01   0.00  -0.00
  15   6    -0.00  -0.00  -0.00     0.00   0.00   0.00    -0.00  -0.00  -0.00
  16   7    -0.00   0.00  -0.00     0.00  -0.00   0.00    -0.00   0.00  -0.00
  17   6    -0.00  -0.00  -0.00     0.00   0.00   0.00    -0.00  -0.00  -0.00
  18   6    -0.00   0.00  -0.00     0.00  -0.00  -0.00    -0.00   0.00   0.00
  19   6    -0.00  -0.00  -0.00     0.00   0.00   0.00    -0.00  -0.00  -0.00
  20   6    -0.00  -0.01  -0.00     0.00   0.00   0.00    -0.00  -0.01  -0.00
  21   6     0.00  -0.00   0.00    -0.00   0.00  -0.00     0.00  -0.00   0.00
  22   7    -0.00  -0.00   0.00     0.00   0.00   0.00    -0.00  -0.00   0.00
  23   6     0.00  -0.00   0.00    -0.00   0.00  -0.00     0.00  -0.00   0.00
  24   6    -0.00  -0.00  -0.00     0.00   0.00   0.00    -0.00  -0.00  -0.00
  25   7    -0.00   0.00  -0.00     0.00  -0.00   0.00    -0.00   0.00  -0.00
  26   1    -0.04   0.36  -0.00     0.01  -0.08   0.00    -0.02   0.19  -0.00
  27   1    -0.51   0.05  -0.00     0.11  -0.01   0.00    -0.27   0.03  -0.00
  28   1    -0.33  -0.04   0.00     0.09   0.01  -0.00    -0.23  -0.03   0.00
  29   1    -0.02  -0.25   0.00     0.01   0.07  -0.00    -0.02  -0.17   0.00
  30   1     0.00  -0.00   0.00    -0.00   0.00   0.00     0.00  -0.00   0.00
  31   1     0.00  -0.02  -0.00    -0.00   0.01   0.00     0.00  -0.02  -0.00
  32   1     0.01  -0.00   0.00    -0.01   0.00  -0.00     0.02  -0.00   0.00
  33   1     0.00   0.00   0.00    -0.00  -0.00  -0.00     0.00   0.00   0.00
  34   1     0.01   0.00   0.00    -0.01  -0.00  -0.00     0.01   0.00   0.00
  35   1     0.00   0.02   0.00    -0.00  -0.01  -0.00     0.00   0.02   0.00
  36   1     0.00   0.01  -0.00    -0.00  -0.00  -0.00     0.00   0.00  -0.00
  37  29    -0.00   0.00   0.00     0.00  -0.00  -0.00     0.00  -0.00  -0.00
  38   6     0.00  -0.03  -0.00    -0.01   0.13   0.02    -0.01   0.10   0.02
  39   6     0.04  -0.00  -0.00    -0.18   0.01   0.00    -0.14   0.01   0.00
  40   6     0.00   0.00   0.00    -0.00  -0.01  -0.00    -0.00  -0.00  -0.00
  41   6     0.00  -0.00  -0.00    -0.00   0.00   0.00    -0.00   0.00   0.00
  42   6    -0.00   0.00   0.00    -0.00   0.00   0.00    -0.00   0.00   0.00
  43   6    -0.01  -0.00  -0.00    -0.02  -0.00  -0.00    -0.03  -0.00  -0.00
  44   6    -0.00  -0.00  -0.00    -0.00  -0.02  -0.00    -0.00  -0.02  -0.00
  45   6     0.00  -0.00  -0.00     0.00  -0.00  -0.00     0.00  -0.00  -0.00
  46   7     0.00   0.00   0.00    -0.00  -0.00  -0.00     0.00   0.00   0.00
  47   6    -0.00  -0.00  -0.00    -0.00  -0.00  -0.00    -0.00  -0.00  -0.00
  48   6    -0.00   0.00   0.00     0.00  -0.00  -0.00    -0.00  -0.00  -0.00
  49   6    -0.00   0.00   0.00     0.00  -0.00  -0.00     0.00  -0.00  -0.00
  50   6    -0.00   0.00   0.00     0.00  -0.00  -0.00     0.00  -0.00  -0.00
  51   6    -0.00   0.00   0.00     0.00  -0.00  -0.00     0.00   0.00   0.00
  52   7    -0.00   0.00   0.00     0.00  -0.00  -0.00    -0.00   0.00   0.00
  53   6    -0.00  -0.00  -0.00     0.00   0.00   0.00     0.00   0.00  -0.00
  54   6    -0.00  -0.00   0.00     0.00   0.00   0.00     0.00  -0.00  -0.00
  55   6    -0.00  -0.00  -0.00     0.00   0.00   0.00     0.01   0.00   0.00
  56   6    -0.00  -0.00  -0.00     0.00   0.00   0.00     0.00   0.01   0.00
  57   6     0.00  -0.00  -0.00     0.00   0.00  -0.00    -0.00   0.00   0.00
  58   7    -0.00  -0.00  -0.00     0.00   0.00   0.00    -0.00  -0.00  -0.00
  59   6     0.00  -0.00  -0.00    -0.00   0.00   0.00    -0.00   0.00   0.00
  60   6    -0.00  -0.00  -0.00     0.01   0.00   0.00     0.00   0.00   0.00
  61   7    -0.00   0.00   0.00     0.00  -0.00  -0.00     0.00  -0.00  -0.00
  62   1    -0.01   0.08   0.01     0.05  -0.42  -0.08     0.04  -0.32  -0.06
  63   1    -0.12   0.01   0.00     0.60  -0.06  -0.01     0.46  -0.05  -0.01
  64   1     0.02   0.00   0.00     0.08   0.01   0.00     0.10   0.01   0.00
  65   1     0.00   0.01   0.00     0.01   0.05   0.01     0.01   0.07   0.01
  66   1    -0.00   0.00   0.00    -0.00   0.00   0.00    -0.00   0.00   0.00
  67   1     0.00  -0.00  -0.00    -0.00   0.01   0.00    -0.00   0.01   0.00
  68   1     0.00  -0.00  -0.00    -0.01   0.00   0.00    -0.01   0.00   0.00
  69   1     0.00   0.00  -0.00    -0.00  -0.00   0.00    -0.00  -0.00   0.00
  70   1     0.00   0.00   0.00    -0.01  -0.00  -0.00    -0.02  -0.00  -0.00
  71   1     0.00   0.00   0.00    -0.00  -0.01  -0.00    -0.00  -0.02  -0.00
  72   1     0.00   0.00   0.00    -0.00  -0.01  -0.00    -0.00  -0.01  -0.00
  73   6    -0.00  -0.00  -0.00     0.00   0.00  -0.00    -0.00  -0.00   0.00
  74   6     0.00   0.00  -0.00    -0.00  -0.00   0.00     0.00   0.00  -0.00
  75   6    -0.00   0.00   0.00     0.00  -0.00  -0.00    -0.00   0.00   0.00
  76   6     0.00   0.00  -0.00    -0.00  -0.00   0.00     0.00   0.00   0.00
  77   6    -0.00   0.00  -0.00     0.00  -0.00   0.00    -0.00   0.00  -0.00
  78   6     0.00  -0.00   0.00    -0.00   0.00  -0.00     0.00  -0.00   0.00
  79   6     0.00  -0.00   0.00     0.00  -0.00   0.00    -0.00   0.00  -0.00
  80   6    -0.00   0.00  -0.00    -0.00   0.00  -0.00     0.00  -0.00   0.00
  81   6     0.00   0.00  -0.00    -0.00   0.00  -0.00    -0.00  -0.00   0.00
  82   6    -0.00   0.00   0.00     0.00  -0.00  -0.00     0.00  -0.00  -0.00
  83   6     0.00   0.00   0.00    -0.00  -0.00  -0.00    -0.00  -0.00  -0.00
  84   6    -0.00  -0.00  -0.00     0.00   0.00   0.00     0.00   0.00   0.00
  85  29     0.00   0.00  -0.00     0.00   0.00  -0.00    -0.00  -0.00   0.00
  86   6    -0.00  -0.03   0.00     0.00   0.04  -0.00    -0.00  -0.04   0.00
  87   6    -0.04  -0.00   0.00     0.05   0.00  -0.00    -0.05  -0.00   0.00
  88   6    -0.00   0.00  -0.00     0.00  -0.00   0.00    -0.00   0.00  -0.00
  89   6    -0.00  -0.00   0.00     0.00   0.00  -0.00    -0.00  -0.00   0.00
  90   6     0.00  -0.00   0.00     0.00   0.00  -0.00    -0.00  -0.00   0.00
  91   6    -0.00   0.00  -0.00     0.03  -0.00   0.00    -0.04   0.00  -0.00
  92   6     0.00   0.00  -0.00     0.00  -0.03   0.00    -0.00   0.03  -0.00
  93   6     0.00   0.00  -0.00    -0.00  -0.00   0.00     0.00   0.00  -0.00
  94   7     0.00  -0.00   0.00     0.00  -0.00   0.00     0.00  -0.00   0.00
  95   6    -0.00  -0.00   0.00    -0.00  -0.00   0.00     0.00   0.00  -0.00
  96   6     0.00  -0.00   0.00     0.00  -0.00   0.00    -0.00   0.00  -0.00
  97   6    -0.01  -0.10   0.01    -0.01  -0.09   0.01     0.01   0.10  -0.01
  98   6    -0.13  -0.01  -0.00    -0.12  -0.01  -0.00     0.13   0.01   0.00
  99   6    -0.00   0.00  -0.00    -0.00   0.00  -0.00     0.00  -0.00   0.00
 100   7     0.00   0.00  -0.00     0.00   0.00  -0.00    -0.00  -0.00   0.00
 101   6    -0.00  -0.00   0.00    -0.00  -0.00   0.00     0.00   0.00  -0.00
 102   6    -0.00  -0.00   0.00    -0.00  -0.00   0.00     0.00   0.00  -0.00
 103   6    -0.01   0.00  -0.00    -0.03   0.00  -0.00     0.03  -0.00  -0.00
 104   6    -0.00   0.00  -0.00    -0.00   0.02  -0.00     0.00  -0.02   0.00
 105   6     0.00   0.00  -0.00     0.00   0.00  -0.00    -0.00  -0.00   0.00
 106   7    -0.00   0.00  -0.00    -0.00   0.00  -0.00    -0.00   0.00  -0.00
 107   6    -0.00  -0.00   0.00     0.00   0.00  -0.00    -0.00  -0.00   0.00
 108   6     0.00  -0.00   0.00    -0.00   0.00  -0.00     0.00  -0.00   0.00
 109   7     0.00   0.00  -0.00    -0.00  -0.00   0.00     0.00   0.00  -0.00
 110   1     0.01   0.09  -0.01    -0.01  -0.13   0.02     0.01   0.13  -0.01
 111   1     0.13   0.01  -0.00    -0.18  -0.02   0.00     0.18   0.02  -0.00
 112   1     0.01  -0.00   0.00    -0.11   0.01  -0.00     0.14  -0.02   0.00
 113   1     0.00  -0.00   0.00    -0.01   0.08  -0.01     0.01  -0.11   0.01
 114   1    -0.00   0.01  -0.00    -0.00   0.01  -0.00     0.00  -0.01   0.00
 115   1     0.03   0.32  -0.03     0.03   0.29  -0.03    -0.03  -0.31   0.03
 116   1     0.44   0.05  -0.00     0.40   0.04  -0.00    -0.43  -0.05   0.00
 117   1     0.02  -0.00   0.00     0.09  -0.01   0.00    -0.10   0.01  -0.00
 118   1     0.00  -0.01   0.00     0.01  -0.06   0.01    -0.01   0.07  -0.01
 119   1    -0.00   0.00  -0.00     0.00  -0.00   0.00    -0.00   0.00  -0.00
