      -----------------------------------------------------------      
     |                   =====================                   |     
     |                           x T B                           |     
     |                   =====================                   |     
     |                         S. Grimme                         |     
     |          Mulliken Center for Theoretical Chemistry        |     
     |                    University of Bonn                     |     
      -----------------------------------------------------------      

   * xtb version 6.4.1 (bd6e46d) compiled by 'conda@4901f00b25ba' on 2021-06-10

   xtb is free software: you can redistribute it and/or modify it under
   the terms of the GNU Lesser General Public License as published by
   the Free Software Foundation, either version 3 of the License, or
   (at your option) any later version.
   
   xtb is distributed in the hope that it will be useful,
   but WITHOUT ANY WARRANTY; without even the implied warranty of
   MERCHANTABILITY or FITNESS FOR A PARTICULAR PURPOSE.  See the
   GNU Lesser General Public License for more details.
   
   Cite this work as:
   * C. Bannwarth, E. Caldeweyher, S. Ehlert, A. Hansen, P. Pracht,
     J. Seibert, S. Spicher, S. Grimme, WIREs Comput. Mol. Sci., 2020, 11,
     e01493. DOI: 10.1002/wcms.1493
   
   for GFN2-xTB:
   * C. Bannwarth, S. Ehlert and S. Grimme., J. Chem. Theory Comput., 2019,
     15, 1652-1671. DOI: 10.1021/acs.jctc.8b01176
   for GFN1-xTB:
   * S. Grimme, C. Bannwarth, P. Shushkov, J. Chem. Theory Comput., 2017,
     13, 1989-2009. DOI: 10.1021/acs.jctc.7b00118
   for GFN0-xTB:
   * P. Pracht, E. Caldeweyher, S. Ehlert, S. Grimme, ChemRxiv, 2019, preprint.
     DOI: 10.26434/chemrxiv.8326202.v1
   for GFN-FF:
   * S. Spicher and S. Grimme, Angew. Chem. Int. Ed., 2020, 59, 15665-15673.
     DOI: 10.1002/anie.202004239
   
   for DFT-D4:
   * E. Caldeweyher, C. Bannwarth and S. Grimme, J. Chem. Phys., 2017,
     147, 034112. DOI: 10.1063/1.4993215
   * E. Caldeweyher, S. Ehlert, A. Hansen, H. Neugebauer, S. Spicher,
     C. Bannwarth and S. Grimme, J. Chem. Phys., 2019, 150, 154122.
     DOI: 10.1063/1.5090222
   * E. Caldeweyher, J.-M. Mewes, S. Ehlert and S. Grimme, Phys. Chem. Chem. Phys.
     2020, 22, 8499-8512. DOI: 10.1039/D0CP00502A
   
   for sTDA-xTB:
   * S. Grimme and C. Bannwarth, J. Chem. Phys., 2016, 145, 054103.
     DOI: 10.1063/1.4959605
   
   in the mass-spec context:
   * V. Asgeirsson, C. Bauer and S. Grimme, Chem. Sci., 2017, 8, 4879.
     DOI: 10.1039/c7sc00601b
   * J. Koopman and S. Grimme, ACS Omega 2019, 4, 12, 15120-15133.
     DOI: 10.1021/acsomega.9b02011
   
   for metadynamics refer to:
   * S. Grimme, J. Chem. Theory Comput., 2019, 155, 2847-2862
     DOI: 10.1021/acs.jctc.9b00143
   
   for SPH calculations refer to:
   * S. Spicher and S. Grimme, J. Chem. Theory Comput., 2021, 17, 1701-1714
     DOI: 10.1021/acs.jctc.0c01306
   
   with help from (in alphabetical order)
   P. Atkinson, C. Bannwarth, F. Bohle, G. Brandenburg, E. Caldeweyher
   M. Checinski, S. Dohm, S. Ehlert, S. Ehrlich, I. Gerasimov, J. Koopman
   C. Lavigne, S. Lehtola, F. März, M. Müller, F. Musil, H. Neugebauer
   J. Pisarek, C. Plett, P. Pracht, J. Seibert, P. Shushkov, S. Spicher
   M. Stahn, M. Steiner, T. Strunk, J. Stückrath, T. Rose, and J. Unsleber
   
 * started run on 2021/11/19 at 11:56:54.948     

           -------------------------------------------------
          |                Calculation Setup                |
           -------------------------------------------------

          program call               : /home/jeff/miniconda3/bin/xtb input_structure_1.xyz --gfn 2 --ohess normal --parallel 1 --etemp 300 --chrg 0 --uhf 0 -I det_control.in
          hostname                   : jelfscompute1
          coordinate file            : input_structure_1.xyz
          omp threads                :                     1
          number of atoms            :                   119
          number of electrons        :                   413
          charge                     :                     0
          spin                       :                   0.5
          first test random number   :      0.34960940489859

   ID    Z sym.   atoms
    1   29 Cu     1, 37, 85
    2    6 C      2-9, 11-15, 17-21, 23, 24, 38-45, 47-51, 53-57, 59, 60,
                  73-84, 86-93, 95-99, 101-105, 107, 108
    3    7 N      10, 16, 22, 25, 46, 52, 58, 61, 94, 100, 106, 109
    4    1 H      26-36, 62-72, 110-119

molecular fragmentation (1/2 indicates fragments):
111111111111111111111111111111111111222222222222222222222222222222222222
22222222222222222222222222222222222222222222222
# atoms in fragment 1/2:    36    83
 fragment masses (1/2) :      370.87      884.87
CMA distance (Bohr)    :  46.824
constraining FC (au)   :  0.0500

           -------------------------------------------------
          |                 G F N 2 - x T B                 |
           -------------------------------------------------

        Reference                      10.1021/acs.jctc.8b01176
      * Hamiltonian:
        H0-scaling (s, p, d)           1.850000    2.230000    2.230000
        zeta-weighting                 0.500000
      * Dispersion:
        s8                             2.700000
        a1                             0.520000
        a2                             5.000000
        s9                             5.000000
      * Repulsion:
        kExp                           1.500000    1.000000
        rExp                           1.000000
      * Coulomb:
        alpha                          2.000000
        third order                    shell-resolved
        anisotropic                    true
        a3                             3.000000
        a5                             4.000000
        cn-shift                       1.200000
        cn-exp                         4.000000
        max-rad                        5.000000


          ...................................................
          :                      SETUP                      :
          :.................................................:
          :  # basis functions                 398          :
          :  # atomic orbitals                 395          :
          :  # shells                          209          :
          :  # electrons                       413          :
          :  max. iterations                   250          :
          :  Hamiltonian                  GFN2-xTB          :
          :  restarted?                      false          :
          :  GBSA solvation                  false          :
          :  PC potential                    false          :
          :  electronic temp.          300.0000000     K    :
          :  accuracy                    1.0000000          :
          :  -> integral cutoff          0.2500000E+02      :
          :  -> integral neglect         0.1000000E-07      :
          :  -> SCF convergence          0.1000000E-05 Eh   :
          :  -> wf. convergence          0.1000000E-03 e    :
          :  Broyden damping             0.4000000          :
          ...................................................

 iter      E             dE          RMSdq      gap      omega  full diag
   1   -219.8455016 -0.219846E+03  0.630E+00    0.27       0.0  T
   2   -209.0507597  0.107947E+02  0.574E+00    0.04       1.0  T
   3   -179.6381662  0.294126E+02  0.111E+01    0.18       1.0  T
   4   -180.8906647 -0.125250E+01  0.105E+01    0.17       1.0  T
   5   -201.7674906 -0.208768E+02  0.635E+00    0.02       1.0  T
   6   -194.3645841  0.740291E+01  0.635E+00    0.06       1.0  T
   7   -211.4592808 -0.170947E+02  0.420E+00    0.12       1.0  T
   8   -210.4844298  0.974851E+00  0.380E+00    0.03       1.0  T
   9   -217.5574685 -0.707304E+01  0.286E+00    0.16       1.0  T
  10   -219.1590332 -0.160156E+01  0.213E+00    0.19       1.0  T
  11   -219.5960057 -0.436972E+00  0.171E+00    0.12       1.0  T
  12   -219.7871975 -0.191192E+00  0.154E+00    0.03       1.0  T
  13   -219.7401055  0.470920E-01  0.141E+00    0.06       1.0  T
  14   -219.8494263 -0.109321E+00  0.123E+00    0.00       1.0  T
  15   -219.9038620 -0.544357E-01  0.110E+00    0.01       1.0  T
  16   -219.8750544  0.288077E-01  0.104E+00    0.00       1.0  T
  17   -219.9151912 -0.401369E-01  0.947E-01    0.01       1.0  T
  18   -220.0546646 -0.139473E+00  0.722E-01    0.14       1.0  T
  19   -220.0994278 -0.447632E-01  0.579E-01    0.05       1.0  T
  20   -220.1230313 -0.236035E-01  0.459E-01    0.07       1.0  T
  21   -220.1506111 -0.275798E-01  0.402E-01    0.08       1.0  T
  22   -220.1455987  0.501248E-02  0.407E-01    0.12       1.0  T
  23   -220.1836018 -0.380032E-01  0.310E-01    0.09       1.0  T
  24   -220.1496900  0.339118E-01  0.326E-01    0.02       1.0  T
  25   -220.1684355 -0.187455E-01  0.321E-01    0.08       1.0  T
  26   -220.1905608 -0.221254E-01  0.154E-01    0.08       1.0  T
  27   -220.1933582 -0.279739E-02  0.849E-02    0.08       1.0  T
  28   -220.1932010  0.157210E-03  0.786E-02    0.08       1.0  T
  29   -220.1939680 -0.766981E-03  0.618E-02    0.08       1.0  T
  30   -220.1946329 -0.664941E-03  0.415E-02    0.08       1.0  T
  31   -220.1945371  0.958005E-04  0.397E-02    0.08       1.0  T
  32   -220.1949207 -0.383578E-03  0.240E-02    0.08       1.0  T
  33   -220.1948142  0.106513E-03  0.314E-02    0.08       1.0  T
  34   -220.1949500 -0.135785E-03  0.182E-02    0.08       1.0  T
  35   -220.1949743 -0.243103E-04  0.147E-02    0.08       1.0  T
  36   -220.1949516  0.227021E-04  0.150E-02    0.08       1.0  T
  37   -220.1949869 -0.352786E-04  0.112E-02    0.08       1.0  T
  38   -220.1949943 -0.744459E-05  0.976E-03    0.08       1.0  T
  39   -220.1949968 -0.249362E-05  0.895E-03    0.08       1.0  T
  40   -220.1950176 -0.207504E-04  0.644E-03    0.08       1.4  T
  41   -220.1950230 -0.544402E-05  0.546E-03    0.08       1.7  T
  42   -220.1950295 -0.646149E-05  0.400E-03    0.08       2.3  T
  43   -220.1950319 -0.238625E-05  0.295E-03    0.08       3.1  T
  44   -220.1950327 -0.803058E-06  0.208E-03    0.08       4.4  T
  45   -220.1950330 -0.371379E-06  0.137E-03    0.08       6.7  T
  46   -220.1950331 -0.434133E-07  0.934E-04    0.08       9.8  T
  47   -220.1950332 -0.162557E-06  0.427E-04    0.08      21.5  T

   *** convergence criteria satisfied after 47 iterations ***

         #    Occupation            Energy/Eh            Energy/eV
      -------------------------------------------------------------
         1        2.0000           -0.6863931             -18.6777
       ...           ...                  ...                  ...
       201        2.0000           -0.3618384              -9.8461
       202        2.0000           -0.3612831              -9.8310
       203        2.0000           -0.3582038              -9.7472
       204        2.0000           -0.3540754              -9.6349
       205        2.0000           -0.3536446              -9.6232
       206        1.3697           -0.3381212              -9.2007
       207        1.3253           -0.3380050              -9.1976 (HOMO)
       208        0.2787           -0.3351524              -9.1200 (LUMO)
       209        0.0135           -0.3320565              -9.0357
       210        0.0128           -0.3320055              -9.0343
       211                         -0.3183056              -8.6615
       212                         -0.3169489              -8.6246
       ...                                ...                  ...
       395                          2.2577333              61.4360
      -------------------------------------------------------------
                  HL-Gap            0.0028526 Eh            0.0776 eV
             Fermi-level           -0.3372032 Eh           -9.1758 eV

 SCC (total)                   0 d,  0 h,  0 min,  1.700 sec
 SCC setup                      ...        0 min,  0.003 sec (  0.170%)
 Dispersion                     ...        0 min,  0.007 sec (  0.395%)
 classical contributions        ...        0 min,  0.001 sec (  0.048%)
 integral evaluation            ...        0 min,  0.051 sec (  3.022%)
 iterations                     ...        0 min,  1.496 sec ( 88.046%)
 molecular gradient             ...        0 min,  0.138 sec (  8.112%)
 printout                       ...        0 min,  0.003 sec (  0.205%)

         :::::::::::::::::::::::::::::::::::::::::::::::::::::
         ::                     SUMMARY                     ::
         :::::::::::::::::::::::::::::::::::::::::::::::::::::
         :: total energy            -215.977431095682 Eh    ::
         :: gradient norm              1.091689871808 Eh/a0 ::
         :: HOMO-LUMO gap              0.077623350959 eV    ::
         ::.................................................::
         :: SCC energy              -220.195033239056 Eh    ::
         :: -> isotropic ES            0.114780206255 Eh    ::
         :: -> anisotropic ES          0.030837417819 Eh    ::
         :: -> anisotropic XC          0.123219752299 Eh    ::
         :: -> dispersion             -0.178006819142 Eh    ::
         :: repulsion energy           4.217373561633 Eh    ::
         :: add. restraining           0.000000000000 Eh    ::
         :: total charge               0.000000000001 e     ::
         :::::::::::::::::::::::::::::::::::::::::::::::::::::

      ----------------------------------------------------------- 
     |                   =====================                   |
     |                        A N C O P T                        |
     |                   =====================                   |
     |               Approximate Normal Coordinate               |
     |                Rational Function Optimizer                |
      ----------------------------------------------------------- 

          ...................................................
          :                      SETUP                      :
          :.................................................:
          :   optimization level            normal          :
          :   max. optcycles                   357          :
          :   ANC micro-cycles                  20          :
          :   degrees of freedom               351          :
          :.................................................:
          :   RF solver                   davidson          :
          :   write xtbopt.log                true          :
          :   linear?                        false          :
          :   energy convergence         0.5000000E-05 Eh   :
          :   grad. convergence          0.1000000E-02 Eh/α :
          :   maximium RF displ.         1.0000000          :
          :   Hlow (freq-cutoff)         0.1000000E-01      :
          :   Hmax (freq-cutoff)         5.0000000          :
          :   S6 in model hess.         20.0000000          :
          ...................................................

generating ANC from model Hessian ...
Using Lindh-Hessian (1995)
 Shifting diagonal of input Hessian by    1.0134268716269094E-002
 Lowest  eigenvalues of input Hessian
    0.010000    0.010034    0.010102    0.010109    0.010113    0.010116
    0.010123    0.010127    0.000000    0.000000    0.000000    0.000000
    0.000000    0.000000    0.010142    0.010146    0.010154    0.010163
 Highest eigenvalues
    2.472860    2.628587    2.682208    2.687821    3.327668    3.495154


........................................................................
.............................. CYCLE    1 ..............................
........................................................................
   1   -220.1950332 -0.220195E+03  0.437E-04    0.08       0.0  T
   2   -220.1949902  0.429877E-04  0.796E-03    0.08       1.2  T
   3   -220.1950314 -0.412003E-04  0.205E-03    0.08       4.5  T
   4   -220.1950329 -0.143675E-05  0.852E-04    0.08      10.8  T
   5   -220.1950331 -0.245396E-06  0.581E-04    0.08      15.8  T
   6   -220.1950333 -0.138818E-06  0.267E-04    0.08      34.4  T
     SCC iter.                  ...        0 min,  0.191 sec
     gradient                   ...        0 min,  0.138 sec
 * total energy  :  -215.9774311 Eh     change       -0.2403979E-07 Eh
   gradient norm :     1.0916904 Eh/α   predicted     0.0000000E+00 (-100.00%)
   displ. norm   :     0.5369939 α      lambda       -0.4988720E+00
   maximum displ.:     0.1329250 α      in ANC's #283, #351, #282, ...

........................................................................
.............................. CYCLE    2 ..............................
........................................................................
   1   -220.1811111 -0.220181E+03  0.493E-01    0.09       0.0  T
   2   -219.6593766  0.521735E+00  0.127E+00    0.21       1.0  T
   3   -220.0211539 -0.361777E+00  0.803E-01    0.04       1.0  T
   4   -219.9798440  0.413098E-01  0.663E-01    0.01       1.0  T
   5   -219.7508603  0.228984E+00  0.858E-01    0.13       1.0  T
   6   -219.9312929 -0.180433E+00  0.702E-01    0.05       1.0  T
   7   -220.1786717 -0.247379E+00  0.288E-01    0.13       1.0  T
   8   -220.1716805  0.699115E-02  0.302E-01    0.11       1.0  T
   9   -220.0994388  0.722417E-01  0.513E-01    0.10       1.0  T
  10   -220.1946319 -0.951931E-01  0.183E-01    0.14       1.0  T
  11   -220.1864111  0.822083E-02  0.213E-01    0.11       1.0  T
  12   -220.2007683 -0.143572E-01  0.146E-01    0.15       1.0  T
  13   -220.1998728  0.895485E-03  0.143E-01    0.14       1.0  T
  14   -220.2012082 -0.133542E-02  0.135E-01    0.14       1.0  T
  15   -220.2034784 -0.227014E-02  0.963E-02    0.14       1.0  T
  16   -220.2072398 -0.376140E-02  0.325E-02    0.10       1.0  T
  17   -220.2070362  0.203613E-03  0.351E-02    0.09       1.0  T
  18   -220.2073326 -0.296387E-03  0.207E-02    0.09       1.0  T
  19   -220.2074323 -0.997260E-04  0.101E-02    0.10       1.0  T
  20   -220.2073089  0.123385E-03  0.157E-02    0.10       1.0  T
  21   -220.2074395 -0.130617E-03  0.677E-03    0.10       1.4  T
  22   -220.2074180  0.214988E-04  0.824E-03    0.10       1.1  T
  23   -220.2073976  0.204152E-04  0.900E-03    0.10       1.0  T
  24   -220.2074448 -0.472140E-04  0.282E-03    0.10       3.2  T
  25   -220.2074371  0.773874E-05  0.386E-03    0.10       2.4  T
  26   -220.2074467 -0.967419E-05  0.115E-03    0.10       8.0  T
  27   -220.2074464  0.333402E-06  0.137E-03    0.10       6.7  T
  28   -220.2074467 -0.288317E-06  0.111E-03    0.10       8.3  T
  29   -220.2074473 -0.573124E-06  0.427E-04    0.10      21.5  T
  30   -220.2074473 -0.305874E-07  0.278E-04    0.10      33.0  T
     SCC iter.                  ...        0 min,  0.941 sec
     gradient                   ...        0 min,  0.138 sec
 * total energy  :  -216.3094217 Eh     change       -0.3319906E+00 Eh
   gradient norm :     0.4157138 Eh/α   predicted    -0.3213836E+00 (  -3.19%)
   displ. norm   :     0.5955930 α      lambda       -0.1844357E+00
   maximum displ.:     0.2205247 α      in ANC's #122, #121, #123, ...

........................................................................
.............................. CYCLE    3 ..............................
........................................................................
   1   -220.1823683 -0.220182E+03  0.670E-01    0.14       0.0  T
   2   -217.9206469  0.226172E+01  0.240E+00    0.24       1.0  T
   3   -219.9798564 -0.205921E+01  0.119E+00    0.09       1.0  T
   4   -219.8512933  0.128563E+00  0.889E-01    0.08       1.0  T
   5   -219.7027530  0.148540E+00  0.994E-01    0.23       1.0  T
   6   -220.2190944 -0.516341E+00  0.385E-01    0.14       1.0  T
   7   -220.1455227  0.735717E-01  0.477E-01    0.05       1.0  T
   8   -220.0883933  0.571294E-01  0.506E-01    0.00       1.0  T
   9   -220.1555773 -0.671840E-01  0.405E-01    0.06       1.0  T
  10   -220.2116221 -0.560447E-01  0.259E-01    0.08       1.0  T
  11   -220.2438774 -0.322554E-01  0.148E-01    0.11       1.0  T
  12   -220.2427968  0.108063E-02  0.124E-01    0.11       1.0  T
  13   -220.2472803 -0.448348E-02  0.644E-02    0.11       1.0  T
  14   -220.2477579 -0.477656E-03  0.440E-02    0.10       1.0  T
  15   -220.2466584  0.109959E-02  0.602E-02    0.09       1.0  T
  16   -220.2475021 -0.843700E-03  0.381E-02    0.10       1.0  T
  17   -220.2472473  0.254800E-03  0.354E-02    0.10       1.0  T
  18   -220.2480302 -0.782943E-03  0.146E-02    0.10       1.0  T
  19   -220.2479037  0.126463E-03  0.181E-02    0.10       1.0  T
  20   -220.2479059 -0.216094E-05  0.154E-02    0.10       1.0  T
  21   -220.2479295 -0.236014E-04  0.163E-02    0.10       1.0  T
  22   -220.2480745 -0.145031E-03  0.657E-03    0.10       1.4  T
  23   -220.2478760  0.198523E-03  0.167E-02    0.10       1.0  T
  24   -220.2480441 -0.168058E-03  0.704E-03    0.10       1.3  T
  25   -220.2480750 -0.309573E-04  0.285E-03    0.10       3.2  T
  26   -220.2480806 -0.554947E-05  0.977E-04    0.10       9.4  T
  27   -220.2480794  0.115489E-05  0.137E-03    0.10       6.7  T
  28   -220.2480798 -0.361078E-06  0.116E-03    0.10       7.9  T
  29   -220.2480806 -0.819721E-06  0.500E-04    0.10      18.3  T
  30   -220.2480806 -0.294506E-08  0.471E-04    0.10      19.5  T
     SCC iter.                  ...        0 min,  0.941 sec
     gradient                   ...        0 min,  0.138 sec
 * total energy  :  -216.4488503 Eh     change       -0.1394286E+00 Eh
   gradient norm :     0.1836741 Eh/α   predicted    -0.1249306E+00 ( -10.40%)
   displ. norm   :     0.6822010 α      lambda       -0.9661128E-01
   maximum displ.:     0.2701517 α      in ANC's #122, #121, #90, ...

........................................................................
.............................. CYCLE    4 ..............................
........................................................................
   1   -220.2183272 -0.220218E+03  0.763E-01    0.19       0.0  T
   2   -216.4665236  0.375180E+01  0.298E+00    0.14       1.0  T
   3   -219.9389581 -0.347243E+01  0.149E+00    0.19       1.0  T
   4   -220.2151278 -0.276170E+00  0.622E-01    0.16       1.0  T
   5   -219.8385607  0.376567E+00  0.937E-01    0.17       1.0  T
   6   -219.8621079 -0.235472E-01  0.924E-01    0.20       1.0  T
   7   -220.2599729 -0.397865E+00  0.359E-01    0.06       1.0  T
   8   -220.1919493  0.680236E-01  0.499E-01    0.03       1.0  T
   9   -220.3020776 -0.110128E+00  0.206E-01    0.08       1.0  T
  10   -220.2748146  0.272629E-01  0.247E-01    0.05       1.0  T
  11   -220.2965057 -0.216911E-01  0.199E-01    0.07       1.0  T
  12   -220.3131029 -0.165971E-01  0.714E-02    0.08       1.0  T
  13   -220.3136826 -0.579746E-03  0.492E-02    0.08       1.0  T
  14   -220.3137158 -0.331888E-04  0.334E-02    0.08       1.0  T
  15   -220.3134063  0.309511E-03  0.368E-02    0.07       1.0  T
  16   -220.3136880 -0.281650E-03  0.242E-02    0.07       1.0  T
  17   -220.3125708  0.111719E-02  0.450E-02    0.07       1.0  T
  18   -220.3139614 -0.139066E-02  0.155E-02    0.08       1.0  T
  19   -220.3139697 -0.826333E-05  0.137E-02    0.08       1.0  T
  20   -220.3138247  0.144992E-03  0.160E-02    0.07       1.0  T
  21   -220.3139939 -0.169194E-03  0.768E-03    0.08       1.2  T
  22   -220.3140101 -0.161799E-04  0.508E-03    0.08       1.8  T
  23   -220.3140008  0.923300E-05  0.509E-03    0.08       1.8  T
  24   -220.3139872  0.136101E-04  0.664E-03    0.08       1.4  T
  25   -220.3140116 -0.243367E-04  0.270E-03    0.08       3.4  T
  26   -220.3140132 -0.164760E-05  0.912E-04    0.08      10.1  T
  27   -220.3140132 -0.190171E-07  0.685E-04    0.08      13.4  T
  28   -220.3140134 -0.171217E-06  0.588E-04    0.08      15.6  T
     SCC iter.                  ...        0 min,  0.882 sec
     gradient                   ...        0 min,  0.138 sec
 * total energy  :  -216.5228613 Eh     change       -0.7401094E-01 Eh
   gradient norm :     0.0906069 Eh/α   predicted    -0.7078726E-01 (  -4.36%)
   displ. norm   :     0.7286731 α      lambda       -0.5615774E-01
   maximum displ.:     0.2558088 α      in ANC's #122, #65, #90, ...

........................................................................
.............................. CYCLE    5 ..............................
........................................................................
   1   -220.2638773 -0.220264E+03  0.752E-01    0.24       0.0  T
   2   -215.4087518  0.485513E+01  0.330E+00    0.03       1.0  T
   3   -219.9535554 -0.454480E+01  0.154E+00    0.15       1.0  T
   4   -220.2614619 -0.307907E+00  0.686E-01    0.15       1.0  T
   5   -219.9338488  0.327613E+00  0.831E-01    0.10       1.0  T
   6   -219.8877991  0.460497E-01  0.943E-01    0.31       1.0  T
   7   -220.3008443 -0.413045E+00  0.425E-01    0.06       1.0  T
   8   -220.2052998  0.955445E-01  0.496E-01    0.01       1.0  T
   9   -220.3191481 -0.113848E+00  0.360E-01    0.11       1.0  T
  10   -220.2915603  0.275878E-01  0.314E-01    0.03       1.0  T
  11   -220.3310579 -0.394977E-01  0.233E-01    0.05       1.0  T
  12   -220.3505509 -0.194930E-01  0.155E-01    0.06       1.0  T
  13   -220.3625046 -0.119537E-01  0.638E-02    0.07       1.0  T
  14   -220.3634214 -0.916806E-03  0.576E-02    0.06       1.0  T
  15   -220.3634488 -0.274568E-04  0.473E-02    0.06       1.0  T
  16   -220.3606432  0.280563E-02  0.682E-02    0.06       1.0  T
  17   -220.3635684 -0.292524E-02  0.282E-02    0.07       1.0  T
  18   -220.3639388 -0.370337E-03  0.240E-02    0.07       1.0  T
  19   -220.3638657  0.730886E-04  0.215E-02    0.07       1.0  T
  20   -220.3641165 -0.250858E-03  0.795E-03    0.07       1.2  T
  21   -220.3638743  0.242210E-03  0.185E-02    0.07       1.0  T
  22   -220.3640610 -0.186670E-03  0.111E-02    0.07       1.0  T
  23   -220.3640786 -0.176437E-04  0.106E-02    0.07       1.0  T
  24   -220.3641292 -0.505462E-04  0.341E-03    0.07       2.7  T
  25   -220.3641239  0.529045E-05  0.390E-03    0.07       2.4  T
  26   -220.3641077  0.162464E-04  0.565E-03    0.07       1.6  T
  27   -220.3641336 -0.259646E-04  0.109E-03    0.07       8.4  T
  28   -220.3641338 -0.146865E-06  0.759E-04    0.07      12.1  T
  29   -220.3641337  0.219615E-07  0.613E-04    0.07      14.9  T
     SCC iter.                  ...        0 min,  0.911 sec
     gradient                   ...        0 min,  0.138 sec
 * total energy  :  -216.5690516 Eh     change       -0.4619039E-01 Eh
   gradient norm :     0.0711898 Eh/α   predicted    -0.4298776E-01 (  -6.93%)
   displ. norm   :     0.7624969 α      lambda       -0.4028470E-01
   maximum displ.:     0.2878592 α      in ANC's #65, #90, #122, ...

........................................................................
.............................. CYCLE    6 ..............................
........................................................................
   1   -220.3259441 -0.220326E+03  0.685E-01    0.28       0.0  T
   2   -215.4331337  0.489281E+01  0.326E+00    0.04       1.0  T
   3   -219.9679702 -0.453484E+01  0.154E+00    0.05       1.0  T
   4   -220.2916235 -0.323653E+00  0.682E-01    0.12       1.0  T
   5   -219.2769953  0.101463E+01  0.138E+00    0.31       1.0  T
   6   -219.9937180 -0.716723E+00  0.844E-01    0.14       1.0  T
   7   -220.1017664 -0.108048E+00  0.783E-01    0.04       1.0  T
   8   -220.2979696 -0.196203E+00  0.396E-01    0.01       1.0  T
   9   -220.3578155 -0.598459E-01  0.374E-01    0.13       1.0  T
  10   -220.3862072 -0.283917E-01  0.256E-01    0.11       1.0  T
  11   -220.3915419 -0.533473E-02  0.223E-01    0.12       1.0  T
  12   -220.3909912  0.550775E-03  0.228E-01    0.13       1.0  T
  13   -220.3950812 -0.409001E-02  0.194E-01    0.12       1.0  T
  14   -220.3963252 -0.124401E-02  0.120E-01    0.06       1.0  T
  15   -220.3746307  0.216944E-01  0.196E-01    0.04       1.0  T
  16   -220.4030992 -0.284685E-01  0.910E-02    0.09       1.0  T
  17   -220.4042890 -0.118979E-02  0.499E-02    0.07       1.0  T
  18   -220.4055269 -0.123793E-02  0.265E-02    0.07       1.0  T
  19   -220.4057426 -0.215660E-03  0.195E-02    0.07       1.0  T
  20   -220.4057562 -0.136441E-04  0.182E-02    0.08       1.0  T
  21   -220.4052060  0.550177E-03  0.329E-02    0.07       1.0  T
  22   -220.4054127 -0.206649E-03  0.283E-02    0.07       1.0  T
  23   -220.4053179  0.947485E-04  0.294E-02    0.07       1.0  T
  24   -220.4058004 -0.482499E-03  0.415E-03    0.07       2.2  T
  25   -220.4057921  0.830786E-05  0.593E-03    0.07       1.5  T
  26   -220.4058039 -0.117793E-04  0.196E-03    0.08       4.7  T
  27   -220.4058055 -0.163724E-05  0.110E-03    0.08       8.3  T
  28   -220.4058051  0.389271E-06  0.111E-03    0.08       8.2  T
  29   -220.4058055 -0.302341E-06  0.110E-03    0.08       8.3  T
  30   -220.4058057 -0.257574E-06  0.928E-04    0.08       9.9  T
  31   -220.4058059 -0.183009E-06  0.510E-04    0.08      18.0  T
     SCC iter.                  ...        0 min,  0.975 sec
     gradient                   ...        0 min,  0.138 sec
 * total energy  :  -216.6024910 Eh     change       -0.3343941E-01 Eh
   gradient norm :     0.0533811 Eh/α   predicted    -0.3185316E-01 (  -4.74%)
   displ. norm   :     0.7593685 α      lambda       -0.2805175E-01
   maximum displ.:     0.3016297 α      in ANC's #65, #90, #64, ...

........................................................................
.............................. CYCLE    7 ..............................
........................................................................
   1   -220.3883211 -0.220388E+03  0.572E-01    0.27       0.0  T
   2   -216.4680389  0.392028E+01  0.291E+00    0.03       1.0  T
   3   -220.1482971 -0.368026E+01  0.104E+00    0.02       1.0  T
   4   -219.8433169  0.304980E+00  0.110E+00    0.32       1.0  T
   5   -219.8291769  0.141400E-01  0.115E+00    0.17       1.0  T
   6   -220.0729223 -0.243745E+00  0.105E+00    0.03       1.0  T
   7   -220.3482917 -0.275369E+00  0.438E-01    0.06       1.0  T
   8   -220.4012301 -0.529383E-01  0.347E-01    0.14       1.0  T
   9   -220.3974617  0.376838E-02  0.292E-01    0.10       1.0  T
  10   -220.4233652 -0.259035E-01  0.204E-01    0.11       1.0  T
  11   -220.4301730 -0.680779E-02  0.162E-01    0.11       1.0  T
  12   -220.4329007 -0.272780E-02  0.133E-01    0.10       1.0  T
  13   -220.4299650  0.293572E-02  0.118E-01    0.07       1.0  T
  14   -220.4241199  0.584512E-02  0.156E-01    0.06       1.0  T
  15   -220.4361010 -0.119811E-01  0.875E-02    0.10       1.0  T
  16   -220.4291912  0.690977E-02  0.121E-01    0.08       1.0  T
  17   -220.4382250 -0.903384E-02  0.480E-02    0.09       1.0  T
  18   -220.4385813 -0.356276E-03  0.325E-02    0.09       1.0  T
  19   -220.4386036 -0.223287E-04  0.313E-02    0.09       1.0  T
  20   -220.4385095  0.941668E-04  0.330E-02    0.09       1.0  T
  21   -220.4387374 -0.227929E-03  0.253E-02    0.09       1.0  T
  22   -220.4385481  0.189248E-03  0.273E-02    0.09       1.0  T
  23   -220.4387721 -0.223923E-03  0.195E-02    0.09       1.0  T
  24   -220.4389482 -0.176157E-03  0.786E-03    0.09       1.2  T
  25   -220.4389669 -0.187104E-04  0.732E-03    0.09       1.3  T
  26   -220.4389718 -0.481474E-05  0.469E-03    0.09       2.0  T
  27   -220.4389601  0.116970E-04  0.639E-03    0.09       1.4  T
  28   -220.4389831 -0.230318E-04  0.215E-03    0.09       4.3  T
  29   -220.4389831  0.295937E-07  0.168E-03    0.09       5.5  T
  30   -220.4389830  0.548806E-07  0.173E-03    0.09       5.3  T
  31   -220.4389848 -0.181833E-05  0.477E-04    0.09      19.2  T
  32   -220.4389849 -0.827326E-07  0.343E-04    0.09      26.7  T
  33   -220.4389849 -0.437926E-07  0.276E-04    0.09      33.2  T
     SCC iter.                  ...        0 min,  1.037 sec
     gradient                   ...        0 min,  0.138 sec
 * total energy  :  -216.6254583 Eh     change       -0.2296722E-01 Eh
   gradient norm :     0.0380520 Eh/α   predicted    -0.2211378E-01 (  -3.72%)
   displ. norm   :     0.7324956 α      lambda       -0.1809559E-01
   maximum displ.:     0.2650093 α      in ANC's #65, #90, #23, ...

........................................................................
.............................. CYCLE    8 ..............................
........................................................................
   1   -220.4362874 -0.220436E+03  0.453E-01    0.24       0.0  T
   2   -217.3868222  0.304947E+01  0.258E+00    0.01       1.0  T
   3   -220.2928791 -0.290606E+01  0.702E-01    0.04       1.0  T
   4   -219.8412920  0.451587E+00  0.113E+00    0.27       1.0  T
   5   -220.2848475 -0.443555E+00  0.659E-01    0.01       1.0  T
   6   -219.8913341  0.393513E+00  0.119E+00    0.01       1.0  T
   7   -220.3590543 -0.467720E+00  0.476E-01    0.07       1.0  T
   8   -220.3882330 -0.291786E-01  0.347E-01    0.04       1.0  T
   9   -220.4262024 -0.379694E-01  0.267E-01    0.08       1.0  T
  10   -220.4549740 -0.287716E-01  0.177E-01    0.13       1.0  T
  11   -220.4506129  0.436106E-02  0.165E-01    0.08       1.0  T
  12   -220.4593629 -0.874996E-02  0.136E-01    0.13       1.0  T
  13   -220.4600437 -0.680817E-03  0.125E-01    0.13       1.0  T
  14   -220.4627363 -0.269262E-02  0.834E-02    0.11       1.0  T
  15   -220.4613687  0.136760E-02  0.821E-02    0.09       1.0  T
  16   -220.4626176 -0.124881E-02  0.642E-02    0.09       1.0  T
  17   -220.4645601 -0.194259E-02  0.297E-02    0.10       1.0  T
  18   -220.4637979  0.762243E-03  0.414E-02    0.10       1.0  T
  19   -220.4647383 -0.940369E-03  0.192E-02    0.10       1.0  T
  20   -220.4646935  0.447477E-04  0.220E-02    0.10       1.0  T
  21   -220.4646721  0.213917E-04  0.223E-02    0.10       1.0  T
  22   -220.4645730  0.991177E-04  0.240E-02    0.10       1.0  T
  23   -220.4647401 -0.167126E-03  0.163E-02    0.10       1.0  T
  24   -220.4647373  0.282074E-05  0.151E-02    0.10       1.0  T
  25   -220.4647733 -0.359982E-04  0.979E-03    0.10       1.0  T
  26   -220.4648053 -0.320036E-04  0.585E-03    0.10       1.6  T
  27   -220.4648119 -0.661772E-05  0.425E-03    0.10       2.2  T
  28   -220.4648158 -0.386083E-05  0.286E-03    0.10       3.2  T
  29   -220.4648193 -0.345779E-05  0.129E-03    0.10       7.1  T
  30   -220.4648193 -0.883049E-07  0.136E-03    0.10       6.7  T
  31   -220.4648194 -0.686279E-07  0.118E-03    0.10       7.8  T
  32   -220.4648198 -0.418608E-06  0.548E-04    0.10      16.7  T
  33   -220.4648199 -0.878899E-07  0.384E-04    0.10      23.9  T
     SCC iter.                  ...        0 min,  1.035 sec
     gradient                   ...        0 min,  0.139 sec
 * total energy  :  -216.6399551 Eh     change       -0.1449679E-01 Eh
   gradient norm :     0.0279142 Eh/α   predicted    -0.1390242E-01 (  -4.10%)
   displ. norm   :     0.7148843 α      lambda       -0.1128026E-01
   maximum displ.:     0.3046243 α      in ANC's #23, #25, #90, ...

........................................................................
.............................. CYCLE    9 ..............................
........................................................................
   1   -220.4724494 -0.220472E+03  0.332E-01    0.14       0.0  T
   2   -218.2537264  0.221872E+01  0.202E+00    0.01       1.0  T
   3   -220.1014602 -0.184773E+01  0.768E-01    0.06       1.0  T
   4   -219.8945434  0.206917E+00  0.113E+00    0.16       1.0  T
   5   -220.3804016 -0.485858E+00  0.495E-01    0.08       1.0  T
   6   -219.9305166  0.449885E+00  0.985E-01    0.09       1.0  T
   7   -220.3932057 -0.462689E+00  0.363E-01    0.03       1.0  T
   8   -220.3837007  0.950503E-02  0.501E-01    0.03       1.0  T
   9   -220.4672139 -0.835132E-01  0.234E-01    0.09       1.0  T
  10   -220.4650454  0.216852E-02  0.220E-01    0.09       1.0  T
  11   -220.4773058 -0.122605E-01  0.155E-01    0.09       1.0  T
  12   -220.4727520  0.455382E-02  0.176E-01    0.11       1.0  T
  13   -220.4709658  0.178624E-02  0.164E-01    0.07       1.0  T
  14   -220.4766073 -0.564154E-02  0.130E-01    0.10       1.0  T
  15   -220.4842124 -0.760510E-02  0.564E-02    0.10       1.0  T
  16   -220.4854728 -0.126044E-02  0.499E-02    0.10       1.0  T
  17   -220.4851018  0.371097E-03  0.595E-02    0.09       1.0  T
  18   -220.4856718 -0.570067E-03  0.371E-02    0.09       1.0  T
  19   -220.4856270  0.448526E-04  0.356E-02    0.08       1.0  T
  20   -220.4854499  0.177067E-03  0.361E-02    0.09       1.0  T
  21   -220.4860753 -0.625368E-03  0.184E-02    0.09       1.0  T
  22   -220.4862013 -0.126074E-03  0.503E-03    0.09       1.8  T
  23   -220.4861764  0.249894E-04  0.805E-03    0.09       1.1  T
  24   -220.4862041 -0.277532E-04  0.370E-03    0.09       2.5  T
  25   -220.4862002  0.393924E-05  0.451E-03    0.09       2.0  T
  26   -220.4862086 -0.840929E-05  0.213E-03    0.09       4.3  T
  27   -220.4862095 -0.910771E-06  0.207E-03    0.09       4.4  T
  28   -220.4862093  0.159985E-06  0.176E-03    0.09       5.2  T
  29   -220.4862107 -0.134079E-05  0.749E-04    0.09      12.2  T
  30   -220.4862109 -0.200405E-06  0.379E-04    0.09      24.2  T
  31   -220.4862109 -0.314490E-07  0.240E-04    0.09      38.2  T
     SCC iter.                  ...        0 min,  0.975 sec
     gradient                   ...        0 min,  0.139 sec
 * total energy  :  -216.6491031 Eh     change       -0.9148062E-02 Eh
   gradient norm :     0.0242294 Eh/α   predicted    -0.8522634E-02 (  -6.84%)
   displ. norm   :     0.7701589 α      lambda       -0.8709573E-02
   maximum displ.:     0.3683298 α      in ANC's #23, #25, #24, ...

........................................................................
.............................. CYCLE   10 ..............................
........................................................................
   1   -220.4899769 -0.220490E+03  0.280E-01    0.05       0.0  T
   2   -219.1349359  0.135504E+01  0.141E+00    0.27       1.0  T
   3   -220.4244089 -0.128947E+01  0.455E-01    0.10       1.0  T
   4   -220.3736299  0.507791E-01  0.593E-01    0.03       1.0  T
   5   -220.1683793  0.205251E+00  0.701E-01    0.04       1.0  T
   6   -220.3797780 -0.211399E+00  0.591E-01    0.05       1.0  T
   7   -220.1074332  0.272345E+00  0.928E-01    0.03       1.0  T
   8   -220.4536372 -0.346204E+00  0.299E-01    0.03       1.0  T
   9   -220.3764631  0.771742E-01  0.478E-01    0.02       1.0  T
  10   -220.4758787 -0.994157E-01  0.275E-01    0.14       1.0  T
  11   -220.4827331 -0.685441E-02  0.235E-01    0.12       1.0  T
  12   -220.4873830 -0.464989E-02  0.196E-01    0.11       1.0  T
  13   -220.4946987 -0.731571E-02  0.150E-01    0.11       1.0  T
  14   -220.4966008 -0.190204E-02  0.119E-01    0.11       1.0  T
  15   -220.4988260 -0.222522E-02  0.796E-02    0.09       1.0  T
  16   -220.4985783  0.247742E-03  0.795E-02    0.09       1.0  T
  17   -220.5005506 -0.197236E-02  0.501E-02    0.09       1.0  T
  18   -220.5009835 -0.432918E-03  0.399E-02    0.09       1.0  T
  19   -220.5015283 -0.544777E-03  0.228E-02    0.09       1.0  T
  20   -220.5016659 -0.137605E-03  0.132E-02    0.09       1.0  T
  21   -220.5017062 -0.402265E-04  0.988E-03    0.08       1.0  T
  22   -220.5017551 -0.489522E-04  0.301E-03    0.08       3.0  T
  23   -220.5017558 -0.676053E-06  0.270E-03    0.08       3.4  T
  24   -220.5017570 -0.125239E-05  0.173E-03    0.08       5.3  T
  25   -220.5017562  0.804539E-06  0.204E-03    0.08       4.5  T
  26   -220.5017572 -0.932042E-06  0.133E-03    0.08       6.9  T
  27   -220.5017578 -0.597994E-06  0.609E-04    0.08      15.1  T
  28   -220.5017579 -0.970976E-07  0.332E-04    0.08      27.6  T
     SCC iter.                  ...        0 min,  0.877 sec
     gradient                   ...        0 min,  0.139 sec
 * total energy  :  -216.6560160 Eh     change       -0.6912861E-02 Eh
   gradient norm :     0.0280310 Eh/α   predicted    -0.6937876E-02 (   0.36%)
   displ. norm   :     0.8435456 α      lambda       -0.9462567E-02
   maximum displ.:     0.4248649 α      in ANC's #23, #25, #12, ...

........................................................................
.............................. CYCLE   11 ..............................
........................................................................
   1   -220.4071976 -0.220407E+03  0.559E-01    0.02       0.0  T
   2   -219.2482004  0.115900E+01  0.189E+00    0.13       1.0  T
   3   -220.0152236 -0.767023E+00  0.978E-01    0.06       1.0  T
   4   -219.9772524  0.379712E-01  0.952E-01    0.15       1.0  T
   5   -220.3450208 -0.367768E+00  0.660E-01    0.22       1.0  T
   6   -220.2893114  0.557094E-01  0.689E-01    0.01       1.0  T
   7   -220.1614534  0.127858E+00  0.713E-01    0.05       1.0  T
   8   -220.1285744  0.328789E-01  0.823E-01    0.05       1.0  T
   9   -220.3972751 -0.268701E+00  0.538E-01    0.04       1.0  T
  10   -220.4485403 -0.512652E-01  0.429E-01    0.15       1.0  T
  11   -220.4749010 -0.263607E-01  0.358E-01    0.13       1.0  T
  12   -220.4767274 -0.182637E-02  0.340E-01    0.10       1.0  T
  13   -220.4846166 -0.788924E-02  0.302E-01    0.10       1.0  T
  14   -220.4918458 -0.722912E-02  0.204E-01    0.03       1.0  T
  15   -220.5079690 -0.161232E-01  0.146E-01    0.05       1.0  T
  16   -220.5092444 -0.127539E-02  0.130E-01    0.05       1.0  T
  17   -220.5176511 -0.840667E-02  0.819E-02    0.06       1.0  T
  18   -220.5060649  0.115862E-01  0.159E-01    0.04       1.0  T
  19   -220.5168130 -0.107481E-01  0.915E-02    0.05       1.0  T
  20   -220.5183889 -0.157597E-02  0.688E-02    0.06       1.0  T
  21   -220.5206854 -0.229650E-02  0.256E-02    0.05       1.0  T
  22   -220.5210182 -0.332771E-03  0.109E-02    0.05       1.0  T
  23   -220.5209864  0.317500E-04  0.112E-02    0.05       1.0  T
  24   -220.5210327 -0.462910E-04  0.912E-03    0.06       1.0  T
  25   -220.5210269  0.584994E-05  0.887E-03    0.06       1.0  T
  26   -220.5210641 -0.371791E-04  0.470E-03    0.06       1.9  T
  27   -220.5210734 -0.932720E-05  0.155E-03    0.06       5.9  T
  28   -220.5210735 -0.620304E-07  0.127E-03    0.06       7.2  T
  29   -220.5210741 -0.606033E-06  0.788E-04    0.06      11.6  T
  30   -220.5210743 -0.192357E-06  0.449E-04    0.06      20.4  T
     SCC iter.                  ...        0 min,  0.941 sec
     gradient                   ...        0 min,  0.139 sec
 * total energy  :  -216.6636101 Eh     change       -0.7594084E-02 Eh
   gradient norm :     0.0304829 Eh/α   predicted    -0.8097925E-02 (   6.63%)
   displ. norm   :     0.8364106 α      lambda       -0.8720300E-02
   maximum displ.:     0.4403833 α      in ANC's #23, #25, #12, ...

........................................................................
.............................. CYCLE   12 ..............................
........................................................................
   1   -220.2921719 -0.220292E+03  0.791E-01    0.02       0.0  T
   2   -217.9199986  0.237217E+01  0.305E+00    0.27       1.0  T
   3   -220.0535539 -0.213356E+01  0.112E+00    0.28       1.0  T
   4   -220.1011383 -0.475843E-01  0.997E-01    0.03       1.0  T
   5   -220.0673691  0.337692E-01  0.839E-01    0.12       1.0  T
   6   -220.1241644 -0.567953E-01  0.733E-01    0.09       1.0  T
   7   -220.1532491 -0.290847E-01  0.765E-01    0.16       1.0  T
   8   -220.4239303 -0.270681E+00  0.461E-01    0.05       1.0  T
   9   -220.3768887  0.470417E-01  0.434E-01    0.01       1.0  T
  10   -220.4727401 -0.958514E-01  0.291E-01    0.02       1.0  T
  11   -220.4997929 -0.270528E-01  0.230E-01    0.04       1.0  T
  12   -220.5008965 -0.110359E-02  0.195E-01    0.00       1.0  T
  13   -220.4943550  0.654147E-02  0.228E-01    0.01       1.0  T
  14   -220.4950014 -0.646324E-03  0.257E-01    0.02       1.0  T
  15   -220.5113787 -0.163773E-01  0.180E-01    0.05       1.0  T
  16   -220.5158763 -0.449760E-02  0.125E-01    0.03       1.0  T
  17   -220.5214487 -0.557246E-02  0.911E-02    0.03       1.0  T
  18   -220.5258441 -0.439533E-02  0.487E-02    0.02       1.0  T
  19   -220.5267746 -0.930539E-03  0.337E-02    0.03       1.0  T
  20   -220.5271263 -0.351696E-03  0.148E-02    0.03       1.0  T
  21   -220.5271860 -0.597096E-04  0.109E-02    0.03       1.0  T
  22   -220.5272082 -0.222295E-04  0.816E-03    0.03       1.1  T
  23   -220.5272576 -0.493306E-04  0.239E-03    0.03       3.8  T
  24   -220.5272571  0.443267E-06  0.219E-03    0.03       4.2  T
  25   -220.5272567  0.385021E-06  0.208E-03    0.03       4.4  T
  26   -220.5272577 -0.983741E-06  0.174E-03    0.03       5.3  T
  27   -220.5272597 -0.199038E-05  0.900E-04    0.03      10.2  T
  28   -220.5272597  0.571276E-08  0.685E-04    0.03      13.4  T
  29   -220.5272600 -0.336744E-06  0.289E-04    0.03      31.8  T
     SCC iter.                  ...        0 min,  0.912 sec
     gradient                   ...        0 min,  0.138 sec
 * total energy  :  -216.6725433 Eh     change       -0.8933284E-02 Eh
   gradient norm :     0.0333488 Eh/α   predicted    -0.7410440E-02 ( -17.05%)
   displ. norm   :     0.8215308 α      lambda       -0.9824805E-02
   maximum displ.:     0.4072491 α      in ANC's #23, #25, #12, ...

........................................................................
.............................. CYCLE   13 ..............................
........................................................................
   1   -220.3139649 -0.220314E+03  0.725E-01    0.03       0.0  T
   2   -217.7010325  0.261293E+01  0.322E+00    0.05       1.0  T
   3   -219.9479135 -0.224688E+01  0.117E+00    0.01       1.0  T
   4   -219.9600579 -0.121444E-01  0.108E+00    0.01       1.0  T
   5   -220.0280475 -0.679896E-01  0.844E-01    0.20       1.0  T
   6   -220.3256140 -0.297567E+00  0.569E-01    0.06       1.0  T
   7   -220.1628186  0.162795E+00  0.733E-01    0.02       1.0  T
   8   -220.2744521 -0.111633E+00  0.569E-01    0.04       1.0  T
   9   -220.2919519 -0.174998E-01  0.550E-01    0.01       1.0  T
  10   -220.3594018 -0.674499E-01  0.507E-01    0.01       1.0  T
  11   -220.4411835 -0.817817E-01  0.317E-01    0.01       1.0  T
  12   -220.2563641  0.184819E+00  0.557E-01    0.06       1.0  T
  13   -220.4800273 -0.223663E+00  0.316E-01    0.03       1.0  T
  14   -220.5033881 -0.233608E-01  0.185E-01    0.04       1.0  T
  15   -220.5184655 -0.150775E-01  0.479E-02    0.02       1.0  T
  16   -220.4999483  0.185172E-01  0.146E-01    0.02       1.0  T
  17   -220.5173262 -0.173779E-01  0.482E-02    0.02       1.0  T
  18   -220.5188468 -0.152066E-02  0.228E-02    0.02       1.0  T
  19   -220.5189948 -0.147938E-03  0.198E-02    0.02       1.0  T
  20   -220.5192125 -0.217686E-03  0.477E-03    0.02       1.9  T
  21   -220.5192096  0.285642E-05  0.495E-03    0.02       1.9  T
  22   -220.5192186 -0.897147E-05  0.315E-03    0.02       2.9  T
  23   -220.5192205 -0.188330E-05  0.222E-03    0.02       4.1  T
  24   -220.5192215 -0.106861E-05  0.178E-03    0.02       5.1  T
  25   -220.5192219 -0.357922E-06  0.143E-03    0.02       6.4  T
  26   -220.5192224 -0.550513E-06  0.112E-03    0.02       8.2  T
  27   -220.5192220  0.448144E-06  0.138E-03    0.02       6.6  T
  28   -220.5192232 -0.119099E-05  0.426E-04    0.02      21.5  T
  29   -220.5192232  0.657420E-08  0.422E-04    0.02      21.7  T
  30   -220.5192232 -0.466618E-07  0.285E-04    0.02      32.2  T
     SCC iter.                  ...        0 min,  0.942 sec
     gradient                   ...        0 min,  0.139 sec
 * total energy  :  -216.6829015 Eh     change       -0.1035818E-01 Eh
   gradient norm :     0.0389112 Eh/α   predicted    -0.8227852E-02 ( -20.57%)
   displ. norm   :     0.8034014 α      lambda       -0.1238569E-01
   maximum displ.:     0.3643095 α      in ANC's #12, #23, #25, ...

........................................................................
.............................. CYCLE   14 ..............................
........................................................................
   1   -220.3507358 -0.220351E+03  0.660E-01    0.02       0.0  T
   2   -218.2071341  0.214360E+01  0.293E+00    0.05       1.0  T
   3   -219.8214095 -0.161428E+01  0.111E+00    0.29       1.0  T
   4   -219.8735258 -0.521163E-01  0.113E+00    0.01       1.0  T
   5   -220.1985503 -0.325025E+00  0.771E-01    0.32       1.0  T
   6   -220.2337028 -0.351524E-01  0.613E-01    0.07       1.0  T
   7   -220.0375847  0.196118E+00  0.783E-01    0.09       1.0  T
   8   -220.3524132 -0.314829E+00  0.508E-01    0.06       1.0  T
   9   -220.4393335 -0.869203E-01  0.309E-01    0.00       1.0  T
  10   -220.4772945 -0.379610E-01  0.291E-01    0.01       1.0  T
  11   -220.3406870  0.136607E+00  0.522E-01    0.06       1.0  T
  12   -220.3866252 -0.459381E-01  0.467E-01    0.02       1.0  T
  13   -220.5014845 -0.114859E+00  0.204E-01    0.00       1.0  T
  14   -220.5095027 -0.801819E-02  0.127E-01    0.01       1.0  T
  15   -220.5134159 -0.391321E-02  0.749E-02    0.01       1.0  T
  16   -220.5166898 -0.327382E-02  0.490E-02    0.01       1.0  T
  17   -220.5073874  0.930236E-02  0.132E-01    0.00       1.0  T
  18   -220.5114644 -0.407699E-02  0.902E-02    0.00       1.0  T
  19   -220.5162911 -0.482666E-02  0.481E-02    0.00       1.0  T
  20   -220.5175605 -0.126942E-02  0.132E-02    0.01       1.0  T
  21   -220.5175141  0.463984E-04  0.122E-02    0.01       1.0  T
  22   -220.5175854 -0.713548E-04  0.753E-03    0.01       1.2  T
  23   -220.5176270 -0.415222E-04  0.405E-03    0.01       2.3  T
  24   -220.5176309 -0.398737E-05  0.318E-03    0.01       2.9  T
  25   -220.5176303  0.667551E-06  0.278E-03    0.01       3.3  T
  26   -220.5176135  0.167651E-04  0.480E-03    0.01       1.9  T
  27   -220.5176321 -0.186306E-04  0.166E-03    0.01       5.5  T
  28   -220.5176341 -0.200196E-05  0.705E-04    0.01      13.0  T
  29   -220.5176345 -0.406608E-06  0.192E-04    0.01      47.8  T
  30   -220.5176345  0.364915E-08  0.191E-04    0.01      48.0  T
     SCC iter.                  ...        0 min,  0.943 sec
     gradient                   ...        0 min,  0.138 sec
 * total energy  :  -216.6963878 Eh     change       -0.1348632E-01 Eh
   gradient norm :     0.0472523 Eh/α   predicted    -0.1019004E-01 ( -24.44%)
   displ. norm   :     0.7914328 α      lambda       -0.1767428E-01
   maximum displ.:     0.3695157 α      in ANC's #12, #23, #35, ...

........................................................................
.............................. CYCLE   15 ..............................
........................................................................
   1   -220.3559013 -0.220356E+03  0.597E-01    0.04       0.0  T
   2   -207.3034892  0.130524E+02  0.656E+00    0.10       1.0  T
   3   -219.4863369 -0.121828E+02  0.153E+00    0.23       1.0  T
   4   -220.1345480 -0.648211E+00  0.946E-01    0.06       1.0  T
   5   -220.0749141  0.596339E-01  0.794E-01    0.07       1.0  T
   6   -220.2474360 -0.172522E+00  0.662E-01    0.02       1.0  T
   7   -220.2660185 -0.185825E-01  0.663E-01    0.02       1.0  T
   8   -220.2572081  0.881035E-02  0.597E-01    0.07       1.0  T
   9   -220.4709147 -0.213707E+00  0.300E-01    0.04       1.0  T
  10   -220.3983629  0.725518E-01  0.407E-01    0.05       1.0  T
  11   -220.4596425 -0.612796E-01  0.276E-01    0.02       1.0  T
  12   -220.4132844  0.463581E-01  0.345E-01    0.01       1.0  T
  13   -220.4107263  0.255810E-02  0.346E-01    0.02       1.0  T
  14   -220.4225144 -0.117881E-01  0.352E-01    0.00       1.0  T
  15   -220.4776696 -0.551552E-01  0.198E-01    0.02       1.0  T
  16   -220.5018727 -0.242031E-01  0.760E-02    0.00       1.0  T
  17   -220.5027449 -0.872135E-03  0.599E-02    0.00       1.0  T
  18   -220.5033406 -0.595782E-03  0.531E-02    0.00       1.0  T
  19   -220.5051702 -0.182958E-02  0.196E-02    0.00       1.0  T
  20   -220.5049591  0.211118E-03  0.263E-02    0.00       1.0  T
  21   -220.5051116 -0.152469E-03  0.214E-02    0.00       1.0  T
  22   -220.5052078 -0.962193E-04  0.173E-02    0.00       1.0  T
  23   -220.5052457 -0.378848E-04  0.138E-02    0.00       1.0  T
  24   -220.5052669 -0.212300E-04  0.120E-02    0.01       1.0  T
  25   -220.5052644  0.248948E-05  0.113E-02    0.01       1.0  T
  26   -220.5052728 -0.836982E-05  0.100E-02    0.01       1.0  T
  27   -220.5052727  0.102922E-06  0.894E-03    0.01       1.0  T
  28   -220.5052682  0.449296E-05  0.818E-03    0.01       1.1  T
  29   -220.5052725 -0.427398E-05  0.717E-03    0.01       1.3  T
  30   -220.5052868 -0.143433E-04  0.447E-03    0.01       2.1  T
  31   -220.5052885 -0.169314E-05  0.275E-03    0.01       3.3  T
  32   -220.5052880  0.543903E-06  0.162E-03    0.01       5.6  T
  33   -220.5052885 -0.534300E-06  0.990E-04    0.01       9.3  T
  34   -220.5052888 -0.307891E-06  0.884E-04    0.01      10.4  T
     SCC iter.                  ...        0 min,  1.068 sec
     gradient                   ...        0 min,  0.138 sec
 * total energy  :  -216.7173291 Eh     change       -0.2094126E-01 Eh
   gradient norm :     0.0657778 Eh/α   predicted    -0.1437243E-01 ( -31.37%)
   displ. norm   :     0.7890063 α      lambda       -0.2990989E-01
   maximum displ.:     0.3468030 α      in ANC's #12, #14, #35, ...

........................................................................
.............................. CYCLE   16 ..............................
........................................................................
   1   -220.3487544 -0.220349E+03  0.557E-01    0.04       0.0  T
   2   -198.7861412  0.215626E+02  0.800E+00    0.03       1.0  T
   3   -219.4878783 -0.207017E+02  0.148E+00    0.53       1.0  T
   4   -220.0623220 -0.574444E+00  0.853E-01    0.07       1.0  T
   5   -220.2261431 -0.163821E+00  0.708E-01    0.01       1.0  T
   6   -220.3238644 -0.977214E-01  0.618E-01    0.09       1.0  T
   7   -220.2870662  0.367982E-01  0.642E-01    0.05       1.0  T
   8   -220.3606654 -0.735992E-01  0.524E-01    0.06       1.0  T
   9   -220.3280452  0.326202E-01  0.539E-01    0.04       1.0  T
  10   -220.3337621 -0.571689E-02  0.528E-01    0.01       1.0  T
  11   -220.3649250 -0.311629E-01  0.429E-01    0.06       1.0  T
  12   -220.4382116 -0.732866E-01  0.340E-01    0.01       1.0  T
  13   -220.4701467 -0.319352E-01  0.242E-01    0.01       1.0  T
  14   -220.4863751 -0.162284E-01  0.166E-01    0.01       1.0  T
  15   -220.4963195 -0.994440E-02  0.983E-02    0.01       1.0  T
  16   -220.4902645  0.605505E-02  0.125E-01    0.02       1.0  T
  17   -220.4991300 -0.886547E-02  0.645E-02    0.00       1.0  T
  18   -220.5003460 -0.121601E-02  0.416E-02    0.01       1.0  T
  19   -220.5012100 -0.864017E-03  0.236E-02    0.01       1.0  T
  20   -220.5015544 -0.344375E-03  0.110E-02    0.01       1.0  T
  21   -220.5016059 -0.515301E-04  0.592E-03    0.00       1.5  T
  22   -220.5016210 -0.150948E-04  0.416E-03    0.00       2.2  T
  23   -220.5016271 -0.606556E-05  0.306E-03    0.00       3.0  T
  24   -220.5016271 -0.212721E-07  0.304E-03    0.00       3.0  T
  25   -220.5016277 -0.670390E-06  0.270E-03    0.00       3.4  T
  26   -220.5016220  0.571378E-05  0.364E-03    0.00       2.5  T
  27   -220.5016249 -0.283971E-05  0.305E-03    0.00       3.0  T
  28   -220.5016265 -0.166970E-05  0.260E-03    0.00       3.5  T
  29   -220.5016281 -0.158071E-05  0.214E-03    0.00       4.3  T
  30   -220.5016299 -0.178081E-05  0.144E-03    0.00       6.4  T
  31   -220.5016304 -0.473474E-06  0.106E-03    0.00       8.6  T
  32   -220.5016308 -0.463142E-06  0.627E-04    0.00      14.6  T
  33   -220.5016310 -0.195911E-06  0.300E-04    0.00      30.5  T
     SCC iter.                  ...        0 min,  1.037 sec
     gradient                   ...        0 min,  0.138 sec
 * total energy  :  -216.7507611 Eh     change       -0.3343203E-01 Eh
   gradient norm :     0.0786370 Eh/α   predicted    -0.2426486E-01 ( -27.42%)
   displ. norm   :     0.8030385 α      lambda       -0.3792647E-01
   maximum displ.:     0.3523048 α      in ANC's #12, #14, #35, ...

........................................................................
.............................. CYCLE   17 ..............................
........................................................................
   1   -220.3818430 -0.220382E+03  0.452E-01    0.04       0.0  T
   2   -207.3209666  0.130609E+02  0.657E+00    0.19       1.0  T
   3   -219.4659981 -0.121450E+02  0.148E+00    0.56       1.0  T
   4   -219.9688644 -0.502866E+00  0.904E-01    0.28       1.0  T
   5   -220.1462706 -0.177406E+00  0.857E-01    0.27       1.0  T
   6   -220.2933676 -0.147097E+00  0.579E-01    0.01       1.0  T
   7   -220.3437654 -0.503979E-01  0.573E-01    0.04       1.0  T
   8   -220.0525750  0.291190E+00  0.738E-01    0.02       1.0  T
   9   -220.3745834 -0.322008E+00  0.471E-01    0.02       1.0  T
  10   -220.4507798 -0.761963E-01  0.273E-01    0.02       1.0  T
  11   -220.4792927 -0.285129E-01  0.157E-01    0.01       1.0  T
  12   -220.4460522  0.332405E-01  0.255E-01    0.01       1.0  T
  13   -220.3880880  0.579642E-01  0.389E-01    0.02       1.0  T
  14   -220.4790776 -0.909897E-01  0.135E-01    0.02       1.0  T
  15   -220.4793515 -0.273891E-03  0.138E-01    0.00       1.0  T
  16   -220.4882199 -0.886842E-02  0.824E-02    0.01       1.0  T
  17   -220.4905663 -0.234637E-02  0.378E-02    0.01       1.0  T
  18   -220.4905421  0.242240E-04  0.389E-02    0.01       1.0  T
  19   -220.4906467 -0.104587E-03  0.387E-02    0.01       1.0  T
  20   -220.4901166  0.530062E-03  0.499E-02    0.01       1.0  T
  21   -220.4903061 -0.189459E-03  0.455E-02    0.01       1.0  T
  22   -220.4903711 -0.650544E-04  0.438E-02    0.01       1.0  T
  23   -220.4903064  0.647627E-04  0.440E-02    0.01       1.0  T
  24   -220.4903844 -0.780370E-04  0.394E-02    0.01       1.0  T
  25   -220.4905415 -0.157129E-03  0.307E-02    0.01       1.0  T
  26   -220.4906971 -0.155594E-03  0.175E-02    0.01       1.0  T
  27   -220.4907182 -0.210758E-04  0.114E-02    0.01       1.0  T
  28   -220.4907411 -0.229406E-04  0.464E-03    0.01       2.0  T
  29   -220.4907441 -0.297242E-05  0.341E-03    0.01       2.7  T
  30   -220.4907456 -0.148045E-05  0.154E-03    0.01       5.9  T
  31   -220.4907452  0.420501E-06  0.154E-03    0.01       5.9  T
  32   -220.4907456 -0.467784E-06  0.110E-03    0.01       8.3  T
  33   -220.4907460 -0.394784E-06  0.460E-04    0.01      19.9  T
  34   -220.4907461 -0.105311E-06  0.284E-04    0.01      32.2  T
     SCC iter.                  ...        0 min,  1.068 sec
     gradient                   ...        0 min,  0.138 sec
 * total energy  :  -216.7897942 Eh     change       -0.3903311E-01 Eh
   gradient norm :     0.0786009 Eh/α   predicted    -0.3119210E-01 ( -20.09%)
   displ. norm   :     0.9443725 α      lambda       -0.5108473E-01
   maximum displ.:     0.3883116 α      in ANC's #12, #35, #14, ...

........................................................................
.............................. CYCLE   18 ..............................
........................................................................
   1   -220.3745432 -0.220375E+03  0.473E-01    0.02       0.0  T
   2   -203.2205313  0.171540E+02  0.737E+00    0.10       1.0  T
   3   -219.5010768 -0.162805E+02  0.140E+00    0.41       1.0  T
   4   -220.1532300 -0.652153E+00  0.823E-01    0.04       1.0  T
   5   -219.9462287  0.207001E+00  0.888E-01    0.20       1.0  T
   6   -220.3431914 -0.396963E+00  0.525E-01    0.01       1.0  T
   7   -220.3006708  0.425206E-01  0.582E-01    0.03       1.0  T
   8   -220.1541168  0.146554E+00  0.682E-01    0.02       1.0  T
   9   -220.2449080 -0.907912E-01  0.579E-01    0.02       1.0  T
  10   -220.3686289 -0.123721E+00  0.395E-01    0.01       1.0  T
  11   -220.3693874 -0.758463E-03  0.424E-01    0.04       1.0  T
  12   -220.4418558 -0.724684E-01  0.183E-01    0.03       1.0  T
  13   -220.4261238  0.157320E-01  0.232E-01    0.00       1.0  T
  14   -220.4451804 -0.190566E-01  0.185E-01    0.02       1.0  T
  15   -220.4617126 -0.165322E-01  0.662E-02    0.00       1.0  T
  16   -220.4630066 -0.129400E-02  0.517E-02    0.01       1.0  T
  17   -220.4636721 -0.665530E-03  0.324E-02    0.01       1.0  T
  18   -220.4638354 -0.163249E-03  0.267E-02    0.01       1.0  T
  19   -220.4639598 -0.124411E-03  0.248E-02    0.01       1.0  T
  20   -220.4639848 -0.250198E-04  0.232E-02    0.01       1.0  T
  21   -220.4639971 -0.122753E-04  0.210E-02    0.01       1.0  T
  22   -220.4639806  0.164381E-04  0.205E-02    0.01       1.0  T
  23   -220.4639951 -0.144696E-04  0.203E-02    0.01       1.0  T
  24   -220.4639984 -0.324968E-05  0.195E-02    0.01       1.0  T
  25   -220.4640065 -0.813316E-05  0.166E-02    0.01       1.0  T
  26   -220.4639992  0.731755E-05  0.157E-02    0.01       1.0  T
  27   -220.4640144 -0.152180E-04  0.133E-02    0.01       1.0  T
  28   -220.4640135  0.880739E-06  0.105E-02    0.01       1.0  T
  29   -220.4640213 -0.774061E-05  0.832E-03    0.01       1.1  T
  30   -220.4640180  0.330689E-05  0.665E-03    0.01       1.4  T
  31   -220.4640252 -0.728455E-05  0.369E-03    0.01       2.5  T
  32   -220.4640255 -0.251720E-06  0.176E-03    0.01       5.2  T
  33   -220.4640261 -0.601497E-06  0.528E-04    0.01      17.4  T
  34   -220.4640261 -0.202254E-07  0.449E-04    0.01      20.4  T
     SCC iter.                  ...        0 min,  1.067 sec
     gradient                   ...        0 min,  0.138 sec
 * total energy  :  -216.8096166 Eh     change       -0.1982239E-01 Eh
   gradient norm :     0.1438113 Eh/α   predicted    -0.4832207E-01 ( 143.78%)
   displ. norm   :     0.4820447 α      lambda       -0.3943688E-01
   maximum displ.:     0.1852702 α      in ANC's #12, #23, #25, ...

........................................................................
.............................. CYCLE   19 ..............................
........................................................................
   1   -220.4673472 -0.220467E+03  0.324E-01    0.02       0.0  T
   2   -219.4794249  0.987922E+00  0.147E+00    0.41       1.0  T
   3   -220.2610555 -0.781631E+00  0.665E-01    0.00       1.0  T
   4   -220.2639901 -0.293456E-02  0.675E-01    0.03       1.0  T
   5   -220.2830092 -0.190191E-01  0.644E-01    0.07       1.0  T
   6   -219.9686858  0.314323E+00  0.903E-01    0.12       1.0  T
   7   -220.4621088 -0.493423E+00  0.272E-01    0.02       1.0  T
   8   -220.4807137 -0.186049E-01  0.193E-01    0.00       1.0  T
   9   -220.4614290  0.192847E-01  0.232E-01    0.01       1.0  T
  10   -220.4315439  0.298851E-01  0.306E-01    0.00       1.0  T
  11   -220.4956158 -0.640718E-01  0.650E-02    0.01       1.0  T
  12   -220.4943391  0.127667E-02  0.654E-02    0.00       1.0  T
  13   -220.4848863  0.945281E-02  0.150E-01    0.01       1.0  T
  14   -220.4956927 -0.108065E-01  0.520E-02    0.00       1.0  T
  15   -220.4958154 -0.122630E-03  0.460E-02    0.01       1.0  T
  16   -220.4969678 -0.115240E-02  0.131E-02    0.01       1.0  T
  17   -220.4969698 -0.202083E-05  0.140E-02    0.01       1.0  T
  18   -220.4970316 -0.618263E-04  0.825E-03    0.01       1.1  T
  19   -220.4970471 -0.155230E-04  0.661E-03    0.01       1.4  T
  20   -220.4970782 -0.310505E-04  0.118E-03    0.01       7.8  T
  21   -220.4970752  0.298380E-05  0.232E-03    0.01       4.0  T
  22   -220.4970780 -0.276930E-05  0.127E-03    0.01       7.2  T
  23   -220.4970776  0.354857E-06  0.141E-03    0.01       6.5  T
  24   -220.4970776  0.441568E-08  0.131E-03    0.01       7.0  T
  25   -220.4970783 -0.683608E-06  0.857E-04    0.01      10.7  T
  26   -220.4970788 -0.460317E-06  0.302E-04    0.01      30.4  T
     SCC iter.                  ...        0 min,  0.819 sec
     gradient                   ...        0 min,  0.138 sec
 * total energy  :  -216.8271416 Eh     change       -0.1752492E-01 Eh
   gradient norm :     0.0809881 Eh/α   predicted    -0.2430036E-01 (  38.66%)
   displ. norm   :     0.6019466 α      lambda       -0.1937516E-01
   maximum displ.:     0.3100709 α      in ANC's #12, #23, #25, ...

........................................................................
.............................. CYCLE   20 ..............................
........................................................................
   1   -220.4554606 -0.220455E+03  0.290E-01    0.01       0.0  T
   2   -219.7610617  0.694399E+00  0.132E+00    0.23       1.0  T
   3   -220.1786344 -0.417573E+00  0.727E-01    0.23       1.0  T
   4   -220.4054859 -0.226851E+00  0.334E-01    0.05       1.0  T
   5   -220.2950751  0.110411E+00  0.623E-01    0.18       1.0  T
   6   -220.1109772  0.184098E+00  0.749E-01    0.00       1.0  T
   7   -220.4537471 -0.342770E+00  0.211E-01    0.01       1.0  T
   8   -220.4434739  0.102732E-01  0.255E-01    0.02       1.0  T
   9   -220.4241903  0.192836E-01  0.277E-01    0.04       1.0  T
  10   -220.4676744 -0.434841E-01  0.114E-01    0.00       1.0  T
  11   -220.4437479  0.239265E-01  0.233E-01    0.03       1.0  T
  12   -220.4665085 -0.227606E-01  0.124E-01    0.00       1.0  T
  13   -220.4646372  0.187131E-02  0.129E-01    0.01       1.0  T
  14   -220.4715389 -0.690172E-02  0.688E-02    0.00       1.0  T
  15   -220.4736703 -0.213142E-02  0.315E-02    0.00       1.0  T
  16   -220.4741274 -0.457117E-03  0.949E-03    0.00       1.0  T
  17   -220.4740344  0.930361E-04  0.145E-02    0.00       1.0  T
  18   -220.4741693 -0.134927E-03  0.204E-03    0.00       4.5  T
  19   -220.4741307  0.386101E-04  0.788E-03    0.00       1.2  T
  20   -220.4741642 -0.334360E-04  0.314E-03    0.00       2.9  T
  21   -220.4741700 -0.587474E-05  0.101E-03    0.00       9.1  T
  22   -220.4741685  0.155047E-05  0.172E-03    0.00       5.3  T
  23   -220.4741633  0.519710E-05  0.341E-03    0.00       2.7  T
  24   -220.4741705 -0.718209E-05  0.363E-04    0.00      25.3  T
  25   -220.4741704  0.390728E-07  0.410E-04    0.00      22.3  T
  26   -220.4741705 -0.566276E-07  0.276E-04    0.00      33.3  T
     SCC iter.                  ...        0 min,  0.818 sec
     gradient                   ...        0 min,  0.139 sec
 * total energy  :  -216.8452520 Eh     change       -0.1811040E-01 Eh
   gradient norm :     0.0635367 Eh/α   predicted    -0.1319778E-01 ( -27.13%)
   displ. norm   :     0.9020873 α      lambda       -0.3586483E-01
   maximum displ.:     0.4633434 α      in ANC's #12, #35, #23, ...
 * RMSD in coord.:     0.9865028 α      energy gain  -0.8678209E+00 Eh

generating ANC from model Hessian ...
Using Lindh-Hessian (1995)
 Shifting diagonal of input Hessian by    1.0023606064722254E-002
 Lowest  eigenvalues of input Hessian
    0.010000    0.010012    0.010018    0.010021    0.000000    0.000000
    0.000000    0.000000    0.000000    0.000000    0.010026    0.010031
    0.010035    0.010040    0.010060    0.010082    0.010182    0.010385
 Highest eigenvalues
    2.115549    2.118192    2.306926    2.382144    2.676607    2.698347


........................................................................
.............................. CYCLE   21 ..............................
........................................................................
   1   -220.3808749 -0.220381E+03  0.535E-01    0.01       0.0  T
   2   -196.9035917  0.234773E+02  0.830E+00    0.08       1.0  T
   3   -220.1492200 -0.232456E+02  0.852E-01    0.43       1.0  T
   4   -220.1473222  0.189779E-02  0.768E-01    0.01       1.0  T
   5   -220.2235769 -0.762547E-01  0.732E-01    0.28       1.0  T
   6   -220.2173438  0.623309E-02  0.668E-01    0.14       1.0  T
   7   -220.3054532 -0.881094E-01  0.569E-01    0.14       1.0  T
   8   -220.3151678 -0.971459E-02  0.514E-01    0.06       1.0  T
   9   -220.3598855 -0.447177E-01  0.442E-01    0.06       1.0  T
  10   -220.4633908 -0.103505E+00  0.126E-01    0.01       1.0  T
  11   -220.4683295 -0.493863E-02  0.734E-02    0.00       1.0  T
  12   -220.4653185  0.301096E-02  0.105E-01    0.00       1.0  T
  13   -220.4660192 -0.700707E-03  0.917E-02    0.01       1.0  T
  14   -220.4688694 -0.285019E-02  0.546E-02    0.01       1.0  T
  15   -220.4697532 -0.883775E-03  0.384E-02    0.01       1.0  T
  16   -220.4701170 -0.363872E-03  0.324E-02    0.00       1.0  T
  17   -220.4705415 -0.424466E-03  0.137E-02    0.00       1.0  T
  18   -220.4705468 -0.532617E-05  0.130E-02    0.00       1.0  T
  19   -220.4705472 -0.384420E-06  0.109E-02    0.00       1.0  T
  20   -220.4704845  0.627516E-04  0.141E-02    0.00       1.0  T
  21   -220.4705452 -0.606928E-04  0.100E-02    0.00       1.0  T
  22   -220.4705710 -0.258181E-04  0.748E-03    0.00       1.2  T
  23   -220.4705669  0.407450E-05  0.735E-03    0.00       1.2  T
  24   -220.4705642  0.269100E-05  0.731E-03    0.00       1.3  T
  25   -220.4705617  0.248276E-05  0.739E-03    0.00       1.2  T
  26   -220.4705666 -0.492097E-05  0.668E-03    0.00       1.4  T
  27   -220.4705733 -0.664800E-05  0.484E-03    0.00       1.9  T
  28   -220.4705772 -0.387033E-05  0.361E-03    0.00       2.5  T
  29   -220.4705768  0.378574E-06  0.314E-03    0.00       2.9  T
  30   -220.4705783 -0.151343E-05  0.173E-03    0.00       5.3  T
  31   -220.4705786 -0.315433E-06  0.757E-04    0.00      12.1  T
  32   -220.4705789 -0.237961E-06  0.110E-04    0.00      83.7  T
     SCC iter.                  ...        0 min,  1.006 sec
     gradient                   ...        0 min,  0.138 sec
 * total energy  :  -216.8782234 Eh     change       -0.3297149E-01 Eh
   gradient norm :     0.1016599 Eh/α   predicted     0.0000000E+00 (-100.00%)
   displ. norm   :     0.6475882 α      lambda       -0.3326884E-01
   maximum displ.:     0.3218904 α      in ANC's #15, #62, #59, ...

........................................................................
.............................. CYCLE   22 ..............................
........................................................................
   1   -220.4390102 -0.220439E+03  0.382E-01    0.05       0.0  T
   2   -214.7332424  0.570577E+01  0.452E+00    0.12       1.0  T
   3   -219.8021086 -0.506887E+01  0.112E+00    0.06       1.0  T
   4   -220.2673820 -0.465273E+00  0.720E-01    0.38       1.0  T
   5   -220.2895305 -0.221485E-01  0.681E-01    0.13       1.0  T
   6   -220.3435379 -0.540074E-01  0.557E-01    0.09       1.0  T
   7   -220.3753271 -0.317892E-01  0.505E-01    0.02       1.0  T
   8   -220.3785535 -0.322639E-02  0.505E-01    0.06       1.0  T
   9   -220.4934784 -0.114925E+00  0.177E-01    0.02       1.0  T
  10   -220.4847697  0.870869E-02  0.216E-01    0.02       1.0  T
  11   -220.5041024 -0.193327E-01  0.114E-01    0.00       1.0  T
  12   -220.5067498 -0.264743E-02  0.780E-02    0.01       1.0  T
  13   -220.5013099  0.543996E-02  0.123E-01    0.00       1.0  T
  14   -220.5081663 -0.685641E-02  0.610E-02    0.01       1.0  T
  15   -220.5091601 -0.993803E-03  0.395E-02    0.00       1.0  T
  16   -220.5093279 -0.167794E-03  0.345E-02    0.00       1.0  T
  17   -220.5092780  0.498756E-04  0.344E-02    0.00       1.0  T
  18   -220.5092773  0.722037E-06  0.340E-02    0.00       1.0  T
  19   -220.5092896 -0.122695E-04  0.320E-02    0.00       1.0  T
  20   -220.5093135 -0.239159E-04  0.308E-02    0.00       1.0  T
  21   -220.5093034  0.100643E-04  0.290E-02    0.00       1.0  T
  22   -220.5093221 -0.186816E-04  0.269E-02    0.00       1.0  T
  23   -220.5093257 -0.355931E-05  0.253E-02    0.00       1.0  T
  24   -220.5093570 -0.313727E-04  0.215E-02    0.00       1.0  T
  25   -220.5093727 -0.157088E-04  0.160E-02    0.00       1.0  T
  26   -220.5093761 -0.338159E-05  0.119E-02    0.00       1.0  T
  27   -220.5093798 -0.366071E-05  0.881E-03    0.00       1.0  T
  28   -220.5093838 -0.402592E-05  0.593E-03    0.00       1.5  T
  29   -220.5093808  0.298060E-05  0.389E-03    0.00       2.4  T
  30   -220.5093855 -0.463855E-05  0.150E-03    0.00       6.1  T
  31   -220.5093842  0.125403E-05  0.188E-03    0.00       4.9  T
  32   -220.5093860 -0.177329E-05  0.292E-04    0.00      31.4  T
  33   -220.5093860  0.168880E-07  0.242E-04    0.00      37.9  T
  34   -220.5093860 -0.199384E-07  0.151E-04    0.00      60.9  T
     SCC iter.                  ...        0 min,  1.078 sec
     gradient                   ...        0 min,  0.139 sec
 * total energy  :  -216.9096582 Eh     change       -0.3143472E-01 Eh
   gradient norm :     0.0740810 Eh/α   predicted    -0.2361041E-01 ( -24.89%)
   displ. norm   :     0.9013972 α      lambda       -0.4671069E-01
   maximum displ.:     0.3716852 α      in ANC's #15, #59, #62, ...

........................................................................
.............................. CYCLE   23 ..............................
........................................................................
   1   -220.4030759 -0.220403E+03  0.533E-01    0.09       0.0  T
   2   -210.5481588  0.985492E+01  0.601E+00    0.15       1.0  T
   3   -219.6242653 -0.907611E+01  0.131E+00    0.01       1.0  T
   4   -220.2925989 -0.668334E+00  0.786E-01    0.44       1.0  T
   5   -220.3187037 -0.261048E-01  0.688E-01    0.02       1.0  T
   6   -220.3197945 -0.109080E-02  0.651E-01    0.17       1.0  T
   7   -220.3563204 -0.365259E-01  0.591E-01    0.00       1.0  T
   8   -220.3816569 -0.253364E-01  0.568E-01    0.06       1.0  T
   9   -220.3719679  0.968899E-02  0.555E-01    0.03       1.0  T
  10   -220.4474133 -0.754455E-01  0.406E-01    0.07       1.0  T
  11   -220.5237190 -0.763057E-01  0.171E-01    0.00       1.0  T
  12   -220.5335224 -0.980338E-02  0.901E-02    0.00       1.0  T
  13   -220.5163952  0.171272E-01  0.201E-01    0.02       1.0  T
  14   -220.5320209 -0.156257E-01  0.107E-01    0.01       1.0  T
  15   -220.5295220  0.249891E-02  0.137E-01    0.01       1.0  T
  16   -220.5359441 -0.642208E-02  0.647E-02    0.00       1.0  T
  17   -220.5362684 -0.324327E-03  0.617E-02    0.00       1.0  T
  18   -220.5361236  0.144866E-03  0.626E-02    0.00       1.0  T
  19   -220.5363808 -0.257201E-03  0.577E-02    0.00       1.0  T
  20   -220.5364654 -0.846491E-04  0.545E-02    0.00       1.0  T
  21   -220.5364706 -0.521360E-05  0.504E-02    0.00       1.0  T
  22   -220.5365099 -0.393291E-04  0.462E-02    0.00       1.0  T
  23   -220.5365352 -0.252175E-04  0.411E-02    0.00       1.0  T
  24   -220.5365574 -0.222711E-04  0.326E-02    0.00       1.0  T
  25   -220.5365218  0.356601E-04  0.260E-02    0.00       1.0  T
  26   -220.5366182 -0.963908E-04  0.209E-02    0.00       1.0  T
  27   -220.5366374 -0.191994E-04  0.134E-02    0.00       1.0  T
  28   -220.5366497 -0.123352E-04  0.747E-03    0.00       1.2  T
  29   -220.5366334  0.162622E-04  0.936E-03    0.00       1.0  T
  30   -220.5366446 -0.111195E-04  0.711E-03    0.00       1.3  T
  31   -220.5366453 -0.766488E-06  0.453E-03    0.00       2.0  T
  32   -220.5366534 -0.809459E-05  0.239E-03    0.00       3.8  T
  33   -220.5366547 -0.130822E-05  0.153E-03    0.00       6.0  T
  34   -220.5366552 -0.514399E-06  0.119E-03    0.00       7.7  T
  35   -220.5366559 -0.661085E-06  0.387E-04    0.00      23.7  T
  36   -220.5366559 -0.467706E-07  0.197E-04    0.00      46.6  T
     SCC iter.                  ...        0 min,  1.144 sec
     gradient                   ...        0 min,  0.139 sec
 * total energy  :  -216.9476705 Eh     change       -0.3801232E-01 Eh
   gradient norm :     0.0600901 Eh/α   predicted    -0.4233202E-01 (  11.36%)
   displ. norm   :     0.8275008 α      lambda       -0.2482870E-01
   maximum displ.:     0.4982668 α      in ANC's #15, #59, #20, ...

........................................................................
.............................. CYCLE   24 ..............................
........................................................................
   1   -220.5094931 -0.220509E+03  0.377E-01    0.06       0.0  T
   2   -215.7899201  0.471957E+01  0.384E+00    0.04       1.0  T
   3   -219.8780648 -0.408814E+01  0.109E+00    0.03       1.0  T
   4   -220.3640497 -0.485985E+00  0.691E-01    0.05       1.0  T
   5   -220.3644777 -0.428034E-03  0.651E-01    0.23       1.0  T
   6   -220.4013341 -0.368564E-01  0.604E-01    0.07       1.0  T
   7   -220.5750585 -0.173724E+00  0.132E-01    0.00       1.0  T
   8   -220.4158408  0.159218E+00  0.567E-01    0.08       1.0  T
   9   -220.5312795 -0.115439E+00  0.284E-01    0.03       1.0  T
  10   -220.5476895 -0.164100E-01  0.230E-01    0.01       1.0  T
  11   -220.5397120  0.797749E-02  0.256E-01    0.02       1.0  T
  12   -220.5418085 -0.209653E-02  0.257E-01    0.03       1.0  T
  13   -220.5749486 -0.331401E-01  0.658E-02    0.00       1.0  T
  14   -220.5747862  0.162358E-03  0.635E-02    0.00       1.0  T
  15   -220.5747273  0.588832E-04  0.605E-02    0.00       1.0  T
  16   -220.5750449 -0.317509E-03  0.580E-02    0.01       1.0  T
  17   -220.5755293 -0.484436E-03  0.480E-02    0.00       1.0  T
  18   -220.5756733 -0.144017E-03  0.438E-02    0.00       1.0  T
  19   -220.5758040 -0.130672E-03  0.384E-02    0.00       1.0  T
  20   -220.5758736 -0.696353E-04  0.351E-02    0.00       1.0  T
  21   -220.5758790 -0.540662E-05  0.337E-02    0.00       1.0  T
  22   -220.5758875 -0.843186E-05  0.321E-02    0.00       1.0  T
  23   -220.5759570 -0.694932E-04  0.224E-02    0.00       1.0  T
  24   -220.5759866 -0.296002E-04  0.153E-02    0.00       1.0  T
  25   -220.5759926 -0.609914E-05  0.100E-02    0.00       1.0  T
  26   -220.5760009 -0.828812E-05  0.512E-03    0.00       1.8  T
  27   -220.5759990  0.196660E-05  0.387E-03    0.00       2.4  T
  28   -220.5760028 -0.386051E-05  0.158E-03    0.00       5.8  T
  29   -220.5760030 -0.190028E-06  0.103E-03    0.00       8.9  T
  30   -220.5760035 -0.461068E-06  0.447E-04    0.00      20.5  T
  31   -220.5760035 -0.381199E-07  0.278E-04    0.00      33.0  T
     SCC iter.                  ...        0 min,  0.976 sec
     gradient                   ...        0 min,  0.138 sec
 * total energy  :  -216.9660723 Eh     change       -0.1840180E-01 Eh
   gradient norm :     0.0613959 Eh/α   predicted    -0.2091522E-01 (  13.66%)
   displ. norm   :     0.7563144 α      lambda       -0.2031664E-01
   maximum displ.:     0.5120975 α      in ANC's #15, #20, #19, ...

........................................................................
.............................. CYCLE   25 ..............................
........................................................................
   1   -220.5918976 -0.220592E+03  0.282E-01    0.02       0.0  T
   2   -215.7754633  0.481643E+01  0.453E+00    0.01       1.0  T
   3   -220.2889414 -0.451348E+01  0.858E-01    0.15       1.0  T
   4   -220.4061325 -0.117191E+00  0.680E-01    0.19       1.0  T
   5   -220.4247371 -0.186046E-01  0.612E-01    0.04       1.0  T
   6   -220.5278884 -0.103151E+00  0.438E-01    0.04       1.0  T
   7   -220.6009524 -0.730640E-01  0.220E-01    0.02       1.0  T
   8   -220.6192966 -0.183442E-01  0.785E-02    0.01       1.0  T
   9   -220.6193752 -0.785566E-04  0.821E-02    0.00       1.0  T
  10   -220.6218211 -0.244597E-02  0.308E-02    0.00       1.0  T
  11   -220.6195194  0.230167E-02  0.754E-02    0.00       1.0  T
  12   -220.6192369  0.282500E-03  0.755E-02    0.01       1.0  T
  13   -220.6219973 -0.276036E-02  0.274E-02    0.00       1.0  T
  14   -220.6219920  0.532361E-05  0.245E-02    0.00       1.0  T
  15   -220.6220141 -0.221448E-04  0.257E-02    0.00       1.0  T
  16   -220.6220268 -0.127107E-04  0.235E-02    0.00       1.0  T
  17   -220.6220468 -0.199619E-04  0.222E-02    0.00       1.0  T
[...]
 137: 11.31 138: 11.32 139: 11.32 140: 11.24 141: 11.40 142: 11.40 143: 11.53 144: 11.73
 145: 11.57 146: 11.09 147: 10.97 148: 10.98 149: 11.09 150: 11.45 151: 11.19 152: 11.19
 153: 11.11 154: 11.21 155: 11.29 156: 11.39 157: 11.25 158: 11.39 159: 11.39 160: 11.05
 161: 11.05 162: 11.73 163: 11.77 164: 11.71 165: 11.88 166:  3.75 167:  3.75 168:  3.86
 169:  3.89 170:  3.89 171:  3.86 172:  4.01 173:  4.00 174:  4.27 175:  4.28 176:  4.33
 177:  4.33 178:  3.83 179:  3.83 180:  3.83 181:  3.83 182:  3.71 183:  3.89 184:  4.07
 185:  4.07 186:  3.62 187:  3.36 188:  3.48 189:  3.48 190:  3.44 191:  3.45 192:  3.39
 193:  3.43 194:  3.42 195:  3.54 196:  3.53 197:  3.53 198: 11.40 199: 11.41 200: 11.52
 201: 11.49 202: 11.68 203: 11.38 204: 11.85 205: 11.76 206: 11.89 207: 11.62 208: 11.26
 209: 11.03 210:  7.32 211:  7.31 212:  7.31 213: 10.65 214: 10.65 215:  9.79 216:  8.86
 217:  8.85 218: 11.13 219:  9.23 220:  9.23 221:  8.68 222:  1.61 223:  1.61 224:  1.84
 225:  1.87 226:  1.79 227:  1.88 228:  1.89 229:  1.89 230:  1.93 231:  2.55 232:  2.70
 233:  4.62 234:  7.90 235:  9.51 236:  5.63 237:  5.76 238:  5.46 239:  5.46 240:  6.56
 241:  6.41 242:  6.71 243:  7.05 244:  7.05 245:  6.93 246:  7.40 247:  8.62 248:  8.81
 249:  8.81 250:  8.63 251:  8.65 252:  8.34 253:  9.63 254: 12.13 255: 11.93 256:  9.65
 257:  9.65 258: 11.36 259: 10.90 260:  9.90 261:  9.90 262: 10.89 263: 10.82 264: 11.06
 265: 11.50 266: 11.51 267: 11.99 268: 12.46 269: 11.71 270: 11.70 271: 11.96 272: 12.01
 273:  9.59 274:  9.60 275: 11.97 276:  8.84 277:  9.47 278:  9.59 279:  9.23 280:  9.22
 281:  9.64 282: 11.60 283: 11.73 284: 11.53 285: 11.50 286: 11.49 287: 11.49 288: 11.64
 289: 11.67 290: 11.71 291: 11.81 292: 11.80 293: 11.77 294: 11.76 295: 11.56 296: 11.80
 297: 11.46 298: 11.46 299: 11.68 300: 11.82 301: 11.82 302: 11.72 303: 11.92 304: 11.76
 305: 11.79 306: 11.68 307: 11.68 308: 11.52 309: 11.59 310: 11.61 311: 11.62 312: 11.59
 313: 11.59 314: 11.62 315: 11.62 316: 11.65 317: 11.78 318: 11.78 319: 11.78 320: 12.01
 321: 12.01 322: 12.01 323: 12.01 324: 12.01 325: 12.01 326:  1.81 327:  1.81 328:  1.81
 329:  1.81 330:  1.81 331:  1.81 332:  1.81 333:  1.81 334:  1.81 335:  1.81 336:  1.81
 337:  1.81 338:  1.81 339:  1.81 340:  1.81 341:  1.81 342:  1.81 343:  1.81 344:  1.81
 345:  1.81 346:  1.98 347:  1.98 348:  1.98 349:  1.98 350:  1.97 351:  1.97 352:  1.97
 353:  1.97 354:  1.97 355:  1.97 356:  1.97 357:  1.97
 IR intensities (km·mol⁻¹)
   1:309.48   2:196.03   3:******   4:******   5: 83.27   6:256.54   7:******   8:288.87
   9:  0.18  10:  2.94  11:  4.29  12:  3.10  13:  8.66  14: 39.69  15: 18.18  16: 27.57
  17:  8.24  18:  5.64  19:  0.36  20: 21.73  21:  9.47  22:  3.19  23:  0.86  24:  2.39
  25:  2.54  26:  1.91  27:375.50  28:******  29:103.59  30:  1.12  31:  8.66  32:  1.95
  33: 64.75  34: 71.15  35:168.55  36:  0.04  37: 18.59  38:134.23  39: 44.31  40:  0.34
  41: 90.97  42: 87.16  43: 23.69  44:415.90  45:  6.88  46:******  47:407.04  48:  8.78
  49:  0.08  50: 73.75  51:  3.26  52:401.91  53: 16.33  54: 33.26  55: 47.88  56: 96.10
  57:  0.16  58: 11.86  59: 29.13  60:  1.02  61:  4.16  62:  0.44  63:  7.24  64: 47.35
  65:  3.31  66:251.67  67:315.91  68:  0.00  69: 16.66  70: 10.11  71:******  72: 10.63
  73: 25.84  74: 53.13  75:103.70  76:192.86  77: 65.04  78:******  79:135.58  80:  0.19
  81:  0.04  82:  1.14  83:  0.28  84:  8.56  85:  0.44  86:  0.23  87: 85.36  88:  2.34
  89: 19.49  90:  0.33  91:  0.32  92:  0.07  93:  0.04  94:******  95:573.30  96:******
  97:123.68  98: 27.41  99:  2.33 100: 40.05 101:860.21 102:190.94 103: 54.80 104:  3.33
 105:  2.50 106:  5.10 107: 14.71 108:188.24 109: 43.30 110:  0.87 111: 33.29 112:170.58
 113:170.07 114:  0.48 115: 27.48 116:  3.28 117: 31.98 118:  4.79 119:  0.53 120: 44.42
 121: 20.45 122: 70.07 123:  9.07 124:  0.23 125:630.78 126: 21.89 127:  9.90 128:  0.00
 129: 31.50 130: 43.72 131:  7.97 132:  2.61 133:382.26 134: 11.73 135:  1.46 136:******
 137:  6.79 138: 15.25 139: 20.17 140:  6.47 141: 17.07 142: 11.87 143:  0.03 144:  1.62
 145:****** 146:  3.81 147: 22.12 148:****** 149:****** 150:  1.08 151: 15.12 152:  4.89
 153:  2.25 154:  0.85 155:658.80 156:116.76 157:145.68 158: 31.63 159:  2.80 160:******
 161:  0.25 162:  3.76 163:  3.75 164: 20.29 165: 12.32 166: 16.13 167: 20.55 168: 29.18
 169:  0.03 170:234.96 171: 17.60 172:  7.63 173:  8.38 174:  0.02 175:  1.61 176:  1.71
 177:  6.90 178:  1.70 179:  4.19 180:  1.22 181:574.63 182:  5.98 183: 47.35 184: 38.83
 185:124.43 186:  9.65 187:  0.06 188:  0.53 189:****** 190:  2.11 191:205.75 192:148.98
 193:118.98 194:358.09 195:  5.00 196:  2.40 197:  2.64 198:****** 199: 27.71 200:******
 201: 79.83 202: 65.91 203:254.38 204: 60.07 205:****** 206: 66.79 207:278.28 208:******
 209:206.35 210:  4.11 211:171.81 212:  4.72 213:  4.31 214:359.73 215: 10.36 216:632.01
 217: 27.82 218:  1.55 219: 12.20 220: 20.49 221: 28.65 222:  3.88 223:  4.30 224:461.77
 225:  2.78 226:298.97 227:646.74 228: 17.37 229: 12.09 230: 31.85 231: 69.65 232:  0.11
 233:****** 234:****** 235:  9.11 236:****** 237:151.04 238: 72.86 239: 87.43 240: 45.11
 241: 16.40 242:  0.75 243: 11.65 244:206.80 245:477.96 246:  0.21 247:  0.58 248:  4.46
 249:293.41 250:****** 251:****** 252:653.83 253:  1.57 254:****** 255: 50.15 256: 19.73
 257: 91.03 258:  9.37 259:****** 260: 10.01 261: 90.55 262:  0.10 263: 73.86 264:  1.41
 265:  1.21 266:  4.30 267: 41.10 268:  2.66 269:201.09 270:466.57 271: 44.36 272:******
 273:  7.64 274:251.35 275:  5.54 276:  4.73 277:  7.32 278: 16.56 279: 57.15 280:  5.23
 281:****** 282:156.66 283:  3.15 284: 26.50 285:****** 286: 69.48 287:  6.84 288: 12.07
 289: 53.67 290: 35.19 291: 10.45 292: 64.34 293:  1.37 294:565.51 295: 13.15 296: 26.94
 297:  0.39 298:  6.57 299:  8.89 300:  2.43 301:  6.31 302: 88.15 303: 33.25 304:  0.11
 305: 37.27 306: 28.78 307: 97.44 308: 17.50 309: 29.01 310:****** 311: 11.75 312:  0.53
 313:  9.24 314:  6.35 315:  1.58 316: 68.83 317:  3.30 318:  0.50 319:  1.76 320:  0.86
 321:148.95 322:  2.25 323: 10.86 324:  0.26 325:358.49 326: 11.18 327:  7.92 328:161.07
 329: 49.69 330:****** 331:373.22 332:****** 333:  1.02 334: 54.88 335: 15.61 336:  1.88
 337: 88.44 338:595.32 339:275.70 340:145.47 341:869.60 342:593.39 343:****** 344:******
 345:917.40 346:****** 347: 66.24 348:****** 349:****** 350:****** 351:****** 352:157.94
 353:268.39 354:800.05 355:****** 356:****** 357:404.87
 Raman intensities (amu)
   1:  0.00   2:  0.00   3:  0.00   4:  0.00   5:  0.00   6:  0.00   7:  0.00   8:  0.00
   9:  0.00  10:  0.00  11:  0.00  12:  0.00  13:  0.00  14:  0.00  15:  0.00  16:  0.00
  17:  0.00  18:  0.00  19:  0.00  20:  0.00  21:  0.00  22:  0.00  23:  0.00  24:  0.00
  25:  0.00  26:  0.00  27:  0.00  28:  0.00  29:  0.00  30:  0.00  31:  0.00  32:  0.00
  33:  0.00  34:  0.00  35:  0.00  36:  0.00  37:  0.00  38:  0.00  39:  0.00  40:  0.00
  41:  0.00  42:  0.00  43:  0.00  44:  0.00  45:  0.00  46:  0.00  47:  0.00  48:  0.00
  49:  0.00  50:  0.00  51:  0.00  52:  0.00  53:  0.00  54:  0.00  55:  0.00  56:  0.00
  57:  0.00  58:  0.00  59:  0.00  60:  0.00  61:  0.00  62:  0.00  63:  0.00  64:  0.00
  65:  0.00  66:  0.00  67:  0.00  68:  0.00  69:  0.00  70:  0.00  71:  0.00  72:  0.00
  73:  0.00  74:  0.00  75:  0.00  76:  0.00  77:  0.00  78:  0.00  79:  0.00  80:  0.00
  81:  0.00  82:  0.00  83:  0.00  84:  0.00  85:  0.00  86:  0.00  87:  0.00  88:  0.00
  89:  0.00  90:  0.00  91:  0.00  92:  0.00  93:  0.00  94:  0.00  95:  0.00  96:  0.00
  97:  0.00  98:  0.00  99:  0.00 100:  0.00 101:  0.00 102:  0.00 103:  0.00 104:  0.00
 105:  0.00 106:  0.00 107:  0.00 108:  0.00 109:  0.00 110:  0.00 111:  0.00 112:  0.00
 113:  0.00 114:  0.00 115:  0.00 116:  0.00 117:  0.00 118:  0.00 119:  0.00 120:  0.00
 121:  0.00 122:  0.00 123:  0.00 124:  0.00 125:  0.00 126:  0.00 127:  0.00 128:  0.00
 129:  0.00 130:  0.00 131:  0.00 132:  0.00 133:  0.00 134:  0.00 135:  0.00 136:  0.00
 137:  0.00 138:  0.00 139:  0.00 140:  0.00 141:  0.00 142:  0.00 143:  0.00 144:  0.00
 145:  0.00 146:  0.00 147:  0.00 148:  0.00 149:  0.00 150:  0.00 151:  0.00 152:  0.00
 153:  0.00 154:  0.00 155:  0.00 156:  0.00 157:  0.00 158:  0.00 159:  0.00 160:  0.00
 161:  0.00 162:  0.00 163:  0.00 164:  0.00 165:  0.00 166:  0.00 167:  0.00 168:  0.00
 169:  0.00 170:  0.00 171:  0.00 172:  0.00 173:  0.00 174:  0.00 175:  0.00 176:  0.00
 177:  0.00 178:  0.00 179:  0.00 180:  0.00 181:  0.00 182:  0.00 183:  0.00 184:  0.00
 185:  0.00 186:  0.00 187:  0.00 188:  0.00 189:  0.00 190:  0.00 191:  0.00 192:  0.00
 193:  0.00 194:  0.00 195:  0.00 196:  0.00 197:  0.00 198:  0.00 199:  0.00 200:  0.00
 201:  0.00 202:  0.00 203:  0.00 204:  0.00 205:  0.00 206:  0.00 207:  0.00 208:  0.00
 209:  0.00 210:  0.00 211:  0.00 212:  0.00 213:  0.00 214:  0.00 215:  0.00 216:  0.00
 217:  0.00 218:  0.00 219:  0.00 220:  0.00 221:  0.00 222:  0.00 223:  0.00 224:  0.00
 225:  0.00 226:  0.00 227:  0.00 228:  0.00 229:  0.00 230:  0.00 231:  0.00 232:  0.00
 233:  0.00 234:  0.00 235:  0.00 236:  0.00 237:  0.00 238:  0.00 239:  0.00 240:  0.00
 241:  0.00 242:  0.00 243:  0.00 244:  0.00 245:  0.00 246:  0.00 247:  0.00 248:  0.00
 249:  0.00 250:  0.00 251:  0.00 252:  0.00 253:  0.00 254:  0.00 255:  0.00 256:  0.00
 257:  0.00 258:  0.00 259:  0.00 260:  0.00 261:  0.00 262:  0.00 263:  0.00 264:  0.00
 265:  0.00 266:  0.00 267:  0.00 268:  0.00 269:  0.00 270:  0.00 271:  0.00 272:  0.00
 273:  0.00 274:  0.00 275:  0.00 276:  0.00 277:  0.00 278:  0.00 279:  0.00 280:  0.00
Refinement of some symmetry elements was terminated before convergence was reached.
Some symmetry elements may remain unidentified.
Molecule has no symmetry elements
It seems to be the C1 point group
 281:  0.00 282:  0.00 283:  0.00 284:  0.00 285:  0.00 286:  0.00 287:  0.00 288:  0.00
 289:  0.00 290:  0.00 291:  0.00 292:  0.00 293:  0.00 294:  0.00 295:  0.00 296:  0.00
 297:  0.00 298:  0.00 299:  0.00 300:  0.00 301:  0.00 302:  0.00 303:  0.00 304:  0.00
 305:  0.00 306:  0.00 307:  0.00 308:  0.00 309:  0.00 310:  0.00 311:  0.00 312:  0.00
 313:  0.00 314:  0.00 315:  0.00 316:  0.00 317:  0.00 318:  0.00 319:  0.00 320:  0.00
 321:  0.00 322:  0.00 323:  0.00 324:  0.00 325:  0.00 326:  0.00 327:  0.00 328:  0.00
 329:  0.00 330:  0.00 331:  0.00 332:  0.00 333:  0.00 334:  0.00 335:  0.00 336:  0.00
 337:  0.00 338:  0.00 339:  0.00 340:  0.00 341:  0.00 342:  0.00 343:  0.00 344:  0.00
 345:  0.00 346:  0.00 347:  0.00 348:  0.00 349:  0.00 350:  0.00 351:  0.00 352:  0.00
 353:  0.00 354:  0.00 355:  0.00 356:  0.00 357:  0.00
 output can be read by thermo (or use thermo option).
 writing <g98.out> molden fake output.
 recommended (thermochemical) frequency scaling factor: 1.0
           -------------------------------------------------
          |             Thermodynamic Functions             |
           -------------------------------------------------

c1  symmetry found (for desy threshold:  0.10E+00) used in thermo
 inverting freq            1   9.5641852294162089     
 inverting freq            2   5.8515486477929137     

          ...................................................
          :                      SETUP                      :
          :.................................................:
          :  # frequencies                         351      :
          :  # imaginary freq.                       0      :
          :  linear?                             false      :
          :  only rotor calc.                    false      :
          :  symmetry                               c1      :
          :  rotational number                       1      :
          :  scaling factor                  1.0000000      :
          :  rotor cutoff                   50.0000000 cm⁻¹ :
          :  imag. cutoff                  -20.0000000 cm⁻¹ :
          :.................................................:

    mode    ω/cm⁻¹     T·S(HO)/kcal·mol⁻¹    T·S(FR)/kcal·mol⁻¹   T·S(vib)
   ------------------------------------------------------------------------
       1      9.56    -2.41489 (  0.13%)    -1.54653 ( 99.87%)    -1.54769
       2      5.85    -2.70595 (  0.02%)    -1.69208 ( 99.98%)    -1.69227
       3      1.24    -3.62668 (  0.00%)    -2.15243 (100.00%)    -2.15243
       4      2.11    -3.31128 (  0.00%)    -1.99474 (100.00%)    -1.99474
       5      6.45    -2.64829 (  0.03%)    -1.66324 ( 99.97%)    -1.66352
       6      6.72    -2.62391 (  0.03%)    -1.65105 ( 99.97%)    -1.65137
       7     10.27    -2.37295 (  0.18%)    -1.52556 ( 99.82%)    -1.52706
       8     17.89    -2.04408 (  1.61%)    -1.36107 ( 98.39%)    -1.37207
       9     19.08    -2.00596 (  2.08%)    -1.34199 ( 97.92%)    -1.35577
      10     26.53    -1.81082 (  7.34%)    -1.24432 ( 92.66%)    -1.28591
      11     28.33    -1.77183 (  9.35%)    -1.22480 ( 90.65%)    -1.27594
      12     30.64    -1.72551 ( 12.36%)    -1.20160 ( 87.64%)    -1.26637
      13     37.33    -1.60876 ( 23.71%)    -1.14310 ( 76.29%)    -1.25351
      14     38.52    -1.59027 ( 26.05%)    -1.13383 ( 73.95%)    -1.25273
      15     38.74    -1.58686 ( 26.50%)    -1.13212 ( 73.50%)    -1.25261
      16     40.19    -1.56514 ( 29.46%)    -1.12122 ( 70.54%)    -1.25199
      17     52.46    -1.40799 ( 54.79%)    -1.04232 ( 45.21%)    -1.24267
      18     69.07    -1.24620 ( 78.45%)    -0.96085 ( 21.55%)    -1.18471
      19     77.61    -1.17778 ( 85.31%)    -0.92628 ( 14.69%)    -1.14083
      20     83.93    -1.13203 ( 88.81%)    -0.90312 ( 11.19%)    -1.10642
      21     84.57    -1.12757 ( 89.11%)    -0.90085 ( 10.89%)    -1.10288
      22     85.19    -1.12333 ( 89.39%)    -0.89871 ( 10.61%)    -1.09950
      23     87.75    -1.10602 ( 90.46%)    -0.88992 (  9.54%)    -1.08541
      24     92.26    -1.07679 ( 92.06%)    -0.87508 (  7.94%)    -1.06077
      25     93.48    -1.06914 ( 92.43%)    -0.87119 (  7.57%)    -1.05416
      26    110.29    -0.97310 ( 95.95%)    -0.82220 (  4.05%)    -0.96699
      27    116.10    -0.94342 ( 96.67%)    -0.80698 (  3.33%)    -0.93888
      28    120.74    -0.92085 ( 97.14%)    -0.79539 (  2.86%)    -0.91726
      29    120.80    -0.92055 ( 97.15%)    -0.79523 (  2.85%)    -0.91698
      30    123.39    -0.90834 ( 97.37%)    -0.78895 (  2.63%)    -0.90520
      31    130.51    -0.87610 ( 97.89%)    -0.77232 (  2.11%)    -0.87391
      32    135.20    -0.85592 ( 98.16%)    -0.76188 (  1.84%)    -0.85419
      33    160.62    -0.75804 ( 99.07%)    -0.71083 (  0.93%)    -0.75760
      34    161.25    -0.75583 ( 99.08%)    -0.70967 (  0.92%)    -0.75540
      35    165.27    -0.74196 ( 99.17%)    -0.70237 (  0.83%)    -0.74164
      36    165.44    -0.74141 ( 99.17%)    -0.70208 (  0.83%)    -0.74108
      37    165.92    -0.73975 ( 99.18%)    -0.70120 (  0.82%)    -0.73944
      38    174.63    -0.71109 ( 99.33%)    -0.68605 (  0.67%)    -0.71092
      39    180.36    -0.69309 ( 99.41%)    -0.67648 (  0.59%)    -0.69299
      40    183.64    -0.68309 ( 99.45%)    -0.67115 (  0.55%)    -0.68302
      41    184.16    -0.68151 ( 99.46%)    -0.67031 (  0.54%)    -0.68145
      42    184.56    -0.68030 ( 99.46%)    -0.66967 (  0.54%)    -0.68024
      43    185.31    -0.67806 ( 99.47%)    -0.66847 (  0.53%)    -0.67801
      44    196.30    -0.64625 ( 99.58%)    -0.65141 (  0.42%)    -0.64627
      45    198.50    -0.64012 ( 99.60%)    -0.64810 (  0.40%)    -0.64015
      46    204.83    -0.62291 ( 99.65%)    -0.63880 (  0.35%)    -0.62297
      47    207.77    -0.61515 ( 99.67%)    -0.63459 (  0.33%)    -0.61521
      48    207.91    -0.61476 ( 99.67%)    -0.63438 (  0.33%)    -0.61483
      49    209.33    -0.61106 ( 99.68%)    -0.63236 (  0.32%)    -0.61113
      50    209.53    -0.61054 ( 99.68%)    -0.63208 (  0.32%)    -0.61061
      51    211.10    -0.60647 ( 99.69%)    -0.62987 (  0.31%)    -0.60654
      52    214.36    -0.59815 ( 99.70%)    -0.62533 (  0.30%)    -0.59823
      53    216.69    -0.59229 ( 99.72%)    -0.62213 (  0.28%)    -0.59238
      54    217.43    -0.59046 ( 99.72%)    -0.62112 (  0.28%)    -0.59054
      55    219.77    -0.58467 ( 99.73%)    -0.61795 (  0.27%)    -0.58475
      56    220.64    -0.58255 ( 99.74%)    -0.61678 (  0.26%)    -0.58264
      57    221.21    -0.58115 ( 99.74%)    -0.61602 (  0.26%)    -0.58124
      58    227.12    -0.56696 ( 99.77%)    -0.60820 (  0.23%)    -0.56706
      59    232.74    -0.55386 ( 99.79%)    -0.60095 (  0.21%)    -0.55396
      60    259.24    -0.49699 ( 99.86%)    -0.56902 (  0.14%)    -0.49708
      61    259.37    -0.49672 ( 99.86%)    -0.56886 (  0.14%)    -0.49681
      62    259.66    -0.49614 ( 99.86%)    -0.56853 (  0.14%)    -0.49624
      63    274.90    -0.46667 ( 99.89%)    -0.55164 (  0.11%)    -0.46676
      64    287.73    -0.44343 ( 99.91%)    -0.53812 (  0.09%)    -0.44351
      65    295.98    -0.42920 ( 99.92%)    -0.52975 (  0.08%)    -0.42928
      66    299.99    -0.42247 ( 99.92%)    -0.52577 (  0.08%)    -0.42255
   ------------------------------------------------------------------------

   temp. (K)  partition function   enthalpy   heat capacity  entropy
                                   cal/mol     cal/K/mol   cal/K/mol   J/K/mol
 298.15  VIB  0.383E+38            43444.550    275.718    277.337
         ROT  0.119E+10              888.752      2.981     44.508
         INT  0.455E+47            44333.302    278.699    321.844
         TR   0.431E+29             1481.254      4.968     47.239
         TOT                       45814.5563   283.6669   369.0834  1544.2448

       T/K    H(0)-H(T)+PV         H(T)/Eh          T*S/Eh         G(T)/Eh
   ------------------------------------------------------------------------
    298.15    0.730101E-01    0.882920E+00    0.175363E+00    0.707556E+00
   ------------------------------------------------------------------------

         :::::::::::::::::::::::::::::::::::::::::::::::::::::
         ::                  THERMODYNAMIC                  ::
         :::::::::::::::::::::::::::::::::::::::::::::::::::::
         :: total free energy        -216.448062734551 Eh   ::
         ::.................................................::
         :: total energy             -217.155619094146 Eh   ::
         :: zero point energy           0.809909627852 Eh   ::
         :: G(RRHO) w/o ZPVE           -0.102353268257 Eh   ::
         :: G(RRHO) contrib.            0.707556359595 Eh   ::
         :::::::::::::::::::::::::::::::::::::::::::::::::::::
imag cut-off (cm-1) :    5.00
 found            2  significant imaginary frequencies
 writing imag mode distorted coords to xtbhess.xyz
 for further optimization.

optimized geometry written to: xtbopt.xyz


           -------------------------------------------------
          | TOTAL ENERGY             -217.155619094146 Eh   |
          | TOTAL ENTHALPY           -216.272699323583 Eh   |
          | TOTAL FREE ENERGY        -216.448062734551 Eh   |
          | GRADIENT NORM               0.000599179226 Eh/α |
          | HOMO-LUMO GAP               0.000093147810 eV   |
           -------------------------------------------------

------------------------------------------------------------------------
 * finished run on 2021/11/19 at 12:03:27.403     
------------------------------------------------------------------------
 total:
 * wall-time:     0 d,  0 h,  6 min, 32.455 sec
 *  cpu-time:     0 d,  0 h,  6 min, 32.445 sec
 * ratio c/w:     1.000 speedup
 SCF:
 * wall-time:     0 d,  0 h,  0 min,  1.701 sec
 *  cpu-time:     0 d,  0 h,  0 min,  1.701 sec
 * ratio c/w:     1.000 speedup
 ANC optimizer:
 * wall-time:     0 d,  0 h,  0 min, 59.913 sec
 *  cpu-time:     0 d,  0 h,  0 min, 59.900 sec
 * ratio c/w:     1.000 speedup
 analytical hessian:
 * wall-time:     0 d,  0 h,  5 min, 30.217 sec
 *  cpu-time:     0 d,  0 h,  5 min, 30.220 sec
 * ratio c/w:     1.000 speedup

