119
 energy: -215.977431119722 gnorm: 1.091690354770 xtb: 6.4.1 (bd6e46d)
Cu       10.46583300000000    0.03079300000000   -0.00863000000000
C        12.79482400000000   -3.11600000000000    1.31405900000000
C        13.71093200000000   -2.17179300000000    1.26377700000000
C        13.29975200000000   -1.11788900000000    0.34248500000000
C        13.91862300000000    0.00645700000000   -0.00392500000000
C        13.21458000000000    1.22640500000000   -0.36803000000000
C        13.54269100000000    2.18646000000000   -1.21550400000000
C        12.50791100000000    3.20274600000000   -1.23240200000000
C        11.57164300000000    2.82628400000000   -0.38551000000000
N        11.97363400000000    1.59327300000000    0.17830700000000
C        10.31056900000000    3.47128300000000   -0.00635800000000
C         9.21535200000000    2.83650100000000    0.34440200000000
C         8.14172600000000    3.15445600000000    1.31343000000000
C         7.30416300000000    2.15770300000000    1.23626400000000
C         7.74246100000000    1.15402000000000    0.25581200000000
N         8.84739900000000    1.59287300000000   -0.22848100000000
C         7.13162600000000   -0.09925100000000   -0.15773600000000
C         7.79578600000000   -1.20375800000000   -0.41216100000000
C         7.42193800000000   -2.26669900000000   -1.36968800000000
C         8.37068500000000   -3.16045500000000   -1.28066900000000
C         9.35640900000000   -2.72300500000000   -0.29779100000000
N         9.00336300000000   -1.57720000000000    0.19900600000000
C        10.58729700000000   -3.37907600000000    0.14793000000000
C        11.71033800000000   -2.73321400000000    0.41505100000000
N        12.03893800000000   -1.48577300000000   -0.18335300000000
H        12.85508600000000   -4.02578100000000    1.93160500000000
H        14.62725900000000   -2.21174200000000    1.84182500000000
H        14.47005600000000    2.20325600000000   -1.81664700000000
H        12.52481000000000    4.10743400000000   -1.84502300000000
H        10.26284600000000    4.56608600000000   -0.01013600000000
H         8.08890500000000    4.03318200000000    1.93842200000000
H         6.39253300000000    2.12203300000000    1.85358800000000
H         6.03337500000000   -0.09634100000000   -0.25700700000000
H         6.55308200000000   -2.31916400000000   -2.01863800000000
H         8.36783900000000   -4.07676400000000   -1.87942800000000
H        10.55181500000000   -4.47487700000000    0.25985500000000
Cu       45.36979800000000   -0.01658300000000   -0.01306300000000
C        43.04080700000001    2.83020900000000    1.87044200000000
C        42.12470000000000    1.91171900000000    1.64586800000000
C        42.53588000000000    1.04702200000000    0.54505400000000
C        41.91700900000000    0.00645700000000   -0.00392500000000
C        42.62105100000000   -1.12476800000000   -0.58802800000000
C        42.29294100000000   -1.91093900000000   -1.59889500000000
C        43.32772100000000   -2.90644900000000   -1.80403500000000
C        44.26398900000000   -2.69363200000000   -0.90200500000000
N        43.86199800000000   -1.58662000000000   -0.11923300000000
C        45.52506300000000   -3.39777300000000   -0.64909100000000
C        46.62028000000000   -2.83908100000000   -0.18665800000000
C        47.69390600000000   -3.33128600000000    0.70656400000000
C        48.53146900000000   -2.33751900000000    0.81564900000000
C        48.09317100000000   -1.16937000000000    0.03841400000000
N        46.98823300000001   -1.51076200000000   -0.51888600000000
C        48.70400600000000    0.13886500000000   -0.13545600000000
C        48.03984500000000    1.27139800000000   -0.18056200000000
C        48.41369400000000    2.49352400000000   -0.92427700000000
C        47.46494700000000    3.35525100000000   -0.67099900000000
C        46.47922300000000    2.74305700000000    0.21366500000000
N        46.83226900000000    1.52497800000000    0.48927500000000
C        45.24833500000000    3.30505100000000    0.77335900000000
C        44.12529400000000    2.62084600000000    0.91602700000000
N        43.79669400000001    1.50607100000000    0.09659200000000
H        42.98054500000000    3.60963300000000    2.64604600000000
H        41.20837300000001    1.84373900000000    2.22129400000000
H        41.36557600000000   -1.81592200000000   -2.19271900000000
H        43.31082200000000   -3.68178300000000   -2.57385500000000
H        45.57278600000000   -4.47287100000000   -0.85590500000000
H        47.74672700000000   -4.31070300000000    1.15769100000000
H        49.44309900000000   -2.41699100000000    1.42887400000000
H        49.80225600000000    0.15442100000000   -0.23354300000000
H        49.28255000000000    2.66546800000000   -1.55223000000000
H        47.46779300000001    4.36673300000000   -1.08937600000000
H        45.28381700000000    4.36106800000000    1.08662800000000
C        16.89063400000000    0.01758800000000    0.00011600000000
C        18.10616700000000   -0.00775500000000   -0.01036300000000
C        19.52768400000000   -0.02917900000000   -0.01453900000000
C        20.73624600000000   -0.03138900000000   -0.01443400000000
C        22.15732100000000   -0.01243000000000   -0.01506100000000
C        23.36846300000000    0.01758800000000    0.00011600000000
C        32.46581000000000    0.01758800000000    0.00011600000000
C        33.68134300000000   -0.00775500000000   -0.01036300000000
C        35.10286000000000   -0.02917900000000   -0.01453900000000
C        36.31142100000000   -0.03138900000000   -0.01443400000000
C        37.73249700000000   -0.01243000000000   -0.01506100000000
C        38.94363900000000    0.01758800000000    0.00011600000000
Cu       27.95705300000000    0.02920600000000    0.00494400000000
C        25.67724300000000   -3.23224200000000   -0.90472100000000
C        24.72103300000000   -2.33289100000000   -1.00674800000000
C        25.11340700000000   -1.17058700000000   -0.20423200000000
C        24.47829100000000   -0.01931400000000    0.00803400000000
C        25.16374800000000    1.25528600000000    0.23426400000000
C        24.82845800000000    2.33388600000000    0.93850400000000
C        25.85299900000000    3.35320200000000    0.84792200000000
C        26.80359600000000    2.85627800000000    0.07455800000000
N        26.42660200000000    1.53967300000000   -0.34158500000000
C        28.05073600000000    3.46797900000000   -0.34230800000000
C        29.15228800000000    2.80072200000000   -0.67407900000000
C        30.14583400000000    3.05270700000000   -1.70824900000000
C        31.03971700000000    2.09184700000000   -1.60676500000000
C        30.66001900000000    1.17996400000000   -0.50278800000000
N        29.56510400000000    1.62928200000000    0.00457900000000
C        31.31722600000000   -0.01931400000000    0.00803400000000
C        30.69381500000000   -1.08849600000000    0.46955100000000
C        31.07252700000000   -2.02061100000000    1.54502700000000
C        30.13185900000000   -2.93475700000000    1.63089300000000
C        29.12355700000000   -2.63897900000000    0.63346600000000
N        29.46133200000000   -1.58560100000000   -0.01582900000000
C        27.87116400000000   -3.34598600000000    0.30227200000000
C        26.75728700000000   -2.74928900000000   -0.04506900000000
N        26.37517500000000   -1.46653200000000    0.37261400000000
H        25.67758700000000   -4.22331600000000   -1.39595600000000
H        23.81249900000000   -2.45458600000000   -1.58789600000000
H        23.90360600000000    2.45223700000000    1.51543000000000
H        25.88029400000000    4.34236700000000    1.30457300000000
H        28.13667600000000    4.56535700000000   -0.40433100000000
H        30.17850600000000    3.85892300000000   -2.43507300000000
H        31.93277900000000    1.97887900000000   -2.24053900000000
H        31.98727800000000   -1.94620500000000    2.15519600000000
H        30.15090500000000   -3.74836600000000    2.33916000000000
H        27.90964900000000   -4.44594500000000    0.36130900000000
119
 energy: -216.309421693156 gnorm: 0.415713781837 xtb: 6.4.1 (bd6e46d)
Cu       10.47465960037059    0.03021799633690   -0.00718006106416
C        12.79473866085057   -3.12515556838025    1.30661499808871
C        13.72252938240108   -2.16982935941352    1.26245096616504
C        13.29090741337791   -1.11939587535205    0.34954626868243
C        13.89862242100448    0.02433642294731   -0.00981274813819
C        13.20153972739532    1.22239155520368   -0.35791154307967
C        13.55363041327084    2.21243732199393   -1.23217380929451
C        12.53567996363205    3.20393919836736   -1.24634824919565
C        11.56457306665814    2.80419047071669   -0.37799207320063
N        11.94977994820993    1.57586073945521    0.18081460660696
C        10.32762208896229    3.47072721805839   -0.00667159247402
C         9.20484975010277    2.82263080438184    0.34509978375257
C         8.14363444324900    3.16250432177701    1.29884080092688
C         7.28207474024650    2.14948051166139    1.24118169801456
C         7.73750566791204    1.15592212023800    0.26969051786724
N         8.87737064278205    1.57484619302900   -0.21474504915416
C         7.12095998993466   -0.08004352082011   -0.15267399018170
C         7.79856043037072   -1.20819466218025   -0.41614514059593
C         7.41318691583609   -2.26582132456589   -1.35752556872488
C         8.37830154851103   -3.17866814335675   -1.28005067799194
C         9.36469733665873   -2.73114258542575   -0.30475377293391
N         9.01478123471751   -1.55612964894584    0.17738913872187
C        10.57099135998543   -3.38593442174092    0.14169113817992
C        11.71793299637797   -2.72068424375193    0.41459752582036
N        12.03333085791423   -1.48225575470465   -0.15873467720686
H        12.84839862860035   -4.02126632052715    1.92482059853373
H        14.63080784657980   -2.20383725298205    1.83927752424298
H        14.46727782571716    2.20973230650177   -1.81818824808674
H        12.53036563518544    4.10444384909574   -1.84585080431635
H        10.27557776105272    4.56259778594069   -0.00434093718430
H         8.09454734927559    4.03205099988086    1.93350082167630
H         6.38925168043214    2.11457460269267    1.85245956850505
H         6.03510309056290   -0.08977865060837   -0.26239272302172
H         6.55453392672788   -2.31149411568769   -2.01241970135973
H         8.37663627788678   -4.07966118913150   -1.87643148805688
H        10.54745776510833   -4.47123688233441    0.26221169299979
Cu       45.36097505261240   -0.01630540398018   -0.01151440862159
C        43.04092781805206    2.84054961485092    1.86486467966563
C        42.11305580672358    1.91008491324062    1.64414750701109
C        42.54456618009100    1.04738288493890    0.55216494355340
C        41.93643661721614   -0.01001053661250   -0.01282868796468
C        42.63402504995326   -1.12260933929650   -0.57742808497228
C        42.28201607357889   -1.93335089405681   -1.62005731592678
C        43.29998542899921   -2.90508156466304   -1.81792511827043
C        44.27103688391819   -2.67336995327651   -0.89051971164715
N        43.88575462152472   -1.56988153181403   -0.11363977022958
C        45.50799194562443   -3.39716965080761   -0.64931571620380
C        46.63078444715739   -2.82555667406889   -0.18339171741827
C        47.69198404121821   -3.33646389146289    0.69075632467608
C        48.55359140349483   -2.33036074174799    0.82196192090550
C        48.09814595609519   -1.17379650183581    0.05168982390198
N        46.95823306049966   -1.49563146030274   -0.50202005042143
C        48.71467020684840    0.11901428130181   -0.13401736541008
C        48.03703493216325    1.27651264538393   -0.18365752051268
C        48.42240894762835    2.49039237827299   -0.91251841204355
C        47.45733771872612    3.37306115932782   -0.66697507649004
C        46.47094069614300    2.75236826553836    0.20835387018164
N        46.82089551794605    1.50826112086009    0.46411741223857
C        45.26465821118389    3.31293191839794    0.76847041978787
C        44.11771843392224    2.60852436699981    0.91334223897656
N        43.80230021475305    1.49801603138888    0.12015356608571
H        42.98724182001119    3.60644805456754    2.63854301403335
H        41.20481583499113    1.83646233086400    2.21733652526243
H        41.36834875059456   -1.82201273227029   -2.19544530283917
H        43.30527515368374   -3.67869761967425   -2.57411918462731
H        45.56006166931435   -4.47051586325547   -0.84959452181958
H        47.74108289602892   -4.30867413473699    1.15306613538482
H        49.44638437439319   -2.40945025523374    1.42914826750841
H        49.80052879398649    0.14896735603691   -0.24001501537037
H        49.28108971736377    2.65677553821878   -1.54754300235754
H        47.45899211917722    4.36903010141953   -1.08589170360947
H        45.28814852808919    4.35706992364383    1.08818721675211
C        16.88880621633778    0.01723298464598    0.00083476961820
C        18.11837957395202   -0.00820257517156   -0.01022241855621
C        19.50610268444629   -0.02843388906019   -0.01469817773596
C        20.73233413784975   -0.03039370648266   -0.01450212177757
C        22.07901788267755   -0.01174212531366   -0.01420436909742
C        23.27869877778166    0.03049285534696   -0.00226117108725
C        32.54875414822378    0.02744721385985    0.00118875478585
C        33.75018655831342   -0.00724686241102   -0.00887448397342
C        35.10468554293367   -0.02805423346193   -0.01576052028743
C        36.33010643516578   -0.03067833701183   -0.01498303567448
C        37.72024190733183   -0.01316128354794   -0.01459282703796
C        38.94645633652799    0.01687982315849    0.00077927624235
Cu       27.95035096642911    0.03106352410069    0.00205991203131
C        25.67978051175865   -3.25173740502572   -0.89912514514723
C        24.71964333904960   -2.33069624847505   -1.00145230375580
C        25.16670593588121   -1.19523583687790   -0.20906735015320
C        24.55634157846241   -0.00332270132953    0.00810603360659
C        25.21123552258630    1.26533099841251    0.23259889456720
C        24.82295313168430    2.35836599015093    0.94951271129781
C        25.83118630781813    3.35622782971104    0.85550779744898
C        26.81504362177854    2.84002002431790    0.06952530712504
N        26.45657743221301    1.53123185874849   -0.33224316025659
C        28.03754296133771    3.46975013099272   -0.34344661170895
C        29.15954221823592    2.79284075668860   -0.67491033011109
C        30.15030687537361    3.06137189894482   -1.69778921279621
C        31.05571264495877    2.08007294988769   -1.60678451229101
C        30.64191459801130    1.18569881027936   -0.52070807762802
N        29.52802192068108    1.61806367331139   -0.00850958620332
C        31.26629273558866   -0.00534304342878    0.00043055328879
C        30.65432226643668   -1.10870239955897    0.48206079526485
C        31.08047515806183   -2.01684034220179    1.53664397999367
C        30.12583570772279   -2.95123412716751    1.63108325005575
C        29.11257574291374   -2.65068813191971    0.64294063858024
N        29.44001608649803   -1.55858998562347   -0.00674632388175
C        27.88952565458378   -3.35520196875432    0.31087363956412
C        26.74648279599372   -2.74156875246136   -0.05120157425161
N        26.39308714427435   -1.46008325858752    0.34903301683623
H        25.68142089617541   -4.22098747528967   -1.39292023988279
H        23.81415791615505   -2.44487941980314   -1.58330082003422
H        23.90401143995677    2.45418689246801    1.51557558897402
H        25.87134309407954    4.33789162986284    1.30655941049713
H        28.12266247314964    4.56090506336409   -0.40938632847575
H        30.17274136733771    3.85788199545008   -2.42869658792261
H        31.93233906353951    1.97291975505316   -2.23702135056696
H        31.98162073937102   -1.94097566702050    2.14704441247709
H        30.14496186239656   -3.75396341413100    2.33990970228738
H        27.91431477639560   -4.44463750316460    0.35864322306042
119
 energy: -216.448850307150 gnorm: 0.183674072684 xtb: 6.4.1 (bd6e46d)
Cu       10.48632213496841    0.02827637095095   -0.00475366906757
C        12.79733195340605   -3.13297287010975    1.29043674113353
C        13.73453823869558   -2.16704702648851    1.25703547212869
C        13.27302651085493   -1.11399367302670    0.36625592845731
C        13.85865016603158    0.04953945075651   -0.01663353171759
C        13.17956705486376    1.22046121489011   -0.35406024487817
C        13.56139610600730    2.24098301024092   -1.24127087695055
C        12.56648630110177    3.20155087263134   -1.25108563447058
C        11.55909096948491    2.77562381031939   -0.37364243669055
N        11.91607643849998    1.55208752081108    0.16712547123151
C        10.35049029254158    3.45924886927430   -0.00467992265220
C         9.20447467203926    2.79911943237954    0.35072406994731
C         8.14427779452130    3.16627831027401    1.27159322154606
C         7.25955989859555    2.14445417020394    1.23820370811574
C         7.73651583534761    1.15423050036442    0.29186729943892
N         8.92077242286919    1.54090463435867   -0.17670426706963
C         7.11432855500259   -0.05964183295140   -0.14634437447919
C         7.80467842260839   -1.20416957945135   -0.42691604703136
C         7.40671255184855   -2.26794309867589   -1.33477281635434
C         8.38237225029141   -3.19742874664437   -1.27101500658681
C         9.37642545455366   -2.73383612298486   -0.31903370411059
N         9.03781906812256   -1.52022093542822    0.13077062503649
C        10.55575321601675   -3.38763671428161    0.13375726208873
C        11.71981578715827   -2.70579837277508    0.41699348862705
N        12.01774961782075   -1.47311132561273   -0.11554247728855
H        12.83748626122876   -4.01676868252810    1.90982692994773
H        14.63931353157854   -2.18896350205920    1.83200161341695
H        14.46536700245783    2.21994222594646   -1.81866696891291
H        12.53814212210195    4.09928168204119   -1.84352551172306
H        10.30006681065634    4.54930181784989    0.00240894258337
H         8.10408813212867    4.02806408105873    1.91758286394382
H         6.38050686468562    2.10220117196597    1.84857543454009
H         6.03765665112410   -0.07848019788259   -0.26874064252645
H         6.55686656403176   -2.29974056485983   -1.99674137176000
H         8.39140424800008   -4.08765163086649   -1.86854222721397
H        10.54184215282806   -4.46454308947234    0.26406479098749
Cu       45.34934204932757   -0.01491363840015   -0.00871262526202
C        43.03839861617987    2.85112910615422    1.85052013893141
C        42.10087361367025    1.90849715345188    1.63820405848924
C        42.56196766329858    1.03922968486936    0.56737204558211
C        41.97529585556671   -0.03346063457170   -0.02396610355269
C        42.65567702672403   -1.12127874096109   -0.57333185933984
C        42.27414457783896   -1.95972168086160   -1.63424969683156
C        43.26914393197018   -2.90190288364959   -1.82206552427419
C        44.27643326224241   -2.64609082923768   -0.88089763086563
N        43.91920361678383   -1.54371384152799   -0.12283317147792
C        45.48505721465096   -3.38620671121175   -0.64522363017514
C        46.63113872421989   -2.80343580237251   -0.17346153471476
C        47.69131446415390   -3.33506656821142    0.66335284021597
C        48.57620154363973   -2.32491151999913    0.81985351185947
C        48.09918144138636   -1.17622829576758    0.07376569532676
N        46.91478224840754   -1.46939092307403   -0.45828467556098
C        48.72128775950629    0.09772496236617   -0.13151452925121
C        48.03084298830759    1.27456565436495   -0.19501844427314
C        48.42879260459941    2.48822179022518   -0.88986184772180
C        47.45329672073700    3.38988236220864   -0.65452528791004
C        46.45923588166465    2.75770674523132    0.19486803101080
N        46.79795463266518    1.48159633936592    0.41164636340873
C        45.27989692531834    3.31598983833924    0.76091327668445
C        44.11583996510241    2.59322464484148    0.91307727697439
N        43.81768425013502    1.48088969682912    0.16092369486778
H        42.99819955396368    3.60477756199950    2.62299615407239
H        41.19624114278762    1.82329313321752    2.20745241440793
H        41.37022336862159   -1.83202085205205   -2.19787961389504
H        43.29749163187784   -3.67406304875422   -2.57085388109363
H        45.53557089979297   -4.45864694247335   -0.84057108616472
H        47.73153412590150   -4.30177835673294    1.13819268384050
H        49.45515104514632   -2.39656813262460    1.42762087442804
H        49.79797273765953    0.13903582422542   -0.24819728117072
H        49.27872041246791    2.64230479408733   -1.53433913778614
H        47.44421788433220    4.37543909487755   -1.07665028842840
H        45.29366592452872    4.35015140554233    1.08851353622539
C        16.89018471499018    0.01672656193998    0.00183918104655
C        18.13086002700583   -0.00850929693820   -0.01006159300724
C        19.47920494360335   -0.02699143360340   -0.01497147742968
C        20.71693737975132   -0.02915495164245   -0.01492682215140
C        22.03011417294490   -0.01275130567446   -0.01140742497979
C        23.25543197392555    0.04575726216451   -0.00462845914833
C        32.58666660517243    0.03461228929540    0.00364154953248
C        33.80829600789608   -0.00943461084103   -0.00584265012884
C        35.12322161187215   -0.02650811709047   -0.01666206827826
C        36.35782866441568   -0.02912170484422   -0.01564855954608
C        37.71013498635135   -0.01430042707677   -0.01406687236334
C        38.94669539243159    0.01499774054560    0.00153782579645
Cu       27.94404441749731    0.03399596555660   -0.00324415847038
C        25.68322760044356   -3.27169487980001   -0.88570874433976
C        24.72176383296786   -2.32789184732233   -0.99016429742079
C        25.19989917283080   -1.20405196074181   -0.21613400982601
C        24.58339486823367    0.02326698793108    0.00578948160601
C        25.25265462507836    1.27174321093516    0.23124522405990
C        24.81926910550936    2.38497392511273    0.95526801966309
C        25.80640617254588    3.35637050113754    0.85539412123761
C        26.82812791952859    2.82128355114628    0.06942491027418
N        26.49810760254978    1.51532038983106   -0.29507723935770
C        28.01860740278294    3.46732680863801   -0.34728985042893
C        29.15841281095361    2.77853061743262   -0.68105933170764
C        30.15811166506953    3.06806717376930   -1.67694601707859
C        31.07130450088019    2.06846970240465   -1.59994433251400
C        30.63088824830194    1.18183773256140   -0.54407272464478
N        29.47492465030367    1.58844164381789   -0.04627244884808
C        31.25481207808296    0.01099192940210   -0.01051301938997
C        30.62856653592547   -1.11639696061282    0.49328662705628
C        31.08201496396249   -2.01510603986121    1.52173105429297
C        30.12169276668581   -2.97050203594475    1.62126732964606
C        29.09661626145216   -2.65744759531900    0.65779295325534
N        29.40760037785069   -1.51167219831641    0.02845853060620
C        27.90794304871530   -3.36165202927749    0.32116293407225
C        26.74591721505304   -2.73630197413727   -0.06325339135584
N        26.42050658678514   -1.44653338935664    0.29657389163096
H        25.68835758781105   -4.22300521996438   -1.38437559708786
H        23.81856665390055   -2.42800702183619   -1.57121291104907
H        23.90397711085890    2.45761421281765    1.51348092840961
H        25.85600456383776    4.33115154411569    1.30668795326756
H        28.09520389720118    4.55253957372435   -0.41544609867232
H        30.16426290046757    3.85726154092495   -2.41165381639186
H        31.93462103835603    1.96198211493084   -2.22901786760847
H        31.97148999385506   -1.93380860015245    2.13026255661874
H        30.13445686231024   -3.76576342108703    2.33611976525585
H        27.92040012180111   -4.44397252862654    0.35848406763443
119
 energy: -216.522861251844 gnorm: 0.090606855247 xtb: 6.4.1 (bd6e46d)
Cu       10.49277031610921    0.02565372141947   -0.00285036258729
C        12.80099408595511   -3.13657393910084    1.27254046613269
C        13.74044817973967   -2.16225131011006    1.25167981178731
C        13.24909107460296   -1.10269317606215    0.39211973860910
C        13.81331505970144    0.06777638575936   -0.01846157603611
C        13.15388535158102    1.21353766945683   -0.36123023242094
C        13.56694792441626    2.26205057653593   -1.24399678997961
C        12.58995246838423    3.20413070435002   -1.24679957056757
C        11.55253665805041    2.75201328133758   -0.37212336527965
N        11.88133182734768    1.52736517305910    0.13574181870064
C        10.37168999197058    3.44096217147609    0.00028321751602
C         9.21882732504225    2.76717679515755    0.36881863982862
C         8.14759147817934    3.16328434747313    1.24486888796293
C         7.24317107360091    2.14348275753229    1.22571444034835
C         7.74163412361089    1.14378640152998    0.31920839178929
N         8.96673821655150    1.49879662498202   -0.12142658184401
C         7.11554917724780   -0.04498478433655   -0.14086613862891
C         7.81882332226928   -1.19078017635131   -0.44891121017182
C         7.40465005138459   -2.26951556512964   -1.31284964791667
C         8.38138386113960   -3.21105466667267   -1.25498015713404
C         9.39095807123399   -2.72658923549983   -0.34098802528036
N         9.06961915103313   -1.47710512735668    0.06896842865430
C        10.54583381106043   -3.38387487538302    0.12674072661131
C        11.71431783643136   -2.69104217486082    0.42661095815945
N        11.99118792212404   -1.45412784455366   -0.06385475283957
H        12.82841093693005   -4.01915518930529    1.88555793130004
H        14.65113800257050   -2.17090140443212    1.81672161715531
H        14.47154470064980    2.22942305455891   -1.81491430125763
H        12.54345496970794    4.10160493580558   -1.83499780726207
H        10.32754996927863    4.52829268322722    0.00387817523007
H         8.11352717952401    4.02599421119846    1.88888703135164
H         6.36511521494801    2.09100208107768    1.83474215804478
H         6.04181832203346   -0.06751107746618   -0.26883495211207
H         6.55424717796641   -2.28942631774373   -1.97124348255471
H         8.40532573375556   -4.10184707993710   -1.84968967063577
H        10.53689994277615   -4.45690530630841    0.26168188797763
Cu       45.34285935091374   -0.01279357483198   -0.00626293806928
C        43.03475677133265    2.85783182681431    1.83372412118653
C        42.09461157857118    1.90499918729582    1.63189238394700
C        42.58520666413327    1.02344816621666    0.59049452642937
C        42.01920076287377   -0.05104841353423   -0.02905003356739
C        42.68072161308720   -1.11301763375518   -0.57904267367768
C        42.26827515833345   -1.98000174349673   -1.64072834588134
C        43.24550405034117   -2.90519710054120   -1.81820554209546
C        44.28277150081441   -2.62294955663920   -0.87494787950060
N        43.95344669064433   -1.51316539301353   -0.14923438487683
C        45.46367483346326   -3.36894623019483   -0.63687480579888
C        46.61670920843050   -2.77527963404486   -0.14966653612929
C        47.68797946621176   -3.32712861082901    0.63773173136413
C        48.59270906627092   -2.32173212324530    0.80761682691823
C        48.09413645864075   -1.17102342826879    0.10252009297540
N        46.86876910115355   -1.43828113229777   -0.39605274243702
C        48.72005771741381    0.08223008880459   -0.12876941099570
C        48.01659624490149    1.26549486964328   -0.21917925567573
C        48.43075343155248    2.48567604408125   -0.86816171768920
C        47.45432655980992    3.40036796702194   -0.63613456366012
C        46.44470926573187    2.75468292789006    0.17200394127824
N        46.76627630904104    1.45065491910939    0.34292906419290
C        45.28973765292670    3.31337218578057    0.75318356294910
C        44.12122775040012    2.57657708566451    0.91990249555565
N        43.84374912781616    1.45241505161260    0.20817270485116
H        43.00737979730847    3.61151377066255    2.59967733568868
H        41.18418774669016    1.80862261529470    2.18909696175096
H        41.36390908580799   -1.84217896646402   -2.19609802016568
H        43.29211108064588   -3.67788106416417   -2.56280955260346
H        45.50798407034550   -4.43806756947421   -0.83528616292422
H        47.72207558022093   -4.29439087804700    1.11044279966625
H        49.47058548306959   -2.38302305867190    1.41607619745049
H        49.79381915427915    0.12828498848749   -0.25003642892525
H        49.28127275548928    2.62742592502889   -1.51127923603074
H        47.43029087734815    4.38592187278346   -1.05547995370919
H        45.29836835571598    4.34300529108045    1.08429884346641
C        16.87998042838630    0.01662767322963    0.00221706074183
C        18.12976969235854   -0.00864499576349   -0.01021862826529
C        19.45137976670160   -0.02615010895312   -0.01444682830138
C        20.69511808127552   -0.02793570885564   -0.01590855990829
C        22.00301406269743   -0.01170947804883   -0.00970653818575
C        23.23438771884705    0.05833205914312   -0.00295991398028
C        32.61644209840112    0.03654959460781    0.00166007832237
C        33.84436118599272   -0.01344738875749   -0.00376644636767
C        35.15199867185551   -0.02564834074165   -0.01504288819442
C        36.39204220993221   -0.02764385165354   -0.01612582163063
C        37.71683866098477   -0.01571897147470   -0.01378425863068
C        38.96185503893964    0.01254265749306    0.00139262086150
Cu       27.94468629659927    0.03747828987532   -0.00703750218879
C        25.68819262578427   -3.28464344969908   -0.87113535223685