      -----------------------------------------------------------      
     |                   =====================                   |     
     |                           x T B                           |     
     |                   =====================                   |     
     |                         S. Grimme                         |     
     |          Mulliken Center for Theoretical Chemistry        |     
     |                    University of Bonn                     |     
      -----------------------------------------------------------      

   * xtb version 6.4.1 (bd6e46d) compiled by 'conda@4901f00b25ba' on 2021-06-10

   xtb is free software: you can redistribute it and/or modify it under
   the terms of the GNU Lesser General Public License as published by
   the Free Software Foundation, either version 3 of the License, or
   (at your option) any later version.
   
   xtb is distributed in the hope that it will be useful,
   but WITHOUT ANY WARRANTY; without even the implied warranty of
   MERCHANTABILITY or FITNESS FOR A PARTICULAR PURPOSE.  See the
   GNU Lesser General Public License for more details.
   
   Cite this work as:
   * C. Bannwarth, E. Caldeweyher, S. Ehlert, A. Hansen, P. Pracht,
     J. Seibert, S. Spicher, S. Grimme, WIREs Comput. Mol. Sci., 2020, 11,
     e01493. DOI: 10.1002/wcms.1493
   
   for GFN2-xTB:
   * C. Bannwarth, S. Ehlert and S. Grimme., J. Chem. Theory Comput., 2019,
     15, 1652-1671. DOI: 10.1021/acs.jctc.8b01176
   for GFN1-xTB:
   * S. Grimme, C. Bannwarth, P. Shushkov, J. Chem. Theory Comput., 2017,
     13, 1989-2009. DOI: 10.1021/acs.jctc.7b00118
   for GFN0-xTB:
   * P. Pracht, E. Caldeweyher, S. Ehlert, S. Grimme, ChemRxiv, 2019, preprint.
     DOI: 10.26434/chemrxiv.8326202.v1
   for GFN-FF:
   * S. Spicher and S. Grimme, Angew. Chem. Int. Ed., 2020, 59, 15665-15673.
     DOI: 10.1002/anie.202004239
   
   for DFT-D4:
   * E. Caldeweyher, C. Bannwarth and S. Grimme, J. Chem. Phys., 2017,
     147, 034112. DOI: 10.1063/1.4993215
   * E. Caldeweyher, S. Ehlert, A. Hansen, H. Neugebauer, S. Spicher,
     C. Bannwarth and S. Grimme, J. Chem. Phys., 2019, 150, 154122.
     DOI: 10.1063/1.5090222
   * E. Caldeweyher, J.-M. Mewes, S. Ehlert and S. Grimme, Phys. Chem. Chem. Phys.
     2020, 22, 8499-8512. DOI: 10.1039/D0CP00502A
   
   for sTDA-xTB:
   * S. Grimme and C. Bannwarth, J. Chem. Phys., 2016, 145, 054103.
     DOI: 10.1063/1.4959605
   
   in the mass-spec context:
   * V. Asgeirsson, C. Bauer and S. Grimme, Chem. Sci., 2017, 8, 4879.
     DOI: 10.1039/c7sc00601b
   * J. Koopman and S. Grimme, ACS Omega 2019, 4, 12, 15120-15133.
     DOI: 10.1021/acsomega.9b02011
   
   for metadynamics refer to:
   * S. Grimme, J. Chem. Theory Comput., 2019, 155, 2847-2862
     DOI: 10.1021/acs.jctc.9b00143
   
   for SPH calculations refer to:
   * S. Spicher and S. Grimme, J. Chem. Theory Comput., 2021, 17, 1701-1714
     DOI: 10.1021/acs.jctc.0c01306
   
   with help from (in alphabetical order)
   P. Atkinson, C. Bannwarth, F. Bohle, G. Brandenburg, E. Caldeweyher
   M. Checinski, S. Dohm, S. Ehlert, S. Ehrlich, I. Gerasimov, J. Koopman
   C. Lavigne, S. Lehtola, F. März, M. Müller, F. Musil, H. Neugebauer
   J. Pisarek, C. Plett, P. Pracht, J. Seibert, P. Shushkov, S. Spicher
   M. Stahn, M. Steiner, T. Strunk, J. Stückrath, T. Rose, and J. Unsleber
   
 * started run on 2021/11/21 at 21:09:48.497     

           -------------------------------------------------
          |                Calculation Setup                |
           -------------------------------------------------

          program call               : /home/jeff/miniconda3/bin/xtb /home/jeff/chem/final-year-proejct/Fe+2_6_3_outenergy/input_structure.xyz --gfn 2 --parallel 1 --etemp 300 --chrg 0 --uhf 0 -I det_control.in
          coordinate file            : /home/jeff/chem/final-year-proejct/Fe+2_6_3_outenergy/input_structure.xyz
          omp threads                :                     1
          number of atoms            :                   119
          number of electrons        :                   404
          charge                     :                     0
          spin                       :                   0.0
          first test random number   :      0.88652436955160

   ID    Z sym.   atoms
    1   26 Fe     1, 37, 85
    2    6 C      2-9, 11-15, 17-21, 23, 24, 38-45, 47-51, 53-57, 59, 60,
                  73-84, 86-93, 95-99, 101-105, 107, 108
    3    7 N      10, 16, 22, 25, 46, 52, 58, 61, 94, 100, 106, 109
    4    1 H      26-36, 62-72, 110-119

           -------------------------------------------------
          |                 G F N 2 - x T B                 |
           -------------------------------------------------

        Reference                      10.1021/acs.jctc.8b01176
      * Hamiltonian:
        H0-scaling (s, p, d)           1.850000    2.230000    2.230000
        zeta-weighting                 0.500000
      * Dispersion:
        s8                             2.700000
        a1                             0.520000
        a2                             5.000000
        s9                             5.000000
      * Repulsion:
        kExp                           1.500000    1.000000
        rExp                           1.000000
      * Coulomb:
        alpha                          2.000000
        third order                    shell-resolved
        anisotropic                    true
        a3                             3.000000
        a5                             4.000000
        cn-shift                       1.200000
        cn-exp                         4.000000
        max-rad                        5.000000


          ...................................................
          :                      SETUP                      :
          :.................................................:
          :  # basis functions                 398          :
          :  # atomic orbitals                 395          :
          :  # shells                          209          :
          :  # electrons                       404          :
          :  max. iterations                   250          :
          :  Hamiltonian                  GFN2-xTB          :
          :  restarted?                      false          :
          :  GBSA solvation                  false          :
          :  PC potential                    false          :
          :  electronic temp.          300.0000000     K    :
          :  accuracy                    1.0000000          :
          :  -> integral cutoff          0.2500000E+02      :
          :  -> integral neglect         0.1000000E-07      :
          :  -> SCF convergence          0.1000000E-05 Eh   :
          :  -> wf. convergence          0.1000000E-03 e    :
          :  Broyden damping             0.4000000          :
          ...................................................

 iter      E             dE          RMSdq      gap      omega  full diag
   1   -218.0202502 -0.218020E+03  0.846E+00    0.00       0.0  T
   2   -209.1875543  0.883270E+01  0.952E+00    0.05       1.0  T
   3   -186.2084349  0.229791E+02  0.104E+01    0.05       1.0  T
   4   -197.9771663 -0.117687E+02  0.799E+00    0.01       1.0  T
   5   -214.4548516 -0.164777E+02  0.630E+00    0.11       1.0  T
   6   -216.4165070 -0.196166E+01  0.505E+00    0.00       1.0  T
   7   -210.3354499  0.608106E+01  0.660E+00    0.09       1.0  T
   8   -204.8432396  0.549221E+01  0.767E+00    0.12       1.0  T
   9   -207.3337581 -0.249052E+01  0.802E+00    0.04       1.0  T
  10   -205.8958515  0.143791E+01  0.783E+00    0.06       1.0  T
  11   -207.4362176 -0.154037E+01  0.759E+00    0.02       1.0  T
  12   -207.4068017  0.294159E-01  0.763E+00    0.02       1.0  T
  13   -208.0350004 -0.628199E+00  0.745E+00    0.07       1.0  T
  14   -208.0416705 -0.667005E-02  0.745E+00    0.07       1.0  T
  15   -217.4624253 -0.942075E+01  0.333E+00    0.01       1.0  T
  16   -214.3913765  0.307105E+01  0.547E+00    0.00       1.0  T
  17   -210.9617414  0.342964E+01  0.681E+00    0.04       1.0  T
  18   -216.3209057 -0.535916E+01  0.504E+00    0.07       1.0  T
  19   -216.9241779 -0.603272E+00  0.474E+00    0.16       1.0  T
  20   -216.8470304  0.771475E-01  0.479E+00    0.17       1.0  T
  21   -215.4339996  0.141303E+01  0.619E+00    0.05       1.0  T
  22   -216.7292424 -0.129524E+01  0.521E+00    0.09       1.0  T
  23   -217.0406839 -0.311442E+00  0.464E+00    0.17       1.0  T
  24   -217.7040390 -0.663355E+00  0.342E+00    0.01       1.0  T
  25   -218.6906714 -0.986632E+00  0.294E+00    0.04       1.0  T
  26   -217.3943384  0.129633E+01  0.335E+00    0.07       1.0  T
  27   -218.6886140 -0.129428E+01  0.277E+00    0.04       1.0  T
  28   -218.8048803 -0.116266E+00  0.310E+00    0.09       1.0  T
  29   -218.8419349 -0.370546E-01  0.343E+00    0.25       1.0  T
  30   -218.8285400  0.133949E-01  0.316E+00    0.24       1.0  T
  31   -218.4242966  0.404243E+00  0.276E+00    0.01       1.0  T
  32   -218.7902527 -0.365956E+00  0.259E+00    0.14       1.0  T
  33   -218.7456797  0.445730E-01  0.178E+00    0.08       1.0  T
  34   -218.6323825  0.113297E+00  0.166E+00    0.04       1.0  T
  35   -218.6289559  0.342660E-02  0.163E+00    0.04       1.0  T
  36   -218.7485661 -0.119610E+00  0.154E+00    0.07       1.0  T
  37   -218.8570267 -0.108461E+00  0.190E+00    0.26       1.0  T
  38   -218.8208649  0.361618E-01  0.170E+00    0.12       1.0  T
  39   -218.7848450  0.360199E-01  0.139E+00    0.08       1.0  T
  40   -218.7966749 -0.118299E-01  0.160E+00    0.08       1.0  T
  41   -218.7387942  0.578806E-01  0.165E+00    0.06       1.0  T
  42   -218.7432848 -0.449060E-02  0.164E+00    0.06       1.0  T
  43   -218.7426019  0.682910E-03  0.164E+00    0.06       1.0  T
  44   -218.7562840 -0.136820E-01  0.161E+00    0.06       1.0  T
  45   -218.8098489 -0.535649E-01  0.146E+00    0.08       1.0  T
  46   -218.8472891 -0.374402E-01  0.128E+00    0.11       1.0  T
  47   -218.8595415 -0.122523E-01  0.123E+00    0.14       1.0  T
  48   -218.8706256 -0.110842E-01  0.122E+00    0.19       1.0  T
  49   -218.8729389 -0.231329E-02  0.120E+00    0.22       1.0  T
  50   -218.8740518 -0.111290E-02  0.106E+00    0.20       1.0  T
  51   -218.8535005  0.205513E-01  0.773E-01    0.10       1.0  T
  52   -218.8653465 -0.118460E-01  0.731E-01    0.12       1.0  T
  53   -218.8695734 -0.422688E-02  0.746E-01    0.13       1.0  T
  54   -218.8562828  0.132906E-01  0.651E-01    0.10       1.0  T
  55   -218.8700558 -0.137730E-01  0.646E-01    0.13       1.0  T
  56   -218.8670300  0.302581E-02  0.576E-01    0.12       1.0  T
  57   -218.8775223 -0.104922E-01  0.532E-01    0.17       1.0  T
  58   -218.8783353 -0.813031E-03  0.476E-01    0.18       1.0  T
  59   -218.8772975  0.103775E-02  0.393E-01    0.16       1.0  T
  60   -218.8763284  0.969090E-03  0.362E-01    0.15       1.0  T
  61   -218.8756364  0.692047E-03  0.358E-01    0.15       1.0  T
  62   -218.8756713 -0.349336E-04  0.325E-01    0.15       1.0  T
  63   -218.8772010 -0.152969E-02  0.284E-01    0.16       1.0  T
  64   -218.8784447 -0.124367E-02  0.244E-01    0.17       1.0  T
  65   -218.8789412 -0.496458E-03  0.219E-01    0.17       1.0  T
  66   -218.8797407 -0.799500E-03  0.182E-01    0.18       1.0  T
  67   -218.8802904 -0.549781E-03  0.147E-01    0.19       1.0  T
  68   -218.8805208 -0.230353E-03  0.124E-01    0.20       1.0  T
  69   -218.8806701 -0.149347E-03  0.950E-02    0.21       1.0  T
  70   -218.8807624 -0.922433E-04  0.671E-02    0.21       1.0  T
  71   -218.8808170 -0.546365E-04  0.500E-02    0.22       1.0  T
  72   -218.8808627 -0.457038E-04  0.398E-02    0.22       1.0  T
  73   -218.8808961 -0.333463E-04  0.317E-02    0.22       1.0  T
  74   -218.8809248 -0.287498E-04  0.236E-02    0.23       1.0  T
  75   -218.8809404 -0.155763E-04  0.179E-02    0.23       1.0  T
  76   -218.8809464 -0.602587E-05  0.149E-02    0.23       1.0  T
  77   -218.8809507 -0.428059E-05  0.132E-02    0.23       1.0  T
  78   -218.8809545 -0.379734E-05  0.118E-02    0.23       1.0  T
  79   -218.8809581 -0.357749E-05  0.106E-02    0.23       1.0  T
  80   -218.8809629 -0.487460E-05  0.877E-03    0.23       1.0  T
  81   -218.8809685 -0.551468E-05  0.659E-03    0.23       1.4  T
  82   -218.8809737 -0.519604E-05  0.389E-03    0.23       2.4  T
  83   -218.8809756 -0.194273E-05  0.248E-03    0.23       3.7  T
  84   -218.8809761 -0.452821E-06  0.176E-03    0.24       5.2  T
  85   -218.8809762 -0.127027E-06  0.112E-03    0.24       8.2  T
  86   -218.8809762 -0.649246E-07  0.661E-04    0.24      13.9  T
  87   -218.8809763 -0.317257E-07  0.368E-04    0.24      24.9  T

   *** convergence criteria satisfied after 87 iterations ***

         #    Occupation            Energy/Eh            Energy/eV
      -------------------------------------------------------------
         1        2.0000           -0.6681845             -18.1822
       ...           ...                  ...                  ...
       196        2.0000           -0.3393141              -9.2332
       197        2.0000           -0.3381732              -9.2022
       198        2.0000           -0.3378797              -9.1942
       199        2.0000           -0.3378707              -9.1939
       200        1.9878           -0.3305154              -8.9938
       201        1.9788           -0.3299829              -8.9793
       202        1.9786           -0.3299726              -8.9790 (HOMO)
       203        0.0200           -0.3213075              -8.7432 (LUMO)
       204        0.0175           -0.3211805              -8.7398
       205        0.0173           -0.3211719              -8.7395
       206                         -0.3067348              -8.3467
       207                         -0.2973082              -8.0902
       ...                                ...                  ...
       395                          1.7211889              46.8359
      -------------------------------------------------------------
                  HL-Gap            0.0086652 Eh            0.2358 eV
             Fermi-level           -0.3256739 Eh           -8.8620 eV

 SCC (total)                   0 d,  0 h,  0 min,  3.158 sec
 SCC setup                      ...        0 min,  0.002 sec (  0.079%)
 Dispersion                     ...        0 min,  0.005 sec (  0.165%)
 classical contributions        ...        0 min,  0.001 sec (  0.023%)
 integral evaluation            ...        0 min,  0.050 sec (  1.599%)
 iterations                     ...        0 min,  2.941 sec ( 93.128%)
 molecular gradient             ...        0 min,  0.154 sec (  4.887%)
 printout                       ...        0 min,  0.004 sec (  0.119%)

         :::::::::::::::::::::::::::::::::::::::::::::::::::::
         ::                     SUMMARY                     ::
         :::::::::::::::::::::::::::::::::::::::::::::::::::::
         :: total energy            -214.902115841587 Eh    ::
         :: gradient norm              0.000787400079 Eh/a0 ::
         :: HOMO-LUMO gap              0.235790797782 eV    ::
         ::.................................................::
         :: SCC energy              -218.880976279273 Eh    ::
         :: -> isotropic ES           -0.021869250861 Eh    ::
         :: -> anisotropic ES          0.032205086607 Eh    ::
         :: -> anisotropic XC          0.136193769620 Eh    ::
         :: -> dispersion             -0.164514600680 Eh    ::
         :: repulsion energy           3.981114422306 Eh    ::
         :: add. restraining           0.000000000000 Eh    ::
         :: total charge              -0.000000000003 e     ::
         :::::::::::::::::::::::::::::::::::::::::::::::::::::

           -------------------------------------------------
          |                Property Printout                |
           -------------------------------------------------

    * Orbital Energies and Occupations

         #    Occupation            Energy/Eh            Energy/eV
      -------------------------------------------------------------
         1        2.0000           -0.6681845             -18.1822
       ...           ...                  ...                  ...
       190        2.0000           -0.3644828              -9.9181
       191        2.0000           -0.3644767              -9.9179
       192        2.0000           -0.3585678              -9.7571
       193        2.0000           -0.3498208              -9.5191
       194        2.0000           -0.3395660              -9.2401
       195        2.0000           -0.3393346              -9.2338
       196        2.0000           -0.3393141              -9.2332
       197        2.0000           -0.3381732              -9.2022
       198        2.0000           -0.3378797              -9.1942
       199        2.0000           -0.3378707              -9.1939
       200        1.9878           -0.3305154              -8.9938
       201        1.9788           -0.3299829              -8.9793
       202        1.9786           -0.3299726              -8.9790 (HOMO)
       203        0.0200           -0.3213075              -8.7432 (LUMO)
       204        0.0175           -0.3211805              -8.7398
       205        0.0173           -0.3211719              -8.7395
       206                         -0.3067348              -8.3467
       207                         -0.2973082              -8.0902
       208                         -0.2912101              -7.9242
       209                         -0.2905544              -7.9064
       210                         -0.2905482              -7.9062
       211                         -0.2896882              -7.8828
       212                         -0.2677793              -7.2866
       213                         -0.2575239              -7.0076
       ...                                ...                  ...
       395                          1.7211889              46.8359
      -------------------------------------------------------------
                  HL-Gap            0.0086652 Eh            0.2358 eV
             Fermi-level           -0.3256739 Eh           -8.8620 eV

     #   Z          covCN         q      C6AA      α(0)
     1  26 Fe       3.083     0.561     5.147     7.318
     2   6 C        3.027    -0.054    29.315     8.881
     3   6 C        3.013    -0.054    29.329     8.884
     4   6 C        3.185     0.070    25.992     8.320
     5   6 C        2.955     0.010    27.794     8.647
     6   6 C        3.184     0.070    25.993     8.320
     7   6 C        3.013    -0.054    29.327     8.883
     8   6 C        3.027    -0.054    29.315     8.881
     9   6 C        3.160     0.064    26.253     8.376
    10   7 N        2.636    -0.214    25.679     7.526
    11   6 C        2.903    -0.060    29.496     8.905
    12   6 C        3.155     0.066    26.246     8.377
    13   6 C        3.023    -0.053    29.298     8.879
    14   6 C        3.013    -0.055    29.347     8.886
    15   6 C        3.166     0.070    26.092     8.347
    16   7 N        2.638    -0.213    25.638     7.520
    17   6 C        2.903    -0.059    29.465     8.900
    18   6 C        3.166     0.070    26.092     8.347
    19   6 C        3.013    -0.055    29.347     8.886
    20   6 C        3.023    -0.053    29.299     8.879
    21   6 C        3.155     0.066    26.246     8.377
    22   7 N        2.638    -0.213    25.638     7.520
    23   6 C        2.903    -0.060    29.496     8.905
    24   6 C        3.160     0.064    26.253     8.376
    25   7 N        2.636    -0.214    25.677     7.526
    26   1 H        0.926     0.030     2.581     2.512
    27   1 H        0.926     0.033     2.545     2.494
    28   1 H        0.926     0.033     2.545     2.495
    29   1 H        0.926     0.030     2.581     2.512
    30   1 H        0.926     0.049     2.327     2.386
    31   1 H        0.926     0.031     2.575     2.509
    32   1 H        0.926     0.031     2.570     2.507
    33   1 H        0.926     0.047     2.352     2.398
    34   1 H        0.926     0.031     2.570     2.507
    35   1 H        0.926     0.031     2.575     2.509
    36   1 H        0.926     0.049     2.327     2.385
    37  26 Fe       3.083     0.561     5.147     7.318
    38   6 C        3.027    -0.054    29.315     8.881
    39   6 C        3.013    -0.054    29.328     8.883
    40   6 C        3.185     0.070    25.993     8.320
    41   6 C        2.955     0.010    27.794     8.647
    42   6 C        3.185     0.070    25.992     8.320
    43   6 C        3.013    -0.054    29.328     8.883
    44   6 C        3.027    -0.054    29.315     8.881
    45   6 C        3.160     0.064    26.253     8.376
    46   7 N        2.636    -0.214    25.678     7.526
    47   6 C        2.903    -0.060    29.496     8.905
    48   6 C        3.155     0.066    26.246     8.377
    49   6 C        3.023    -0.053    29.299     8.879
    50   6 C        3.013    -0.055    29.347     8.886
    51   6 C        3.166     0.070    26.092     8.347
    52   7 N        2.638    -0.213    25.638     7.520
    53   6 C        2.903    -0.059    29.465     8.900
    54   6 C        3.166     0.070    26.092     8.347
    55   6 C        3.013    -0.055    29.347     8.886
    56   6 C        3.023    -0.053    29.299     8.879
    57   6 C        3.155     0.066    26.246     8.377
    58   7 N        2.638    -0.213    25.638     7.520
    59   6 C        2.903    -0.060    29.496     8.905
    60   6 C        3.160     0.064    26.253     8.376
    61   7 N        2.636    -0.214    25.678     7.526
    62   1 H        0.926     0.030     2.581     2.512
    63   1 H        0.926     0.033     2.545     2.495
    64   1 H        0.926     0.033     2.545     2.495
    65   1 H        0.926     0.030     2.581     2.512
    66   1 H        0.926     0.049     2.327     2.386
    67   1 H        0.926     0.031     2.575     2.509
    68   1 H        0.926     0.031     2.570     2.507
    69   1 H        0.926     0.047     2.352     2.398
    70   1 H        0.926     0.031     2.570     2.507
    71   1 H        0.926     0.031     2.575     2.509
    72   1 H        0.926     0.049     2.327     2.386
    73   6 C        1.991    -0.021    31.604     9.079
    74   6 C        1.963    -0.012    31.387     9.047
    75   6 C        1.965    -0.004    31.167     9.016
    76   6 C        1.965    -0.004    31.172     9.016
    77   6 C        1.963    -0.012    31.382     9.047
    78   6 C        1.991    -0.021    31.610     9.080
    79   6 C        1.991    -0.021    31.609     9.079
    80   6 C        1.963    -0.012    31.382     9.047
    81   6 C        1.965    -0.004    31.171     9.016
    82   6 C        1.965    -0.004    31.166     9.015
    83   6 C        1.963    -0.012    31.387     9.047
    84   6 C        1.991    -0.021    31.603     9.079
    85  26 Fe       3.077     0.563     5.145     7.317
    86   6 C        3.027    -0.054    29.313     8.881
    87   6 C        3.014    -0.054    29.329     8.884
    88   6 C        3.185     0.071    25.980     8.317
    89   6 C        2.955     0.010    27.795     8.647
    90   6 C        3.185     0.071    25.981     8.318
    91   6 C        3.014    -0.054    29.329     8.884
    92   6 C        3.027    -0.054    29.313     8.881
    93   6 C        3.161     0.064    26.253     8.376
    94   7 N        2.636    -0.215    25.704     7.530
    95   6 C        2.903    -0.058    29.452     8.898
    96   6 C        3.161     0.064    26.253     8.376
    97   6 C        3.027    -0.054    29.313     8.881
    98   6 C        3.014    -0.054    29.329     8.884
    99   6 C        3.185     0.071    25.980     8.317
   100   7 N        2.636    -0.215    25.704     7.530
   101   6 C        2.955     0.010    27.795     8.647
   102   6 C        3.185     0.071    25.981     8.317
   103   6 C        3.014    -0.054    29.329     8.884
   104   6 C        3.027    -0.054    29.313     8.881
   105   6 C        3.161     0.064    26.253     8.376
   106   7 N        2.636    -0.215    25.704     7.530
   107   6 C        2.903    -0.058    29.452     8.898
   108   6 C        3.161     0.064    26.253     8.376
   109   7 N        2.636    -0.215    25.703     7.530
   110   1 H        0.926     0.030     2.582     2.513
   111   1 H        0.926     0.033     2.547     2.496
   112   1 H        0.926     0.033     2.547     2.496
   113   1 H        0.926     0.030     2.582     2.513
   114   1 H        0.926     0.050     2.321     2.382
   115   1 H        0.926     0.030     2.582     2.513
   116   1 H        0.926     0.033     2.547     2.496
   117   1 H        0.926     0.033     2.547     2.496
   118   1 H        0.926     0.030     2.582     2.513
   119   1 H        0.926     0.050     2.321     2.382

 Mol. C6AA /au·bohr⁶  :     249905.041156
 Mol. C8AA /au·bohr⁸  :    6604499.085273
 Mol. α(0) /au        :        819.494280


Wiberg/Mayer (AO) data.
largest (>0.10) Wiberg bond orders for each atom

 ---------------------------------------------------------------------------
     #   Z sym  total        # sym  WBO       # sym  WBO       # sym  WBO
 ---------------------------------------------------------------------------
     1  26 Fe   3.279 --    16 N    0.660    22 N    0.660    10 N    0.657
                            25 N    0.657
     2   6 C    3.957 --     3 C    1.644    24 C    1.171    26 H    0.972
     3   6 C    3.962 --     2 C    1.644     4 C    1.182    27 H    0.971
     4   6 C    3.921 --    25 N    1.258     5 C    1.255     3 C    1.182
     5   6 C    3.951 --     6 C    1.255     4 C    1.255    73 C    1.186
     6   6 C    3.921 --    10 N    1.257     5 C    1.255     7 C    1.182
     7   6 C    3.962 --     8 C    1.644     6 C    1.182    28 H    0.971
     8   6 C    3.957 --     7 C    1.644     9 C    1.171    29 H    0.972
     9   6 C    3.937 --    11 C    1.361    10 N    1.216     8 C    1.171
    10   7 N    3.416 --     6 C    1.257     9 C    1.216     1 Fe   0.657
    11   6 C    3.943 --     9 C    1.361    12 C    1.361    30 H    0.963
    12   6 C    3.942 --    11 C    1.361    16 N    1.227    13 C    1.163
    13   6 C    3.962 --    14 C    1.660    12 C    1.163    31 H    0.972
    14   6 C    3.960 --    13 C    1.660    15 C    1.164    32 H    0.972
    15   6 C    3.944 --    17 C    1.358    16 N    1.239    14 C    1.164
    16   7 N    3.412 --    15 C    1.239    12 C    1.227     1 Fe   0.660
    17   6 C    3.939 --    18 C    1.358    15 C    1.358    33 H    0.965
    18   6 C    3.944 --    17 C    1.358    22 N    1.239    19 C    1.164
    19   6 C    3.960 --    20 C    1.660    18 C    1.164    34 H    0.972
    20   6 C    3.962 --    19 C    1.660    21 C    1.163    35 H    0.972
    21   6 C    3.942 --    23 C    1.361    22 N    1.227    20 C    1.163
    22   7 N    3.412 --    18 C    1.239    21 C    1.227     1 Fe   0.660
    23   6 C    3.943 --    24 C    1.361    21 C    1.361    36 H    0.963
    24   6 C    3.937 --    23 C    1.361    25 N    1.216     2 C    1.171
    25   7 N    3.416 --     4 C    1.258    24 C    1.216     1 Fe   0.657
    26   1 H    0.998 --     2 C    0.972
    27   1 H    0.998 --     3 C    0.971
    28   1 H    0.998 --     7 C    0.971
    29   1 H    0.998 --     8 C    0.972
    30   1 H    0.996 --    11 C    0.963
    31   1 H    0.998 --    13 C    0.972
    32   1 H    0.998 --    14 C    0.972
    33   1 H    0.997 --    17 C    0.965
    34   1 H    0.998 --    19 C    0.972
    35   1 H    0.998 --    20 C    0.972
    36   1 H    0.996 --    23 C    0.963
    37  26 Fe   3.279 --    52 N    0.660    58 N    0.660    61 N    0.657
                            46 N    0.657
    38   6 C    3.957 --    39 C    1.644    60 C    1.171    62 H    0.972
    39   6 C    3.962 --    38 C    1.644    40 C    1.182    63 H    0.971
    40   6 C    3.921 --    61 N    1.257    41 C    1.255    39 C    1.182
    41   6 C    3.951 --    40 C    1.255    42 C    1.255    84 C    1.186
    42   6 C    3.921 --    46 N    1.257    41 C    1.255    43 C    1.182
    43   6 C    3.962 --    44 C    1.644    42 C    1.182    64 H    0.971
    44   6 C    3.957 --    43 C    1.644    45 C    1.171    65 H    0.972
    45   6 C    3.937 --    47 C    1.361    46 N    1.216    44 C    1.171
    46   7 N    3.416 --    42 C    1.257    45 C    1.216    37 Fe   0.657
    47   6 C    3.943 --    45 C    1.361    48 C    1.361    66 H    0.963
    48   6 C    3.942 --    47 C    1.361    52 N    1.227    49 C    1.163
    49   6 C    3.962 --    50 C    1.660    48 C    1.163    67 H    0.972
    50   6 C    3.960 --    49 C    1.660    51 C    1.164    68 H    0.972
    51   6 C    3.944 --    53 C    1.358    52 N    1.239    50 C    1.164
    52   7 N    3.412 --    51 C    1.239    48 C    1.227    37 Fe   0.660
    53   6 C    3.939 --    54 C    1.358    51 C    1.358    69 H    0.965
    54   6 C    3.944 --    53 C    1.358    58 N    1.239    55 C    1.164
    55   6 C    3.960 --    56 C    1.660    54 C    1.164    70 H    0.972
    56   6 C    3.962 --    55 C    1.660    57 C    1.163    71 H    0.972
    57   6 C    3.942 --    59 C    1.361    58 N    1.227    56 C    1.163
    58   7 N    3.412 --    54 C    1.239    57 C    1.227    37 Fe   0.660
    59   6 C    3.943 --    60 C    1.361    57 C    1.361    72 H    0.963
    60   6 C    3.937 --    59 C    1.361    61 N    1.216    38 C    1.171
    61   7 N    3.416 --    40 C    1.257    60 C    1.216    37 Fe   0.657
    62   1 H    0.998 --    38 C    0.972
    63   1 H    0.998 --    39 C    0.971
    64   1 H    0.998 --    43 C    0.971
    65   1 H    0.998 --    44 C    0.972
    66   1 H    0.996 --    47 C    0.963
    67   1 H    0.998 --    49 C    0.972
    68   1 H    0.998 --    50 C    0.972
    69   1 H    0.997 --    53 C    0.965
    70   1 H    0.998 --    55 C    0.972
    71   1 H    0.998 --    56 C    0.972
    72   1 H    0.996 --    59 C    0.963
    73   6 C    3.884 --    74 C    2.447     5 C    1.186    76 C    0.193
    74   6 C    3.930 --    73 C    2.447    75 C    1.329
    75   6 C    3.920 --    76 C    2.361    74 C    1.329    78 C    0.193
    76   6 C    3.921 --    75 C    2.361    77 C    1.330    73 C    0.193
    77   6 C    3.928 --    78 C    2.445    76 C    1.330
    78   6 C    3.885 --    77 C    2.445    89 C    1.188    75 C    0.193
    79   6 C    3.885 --    80 C    2.445   101 C    1.188    82 C    0.193
    80   6 C    3.928 --    79 C    2.445    81 C    1.330
    81   6 C    3.921 --    82 C    2.362    80 C    1.330    84 C    0.193
    82   6 C    3.920 --    81 C    2.362    83 C    1.329    79 C    0.193
    83   6 C    3.930 --    84 C    2.447    82 C    1.329
    84   6 C    3.884 --    83 C    2.447    41 C    1.186    81 C    0.193
    85  26 Fe   3.245 --   109 N    0.652   100 N    0.652   106 N    0.652
                            94 N    0.652
    86   6 C    3.957 --    87 C    1.643   108 C    1.172   110 H    0.972
    87   6 C    3.961 --    86 C    1.643    88 C    1.183   111 H    0.971
    88   6 C    3.922 --   109 N    1.260    89 C    1.252    87 C    1.183
    89   6 C    3.942 --    90 C    1.252    88 C    1.252    78 C    1.188
    90   6 C    3.922 --    94 N    1.260    89 C    1.252    91 C    1.183
    91   6 C    3.961 --    92 C    1.643    90 C    1.183   112 H    0.971
    92   6 C    3.957 --    91 C    1.643    93 C    1.172   113 H    0.972
    93   6 C    3.936 --    95 C    1.361    94 N    1.215    92 C    1.172
    94   7 N    3.407 --    90 C    1.260    93 C    1.215    85 Fe   0.652
    95   6 C    3.937 --    96 C    1.361    93 C    1.361   114 H    0.963
    96   6 C    3.936 --    95 C    1.361   100 N    1.215    97 C    1.172
    97   6 C    3.957 --    98 C    1.643    96 C    1.172   115 H    0.972
    98   6 C    3.961 --    97 C    1.643    99 C    1.183   116 H    0.971
    99   6 C    3.922 --   100 N    1.260   101 C    1.253    98 C    1.183
   100   7 N    3.407 --    99 C    1.260    96 C    1.215    85 Fe   0.652
   101   6 C    3.942 --   102 C    1.253    99 C    1.253    79 C    1.188
   102   6 C    3.922 --   106 N    1.260   101 C    1.253   103 C    1.183
   103   6 C    3.961 --   104 C    1.643   102 C    1.183   117 H    0.971
   104   6 C    3.957 --   103 C    1.643   105 C    1.172   118 H    0.972
   105   6 C    3.936 --   107 C    1.361   106 N    1.215   104 C    1.172
   106   7 N    3.407 --   102 C    1.260   105 C    1.215    85 Fe   0.652
   107   6 C    3.937 --   108 C    1.361   105 C    1.361   119 H    0.963
   108   6 C    3.936 --   107 C    1.361   109 N    1.215    86 C    1.172
   109   7 N    3.407 --    88 C    1.260   108 C    1.215    85 Fe   0.652
   110   1 H    0.998 --    86 C    0.972
   111   1 H    0.998 --    87 C    0.971
   112   1 H    0.998 --    91 C    0.971
   113   1 H    0.998 --    92 C    0.972
   114   1 H    0.996 --    95 C    0.963
   115   1 H    0.998 --    97 C    0.972
   116   1 H    0.998 --    98 C    0.971
   117   1 H    0.998 --   103 C    0.971
   118   1 H    0.998 --   104 C    0.972
   119   1 H    0.996 --   107 C    0.963
 ---------------------------------------------------------------------------

Topologies differ in total number of bonds
Writing topology from bond orders to xtbtopo.mol

molecular dipole:
                 x           y           z       tot (Debye)
 q only:        0.000      -0.001       0.003
   full:        0.000      -0.002       0.004       0.011
molecular quadrupole (traceless):
                xx          xy          yy          xz          yz          zz
 q only:       35.633       0.141     -11.182       0.216       0.285     -24.451
  q+dip:       78.604       0.185      -3.806       0.190       1.576     -74.798
   full:       54.181       0.183     -10.009       0.199       0.734     -44.172


           -------------------------------------------------
          | TOTAL ENERGY             -214.902115841587 Eh   |
          | GRADIENT NORM               0.000787400079 Eh/α |
          | HOMO-LUMO GAP               0.235790797782 eV   |
           -------------------------------------------------

------------------------------------------------------------------------
 * finished run on 2021/11/21 at 21:09:51.712     
------------------------------------------------------------------------
 total:
 * wall-time:     0 d,  0 h,  0 min,  3.215 sec
 *  cpu-time:     0 d,  0 h,  0 min,  3.215 sec
 * ratio c/w:     1.000 speedup
 SCF:
 * wall-time:     0 d,  0 h,  0 min,  3.159 sec
 *  cpu-time:     0 d,  0 h,  0 min,  3.159 sec
 * ratio c/w:     1.000 speedup

