      -----------------------------------------------------------      
     |                   =====================                   |     
     |                           x T B                           |     
     |                   =====================                   |     
     |                         S. Grimme                         |     
     |          Mulliken Center for Theoretical Chemistry        |     
     |                    University of Bonn                     |     
      -----------------------------------------------------------      

   * xtb version 6.4.1 (bd6e46d) compiled by 'conda@4901f00b25ba' on 2021-06-10

   xtb is free software: you can redistribute it and/or modify it under
   the terms of the GNU Lesser General Public License as published by
   the Free Software Foundation, either version 3 of the License, or
   (at your option) any later version.
   
   xtb is distributed in the hope that it will be useful,
   but WITHOUT ANY WARRANTY; without even the implied warranty of
   MERCHANTABILITY or FITNESS FOR A PARTICULAR PURPOSE.  See the
   GNU Lesser General Public License for more details.
   
   Cite this work as:
   * C. Bannwarth, E. Caldeweyher, S. Ehlert, A. Hansen, P. Pracht,
     J. Seibert, S. Spicher, S. Grimme, WIREs Comput. Mol. Sci., 2020, 11,
     e01493. DOI: 10.1002/wcms.1493
   
   for GFN2-xTB:
   * C. Bannwarth, S. Ehlert and S. Grimme., J. Chem. Theory Comput., 2019,
     15, 1652-1671. DOI: 10.1021/acs.jctc.8b01176
   for GFN1-xTB:
   * S. Grimme, C. Bannwarth, P. Shushkov, J. Chem. Theory Comput., 2017,
     13, 1989-2009. DOI: 10.1021/acs.jctc.7b00118
   for GFN0-xTB:
   * P. Pracht, E. Caldeweyher, S. Ehlert, S. Grimme, ChemRxiv, 2019, preprint.
     DOI: 10.26434/chemrxiv.8326202.v1
   for GFN-FF:
   * S. Spicher and S. Grimme, Angew. Chem. Int. Ed., 2020, 59, 15665-15673.
     DOI: 10.1002/anie.202004239
   
   for DFT-D4:
   * E. Caldeweyher, C. Bannwarth and S. Grimme, J. Chem. Phys., 2017,
     147, 034112. DOI: 10.1063/1.4993215
   * E. Caldeweyher, S. Ehlert, A. Hansen, H. Neugebauer, S. Spicher,
     C. Bannwarth and S. Grimme, J. Chem. Phys., 2019, 150, 154122.
     DOI: 10.1063/1.5090222
   * E. Caldeweyher, J.-M. Mewes, S. Ehlert and S. Grimme, Phys. Chem. Chem. Phys.
     2020, 22, 8499-8512. DOI: 10.1039/D0CP00502A
   
   for sTDA-xTB:
   * S. Grimme and C. Bannwarth, J. Chem. Phys., 2016, 145, 054103.
     DOI: 10.1063/1.4959605
   
   in the mass-spec context:
   * V. Asgeirsson, C. Bauer and S. Grimme, Chem. Sci., 2017, 8, 4879.
     DOI: 10.1039/c7sc00601b
   * J. Koopman and S. Grimme, ACS Omega 2019, 4, 12, 15120-15133.
     DOI: 10.1021/acsomega.9b02011
   
   for metadynamics refer to:
   * S. Grimme, J. Chem. Theory Comput., 2019, 155, 2847-2862
     DOI: 10.1021/acs.jctc.9b00143
   
   for SPH calculations refer to:
   * S. Spicher and S. Grimme, J. Chem. Theory Comput., 2021, 17, 1701-1714
     DOI: 10.1021/acs.jctc.0c01306
   
   with help from (in alphabetical order)
   P. Atkinson, C. Bannwarth, F. Bohle, G. Brandenburg, E. Caldeweyher
   M. Checinski, S. Dohm, S. Ehlert, S. Ehrlich, I. Gerasimov, J. Koopman
   C. Lavigne, S. Lehtola, F. März, M. Müller, F. Musil, H. Neugebauer
   J. Pisarek, C. Plett, P. Pracht, J. Seibert, P. Shushkov, S. Spicher
   M. Stahn, M. Steiner, T. Strunk, J. Stückrath, T. Rose, and J. Unsleber
   
 * started run on 2021/11/19 at 14:59:35.083     

           -------------------------------------------------
          |                Calculation Setup                |
           -------------------------------------------------

          program call               : /home/jeff/miniconda3/bin/xtb /home/jeff/chem/final-year-proejct/_2_4_outenergy/input_structure.xyz --gfn 2 --parallel 1 --etemp 300 --chrg 0 --uhf 0 -I det_control.in
          coordinate file            : /home/jeff/chem/final-year-proejct/_2_4_outenergy/input_structure.xyz
          omp threads                :                     1
          number of atoms            :                   152
          number of electrons        :                   474
          charge                     :                     0
          spin                       :                   0.0
          first test random number   :      0.74884998026869

   ID    Z sym.   atoms
    1    6 C      1-8, 10-14, 16-20, 22, 23, 38-45, 47-51, 53-57, 59, 60,
                  75-88, 90-94, 96-100, 102, 103, 117-124, 126-130, 132-136,
                  138, 139
    2    7 N      9, 15, 21, 24, 46, 52, 58, 61, 89, 95, 101, 104, 125, 131,
                  137, 140
    3    1 H      25-37, 62-74, 105-116, 141-152

           -------------------------------------------------
          |                 G F N 2 - x T B                 |
           -------------------------------------------------

        Reference                      10.1021/acs.jctc.8b01176
      * Hamiltonian:
        H0-scaling (s, p, d)           1.850000    2.230000    2.230000
        zeta-weighting                 0.500000
      * Dispersion:
        s8                             2.700000
        a1                             0.520000
        a2                             5.000000
        s9                             5.000000
      * Repulsion:
        kExp                           1.500000    1.000000
        rExp                           1.000000
      * Coulomb:
        alpha                          2.000000
        third order                    shell-resolved
        anisotropic                    true
        a3                             3.000000
        a5                             4.000000
        cn-shift                       1.200000
        cn-exp                         4.000000
        max-rad                        5.000000


          ...................................................
          :                      SETUP                      :
          :.................................................:
          :  # basis functions                 458          :
          :  # atomic orbitals                 458          :
          :  # shells                          254          :
          :  # electrons                       474          :
          :  max. iterations                   250          :
          :  Hamiltonian                  GFN2-xTB          :
          :  restarted?                      false          :
          :  GBSA solvation                  false          :
          :  PC potential                    false          :
          :  electronic temp.          300.0000000     K    :
          :  accuracy                    1.0000000          :
          :  -> integral cutoff          0.2500000E+02      :
          :  -> integral neglect         0.1000000E-07      :
          :  -> SCF convergence          0.1000000E-05 Eh   :
          :  -> wf. convergence          0.1000000E-03 e    :
          :  Broyden damping             0.4000000          :
          ...................................................

 iter      E             dE          RMSdq      gap      omega  full diag
   1   -260.4498055 -0.260450E+03  0.476E+00    0.60       0.0  T
   2   -260.8444027 -0.394597E+00  0.314E+00    0.89       1.0  T
   3   -260.7955889  0.488138E-01  0.145E+00    0.72       1.0  T
   4   -260.8180129 -0.224240E-01  0.671E-01    0.86       1.0  T
   5   -260.9154684 -0.974555E-01  0.228E-01    0.85       1.0  T
   6   -260.9278108 -0.123423E-01  0.802E-02    0.85       1.0  T
   7   -260.9282497 -0.438881E-03  0.534E-02    0.85       1.0  T
   8   -260.9288389 -0.589225E-03  0.230E-02    0.85       1.0  T
   9   -260.9289288 -0.899667E-04  0.117E-02    0.85       1.0  T
  10   -260.9289399 -0.110757E-04  0.700E-03    0.85       1.2  T
  11   -260.9289509 -0.110102E-04  0.161E-03    0.85       5.0  T
  12   -260.9289513 -0.386327E-06  0.634E-04    0.85      12.8  T
  13   -260.9289514 -0.383629E-07  0.306E-04    0.85      26.5  T

   *** convergence criteria satisfied after 13 iterations ***

         #    Occupation            Energy/Eh            Energy/eV
      -------------------------------------------------------------
         1        2.0000           -0.6841780             -18.6174
       ...           ...                  ...                  ...
       231        2.0000           -0.3690343             -10.0419
       232        2.0000           -0.3683713             -10.0239
       233        2.0000           -0.3682174             -10.0197
       234        2.0000           -0.3664240              -9.9709
       235        2.0000           -0.3607270              -9.8159
       236        2.0000           -0.3524008              -9.5893
       237        2.0000           -0.3449810              -9.3874 (HOMO)
       238        0.0000           -0.3137328              -8.5371 (LUMO)
       239                         -0.3055157              -8.3135
       240                         -0.2980528              -8.1104
       241                         -0.2977731              -8.1028
       242                         -0.2973860              -8.0923
       ...                                ...                  ...
       458                          1.4102605              38.3751
      -------------------------------------------------------------
                  HL-Gap            0.0312482 Eh            0.8503 eV
             Fermi-level           -0.3293568 Eh           -8.9623 eV

 SCC (total)                   0 d,  0 h,  0 min,  0.938 sec
 SCC setup                      ...        0 min,  0.004 sec (  0.412%)
 Dispersion                     ...        0 min,  0.008 sec (  0.902%)
 classical contributions        ...        0 min,  0.001 sec (  0.132%)
 integral evaluation            ...        0 min,  0.067 sec (  7.177%)
 iterations                     ...        0 min,  0.615 sec ( 65.587%)
 molecular gradient             ...        0 min,  0.236 sec ( 25.198%)
 printout                       ...        0 min,  0.006 sec (  0.589%)

         :::::::::::::::::::::::::::::::::::::::::::::::::::::
         ::                     SUMMARY                     ::
         :::::::::::::::::::::::::::::::::::::::::::::::::::::
         :: total energy            -256.247522302601 Eh    ::
         :: gradient norm              0.000446871326 Eh/a0 ::
         :: HOMO-LUMO gap              0.850306745548 eV    ::
         ::.................................................::
         :: SCC energy              -260.928951352858 Eh    ::
         :: -> isotropic ES            0.136592543167 Eh    ::
         :: -> anisotropic ES         -0.011740641993 Eh    ::
         :: -> anisotropic XC          0.165664563356 Eh    ::
         :: -> dispersion             -0.221794604167 Eh    ::
         :: repulsion energy           4.684946107447 Eh    ::
         :: add. restraining           0.000000000000 Eh    ::
         :: total charge               0.000000000033 e     ::
         :::::::::::::::::::::::::::::::::::::::::::::::::::::

           -------------------------------------------------
          |                Property Printout                |
           -------------------------------------------------

    * Orbital Energies and Occupations

         #    Occupation            Energy/Eh            Energy/eV
      -------------------------------------------------------------
         1        2.0000           -0.6841780             -18.6174
       ...           ...                  ...                  ...
       225        2.0000           -0.3722122             -10.1284
       226        2.0000           -0.3716183             -10.1122
       227        2.0000           -0.3714545             -10.1078
       228        2.0000           -0.3706507             -10.0859
       229        2.0000           -0.3706277             -10.0853
       230        2.0000           -0.3692015             -10.0465
       231        2.0000           -0.3690343             -10.0419
       232        2.0000           -0.3683713             -10.0239
       233        2.0000           -0.3682174             -10.0197
       234        2.0000           -0.3664240              -9.9709
       235        2.0000           -0.3607270              -9.8159
       236        2.0000           -0.3524008              -9.5893
       237        2.0000           -0.3449810              -9.3874 (HOMO)
       238        0.0000           -0.3137328              -8.5371 (LUMO)
       239                         -0.3055157              -8.3135
       240                         -0.2980528              -8.1104
       241                         -0.2977731              -8.1028
       242                         -0.2973860              -8.0923
       243                         -0.2970634              -8.0835
       244                         -0.2951526              -8.0315
       245                         -0.2884245              -7.8484
       246                         -0.2664158              -7.2495
       247                         -0.2598387              -7.0706
       248                         -0.2542912              -6.9196
       ...                                ...                  ...
       458                          1.4102605              38.3751
      -------------------------------------------------------------
                  HL-Gap            0.0312482 Eh            0.8503 eV
             Fermi-level           -0.3293568 Eh           -8.9623 eV

     #   Z          covCN         q      C6AA      α(0)
     1   6 C        3.016    -0.055    29.343     8.886
     2   6 C        3.010    -0.054    29.315     8.881
     3   6 C        3.194     0.086    25.599     8.250
     4   6 C        2.952     0.013    27.726     8.636
     5   6 C        3.095     0.064    26.461     8.431
     6   6 C        3.027    -0.049    29.196     8.863
     7   6 C        3.033    -0.052    29.254     8.872
     8   6 C        3.073     0.064    26.485     8.438
     9   7 N        2.786    -0.081    22.814     7.094
    10   6 C        2.899    -0.055    29.372     8.886
    11   6 C        3.171     0.087    25.719     8.285
    12   6 C        3.012    -0.054    29.317     8.882
    13   6 C        3.010    -0.054    29.319     8.882
    14   6 C        3.174     0.086    25.708     8.281
    15   7 N        1.870    -0.321    29.178     8.007
    16   6 C        2.899    -0.057    29.415     8.893
    17   6 C        3.074     0.065    26.470     8.436
    18   6 C        3.026    -0.051    29.242     8.870
    19   6 C        3.031    -0.051    29.233     8.868
    20   6 C        3.069     0.066    26.465     8.435
    21   7 N        2.787    -0.081    22.816     7.094
    22   6 C        2.899    -0.055    29.371     8.886
    23   6 C        3.174     0.085    25.732     8.285
    24   7 N        1.870    -0.324    29.260     8.018
    25   1 H        0.926     0.019     2.756     2.596
    26   1 H        0.926     0.020     2.736     2.587
    27   1 H        0.926     0.043     2.412     2.429
    28   1 H        0.926     0.041     2.429     2.437
    29   1 H        0.860     0.214     1.037     1.595
    30   1 H        0.925     0.047     2.360     2.402
    31   1 H        0.926     0.019     2.743     2.590
    32   1 H        0.926     0.019     2.743     2.590
    33   1 H        0.926     0.046     2.371     2.408
    34   1 H        0.926     0.042     2.425     2.435
    35   1 H        0.926     0.042     2.426     2.436
    36   1 H        0.860     0.214     1.035     1.594
    37   1 H        0.925     0.047     2.359     2.402
    38   6 C        3.016    -0.055    29.338     8.885
    39   6 C        3.010    -0.052    29.285     8.877
    40   6 C        3.193     0.087    25.590     8.249
    41   6 C        2.952     0.013    27.725     8.636
    42   6 C        3.095     0.063    26.473     8.433
    43   6 C        3.027    -0.051    29.225     8.867
    44   6 C        3.033    -0.052    29.262     8.873
    45   6 C        3.073     0.064    26.490     8.439
    46   7 N        2.786    -0.081    22.809     7.093
    47   6 C        2.899    -0.055    29.373     8.886
    48   6 C        3.171     0.087    25.720     8.285
    49   6 C        3.012    -0.054    29.318     8.882
    50   6 C        3.010    -0.054    29.319     8.882
    51   6 C        3.174     0.086    25.707     8.281
    52   7 N        1.870    -0.321    29.177     8.007
    53   6 C        2.899    -0.057    29.414     8.893
    54   6 C        3.074     0.065    26.470     8.436
    55   6 C        3.026    -0.051    29.241     8.870
    56   6 C        3.031    -0.051    29.231     8.868
    57   6 C        3.068     0.066    26.463     8.435
    58   7 N        2.787    -0.081    22.816     7.094
    59   6 C        2.899    -0.055    29.368     8.886
    60   6 C        3.174     0.086    25.724     8.284
    61   7 N        1.870    -0.324    29.267     8.019
    62   1 H        0.926     0.019     2.751     2.594
    63   1 H        0.926     0.021     2.717     2.578
    64   1 H        0.926     0.041     2.431     2.438
    65   1 H        0.926     0.041     2.433     2.439
    66   1 H        0.860     0.214     1.036     1.595
    67   1 H        0.925     0.047     2.361     2.403
    68   1 H        0.926     0.019     2.744     2.591
    69   1 H        0.926     0.019     2.743     2.590
    70   1 H        0.926     0.046     2.371     2.408
    71   1 H        0.926     0.042     2.425     2.435
    72   1 H        0.926     0.042     2.425     2.435
    73   1 H        0.860     0.214     1.036     1.594
    74   1 H        0.925     0.047     2.357     2.401
    75   6 C        1.993    -0.030    31.840     9.113
    76   6 C        1.992    -0.031    31.864     9.116
    77   6 C        1.992    -0.030    31.851     9.114
    78   6 C        1.992    -0.030    31.850     9.114
    79   6 C        1.992    -0.031    31.865     9.116
    80   6 C        1.993    -0.030    31.841     9.113
    81   6 C        3.017    -0.055    29.338     8.885
    82   6 C        3.009    -0.053    29.297     8.879
    83   6 C        3.193     0.086    25.607     8.252
    84   6 C        2.952     0.013    27.718     8.635
    85   6 C        3.099     0.063    26.466     8.431
    86   6 C        3.026    -0.050    29.214     8.866
    87   6 C        3.036    -0.052    29.252     8.871
    88   6 C        3.073     0.064    26.490     8.439
    89   7 N        2.786    -0.081    22.817     7.094
    90   6 C        2.900    -0.053    29.317     8.878
    91   6 C        3.173     0.085    25.737     8.286
    92   6 C        3.017    -0.055    29.333     8.884
    93   6 C        3.009    -0.053    29.307     8.880
    94   6 C        3.196     0.086    25.581     8.246
    95   7 N        1.870    -0.324    29.246     8.016
    96   6 C        2.952     0.013    27.729     8.637
    97   6 C        3.096     0.063    26.473     8.432
    98   6 C        3.025    -0.050    29.212     8.866
    99   6 C        3.036    -0.052    29.256     8.872
   100   6 C        3.071     0.064    26.496     8.440
   101   7 N        2.786    -0.082    22.826     7.096
   102   6 C        2.899    -0.053    29.327     8.879
   103   6 C        3.172     0.085    25.747     8.289
   104   7 N        1.870    -0.324    29.243     8.016
   105   1 H        0.926     0.018     2.756     2.596
   106   1 H        0.926     0.019     2.748     2.592
   107   1 H        0.926     0.043     2.405     2.425
   108   1 H        0.926     0.041     2.430     2.438
   109   1 H        0.860     0.215     1.034     1.593
   110   1 H        0.925     0.048     2.347     2.396
   111   1 H        0.926     0.019     2.748     2.592
   112   1 H        0.926     0.022     2.697     2.568
   113   1 H        0.926     0.041     2.442     2.444
   114   1 H        0.926     0.041     2.437     2.441
   115   1 H        0.860     0.215     1.035     1.593
   116   1 H        0.925     0.047     2.354     2.399
   117   6 C        3.017    -0.055    29.333     8.884
   118   6 C        3.009    -0.053    29.308     8.881
   119   6 C        3.196     0.086    25.581     8.246
   120   6 C        2.952     0.013    27.729     8.637
   121   6 C        3.096     0.063    26.474     8.433
   122   6 C        3.025    -0.050    29.213     8.866
   123   6 C        3.036    -0.052    29.256     8.872
   124   6 C        3.071     0.064    26.494     8.440
   125   7 N        2.786    -0.082    22.826     7.096
   126   6 C        2.899    -0.053    29.324     8.879
   127   6 C        3.172     0.085    25.743     8.288
   128   6 C        3.017    -0.055    29.333     8.884
   129   6 C        3.009    -0.052    29.281     8.876
   130   6 C        3.193     0.087    25.598     8.251
   131   7 N        1.870    -0.324    29.247     8.016
   132   6 C        2.952     0.013    27.719     8.635
   133   6 C        3.099     0.063    26.477     8.433
   134   6 C        3.026    -0.051    29.234     8.869
   135   6 C        3.036    -0.052    29.260     8.872
   136   6 C        3.073     0.064    26.494     8.439
   137   7 N        2.786    -0.081    22.815     7.094
   138   6 C        2.900    -0.053    29.320     8.878
   139   6 C        3.173     0.085    25.739     8.287
   140   7 N        1.870    -0.324    29.244     8.016
   141   1 H        0.926     0.019     2.749     2.593
   142   1 H        0.926     0.023     2.693     2.566
   143   1 H        0.926     0.040     2.443     2.444
   144   1 H        0.926     0.041     2.436     2.441
   145   1 H        0.860     0.215     1.034     1.593
   146   1 H        0.925     0.047     2.351     2.398
   147   1 H        0.926     0.019     2.752     2.594
   148   1 H        0.926     0.021     2.719     2.579
   149   1 H        0.926     0.041     2.433     2.439
   150   1 H        0.926     0.041     2.435     2.440
   151   1 H        0.860     0.215     1.034     1.593
   152   1 H        0.925     0.048     2.349     2.397

 Mol. C6AA /au·bohr⁶  :     374757.783754
 Mol. C8AA /au·bohr⁸  :    9577067.761527
 Mol. α(0) /au        :        984.697695


Wiberg/Mayer (AO) data.
largest (>0.10) Wiberg bond orders for each atom

 ---------------------------------------------------------------------------
     #   Z sym  total        # sym  WBO       # sym  WBO       # sym  WBO
 ---------------------------------------------------------------------------
     1   6 C    3.960 --     2 C    1.716    23 C    1.115    25 H    0.973
     2   6 C    3.961 --     1 C    1.716     3 C    1.121    26 H    0.969
     3   6 C    3.922 --    24 N    1.360     4 C    1.249     2 C    1.121
     4   6 C    3.940 --     5 C    1.254     3 C    1.249    75 C    1.176
     5   6 C    3.908 --     4 C    1.254     6 C    1.236     9 N    1.224
     6   6 C    3.956 --     7 C    1.594     5 C    1.236    27 H    0.970
     7   6 C    3.949 --     6 C    1.594     8 C    1.223    28 H    0.973
     8   6 C    3.918 --    10 C    1.344     7 C    1.223     9 N    1.203
     9   7 N    3.590 --     5 C    1.224     8 C    1.203    29 H    0.900
    10   6 C    3.921 --    11 C    1.357     8 C    1.344    30 H    0.964
    11   6 C    3.939 --    10 C    1.357    15 N    1.324    12 C    1.107
    12   6 C    3.963 --    13 C    1.731    11 C    1.107    31 H    0.973
    13   6 C    3.962 --    12 C    1.731    14 C    1.109    32 H    0.973
    14   6 C    3.938 --    16 C    1.354    15 N    1.325    13 C    1.109
    15   7 N    3.002 --    14 C    1.325    11 C    1.324
    16   6 C    3.923 --    14 C    1.354    17 C    1.347    33 H    0.965
    17   6 C    3.921 --    16 C    1.347    18 C    1.216    21 N    1.210
    18   6 C    3.949 --    19 C    1.608    17 C    1.216    34 H    0.973
    19   6 C    3.953 --    18 C    1.608    20 C    1.215    35 H    0.973
    20   6 C    3.916 --    22 C    1.343    19 C    1.215    21 N    1.211
    21   7 N    3.586 --    20 C    1.211    17 C    1.210    36 H    0.900
    22   6 C    3.937 --    23 C    1.365    20 C    1.343    37 H    0.964
    23   6 C    3.925 --    22 C    1.365    24 N    1.301     1 C    1.115
    24   7 N    3.009 --     3 C    1.360    23 C    1.301
    25   1 H    0.999 --     1 C    0.973
    26   1 H    0.999 --     2 C    0.969
    27   1 H    0.998 --     6 C    0.970
    28   1 H    0.998 --     7 C    0.973
    29   1 H    0.954 --     9 N    0.900
    30   1 H    0.997 --    10 C    0.964
    31   1 H    0.999 --    12 C    0.973
    32   1 H    0.999 --    13 C    0.973
    33   1 H    0.997 --    16 C    0.965
    34   1 H    0.998 --    18 C    0.973
    35   1 H    0.998 --    19 C    0.973
    36   1 H    0.954 --    21 N    0.900
    37   1 H    0.997 --    22 C    0.964
    38   6 C    3.960 --    39 C    1.717    60 C    1.115    62 H    0.973
    39   6 C    3.961 --    38 C    1.717    40 C    1.121    63 H    0.969
    40   6 C    3.922 --    61 N    1.359    41 C    1.251    39 C    1.121
    41   6 C    3.940 --    42 C    1.252    40 C    1.251    80 C    1.178
    42   6 C    3.907 --    41 C    1.252    43 C    1.237    46 N    1.225
    43   6 C    3.956 --    44 C    1.592    42 C    1.237    64 H    0.970
    44   6 C    3.948 --    43 C    1.592    45 C    1.224    65 H    0.973
    45   6 C    3.918 --    47 C    1.343    44 C    1.224    46 N    1.203
    46   7 N    3.590 --    42 C    1.225    45 C    1.203    66 H    0.900
    47   6 C    3.921 --    48 C    1.358    45 C    1.343    67 H    0.964
    48   6 C    3.939 --    47 C    1.358    52 N    1.323    49 C    1.107
    49   6 C    3.963 --    50 C    1.731    48 C    1.107    68 H    0.973
    50   6 C    3.962 --    49 C    1.731    51 C    1.109    69 H    0.973
    51   6 C    3.938 --    53 C    1.353    52 N    1.326    50 C    1.109
    52   7 N    3.001 --    51 C    1.326    48 C    1.323
    53   6 C    3.923 --    51 C    1.353    54 C    1.347    70 H    0.965
    54   6 C    3.921 --    53 C    1.347    55 C    1.215    58 N    1.210
    55   6 C    3.949 --    56 C    1.609    54 C    1.215    71 H    0.973
    56   6 C    3.953 --    55 C    1.609    57 C    1.215    72 H    0.973
    57   6 C    3.916 --    59 C    1.343    56 C    1.215    58 N    1.211
    58   7 N    3.586 --    57 C    1.211    54 C    1.210    73 H    0.900
    59   6 C    3.937 --    60 C    1.365    57 C    1.343    74 H    0.964
    60   6 C    3.925 --    59 C    1.365    61 N    1.301    38 C    1.115
    61   7 N    3.009 --    40 C    1.359    60 C    1.301
    62   1 H    0.999 --    38 C    0.973
    63   1 H    0.999 --    39 C    0.969
    64   1 H    0.998 --    43 C    0.970
    65   1 H    0.998 --    44 C    0.973
    66   1 H    0.954 --    46 N    0.900
    67   1 H    0.997 --    47 C    0.964
    68   1 H    0.999 --    49 C    0.973
    69   1 H    0.999 --    50 C    0.973
    70   1 H    0.997 --    53 C    0.965
    71   1 H    0.998 --    55 C    0.973
    72   1 H    0.998 --    56 C    0.973
    73   1 H    0.954 --    58 N    0.900
    74   1 H    0.997 --    59 C    0.964
    75   6 C    3.920 --    76 C    2.567     4 C    1.176
    76   6 C    3.924 --    75 C    2.567    84 C    1.179
    77   6 C    3.920 --    78 C    2.561    96 C    1.181
    78   6 C    3.920 --    77 C    2.561   120 C    1.181
    79   6 C    3.924 --    80 C    2.566   132 C    1.180
    80   6 C    3.920 --    79 C    2.566    41 C    1.178
    81   6 C    3.961 --    82 C    1.716   103 C    1.115   105 H    0.973
    82   6 C    3.961 --    81 C    1.716    83 C    1.123   106 H    0.970
    83   6 C    3.923 --   104 N    1.359    84 C    1.250    82 C    1.123
    84   6 C    3.926 --    83 C    1.250    85 C    1.249    76 C    1.179
    85   6 C    3.909 --    84 C    1.249    86 C    1.240    89 N    1.226
    86   6 C    3.953 --    87 C    1.589    85 C    1.240   107 H    0.970
    87   6 C    3.949 --    86 C    1.589    88 C    1.227   108 H    0.973
    88   6 C    3.914 --    90 C    1.336    87 C    1.227    89 N    1.204
    89   7 N    3.586 --    85 C    1.226    88 C    1.204   109 H    0.897
    90   6 C    3.923 --    91 C    1.371    88 C    1.336   110 H    0.963
    91   6 C    3.927 --    90 C    1.371    95 N    1.295    92 C    1.115
    92   6 C    3.961 --    93 C    1.716    91 C    1.115   111 H    0.973
    93   6 C    3.961 --    92 C    1.716    94 C    1.123   112 H    0.969
    94   6 C    3.925 --    95 N    1.362    96 C    1.244    93 C    1.123
    95   7 N    3.001 --    94 C    1.362    91 C    1.295
    96   6 C    3.927 --    97 C    1.251    94 C    1.244    77 C    1.181
    97   6 C    3.908 --    96 C    1.251    98 C    1.240   101 N    1.225
    98   6 C    3.953 --    99 C    1.589    97 C    1.240   113 H    0.972
    99   6 C    3.949 --    98 C    1.589   100 C    1.227   114 H    0.973
   100   6 C    3.915 --   102 C    1.337    99 C    1.227   101 N    1.204
   101   7 N    3.586 --    97 C    1.225   100 C    1.204   115 H    0.897
   102   6 C    3.922 --   103 C    1.369   100 C    1.337   116 H    0.963
   103   6 C    3.928 --   102 C    1.369   104 N    1.299    81 C    1.115
   104   7 N    3.000 --    83 C    1.359   103 C    1.299
   105   1 H    0.999 --    81 C    0.973
   106   1 H    0.999 --    82 C    0.970
   107   1 H    0.998 --    86 C    0.970
   108   1 H    0.998 --    87 C    0.973
   109   1 H    0.954 --    89 N    0.897
   110   1 H    0.997 --    90 C    0.963
   111   1 H    0.999 --    92 C    0.973
   112   1 H    0.999 --    93 C    0.969
   113   1 H    0.998 --    98 C    0.972
   114   1 H    0.998 --    99 C    0.973
   115   1 H    0.954 --   101 N    0.897
   116   1 H    0.997 --   102 C    0.963
   117   6 C    3.961 --   118 C    1.716   139 C    1.115   141 H    0.973
   118   6 C    3.961 --   117 C    1.716   119 C    1.123   142 H    0.969
   119   6 C    3.925 --   140 N    1.362   120 C    1.245   118 C    1.123
   120   6 C    3.927 --   121 C    1.251   119 C    1.245    78 C    1.181
   121   6 C    3.908 --   120 C    1.251   122 C    1.240   125 N    1.225
   122   6 C    3.953 --   123 C    1.589   121 C    1.240   143 H    0.972
   123   6 C    3.949 --   122 C    1.589   124 C    1.227   144 H    0.973
   124   6 C    3.915 --   126 C    1.336   123 C    1.227   125 N    1.204
   125   7 N    3.586 --   121 C    1.225   124 C    1.204   145 H    0.897
   126   6 C    3.922 --   127 C    1.370   124 C    1.336   146 H    0.963
   127   6 C    3.927 --   126 C    1.370   131 N    1.298   128 C    1.114
   128   6 C    3.961 --   129 C    1.716   127 C    1.114   147 H    0.973
   129   6 C    3.961 --   128 C    1.716   130 C    1.123   148 H    0.969
   130   6 C    3.923 --   131 N    1.359   132 C    1.249   129 C    1.123
   131   7 N    3.001 --   130 C    1.359   127 C    1.298
   132   6 C    3.926 --   130 C    1.249   133 C    1.248    79 C    1.180
   133   6 C    3.908 --   132 C    1.248   134 C    1.241   137 N    1.226
   134   6 C    3.952 --   135 C    1.588   133 C    1.241   149 H    0.970
   135   6 C    3.949 --   134 C    1.588   136 C    1.228   150 H    0.973
   136   6 C    3.914 --   138 C    1.335   135 C    1.228   137 N    1.204
   137   7 N    3.586 --   133 C    1.226   136 C    1.204   151 H    0.897
   138   6 C    3.923 --   139 C    1.372   136 C    1.335   152 H    0.963
   139   6 C    3.927 --   138 C    1.372   140 N    1.295   117 C    1.115
   140   7 N    3.001 --   119 C    1.362   139 C    1.295
   141   1 H    0.999 --   117 C    0.973
   142   1 H    0.999 --   118 C    0.969
   143   1 H    0.998 --   122 C    0.972
   144   1 H    0.998 --   123 C    0.973
   145   1 H    0.954 --   125 N    0.897
   146   1 H    0.997 --   126 C    0.963
   147   1 H    0.999 --   128 C    0.973
   148   1 H    0.999 --   129 C    0.969
   149   1 H    0.998 --   134 C    0.970
   150   1 H    0.998 --   135 C    0.973
   151   1 H    0.954 --   137 N    0.897
   152   1 H    0.997 --   138 C    0.963
 ---------------------------------------------------------------------------

Topologies differ in total number of bonds
Writing topology from bond orders to xtbtopo.mol

molecular dipole:
                 x           y           z       tot (Debye)
 q only:       -0.002       0.079      -0.009
   full:       -0.001       0.091       0.019       0.237
molecular quadrupole (traceless):
                xx          xy          yy          xz          yz          zz
 q only:       23.856     -19.825       2.274      -3.570       3.745     -26.130
  q+dip:       63.835     -10.248      12.760      -5.996      12.048     -76.595
   full:       41.806     -10.094       5.021      -4.540       6.947     -46.827


           -------------------------------------------------
          | TOTAL ENERGY             -256.247522302601 Eh   |
          | GRADIENT NORM               0.000446871326 Eh/α |
          | HOMO-LUMO GAP               0.850306745548 eV   |
           -------------------------------------------------

------------------------------------------------------------------------
 * finished run on 2021/11/19 at 14:59:36.092     
------------------------------------------------------------------------
 total:
 * wall-time:     0 d,  0 h,  0 min,  1.009 sec
 *  cpu-time:     0 d,  0 h,  0 min,  1.009 sec
 * ratio c/w:     1.000 speedup
 SCF:
 * wall-time:     0 d,  0 h,  0 min,  0.940 sec
 *  cpu-time:     0 d,  0 h,  0 min,  0.940 sec
 * ratio c/w:     1.000 speedup

