      -----------------------------------------------------------      
     |                   =====================                   |     
     |                           x T B                           |     
     |                   =====================                   |     
     |                         S. Grimme                         |     
     |          Mulliken Center for Theoretical Chemistry        |     
     |                    University of Bonn                     |     
      -----------------------------------------------------------      

   * xtb version 6.4.1 (bd6e46d) compiled by 'conda@4901f00b25ba' on 2021-06-10

   xtb is free software: you can redistribute it and/or modify it under
   the terms of the GNU Lesser General Public License as published by
   the Free Software Foundation, either version 3 of the License, or
   (at your option) any later version.
   
   xtb is distributed in the hope that it will be useful,
   but WITHOUT ANY WARRANTY; without even the implied warranty of
   MERCHANTABILITY or FITNESS FOR A PARTICULAR PURPOSE.  See the
   GNU Lesser General Public License for more details.
   
   Cite this work as:
   * C. Bannwarth, E. Caldeweyher, S. Ehlert, A. Hansen, P. Pracht,
     J. Seibert, S. Spicher, S. Grimme, WIREs Comput. Mol. Sci., 2020, 11,
     e01493. DOI: 10.1002/wcms.1493
   
   for GFN2-xTB:
   * C. Bannwarth, S. Ehlert and S. Grimme., J. Chem. Theory Comput., 2019,
     15, 1652-1671. DOI: 10.1021/acs.jctc.8b01176
   for GFN1-xTB:
   * S. Grimme, C. Bannwarth, P. Shushkov, J. Chem. Theory Comput., 2017,
     13, 1989-2009. DOI: 10.1021/acs.jctc.7b00118
   for GFN0-xTB:
   * P. Pracht, E. Caldeweyher, S. Ehlert, S. Grimme, ChemRxiv, 2019, preprint.
     DOI: 10.26434/chemrxiv.8326202.v1
   for GFN-FF:
   * S. Spicher and S. Grimme, Angew. Chem. Int. Ed., 2020, 59, 15665-15673.
     DOI: 10.1002/anie.202004239
   
   for DFT-D4:
   * E. Caldeweyher, C. Bannwarth and S. Grimme, J. Chem. Phys., 2017,
     147, 034112. DOI: 10.1063/1.4993215
   * E. Caldeweyher, S. Ehlert, A. Hansen, H. Neugebauer, S. Spicher,
     C. Bannwarth and S. Grimme, J. Chem. Phys., 2019, 150, 154122.
     DOI: 10.1063/1.5090222
   * E. Caldeweyher, J.-M. Mewes, S. Ehlert and S. Grimme, Phys. Chem. Chem. Phys.
     2020, 22, 8499-8512. DOI: 10.1039/D0CP00502A
   
   for sTDA-xTB:
   * S. Grimme and C. Bannwarth, J. Chem. Phys., 2016, 145, 054103.
     DOI: 10.1063/1.4959605
   
   in the mass-spec context:
   * V. Asgeirsson, C. Bauer and S. Grimme, Chem. Sci., 2017, 8, 4879.
     DOI: 10.1039/c7sc00601b
   * J. Koopman and S. Grimme, ACS Omega 2019, 4, 12, 15120-15133.
     DOI: 10.1021/acsomega.9b02011
   
   for metadynamics refer to:
   * S. Grimme, J. Chem. Theory Comput., 2019, 155, 2847-2862
     DOI: 10.1021/acs.jctc.9b00143
   
   for SPH calculations refer to:
   * S. Spicher and S. Grimme, J. Chem. Theory Comput., 2021, 17, 1701-1714
     DOI: 10.1021/acs.jctc.0c01306
   
   with help from (in alphabetical order)
   P. Atkinson, C. Bannwarth, F. Bohle, G. Brandenburg, E. Caldeweyher
   M. Checinski, S. Dohm, S. Ehlert, S. Ehrlich, I. Gerasimov, J. Koopman
   C. Lavigne, S. Lehtola, F. März, M. Müller, F. Musil, H. Neugebauer
   J. Pisarek, C. Plett, P. Pracht, J. Seibert, P. Shushkov, S. Spicher
   M. Stahn, M. Steiner, T. Strunk, J. Stückrath, T. Rose, and J. Unsleber
   
 * started run on 2021/11/21 at 21:09:23.902     

           -------------------------------------------------
          |                Calculation Setup                |
           -------------------------------------------------

          program call               : /home/jeff/miniconda3/bin/xtb /home/jeff/chem/final-year-proejct/free_base/_6_2_outenergy/input_structure.xyz --gfn 2 --parallel 1 --etemp 300 --chrg 0 --uhf 0 -I det_control.in
          coordinate file            : /home/jeff/chem/final-year-proejct/free_base/_6_2_outenergy/input_structure.xyz
          omp threads                :                     1
          number of atoms            :                    80
          number of electrons        :                   250
          charge                     :                     0
          spin                       :                   0.0
          first test random number   :      0.03169548744946

   ID    Z sym.   atoms
    1    6 C      1-8, 10-14, 16-20, 22, 23, 38-51, 53-57, 59-63, 65, 66
    2    7 N      9, 15, 21, 24, 52, 58, 64, 67
    3    1 H      25-37, 68-80

           -------------------------------------------------
          |                 G F N 2 - x T B                 |
           -------------------------------------------------

        Reference                      10.1021/acs.jctc.8b01176
      * Hamiltonian:
        H0-scaling (s, p, d)           1.850000    2.230000    2.230000
        zeta-weighting                 0.500000
      * Dispersion:
        s8                             2.700000
        a1                             0.520000
        a2                             5.000000
        s9                             5.000000
      * Repulsion:
        kExp                           1.500000    1.000000
        rExp                           1.000000
      * Coulomb:
        alpha                          2.000000
        third order                    shell-resolved
        anisotropic                    true
        a3                             3.000000
        a5                             4.000000
        cn-shift                       1.200000
        cn-exp                         4.000000
        max-rad                        5.000000


          ...................................................
          :                      SETUP                      :
          :.................................................:
          :  # basis functions                 242          :
          :  # atomic orbitals                 242          :
          :  # shells                          134          :
          :  # electrons                       250          :
          :  max. iterations                   250          :
          :  Hamiltonian                  GFN2-xTB          :
          :  restarted?                      false          :
          :  GBSA solvation                  false          :
          :  PC potential                    false          :
          :  electronic temp.          300.0000000     K    :
          :  accuracy                    1.0000000          :
          :  -> integral cutoff          0.2500000E+02      :
          :  -> integral neglect         0.1000000E-07      :
          :  -> SCF convergence          0.1000000E-05 Eh   :
          :  -> wf. convergence          0.1000000E-03 e    :
          :  Broyden damping             0.4000000          :
          ...................................................

 iter      E             dE          RMSdq      gap      omega  full diag
   1   -137.2905844 -0.137291E+03  0.553E+00    0.88       0.0  T
   2   -137.4844404 -0.193856E+00  0.356E+00    1.11       1.0  T
   3   -137.4286372  0.558032E-01  0.146E+00    0.98       1.0  T
   4   -137.4674507 -0.388135E-01  0.647E-01    1.09       1.0  T
   5   -137.5156819 -0.482312E-01  0.237E-01    1.11       1.0  T
   6   -137.5227897 -0.710778E-02  0.773E-02    1.11       1.0  T
   7   -137.5230073 -0.217610E-03  0.457E-02    1.11       1.0  T
   8   -137.5231359 -0.128614E-03  0.205E-02    1.11       1.0  T
   9   -137.5231531 -0.171605E-04  0.108E-02    1.11       1.0  T
  10   -137.5231581 -0.499011E-05  0.424E-03    1.11       2.6  T
  11   -137.5231594 -0.131971E-05  0.126E-03    1.11       8.8  T
  12   -137.5231595 -0.982665E-07  0.520E-04    1.11      21.5  T
  13   -137.5231595 -0.395397E-08  0.319E-04    1.11      35.0  T

   *** convergence criteria satisfied after 13 iterations ***

         #    Occupation            Energy/Eh            Energy/eV
      -------------------------------------------------------------
         1        2.0000           -0.6838043             -18.6073
       ...           ...                  ...                  ...
       119        2.0000           -0.3717907             -10.1169
       120        2.0000           -0.3709838             -10.0950
       121        2.0000           -0.3709797             -10.0949
       122        2.0000           -0.3685446             -10.0286
       123        2.0000           -0.3683959             -10.0246
       124        2.0000           -0.3609705              -9.8225
       125        2.0000           -0.3492334              -9.5031 (HOMO)
       126                         -0.3085705              -8.3966 (LUMO)
       127                         -0.2981810              -8.1139
       128                         -0.2972928              -8.0898
       129                         -0.2955053              -8.0411
       130                         -0.2652407              -7.2176
       ...                                ...                  ...
       242                          1.7168398              46.7176
      -------------------------------------------------------------
                  HL-Gap            0.0406629 Eh            1.1065 eV
             Fermi-level           -0.3289020 Eh           -8.9499 eV

 SCC (total)                   0 d,  0 h,  0 min,  0.251 sec
 SCC setup                      ...        0 min,  0.001 sec (  0.431%)
 Dispersion                     ...        0 min,  0.002 sec (  0.950%)
 classical contributions        ...        0 min,  0.000 sec (  0.165%)
 integral evaluation            ...        0 min,  0.022 sec (  8.833%)
 iterations                     ...        0 min,  0.143 sec ( 56.900%)
 molecular gradient             ...        0 min,  0.081 sec ( 32.245%)
 printout                       ...        0 min,  0.001 sec (  0.470%)

         :::::::::::::::::::::::::::::::::::::::::::::::::::::
         ::                     SUMMARY                     ::
         :::::::::::::::::::::::::::::::::::::::::::::::::::::
         :: total energy            -134.955104998048 Eh    ::
         :: gradient norm              0.000274944291 Eh/a0 ::
         :: HOMO-LUMO gap              1.106492554502 eV    ::
         ::.................................................::
         :: SCC energy              -137.523159504107 Eh    ::
         :: -> isotropic ES            0.068110564194 Eh    ::
         :: -> anisotropic ES         -0.005134111890 Eh    ::
         :: -> anisotropic XC          0.095632314635 Eh    ::
         :: -> dispersion             -0.106445129604 Eh    ::
         :: repulsion energy           2.569204809303 Eh    ::
         :: add. restraining           0.000000000000 Eh    ::
         :: total charge              -0.000000000000 e     ::
         :::::::::::::::::::::::::::::::::::::::::::::::::::::

           -------------------------------------------------
          |                Property Printout                |
           -------------------------------------------------

    * Orbital Energies and Occupations

         #    Occupation            Energy/Eh            Energy/eV
      -------------------------------------------------------------
         1        2.0000           -0.6838043             -18.6073
       ...           ...                  ...                  ...
       113        2.0000           -0.3917668             -10.6605
       114        2.0000           -0.3879769             -10.5574
       115        2.0000           -0.3878670             -10.5544
       116        2.0000           -0.3859685             -10.5027
       117        2.0000           -0.3779348             -10.2841
       118        2.0000           -0.3719729             -10.1219
       119        2.0000           -0.3717907             -10.1169
       120        2.0000           -0.3709838             -10.0950
       121        2.0000           -0.3709797             -10.0949
       122        2.0000           -0.3685446             -10.0286
       123        2.0000           -0.3683959             -10.0246
       124        2.0000           -0.3609705              -9.8225
       125        2.0000           -0.3492334              -9.5031 (HOMO)
       126                         -0.3085705              -8.3966 (LUMO)
       127                         -0.2981810              -8.1139
       128                         -0.2972928              -8.0898
       129                         -0.2955053              -8.0411
       130                         -0.2652407              -7.2176
       131                         -0.2565505              -6.9811
       132                         -0.2506707              -6.8211
       133                         -0.2251311              -6.1261
       134                         -0.1899927              -5.1700
       135                         -0.1892050              -5.1485
       136                         -0.1733935              -4.7183
       ...                                ...                  ...
       242                          1.7168398              46.7176
      -------------------------------------------------------------
                  HL-Gap            0.0406629 Eh            1.1065 eV
             Fermi-level           -0.3289020 Eh           -8.9499 eV

     #   Z          covCN         q      C6AA      α(0)
     1   6 C        3.017    -0.055    29.337     8.885
     2   6 C        3.009    -0.053    29.302     8.880
     3   6 C        3.196     0.087    25.563     8.242
     4   6 C        2.952     0.011    27.760     8.642
     5   6 C        3.097     0.064    26.453     8.429
     6   6 C        3.026    -0.050    29.210     8.865
     7   6 C        3.034    -0.052    29.253     8.871
     8   6 C        3.073     0.064    26.485     8.438
     9   7 N        2.785    -0.081    22.822     7.095
    10   6 C        2.899    -0.055    29.368     8.885
    11   6 C        3.170     0.087    25.719     8.285
    12   6 C        3.012    -0.054    29.316     8.882
    13   6 C        3.009    -0.054    29.318     8.882
    14   6 C        3.174     0.086    25.708     8.281
    15   7 N        1.870    -0.321    29.174     8.006
    16   6 C        2.899    -0.057    29.411     8.892
    17   6 C        3.074     0.065    26.471     8.436
    18   6 C        3.025    -0.051    29.240     8.870
    19   6 C        3.031    -0.051    29.231     8.868
    20   6 C        3.068     0.066    26.461     8.435
    21   7 N        2.787    -0.081    22.815     7.094
    22   6 C        2.899    -0.055    29.365     8.885
    23   6 C        3.175     0.086    25.721     8.283
    24   7 N        1.870    -0.325    29.280     8.021
    25   1 H        0.926     0.019     2.755     2.596
    26   1 H        0.926     0.021     2.715     2.577
    27   1 H        0.926     0.043     2.406     2.426
    28   1 H        0.926     0.041     2.432     2.439
    29   1 H        0.860     0.214     1.037     1.595
    30   1 H        0.925     0.047     2.360     2.402
    31   1 H        0.926     0.019     2.743     2.590
    32   1 H        0.926     0.019     2.742     2.589
    33   1 H        0.926     0.046     2.370     2.407
    34   1 H        0.926     0.042     2.424     2.435
    35   1 H        0.926     0.042     2.425     2.435
    36   1 H        0.860     0.214     1.035     1.594
    37   1 H        0.925     0.047     2.358     2.401
    38   6 C        1.995    -0.021    31.600     9.078
    39   6 C        1.963    -0.012    31.387     9.047
    40   6 C        1.964    -0.004    31.172     9.016
    41   6 C        1.964    -0.004    31.172     9.016
    42   6 C        1.963    -0.012    31.387     9.047
    43   6 C        1.995    -0.021    31.600     9.078
    44   6 C        3.012    -0.054    29.316     8.882
    45   6 C        3.009    -0.054    29.318     8.882
    46   6 C        3.174     0.086    25.708     8.281
    47   6 C        2.899    -0.057    29.411     8.892
    48   6 C        3.074     0.065    26.471     8.436
    49   6 C        3.025    -0.051    29.240     8.870
    50   6 C        3.031    -0.051    29.231     8.868
    51   6 C        3.068     0.066    26.461     8.435
    52   7 N        2.787    -0.081    22.815     7.094
    53   6 C        2.899    -0.055    29.365     8.885
    54   6 C        3.175     0.086    25.721     8.283
    55   6 C        3.017    -0.055    29.337     8.885
    56   6 C        3.009    -0.053    29.302     8.880
    57   6 C        3.196     0.087    25.564     8.242
    58   7 N        1.870    -0.325    29.280     8.021
    59   6 C        2.952     0.011    27.760     8.642
    60   6 C        3.097     0.064    26.453     8.429
    61   6 C        3.026    -0.050    29.210     8.865
    62   6 C        3.034    -0.052    29.253     8.871
    63   6 C        3.073     0.064    26.485     8.438
    64   7 N        2.785    -0.081    22.822     7.095
    65   6 C        2.899    -0.055    29.367     8.885
    66   6 C        3.170     0.087    25.719     8.285
    67   7 N        1.870    -0.321    29.174     8.006
    68   1 H        0.926     0.019     2.743     2.590
    69   1 H        0.926     0.019     2.742     2.589
    70   1 H        0.926     0.046     2.370     2.407
    71   1 H        0.926     0.042     2.424     2.435
    72   1 H        0.926     0.042     2.425     2.435
    73   1 H        0.860     0.214     1.035     1.594
    74   1 H        0.925     0.047     2.358     2.401
    75   1 H        0.926     0.019     2.755     2.596
    76   1 H        0.926     0.021     2.715     2.577
    77   1 H        0.926     0.043     2.406     2.426
    78   1 H        0.926     0.041     2.432     2.439
    79   1 H        0.860     0.214     1.037     1.595
    80   1 H        0.925     0.047     2.359     2.402

 Mol. C6AA /au·bohr⁶  :     105271.889886
 Mol. C8AA /au·bohr⁸  :    2700175.951519
 Mol. α(0) /au        :        521.958505


Wiberg/Mayer (AO) data.
largest (>0.10) Wiberg bond orders for each atom

 ---------------------------------------------------------------------------
     #   Z sym  total        # sym  WBO       # sym  WBO       # sym  WBO
 ---------------------------------------------------------------------------
     1   6 C    3.960 --     2 C    1.716    23 C    1.115    25 H    0.973
     2   6 C    3.961 --     1 C    1.716     3 C    1.122    26 H    0.971
     3   6 C    3.915 --    24 N    1.362     4 C    1.242     2 C    1.122
     4   6 C    3.940 --     5 C    1.248     3 C    1.242    38 C    1.193
     5   6 C    3.901 --     4 C    1.248     6 C    1.238     9 N    1.225
     6   6 C    3.955 --     7 C    1.592     5 C    1.238    27 H    0.972
     7   6 C    3.948 --     6 C    1.592     8 C    1.224    28 H    0.973
     8   6 C    3.918 --    10 C    1.344     7 C    1.224     9 N    1.202
     9   7 N    3.590 --     5 C    1.225     8 C    1.202    29 H    0.900
    10   6 C    3.921 --    11 C    1.357     8 C    1.344    30 H    0.964
    11   6 C    3.939 --    10 C    1.357    15 N    1.324    12 C    1.107
    12   6 C    3.963 --    13 C    1.731    11 C    1.107    31 H    0.973
    13   6 C    3.962 --    12 C    1.731    14 C    1.109    32 H    0.973
    14   6 C    3.938 --    16 C    1.354    15 N    1.325    13 C    1.109
    15   7 N    3.002 --    14 C    1.325    11 C    1.324
    16   6 C    3.923 --    14 C    1.354    17 C    1.347    33 H    0.965
    17   6 C    3.921 --    16 C    1.347    18 C    1.216    21 N    1.210
    18   6 C    3.949 --    19 C    1.608    17 C    1.216    34 H    0.973
    19   6 C    3.953 --    18 C    1.608    20 C    1.215    35 H    0.973
    20   6 C    3.916 --    22 C    1.342    19 C    1.215    21 N    1.211
    21   7 N    3.586 --    20 C    1.211    17 C    1.210    36 H    0.900
    22   6 C    3.937 --    23 C    1.366    20 C    1.342    37 H    0.963
    23   6 C    3.924 --    22 C    1.366    24 N    1.299     1 C    1.115
    24   7 N    3.010 --     3 C    1.362    23 C    1.299
    25   1 H    0.999 --     1 C    0.973
    26   1 H    0.999 --     2 C    0.971
    27   1 H    0.998 --     6 C    0.972
    28   1 H    0.998 --     7 C    0.973
    29   1 H    0.954 --     9 N    0.900
    30   1 H    0.997 --    10 C    0.964
    31   1 H    0.999 --    12 C    0.973
    32   1 H    0.999 --    13 C    0.973
    33   1 H    0.997 --    16 C    0.965
    34   1 H    0.998 --    18 C    0.973
    35   1 H    0.998 --    19 C    0.973
    36   1 H    0.954 --    21 N    0.900
    37   1 H    0.997 --    22 C    0.963
    38   6 C    3.883 --    39 C    2.437     4 C    1.193    41 C    0.192
    39   6 C    3.924 --    38 C    2.437    40 C    1.335
    40   6 C    3.918 --    41 C    2.353    39 C    1.335    43 C    0.192
    41   6 C    3.918 --    40 C    2.353    42 C    1.335    38 C    0.192
    42   6 C    3.924 --    43 C    2.437    41 C    1.335
    43   6 C    3.883 --    42 C    2.437    59 C    1.193    40 C    0.192
    44   6 C    3.963 --    45 C    1.731    66 C    1.107    68 H    0.973
    45   6 C    3.962 --    44 C    1.731    46 C    1.109    69 H    0.973
    46   6 C    3.938 --    47 C    1.354    67 N    1.325    45 C    1.109
    47   6 C    3.923 --    46 C    1.354    48 C    1.347    70 H    0.965
    48   6 C    3.921 --    47 C    1.347    49 C    1.216    52 N    1.210
    49   6 C    3.949 --    50 C    1.608    48 C    1.216    71 H    0.973
    50   6 C    3.953 --    49 C    1.608    51 C    1.215    72 H    0.973
    51   6 C    3.916 --    53 C    1.342    50 C    1.215    52 N    1.211
    52   7 N    3.586 --    51 C    1.211    48 C    1.210    73 H    0.900
    53   6 C    3.937 --    54 C    1.366    51 C    1.342    74 H    0.963
    54   6 C    3.924 --    53 C    1.366    58 N    1.299    55 C    1.115
    55   6 C    3.960 --    56 C    1.716    54 C    1.115    75 H    0.973
    56   6 C    3.961 --    55 C    1.716    57 C    1.122    76 H    0.971
    57   6 C    3.915 --    58 N    1.361    59 C    1.242    56 C    1.122
    58   7 N    3.010 --    57 C    1.361    54 C    1.299
    59   6 C    3.940 --    60 C    1.248    57 C    1.242    43 C    1.193
    60   6 C    3.901 --    59 C    1.248    61 C    1.238    64 N    1.225
    61   6 C    3.955 --    62 C    1.592    60 C    1.238    77 H    0.972
    62   6 C    3.948 --    61 C    1.592    63 C    1.224    78 H    0.973
    63   6 C    3.918 --    65 C    1.344    62 C    1.224    64 N    1.202
    64   7 N    3.590 --    60 C    1.225    63 C    1.202    79 H    0.900
    65   6 C    3.921 --    66 C    1.357    63 C    1.344    80 H    0.964
    66   6 C    3.939 --    65 C    1.357    67 N    1.324    44 C    1.107
    67   7 N    3.002 --    46 C    1.325    66 C    1.324
    68   1 H    0.999 --    44 C    0.973
    69   1 H    0.999 --    45 C    0.973
    70   1 H    0.997 --    47 C    0.965
    71   1 H    0.998 --    49 C    0.973
    72   1 H    0.998 --    50 C    0.973
    73   1 H    0.954 --    52 N    0.900
    74   1 H    0.997 --    53 C    0.963
    75   1 H    0.999 --    55 C    0.973
    76   1 H    0.999 --    56 C    0.971
    77   1 H    0.998 --    61 C    0.972
    78   1 H    0.998 --    62 C    0.973
    79   1 H    0.954 --    64 N    0.900
    80   1 H    0.997 --    65 C    0.964
 ---------------------------------------------------------------------------

Topologies differ in total number of bonds
Writing topology from bond orders to xtbtopo.mol

molecular dipole:
                 x           y           z       tot (Debye)
 q only:       -0.000       0.002       0.001
   full:       -0.000       0.002       0.000       0.006
molecular quadrupole (traceless):
                xx          xy          yy          xz          yz          zz
 q only:       15.877     -22.118       0.613      -1.054       0.674     -16.490
  q+dip:       41.478     -11.519       8.649       1.164       4.284     -50.127
   full:       27.012     -11.091       3.547       0.477       2.353     -30.559


           -------------------------------------------------
          | TOTAL ENERGY             -134.955104998048 Eh   |
          | GRADIENT NORM               0.000274944291 Eh/α |
          | HOMO-LUMO GAP               1.106492554502 eV   |
           -------------------------------------------------

------------------------------------------------------------------------
 * finished run on 2021/11/21 at 21:09:24.186     
------------------------------------------------------------------------
 total:
 * wall-time:     0 d,  0 h,  0 min,  0.284 sec
 *  cpu-time:     0 d,  0 h,  0 min,  0.284 sec
 * ratio c/w:     1.000 speedup
 SCF:
 * wall-time:     0 d,  0 h,  0 min,  0.251 sec
 *  cpu-time:     0 d,  0 h,  0 min,  0.251 sec
 * ratio c/w:     1.000 speedup

