      -----------------------------------------------------------      
     |                   =====================                   |     
     |                           x T B                           |     
     |                   =====================                   |     
     |                         S. Grimme                         |     
     |          Mulliken Center for Theoretical Chemistry        |     
     |                    University of Bonn                     |     
      -----------------------------------------------------------      

   * xtb version 6.4.1 (bd6e46d) compiled by 'conda@4901f00b25ba' on 2021-06-10

   xtb is free software: you can redistribute it and/or modify it under
   the terms of the GNU Lesser General Public License as published by
   the Free Software Foundation, either version 3 of the License, or
   (at your option) any later version.
   
   xtb is distributed in the hope that it will be useful,
   but WITHOUT ANY WARRANTY; without even the implied warranty of
   MERCHANTABILITY or FITNESS FOR A PARTICULAR PURPOSE.  See the
   GNU Lesser General Public License for more details.
   
   Cite this work as:
   * C. Bannwarth, E. Caldeweyher, S. Ehlert, A. Hansen, P. Pracht,
     J. Seibert, S. Spicher, S. Grimme, WIREs Comput. Mol. Sci., 2020, 11,
     e01493. DOI: 10.1002/wcms.1493
   
   for GFN2-xTB:
   * C. Bannwarth, S. Ehlert and S. Grimme., J. Chem. Theory Comput., 2019,
     15, 1652-1671. DOI: 10.1021/acs.jctc.8b01176
   for GFN1-xTB:
   * S. Grimme, C. Bannwarth, P. Shushkov, J. Chem. Theory Comput., 2017,
     13, 1989-2009. DOI: 10.1021/acs.jctc.7b00118
   for GFN0-xTB:
   * P. Pracht, E. Caldeweyher, S. Ehlert, S. Grimme, ChemRxiv, 2019, preprint.
     DOI: 10.26434/chemrxiv.8326202.v1
   for GFN-FF:
   * S. Spicher and S. Grimme, Angew. Chem. Int. Ed., 2020, 59, 15665-15673.
     DOI: 10.1002/anie.202004239
   
   for DFT-D4:
   * E. Caldeweyher, C. Bannwarth and S. Grimme, J. Chem. Phys., 2017,
     147, 034112. DOI: 10.1063/1.4993215
   * E. Caldeweyher, S. Ehlert, A. Hansen, H. Neugebauer, S. Spicher,
     C. Bannwarth and S. Grimme, J. Chem. Phys., 2019, 150, 154122.
     DOI: 10.1063/1.5090222
   * E. Caldeweyher, J.-M. Mewes, S. Ehlert and S. Grimme, Phys. Chem. Chem. Phys.
     2020, 22, 8499-8512. DOI: 10.1039/D0CP00502A
   
   for sTDA-xTB:
   * S. Grimme and C. Bannwarth, J. Chem. Phys., 2016, 145, 054103.
     DOI: 10.1063/1.4959605
   
   in the mass-spec context:
   * V. Asgeirsson, C. Bauer and S. Grimme, Chem. Sci., 2017, 8, 4879.
     DOI: 10.1039/c7sc00601b
   * J. Koopman and S. Grimme, ACS Omega 2019, 4, 12, 15120-15133.
     DOI: 10.1021/acsomega.9b02011
   
   for metadynamics refer to:
   * S. Grimme, J. Chem. Theory Comput., 2019, 155, 2847-2862
     DOI: 10.1021/acs.jctc.9b00143
   
   for SPH calculations refer to:
   * S. Spicher and S. Grimme, J. Chem. Theory Comput., 2021, 17, 1701-1714
     DOI: 10.1021/acs.jctc.0c01306
   
   with help from (in alphabetical order)
   P. Atkinson, C. Bannwarth, F. Bohle, G. Brandenburg, E. Caldeweyher
   M. Checinski, S. Dohm, S. Ehlert, S. Ehrlich, I. Gerasimov, J. Koopman
   C. Lavigne, S. Lehtola, F. März, M. Müller, F. Musil, H. Neugebauer
   J. Pisarek, C. Plett, P. Pracht, J. Seibert, P. Shushkov, S. Spicher
   M. Stahn, M. Steiner, T. Strunk, J. Stückrath, T. Rose, and J. Unsleber
   
 * started run on 2021/11/21 at 19:21:51.448     

           -------------------------------------------------
          |                Calculation Setup                |
           -------------------------------------------------

          program call               : /home/jeff/miniconda3/bin/xtb /home/jeff/chem/final-year-proejct/Co+2_2_8_outenergy/input_structure.xyz --gfn 2 --parallel 1 --etemp 300 --chrg 0 --uhf 0 -I det_control.in
          coordinate file            : /home/jeff/chem/final-year-proejct/Co+2_2_8_outenergy/input_structure.xyz
          omp threads                :                     1
          number of atoms            :                   296
          number of electrons        :                  1010
          charge                     :                     0
          spin                       :                   0.0
          first test random number   :      0.42263762515644

   ID    Z sym.   atoms
    1   27 Co     1, 37, 87, 122, 157, 192, 227, 262
    2    6 C      2-9, 11-15, 17-21, 23, 24, 38-45, 47-51, 53-57, 59, 60,
                  73-86, 88-95, 97-101, 103-107, 109, 110, 123-130, 132-136,
                  138-142, 144, 145, 158-165, 167-171, 173-177, 179, 180,
                  193-200, 202-206, 208-212, 214, 215, 228-235, 237-241,
                  243-247, 249, 250, 263-270, 272-276, 278-282, 284, 285
    3    7 N      10, 16, 22, 25, 46, 52, 58, 61, 96, 102, 108, 111, 131,
                  137, 143, 146, 166, 172, 178, 181, 201, 207, 213, 216, 236,
                  242, 248, 251, 271, 277, 283, 286
    4    1 H      26-36, 62-72, 112-121, 147-156, 182-191, 217-226, 252-261,
                  287-296

           -------------------------------------------------
          |                 G F N 2 - x T B                 |
           -------------------------------------------------

        Reference                      10.1021/acs.jctc.8b01176
      * Hamiltonian:
        H0-scaling (s, p, d)           1.850000    2.230000    2.230000
        zeta-weighting                 0.500000
      * Dispersion:
        s8                             2.700000
        a1                             0.520000
        a2                             5.000000
        s9                             5.000000
      * Repulsion:
        kExp                           1.500000    1.000000
        rExp                           1.000000
      * Coulomb:
        alpha                          2.000000
        third order                    shell-resolved
        anisotropic                    true
        a3                             3.000000
        a5                             4.000000
        cn-shift                       1.200000
        cn-exp                         4.000000
        max-rad                        5.000000


          ...................................................
          :                      SETUP                      :
          :.................................................:
          :  # basis functions                 986          :
          :  # atomic orbitals                 978          :
          :  # shells                          518          :
          :  # electrons                      1010          :
          :  max. iterations                   250          :
          :  Hamiltonian                  GFN2-xTB          :
          :  restarted?                      false          :
          :  GBSA solvation                  false          :
          :  PC potential                    false          :
          :  electronic temp.          300.0000000     K    :
          :  accuracy                    1.0000000          :
          :  -> integral cutoff          0.2500000E+02      :
          :  -> integral neglect         0.1000000E-07      :
          :  -> SCF convergence          0.1000000E-05 Eh   :
          :  -> wf. convergence          0.1000000E-03 e    :
          :  Broyden damping             0.4000000          :
          ...................................................

 iter      E             dE          RMSdq      gap      omega  full diag
   1   -544.8545594 -0.544855E+03  0.685E+00    0.14       0.0  T
   2   -520.2550352  0.245995E+02  0.865E+00    0.00       1.0  T
   3   -523.5572049 -0.330217E+01  0.617E+00    0.01       1.0  T
   4   -495.9914569  0.275657E+02  0.602E+00    0.01       1.0  T
   5   -273.8989221  0.222093E+03  0.949E+00    0.01       1.0  T
   6   -341.0628737 -0.671640E+02  0.917E+00    0.00       1.0  T
   7   -521.6628925 -0.180600E+03  0.596E+00    0.05       1.0  T
   8   -540.0093822 -0.183465E+02  0.381E+00    0.05       1.0  T
   9   -527.0552454  0.129541E+02  0.507E+00    0.11       1.0  T
  10   -543.9148187 -0.168596E+02  0.297E+00    0.03       1.0  T
  11   -535.5338536  0.838097E+01  0.485E+00    0.08       1.0  T
  12   -543.7937278 -0.825987E+01  0.285E+00    0.01       1.0  T
  13   -536.3928947  0.740083E+01  0.463E+00    0.08       1.0  T
  14   -535.3947580  0.998137E+00  0.459E+00    0.00       1.0  T
  15   -535.8287455 -0.433987E+00  0.415E+00    0.02       1.0  T
  16   -536.8197465 -0.991001E+00  0.455E+00    0.02       1.0  T
  17   -538.0482130 -0.122847E+01  0.444E+00    0.10       1.0  T
  18   -536.0019820  0.204623E+01  0.464E+00    0.06       1.0  T
  19   -536.7656895 -0.763707E+00  0.465E+00    0.06       1.0  T
  20   -534.8646378  0.190105E+01  0.473E+00    0.01       1.0  T
  21   -534.2899438  0.574694E+00  0.476E+00    0.01       1.0  T
  22   -537.4017349 -0.311179E+01  0.470E+00    0.15       1.0  T
  23   -536.6499770  0.751758E+00  0.486E+00    0.03       1.0  T
  24   -536.5577576  0.922193E-01  0.476E+00    0.06       1.0  T
  25   -533.1284298  0.342933E+01  0.570E+00    0.07       1.0  T
  26   -536.7123322 -0.358390E+01  0.489E+00    0.03       1.0  T
  27   -537.2451232 -0.532791E+00  0.479E+00    0.10       1.0  T
  28   -536.4832770  0.761846E+00  0.494E+00    0.01       1.0  T
  29   -537.0322628 -0.548986E+00  0.482E+00    0.05       1.0  T
  30   -536.8279541  0.204309E+00  0.479E+00    0.04       1.0  T
  31   -536.9525180 -0.124564E+00  0.477E+00    0.04       1.0  T
  32   -536.9275130  0.250050E-01  0.480E+00    0.00       1.0  T
  33   -537.5831840 -0.655671E+00  0.472E+00    0.01       1.0  T
  34   -536.3813062  0.120188E+01  0.501E+00    0.01       1.0  T
  35   -536.7041709 -0.322865E+00  0.496E+00    0.02       1.0  T
  36   -536.3671409  0.337030E+00  0.500E+00    0.02       1.0  T
  37   -536.4039764 -0.368355E-01  0.500E+00    0.01       1.0  T
  38   -538.3559574 -0.195198E+01  0.462E+00    0.10       1.0  T
  39   -538.5591096 -0.203152E+00  0.457E+00    0.09       1.0  T
  40   -538.9853317 -0.426222E+00  0.445E+00    0.05       1.0  T
  41   -541.6386765 -0.265334E+01  0.379E+00    0.01       1.0  T
  42   -542.5114403 -0.872764E+00  0.352E+00    0.02       1.0  T
  43   -540.1317144  0.237973E+01  0.412E+00    0.04       1.0  T
  44   -543.5963895 -0.346468E+01  0.295E+00    0.02       1.0  T
  45   -541.6044706  0.199192E+01  0.371E+00    0.01       1.0  T
  46   -542.5232427 -0.918772E+00  0.343E+00    0.01       1.0  T
  47   -544.7485475 -0.222530E+01  0.264E+00    0.02       1.0  T
  48   -544.8965182 -0.147971E+00  0.259E+00    0.02       1.0  T
  49   -545.1110278 -0.214510E+00  0.239E+00    0.01       1.0  T
  50   -544.3044955  0.806532E+00  0.271E+00    0.01       1.0  T
  51   -539.9649475  0.433955E+01  0.399E+00    0.06       1.0  T
  52   -542.8172180 -0.285227E+01  0.314E+00    0.02       1.0  T
  53   -543.5398385 -0.722620E+00  0.282E+00    0.00       1.0  T
  54   -544.9941121 -0.145427E+01  0.240E+00    0.01       1.0  T
  55   -544.9054107  0.887014E-01  0.238E+00    0.01       1.0  T
  56   -545.4064998 -0.501089E+00  0.217E+00    0.02       1.0  T
  57   -545.3009945  0.105505E+00  0.220E+00    0.03       1.0  T
  58   -545.2070869  0.939076E-01  0.221E+00    0.02       1.0  T
  59   -544.8772793  0.329808E+00  0.234E+00    0.01       1.0  T
  60   -544.8788644 -0.158511E-02  0.234E+00    0.01       1.0  T
  61   -543.8257405  0.105312E+01  0.267E+00    0.01       1.0  T
  62   -544.3225298 -0.496789E+00  0.250E+00    0.01       1.0  T
  63   -544.0496333  0.272896E+00  0.259E+00    0.02       1.0  T
  64   -544.3189618 -0.269328E+00  0.248E+00    0.02       1.0  T
  65   -544.9699830 -0.651021E+00  0.222E+00    0.02       1.0  T
  66   -544.8247333  0.145250E+00  0.228E+00    0.02       1.0  T
  67   -543.9090198  0.915714E+00  0.263E+00    0.00       1.0  T
  68   -544.2235838 -0.314564E+00  0.251E+00    0.01       1.0  T
  69   -544.4951586 -0.271575E+00  0.240E+00    0.02       1.0  T
  70   -544.4599823  0.351763E-01  0.242E+00    0.02       1.0  T
  71   -545.2362769 -0.776295E+00  0.209E+00    0.01       1.0  T
  72   -544.7810797  0.455197E+00  0.227E+00    0.02       1.0  T
  73   -545.5961089 -0.815029E+00  0.185E+00    0.01       1.0  T
  74   -544.5022607  0.109385E+01  0.237E+00    0.01       1.0  T
  75   -540.9804997  0.352176E+01  0.358E+00    0.05       1.0  T
  76   -539.9748118  0.100569E+01  0.386E+00    0.09       1.0  T
  77   -544.7325008 -0.475769E+01  0.230E+00    0.02       1.0  T
  78   -543.7645701  0.967931E+00  0.265E+00    0.00       1.0  T
  79   -544.6094033 -0.844833E+00  0.244E+00    0.01       1.0  T
  80   -544.7821348 -0.172731E+00  0.239E+00    0.00       1.0  T
  81   -545.2435511 -0.461416E+00  0.221E+00    0.02       1.0  T
  82   -545.2666515 -0.231004E-01  0.220E+00    0.02       1.0  T
  83   -545.2578503  0.880124E-02  0.221E+00    0.02       1.0  T
  84   -545.5385104 -0.280660E+00  0.199E+00    0.02       1.0  T
  85   -544.1926047  0.134591E+01  0.263E+00    0.00       1.0  T
  86   -545.0363087 -0.843704E+00  0.217E+00    0.01       1.0  T
  87   -545.1350385 -0.987297E-01  0.221E+00    0.02       1.0  T
  88   -545.8947902 -0.759752E+00  0.177E+00    0.01       1.0  T
  89   -545.0713797  0.823411E+00  0.222E+00    0.01       1.0  T
  90   -546.2673071 -0.119593E+01  0.156E+00    0.00       1.0  T
  91   -545.6107314  0.656576E+00  0.192E+00    0.01       1.0  T
  92   -545.8497854 -0.239054E+00  0.177E+00    0.02       1.0  T
  93   -546.3857188 -0.535933E+00  0.140E+00    0.00       1.0  T
  94   -545.8810035  0.504715E+00  0.177E+00    0.01       1.0  T
  95   -546.2181554 -0.337152E+00  0.150E+00    0.01       1.0  T
  96   -546.4606733 -0.242518E+00  0.137E+00    0.00       1.0  T
  97   -546.3311800  0.129493E+00  0.146E+00    0.01       1.0  T
  98   -546.3064449  0.247351E-01  0.147E+00    0.01       1.0  T
  99   -546.3774433 -0.709984E-01  0.141E+00    0.01       1.0  T
 100   -546.4543015 -0.768582E-01  0.136E+00    0.01       1.0  T
 101   -546.4269035  0.273980E-01  0.139E+00    0.01       1.0  T
 102   -546.3352020  0.917015E-01  0.146E+00    0.01       1.0  T
 103   -546.2761415  0.590605E-01  0.150E+00    0.01       1.0  T
 104   -546.3089331 -0.327916E-01  0.148E+00    0.01       1.0  T
 105   -546.3311664 -0.222333E-01  0.146E+00    0.01       1.0  T
 106   -546.2755240  0.556424E-01  0.149E+00    0.01       1.0  T
 107   -546.3130846 -0.375605E-01  0.144E+00    0.00       1.0  T
 108   -546.3624538 -0.493693E-01  0.140E+00    0.00       1.0  T
 109   -546.2913607  0.710931E-01  0.144E+00    0.00       1.0  T
 110   -546.6780909 -0.386730E+00  0.111E+00    0.01       1.0  T
 111   -546.3839486  0.294142E+00  0.126E+00    0.01       1.0  T
 112   -546.4847245 -0.100776E+00  0.117E+00    0.01       1.0  T
 113   -546.5219613 -0.372368E-01  0.114E+00    0.01       1.0  T
 114   -546.4067467  0.115215E+00  0.122E+00    0.03       1.0  T
 115   -546.6220065 -0.215260E+00  0.109E+00    0.02       1.0  T
 116   -546.6374675 -0.154610E-01  0.106E+00    0.01       1.0  T
 117   -546.6041924  0.332751E-01  0.107E+00    0.01       1.0  T
 118   -546.6636096 -0.594172E-01  0.100E+00    0.01       1.0  T
 119   -546.6970346 -0.334249E-01  0.953E-01    0.01       1.0  T
 120   -546.7173232 -0.202887E-01  0.921E-01    0.01       1.0  T
 121   -546.7102462  0.707702E-02  0.919E-01    0.01       1.0  T
 122   -546.7000565  0.101897E-01  0.923E-01    0.01       1.0  T
 123   -546.7066545 -0.659798E-02  0.900E-01    0.01       1.0  T
 124   -546.7298520 -0.231975E-01  0.863E-01    0.00       1.0  T
 125   -546.7712381 -0.413862E-01  0.797E-01    0.00       1.0  T
 126   -546.7669128  0.432536E-02  0.775E-01    0.00       1.0  T
 127   -546.7746677 -0.775487E-02  0.735E-01    0.00       1.0  T
 128   -546.8492514 -0.745837E-01  0.621E-01    0.00       1.0  T
 129   -546.8879142 -0.386628E-01  0.549E-01    0.00       1.0  T
 130   -546.9098991 -0.219850E-01  0.497E-01    0.00       1.0  T
 131   -546.9475002 -0.376010E-01  0.435E-01    0.00       1.0  T
 132   -546.9386295  0.887061E-02  0.444E-01    0.00       1.0  T
 133   -546.9434099 -0.478037E-02  0.419E-01    0.00       1.0  T
 134   -546.9401987  0.321119E-02  0.420E-01    0.00       1.0  T
 135   -546.9191091  0.210896E-01  0.443E-01    0.00       1.0  T
 136   -546.9380278 -0.189187E-01  0.403E-01    0.00       1.0  T
 137   -546.9218840  0.161438E-01  0.435E-01    0.00       1.0  T
 138   -546.9342674 -0.123834E-01  0.402E-01    0.00       1.0  T
 139   -546.9446570 -0.103895E-01  0.382E-01    0.00       1.0  T
 140   -546.9506416 -0.598461E-02  0.360E-01    0.00       1.0  T
 141   -546.9740372 -0.233956E-01  0.297E-01    0.00       1.0  T
 142   -546.9798572 -0.582007E-02  0.274E-01    0.01       1.0  T
 143   -546.9803591 -0.501880E-03  0.264E-01    0.01       1.0  T
 144   -546.9840404 -0.368133E-02  0.245E-01    0.01       1.0  T
 145   -546.9810932  0.294729E-02  0.244E-01    0.01       1.0  T
 146   -546.9876824 -0.658927E-02  0.210E-01    0.00       1.0  T
 147   -546.9915075 -0.382503E-02  0.184E-01    0.00       1.0  T
 148   -546.9941584 -0.265098E-02  0.160E-01    0.00       1.0  T
 149   -546.9943613 -0.202906E-03  0.141E-01    0.00       1.0  T
 150   -546.9958389 -0.147750E-02  0.118E-01    0.00       1.0  T
 151   -546.9965141 -0.675240E-03  0.102E-01    0.00       1.0  T
 152   -546.9971060 -0.591926E-03  0.900E-02    0.00       1.0  T
 153   -546.9978394 -0.733349E-03  0.791E-02    0.00       1.0  T
 154   -546.9972858  0.553602E-03  0.811E-02    0.00       1.0  T
 155   -546.9968558  0.429955E-03  0.872E-02    0.00       1.0  T
 156   -546.9968360  0.198181E-04  0.831E-02    0.00       1.0  T
 157   -546.9961858  0.650155E-03  0.914E-02    0.00       1.0  T
 158   -546.9962903 -0.104501E-03  0.873E-02    0.00       1.0  T
 159   -546.9975620 -0.127171E-02  0.690E-02    0.00       1.0  T
 160   -546.9969253  0.636759E-03  0.782E-02    0.00       1.0  T
 161   -546.9981160 -0.119069E-02  0.570E-02    0.00       1.0  T
 162   -546.9983353 -0.219368E-03  0.552E-02    0.00       1.0  T
 163   -546.9979377  0.397620E-03  0.607E-02    0.00       1.0  T
 164   -546.9983456 -0.407881E-03  0.534E-02    0.00       1.0  T
 165   -546.9980993  0.246299E-03  0.581E-02    0.00       1.0  T
 166   -546.9982759 -0.176591E-03  0.539E-02    0.00       1.0  T
 167   -546.9986972 -0.421325E-03  0.462E-02    0.00       1.0  T
 168   -546.9988473 -0.150109E-03  0.427E-02    0.00       1.0  T
 169   -546.9990109 -0.163571E-03  0.384E-02    0.00       1.0  T
 170   -546.9991764 -0.165463E-03  0.335E-02    0.00       1.0  T
 171   -546.9991887 -0.123577E-04  0.329E-02    0.00       1.0  T
 172   -546.9992235 -0.348110E-04  0.315E-02    0.00       1.0  T
 173   -546.9992850 -0.614497E-04  0.290E-02    0.00       1.0  T
 174   -546.9992508  0.342265E-04  0.300E-02    0.00       1.0  T
 175   -546.9993710 -0.120276E-03  0.253E-02    0.00       1.0  T
 176   -546.9993883 -0.172252E-04  0.243E-02    0.00       1.0  T
 177   -546.9994847 -0.964513E-04  0.196E-02    0.00       1.0  T
 178   -546.9995265 -0.418117E-04  0.168E-02    0.00       1.0  T
 179   -546.9995500 -0.234569E-04  0.151E-02    0.00       1.0  T
 180   -546.9995836 -0.336345E-04  0.121E-02    0.00       1.0  T
 181   -546.9995921 -0.845428E-05  0.110E-02    0.00       1.0  T
 182   -546.9996156 -0.235708E-04  0.808E-03    0.00       1.0  T
 183   -546.9996165 -0.878936E-06  0.749E-03    0.00       1.0  T
 184   -546.9996269 -0.104136E-04  0.547E-03    0.00       1.1  T
 185   -546.9996269  0.457231E-07  0.507E-03    0.00       1.1  T
 186   -546.9996321 -0.521184E-05  0.327E-03    0.00       1.8  T
 187   -546.9996333 -0.119251E-05  0.258E-03    0.00       2.2  T
 188   -546.9996351 -0.185697E-05  0.133E-03    0.00       4.4  T
 189   -546.9996354 -0.280614E-06  0.101E-03    0.00       5.8  T
 190   -546.9996355 -0.414748E-07  0.933E-04    0.00       6.2  T
 191   -546.9996352  0.283775E-06  0.112E-03    0.00       5.2  T
 192   -546.9996351  0.555438E-07  0.115E-03    0.00       5.0  T
 193   -546.9996355 -0.330839E-06  0.851E-04    0.00       6.8  T

   *** convergence criteria satisfied after 193 iterations ***

         #    Occupation            Energy/Eh            Energy/eV
      -------------------------------------------------------------
         1        2.0000           -0.6709117             -18.2564
       ...           ...                  ...                  ...
       499        1.8311           -0.3448441              -9.3837
       500        1.8298           -0.3448360              -9.3835
       501        1.8180           -0.3447663              -9.3816
       502        1.4838           -0.3435830              -9.3494
       503        1.4667           -0.3435412              -9.3482
       504        1.4558           -0.3435149              -9.3475
       505        1.4159           -0.3434211              -9.3450 (HOMO)
       506        1.3734           -0.3433255              -9.3424 (LUMO)
       507        1.2969           -0.3431615              -9.3379
       508        0.9738           -0.3425301              -9.3207
       509        0.8118           -0.3422181              -9.3122
       510                         -0.3166212              -8.6157
       ...                                ...                  ...
       978                          1.4112384              38.4018
      -------------------------------------------------------------
                  HL-Gap            0.0000956 Eh            0.0026 eV
             Fermi-level           -0.3425799 Eh           -9.3221 eV

 SCC (total)                   0 d,  0 h,  1 min,  3.481 sec
 SCC setup                      ...        0 min,  0.016 sec (  0.025%)
 Dispersion                     ...        0 min,  0.032 sec (  0.051%)
 classical contributions        ...        0 min,  0.003 sec (  0.005%)
 integral evaluation            ...        0 min,  0.254 sec (  0.401%)
 iterations                     ...        1 min,  2.443 sec ( 98.366%)
 molecular gradient             ...        0 min,  0.688 sec (  1.084%)
 printout                       ...        0 min,  0.044 sec (  0.069%)

         :::::::::::::::::::::::::::::::::::::::::::::::::::::
         ::                     SUMMARY                     ::
         :::::::::::::::::::::::::::::::::::::::::::::::::::::
         :: total energy            -537.694387513732 Eh    ::
         :: gradient norm              0.000865134829 Eh/a0 ::
         :: HOMO-LUMO gap              0.002601330791 eV    ::
         ::.................................................::
         :: SCC energy              -546.999635461888 Eh    ::
         :: -> isotropic ES            0.127960214787 Eh    ::
         :: -> anisotropic ES          0.065493532995 Eh    ::
         :: -> anisotropic XC          0.272486570518 Eh    ::
         :: -> dispersion             -0.513992887215 Eh    ::
         :: repulsion energy           9.313682184147 Eh    ::
         :: add. restraining           0.000000000000 Eh    ::
         :: total charge               0.000000000019 e     ::
         :::::::::::::::::::::::::::::::::::::::::::::::::::::

           -------------------------------------------------
          |                Property Printout                |
           -------------------------------------------------

    * Orbital Energies and Occupations

         #    Occupation            Energy/Eh            Energy/eV
      -------------------------------------------------------------
         1        2.0000           -0.6709117             -18.2564
       ...           ...                  ...                  ...
       493        1.8860           -0.3452455              -9.3946
       494        1.8534           -0.3449901              -9.3877
       495        1.8521           -0.3449813              -9.3874
       496        1.8478           -0.3449515              -9.3866
       497        1.8425           -0.3449166              -9.3857
       498        1.8359           -0.3448743              -9.3845
       499        1.8311           -0.3448441              -9.3837
       500        1.8298           -0.3448360              -9.3835
       501        1.8180           -0.3447663              -9.3816
       502        1.4838           -0.3435830              -9.3494
       503        1.4667           -0.3435412              -9.3482
       504        1.4558           -0.3435149              -9.3475
       505        1.4159           -0.3434211              -9.3450 (HOMO)
       506        1.3734           -0.3433255              -9.3424 (LUMO)
       507        1.2969           -0.3431615              -9.3379
       508        0.9738           -0.3425301              -9.3207
       509        0.8118           -0.3422181              -9.3122
       510                         -0.3166212              -8.6157
       511                         -0.3142242              -8.5505
       512                         -0.3088194              -8.4034
       513                         -0.3040022              -8.2723
       514                         -0.2984451              -8.1211
       515                         -0.2977371              -8.1018
       516                         -0.2975599              -8.0970
       ...                                ...                  ...
       978                          1.4112384              38.4018
      -------------------------------------------------------------
                  HL-Gap            0.0000956 Eh            0.0026 eV
             Fermi-level           -0.3425799 Eh           -9.3221 eV

     #   Z          covCN         q      C6AA      α(0)
     1  27 Co       3.106     0.092   141.060    24.333
     2   6 C        3.023    -0.053    29.295     8.878
     3   6 C        3.022    -0.052    29.274     8.875
     4   6 C        3.186     0.072    25.946     8.311
     5   6 C        2.955     0.019    27.577     8.613
     6   6 C        3.185     0.072    25.950     8.313
     7   6 C        3.022    -0.052    29.257     8.872
     8   6 C        3.023    -0.053    29.295     8.878
     9   6 C        3.173     0.071    26.048     8.336
    10   7 N        2.645    -0.128    23.794     7.245
    11   6 C        2.904    -0.048    29.199     8.860
    12   6 C        3.170     0.072    26.036     8.336
    13   6 C        3.020    -0.053    29.279     8.876
    14   6 C        3.020    -0.053    29.280     8.876
    15   6 C        3.170     0.072    26.029     8.335
    16   7 N        2.646    -0.127    23.761     7.240
    17   6 C        2.904    -0.050    29.240     8.866
    18   6 C        3.170     0.072    26.029     8.335
    19   6 C        3.021    -0.053    29.280     8.876
    20   6 C        3.020    -0.053    29.279     8.876
    21   6 C        3.170     0.072    26.036     8.336
    22   7 N        2.646    -0.127    23.758     7.239
    23   6 C        2.904    -0.048    29.199     8.860
    24   6 C        3.173     0.071    26.048     8.336
    25   7 N        2.645    -0.128    23.790     7.244
    26   1 H        0.926     0.034     2.526     2.485
    27   1 H        0.926     0.035     2.512     2.479
    28   1 H        0.926     0.034     2.528     2.486
    29   1 H        0.926     0.034     2.527     2.486
    30   1 H        0.926     0.050     2.323     2.384
    31   1 H        0.926     0.034     2.525     2.485
    32   1 H        0.926     0.034     2.525     2.485
    33   1 H        0.926     0.049     2.330     2.387
    34   1 H        0.926     0.034     2.525     2.485
    35   1 H        0.926     0.034     2.525     2.485
    36   1 H        0.926     0.050     2.323     2.383
    37  27 Co       3.108     0.092   141.054    24.333
    38   6 C        3.023    -0.053    29.294     8.878
    39   6 C        3.021    -0.053    29.279     8.876
    40   6 C        3.187     0.072    25.947     8.311
    41   6 C        2.955     0.019    27.575     8.613
    42   6 C        3.185     0.072    25.953     8.313
    43   6 C        3.022    -0.051    29.248     8.871
    44   6 C        3.023    -0.053    29.295     8.878
    45   6 C        3.173     0.071    26.047     8.336
    46   7 N        2.646    -0.128    23.795     7.245
    47   6 C        2.904    -0.048    29.199     8.860
    48   6 C        3.169     0.072    26.038     8.337
    49   6 C        3.020    -0.053    29.279     8.876
    50   6 C        3.021    -0.053    29.280     8.876
    51   6 C        3.170     0.072    26.031     8.336
    52   7 N        2.647    -0.127    23.759     7.239
    53   6 C        2.904    -0.050    29.240     8.866
    54   6 C        3.170     0.072    26.031     8.335
    55   6 C        3.021    -0.053    29.281     8.876
    56   6 C        3.020    -0.053    29.279     8.876
    57   6 C        3.170     0.072    26.037     8.336
    58   7 N        2.647    -0.127    23.760     7.239
    59   6 C        2.904    -0.048    29.198     8.860
    60   6 C        3.173     0.071    26.050     8.337
    61   7 N        2.646    -0.128    23.789     7.244
    62   1 H        0.926     0.034     2.525     2.485
    63   1 H        0.926     0.036     2.506     2.476
    64   1 H        0.926     0.034     2.535     2.490
    65   1 H        0.926     0.034     2.526     2.486
    66   1 H        0.926     0.050     2.323     2.384
    67   1 H        0.926     0.034     2.525     2.485
    68   1 H        0.926     0.034     2.525     2.485
    69   1 H        0.926     0.049     2.330     2.387
    70   1 H        0.926     0.034     2.525     2.485
    71   1 H        0.926     0.034     2.525     2.485
    72   1 H        0.926     0.050     2.323     2.383
    73   6 C        1.989    -0.027    31.765     9.102
    74   6 C        1.988    -0.029    31.818     9.109
    75   6 C        1.988    -0.027    31.771     9.103
    76   6 C        1.988    -0.028    31.783     9.104
    77   6 C        1.988    -0.028    31.807     9.108
    78   6 C        1.989    -0.027    31.760     9.101
    79   6 C        1.989    -0.029    31.822     9.110
    80   6 C        1.990    -0.027    31.778     9.104
    81   6 C        1.990    -0.027    31.770     9.103
    82   6 C        1.989    -0.029    31.828     9.111
    83   6 C        1.989    -0.027    31.775     9.103
    84   6 C        1.988    -0.028    31.796     9.106
    85   6 C        1.988    -0.029    31.816     9.109
    86   6 C        1.989    -0.027    31.770     9.103
    87  27 Co       3.126     0.090   141.090    24.336
    88   6 C        3.023    -0.053    29.298     8.879
    89   6 C        3.022    -0.052    29.273     8.875
    90   6 C        3.184     0.072    25.971     8.317
    91   6 C        2.955     0.022    27.525     8.605
    92   6 C        3.183     0.072    25.975     8.318
    93   6 C        3.022    -0.052    29.255     8.872
    94   6 C        3.023    -0.053    29.299     8.879
    95   6 C        3.171     0.070    26.074     8.342
    96   7 N        2.652    -0.127    23.770     7.241
    97   6 C        2.903    -0.045    29.116     8.848
    98   6 C        3.171     0.070    26.077     8.342
    99   6 C        3.023    -0.053    29.294     8.878
   100   6 C        3.022    -0.052    29.276     8.875
   101   6 C        3.184     0.072    25.964     8.316
   102   7 N        2.652    -0.127    23.772     7.241
   103   6 C        2.955     0.021    27.549     8.609
   104   6 C        3.183     0.072    25.966     8.317
   105   6 C        3.022    -0.052    29.264     8.874
   106   6 C        3.023    -0.053    29.294     8.878
   107   6 C        3.171     0.070    26.077     8.342
   108   7 N        2.652    -0.128    23.776     7.242
   109   6 C        2.903    -0.045    29.116     8.848
   110   6 C        3.171     0.070    26.076     8.342
   111   7 N        2.652    -0.127    23.766     7.240
   112   1 H        0.926     0.034     2.525     2.485
   113   1 H        0.926     0.035     2.512     2.478
   114   1 H        0.926     0.034     2.527     2.486
   115   1 H        0.926     0.034     2.526     2.485
   116   1 H        0.926     0.051     2.311     2.378
   117   1 H        0.926     0.034     2.524     2.485
   118   1 H        0.926     0.035     2.515     2.480
   119   1 H        0.926     0.034     2.526     2.485
   120   1 H        0.926     0.034     2.525     2.485
   121   1 H        0.926     0.051     2.312     2.378
   122  27 Co       3.131     0.090   141.093    24.336
   123   6 C        3.023    -0.053    29.295     8.878
   124   6 C        3.022    -0.052    29.262     8.873
   125   6 C        3.182     0.072    25.972     8.318
   126   6 C        2.955     0.021    27.538     8.607
   127   6 C        3.183     0.072    25.967     8.317
   128   6 C        3.022    -0.052    29.276     8.875
   129   6 C        3.023    -0.053    29.295     8.878
   130   6 C        3.170     0.070    26.082     8.343
   131   7 N        2.653    -0.127    23.767     7.241
   132   6 C        2.903    -0.045    29.109     8.846
   133   6 C        3.170     0.070    26.081     8.343
   134   6 C        3.022    -0.053    29.297     8.879
   135   6 C        3.022    -0.052    29.258     8.873
   136   6 C        3.182     0.072    25.977     8.319
   137   7 N        2.653    -0.127    23.767     7.240
   138   6 C        2.955     0.021    27.527     8.605
   139   6 C        3.183     0.072    25.975     8.318
   140   6 C        3.022    -0.052    29.273     8.875
   141   6 C        3.023    -0.053    29.296     8.878
   142   6 C        3.170     0.070    26.083     8.344
   143   7 N        2.654    -0.127    23.763     7.240
   144   6 C        2.903    -0.045    29.109     8.846
   145   6 C        3.170     0.070    26.082     8.343
   146   7 N        2.653    -0.127    23.770     7.241
   147   1 H        0.926     0.034     2.525     2.485
   148   1 H        0.926     0.034     2.528     2.486
   149   1 H        0.926     0.035     2.517     2.481
   150   1 H        0.926     0.034     2.524     2.484
   151   1 H        0.926     0.051     2.310     2.377
   152   1 H        0.926     0.034     2.524     2.485
   153   1 H        0.926     0.034     2.528     2.486
   154   1 H        0.926     0.035     2.514     2.480
   155   1 H        0.926     0.034     2.524     2.484
   156   1 H        0.926     0.051     2.310     2.377
   157  27 Co       3.101     0.091   141.078    24.335
   158   6 C        3.023    -0.053    29.292     8.878
   159   6 C        3.023    -0.052    29.277     8.876
   160   6 C        3.188     0.072    25.927     8.307
   161   6 C        2.956     0.020    27.571     8.612
   162   6 C        3.187     0.072    25.936     8.309
   163   6 C        3.023    -0.052    29.261     8.873
   164   6 C        3.023    -0.053    29.294     8.878
   165   6 C        3.175     0.070    26.045     8.334
   166   7 N        2.644    -0.129    23.799     7.245
   167   6 C        2.904    -0.046    29.145     8.852
   168   6 C        3.175     0.071    26.039     8.334
   169   6 C        3.023    -0.053    29.296     8.878
   170   6 C        3.022    -0.052    29.260     8.873
   171   6 C        3.187     0.072    25.951     8.311
   172   7 N        2.644    -0.128    23.786     7.243
   173   6 C        2.956     0.021    27.547     8.609
   174   6 C        3.188     0.072    25.948     8.311
   175   6 C        3.022    -0.052    29.265     8.874
   176   6 C        3.023    -0.053    29.300     8.879
   177   6 C        3.175     0.071    26.035     8.333
   178   7 N        2.644    -0.128    23.791     7.244
   179   6 C        2.904    -0.046    29.144     8.852
   180   6 C        3.176     0.071    26.040     8.333
   181   7 N        2.644    -0.129    23.798     7.245
   182   1 H        0.926     0.034     2.526     2.485
   183   1 H        0.926     0.035     2.514     2.480
   184   1 H        0.926     0.034     2.529     2.487
   185   1 H        0.926     0.034     2.527     2.486
   186   1 H        0.926     0.050     2.314     2.379
   187   1 H        0.926     0.034     2.527     2.486
   188   1 H        0.926     0.035     2.513     2.479
   189   1 H        0.926     0.036     2.506     2.476
   190   1 H        0.926     0.034     2.528     2.487
   191   1 H        0.926     0.050     2.314     2.379
   192  27 Co       3.059     0.091   141.078    24.335
   193   6 C        3.024    -0.053    29.295     8.878
   194   6 C        3.023    -0.052    29.273     8.875
   195   6 C        3.195     0.072    25.891     8.296
   196   6 C        2.956     0.019    27.589     8.615
   197   6 C        3.194     0.072    25.895     8.298
   198   6 C        3.022    -0.052    29.257     8.873
   199   6 C        3.024    -0.053    29.294     8.878
   200   6 C        3.180     0.071    25.996     8.323
   201   7 N        2.632    -0.130    23.829     7.250
   202   6 C        2.905    -0.048    29.182     8.858
   203   6 C        3.180     0.071    25.998     8.324
   204   6 C        3.024    -0.053    29.292     8.878
   205   6 C        3.022    -0.052    29.267     8.874
   206   6 C        3.194     0.072    25.894     8.297
   207   7 N        2.632    -0.130    23.826     7.249
   208   6 C        2.956     0.019    27.592     8.616
   209   6 C        3.194     0.072    25.896     8.298
   210   6 C        3.024    -0.052    29.256     8.872
   211   6 C        3.024    -0.053    29.297     8.878
   212   6 C        3.183     0.071    25.987     8.320
   213   7 N        2.632    -0.130    23.824     7.249
   214   6 C        2.905    -0.048    29.180     8.857
   215   6 C        3.182     0.071    25.989     8.321
   216   7 N        2.633    -0.129    23.819     7.248
   217   1 H        0.926     0.034     2.530     2.488
   218   1 H        0.926     0.035     2.517     2.481
   219   1 H        0.926     0.035     2.517     2.481
   220   1 H        0.926     0.034     2.532     2.488
   221   1 H        0.926     0.050     2.320     2.382
   222   1 H        0.926     0.034     2.531     2.488
   223   1 H        0.926     0.035     2.511     2.478
   224   1 H        0.926     0.034     2.531     2.488
   225   1 H        0.926     0.034     2.532     2.488
   226   1 H        0.926     0.050     2.319     2.382
   227  27 Co       3.113     0.092   141.065    24.334
   228   6 C        3.023    -0.053    29.300     8.879
   229   6 C        3.023    -0.052    29.253     8.872
   230   6 C        3.184     0.072    25.968     8.316
   231   6 C        2.955     0.021    27.541     8.608
   232   6 C        3.186     0.071    25.965     8.315
   233   6 C        3.021    -0.052    29.266     8.874
   234   6 C        3.023    -0.053    29.295     8.878
   235   6 C        3.172     0.071    26.056     8.338
   236   7 N        2.648    -0.128    23.779     7.242
   237   6 C        2.904    -0.046    29.137     8.851
   238   6 C        3.173     0.070    26.058     8.338
   239   6 C        3.023    -0.053    29.294     8.878
   240   6 C        3.022    -0.051    29.249     8.871
   241   6 C        3.184     0.072    25.954     8.314
   242   7 N        2.648    -0.128    23.796     7.245
   243   6 C        2.955     0.020    27.561     8.611
   244   6 C        3.187     0.072    25.939     8.309
   245   6 C        3.022    -0.053    29.283     8.876
   246   6 C        3.023    -0.053    29.292     8.878
   247   6 C        3.174     0.070    26.053     8.336
   248   7 N        2.648    -0.128    23.792     7.244
   249   6 C        2.904    -0.046    29.136     8.851
   250   6 C        3.174     0.071    26.048     8.336
   251   7 N        2.648    -0.128    23.785     7.243
   252   1 H        0.926     0.034     2.528     2.486
   253   1 H        0.926     0.035     2.519     2.482
   254   1 H        0.926     0.036     2.508     2.477
   255   1 H        0.926     0.034     2.526     2.485
   256   1 H        0.926     0.050     2.314     2.379
   257   1 H        0.926     0.034     2.527     2.486
   258   1 H        0.926     0.034     2.537     2.491
   259   1 H        0.926     0.036     2.507     2.476
   260   1 H        0.926     0.034     2.524     2.484
   261   1 H        0.926     0.051     2.313     2.378
   262  27 Co       3.128     0.092   141.067    24.334
   263   6 C        3.023    -0.053    29.295     8.878
   264   6 C        3.021    -0.053    29.280     8.876
   265   6 C        3.184     0.072    25.969     8.317
   266   6 C        2.955     0.021    27.541     8.608
   267   6 C        3.182     0.072    25.972     8.318
   268   6 C        3.022    -0.051    29.249     8.871
   269   6 C        3.023    -0.053    29.296     8.878
   270   6 C        3.171     0.070    26.076     8.342
   271   7 N        2.652    -0.128    23.780     7.242
   272   6 C        2.903    -0.045    29.120     8.848
   273   6 C        3.170     0.070    26.079     8.343
   274   6 C        3.023    -0.053    29.297     8.879
   275   6 C        3.021    -0.052    29.278     8.876
   276   6 C        3.184     0.072    25.973     8.317
   277   7 N        2.653    -0.127    23.771     7.241
   278   6 C        2.955     0.021    27.531     8.606
   279   6 C        3.182     0.072    25.976     8.319
   280   6 C        3.022    -0.051    29.248     8.871
   281   6 C        3.023    -0.053    29.297     8.879
   282   6 C        3.171     0.070    26.075     8.342
   283   7 N        2.653    -0.128    23.777     7.242
   284   6 C        2.903    -0.045    29.120     8.848
   285   6 C        3.170     0.070    26.080     8.343
   286   7 N        2.653    -0.127    23.774     7.242
   287   1 H        0.926     0.034     2.524     2.484
   288   1 H        0.926     0.036     2.507     2.476
   289   1 H        0.926     0.034     2.537     2.491
   290   1 H        0.926     0.034     2.525     2.485
   291   1 H        0.926     0.051     2.312     2.378
   292   1 H        0.926     0.034     2.525     2.485
   293   1 H        0.926     0.036     2.506     2.476
   294   1 H        0.926     0.034     2.534     2.490
   295   1 H        0.926     0.034     2.526     2.485
   296   1 H        0.926     0.051     2.312     2.378

 Mol. C6AA /au·bohr⁶  :    1690271.839369
 Mol. C8AA /au·bohr⁸  :   49218889.237318
 Mol. α(0) /au        :       2136.581478


Wiberg/Mayer (AO) data.
largest (>0.10) Wiberg bond orders for each atom

 ---------------------------------------------------------------------------
     #   Z sym  total        # sym  WBO       # sym  WBO       # sym  WBO
 ---------------------------------------------------------------------------
     1  27 Co   3.399 --    22 N    0.727    16 N    0.727    25 N    0.722
                            10 N    0.722
     2   6 C    3.953 --     3 C    1.639    24 C    1.174    26 H    0.972
     3   6 C    3.958 --     2 C    1.639     4 C    1.184    27 H    0.968
     4   6 C    3.921 --    25 N    1.266     5 C    1.249     3 C    1.184
     5   6 C    3.942 --     6 C    1.251     4 C    1.249    73 C    1.184
     6   6 C    3.921 --    10 N    1.266     5 C    1.251     7 C    1.184
     7   6 C    3.958 --     8 C    1.639     6 C    1.184    28 H    0.968
     8   6 C    3.953 --     7 C    1.639     9 C    1.174    29 H    0.972
     9   6 C    3.931 --    11 C    1.359    10 N    1.225     8 C    1.174
    10   7 N    3.512 --     6 C    1.266     9 C    1.225     1 Co   0.722
    11   6 C    3.934 --     9 C    1.359    12 C    1.353    30 H    0.964
    12   6 C    3.936 --    11 C    1.353    16 N    1.239    13 C    1.166
    13   6 C    3.958 --    14 C    1.656    12 C    1.166    31 H    0.972
    14   6 C    3.956 --    13 C    1.656    15 C    1.166    32 H    0.972
    15   6 C    3.938 --    17 C    1.355    16 N    1.241    14 C    1.166
    16   7 N    3.509 --    15 C    1.241    12 C    1.239     1 Co   0.727
    17   6 C    3.930 --    18 C    1.355    15 C    1.355    33 H    0.964
    18   6 C    3.938 --    17 C    1.355    22 N    1.241    19 C    1.166
    19   6 C    3.956 --    20 C    1.656    18 C    1.166    34 H    0.972
    20   6 C    3.958 --    19 C    1.656    21 C    1.167    35 H    0.972
    21   6 C    3.936 --    23 C    1.353    22 N    1.240    20 C    1.167
    22   7 N    3.509 --    18 C    1.241    21 C    1.240     1 Co   0.727
    23   6 C    3.934 --    24 C    1.360    21 C    1.353    36 H    0.964
    24   6 C    3.931 --    23 C    1.360    25 N    1.224     2 C    1.174
    25   7 N    3.512 --     4 C    1.266    24 C    1.224     1 Co   0.722
    26   1 H    0.998 --     2 C    0.972
    27   1 H    0.998 --     3 C    0.968
    28   1 H    0.998 --     7 C    0.968
    29   1 H    0.998 --     8 C    0.972
    30   1 H    0.996 --    11 C    0.964
    31   1 H    0.998 --    13 C    0.972
    32   1 H    0.998 --    14 C    0.972
    33   1 H    0.996 --    17 C    0.964
    34   1 H    0.998 --    19 C    0.972
    35   1 H    0.998 --    20 C    0.972
    36   1 H    0.996 --    23 C    0.964
    37  27 Co   3.402 --    52 N    0.727    58 N    0.727    61 N    0.722
                            46 N    0.722
    38   6 C    3.953 --    39 C    1.640    60 C    1.174    62 H    0.972
    39   6 C    3.958 --    38 C    1.640    40 C    1.183    63 H    0.968
    40   6 C    3.921 --    61 N    1.266    41 C    1.250    39 C    1.183
    41   6 C    3.942 --    42 C    1.251    40 C    1.250    86 C    1.183
    42   6 C    3.921 --    46 N    1.266    41 C    1.251    43 C    1.184
    43   6 C    3.958 --    44 C    1.639    42 C    1.184    64 H    0.967
    44   6 C    3.953 --    43 C    1.639    45 C    1.174    65 H    0.972
    45   6 C    3.931 --    47 C    1.359    46 N    1.225    44 C    1.174
    46   7 N    3.512 --    42 C    1.266    45 C    1.225    37 Co   0.722
    47   6 C    3.934 --    45 C    1.359    48 C    1.353    66 H    0.964
    48   6 C    3.936 --    47 C    1.353    52 N    1.240    49 C    1.167
    49   6 C    3.958 --    50 C    1.656    48 C    1.167    67 H    0.972
    50   6 C    3.956 --    49 C    1.656    51 C    1.166    68 H    0.972
    51   6 C    3.938 --    53 C    1.355    52 N    1.241    50 C    1.166
    52   7 N    3.509 --    51 C    1.241    48 C    1.240    37 Co   0.727
    53   6 C    3.930 --    51 C    1.355    54 C    1.354    69 H    0.964
    54   6 C    3.938 --    53 C    1.354    58 N    1.241    55 C    1.166
    55   6 C    3.956 --    56 C    1.656    54 C    1.166    70 H    0.972
    56   6 C    3.958 --    55 C    1.656    57 C    1.167    71 H    0.972
    57   6 C    3.936 --    59 C    1.353    58 N    1.239    56 C    1.167
    58   7 N    3.509 --    54 C    1.241    57 C    1.239    37 Co   0.727
    59   6 C    3.934 --    60 C    1.359    57 C    1.353    72 H    0.964
    60   6 C    3.931 --    59 C    1.359    61 N    1.224    38 C    1.174
    61   7 N    3.512 --    40 C    1.266    60 C    1.224    37 Co   0.722
    62   1 H    0.998 --    38 C    0.972
    63   1 H    0.998 --    39 C    0.968
    64   1 H    0.998 --    43 C    0.967
    65   1 H    0.998 --    44 C    0.972
    66   1 H    0.996 --    47 C    0.964
    67   1 H    0.998 --    49 C    0.972
    68   1 H    0.998 --    50 C    0.972
    69   1 H    0.996 --    53 C    0.964
    70   1 H    0.998 --    55 C    0.972
    71   1 H    0.998 --    56 C    0.972
    72   1 H    0.996 --    59 C    0.964
    73   6 C    3.923 --    74 C    2.561     5 C    1.184
    74   6 C    3.928 --    73 C    2.561    91 C    1.188
    75   6 C    3.923 --    76 C    2.551   103 C    1.193
    76   6 C    3.923 --    75 C    2.551   126 C    1.194
    77   6 C    3.925 --    78 C    2.556   138 C    1.191
    78   6 C    3.922 --    77 C    2.556   161 C    1.188
    79   6 C    3.925 --    80 C    2.577   173 C    1.170
    80   6 C    3.922 --    79 C    2.577   196 C    1.167
    81   6 C    3.921 --    82 C    2.575   208 C    1.169
    82   6 C    3.926 --    81 C    2.575   231 C    1.173
    83   6 C    3.923 --    84 C    2.556   243 C    1.189
    84   6 C    3.924 --    83 C    2.556   266 C    1.190
    85   6 C    3.928 --    86 C    2.562   278 C    1.187
    86   6 C    3.923 --    85 C    2.562    41 C    1.183
    87  27 Co   3.419 --   111 N    0.722    96 N    0.722   102 N    0.721
                           108 N    0.721
    88   6 C    3.954 --    89 C    1.636   110 C    1.177   112 H    0.972
    89   6 C    3.957 --    88 C    1.636    90 C    1.185   113 H    0.968
    90   6 C    3.922 --   111 N    1.268    91 C    1.245    89 C    1.185
    91   6 C    3.930 --    92 C    1.247    90 C    1.245    74 C    1.188
    92   6 C    3.922 --    96 N    1.267    91 C    1.247    93 C    1.185
    93   6 C    3.957 --    94 C    1.636    92 C    1.185   114 H    0.968
    94   6 C    3.954 --    93 C    1.636    95 C    1.177   115 H    0.972
    95   6 C    3.930 --    97 C    1.354    96 N    1.224    94 C    1.177
    96   7 N    3.505 --    92 C    1.267    95 C    1.224    87 Co   0.722
    97   6 C    3.928 --    98 C    1.357    95 C    1.354   116 H    0.964
    98   6 C    3.930 --    97 C    1.357   102 N    1.222    99 C    1.176
    99   6 C    3.954 --   100 C    1.637    98 C    1.176   117 H    0.972
   100   6 C    3.957 --    99 C    1.637   101 C    1.185   118 H    0.968
   101   6 C    3.921 --   102 N    1.270   103 C    1.243   100 C    1.185
   102   7 N    3.504 --   101 C    1.270    98 C    1.222    87 Co   0.721
   103   6 C    3.929 --   104 C    1.244   101 C    1.243    75 C    1.193
   104   6 C    3.921 --   108 N    1.270   103 C    1.244   105 C    1.185
   105   6 C    3.956 --   106 C    1.637   104 C    1.185   119 H    0.968
   106   6 C    3.954 --   105 C    1.637   107 C    1.177   120 H    0.972
   107   6 C    3.930 --   109 C    1.356   108 N    1.223   106 C    1.177
   108   7 N    3.504 --   104 C    1.270   107 C    1.223    87 Co   0.721
   109   6 C    3.928 --   107 C    1.356   110 C    1.355   121 H    0.964
   110   6 C    3.930 --   109 C    1.355   111 N    1.223    88 C    1.177
   111   7 N    3.505 --    90 C    1.268   110 C    1.223    87 Co   0.722
   112   1 H    0.998 --    88 C    0.972
   113   1 H    0.998 --    89 C    0.968
   114   1 H    0.998 --    93 C    0.968
   115   1 H    0.998 --    94 C    0.972
   116   1 H    0.996 --    97 C    0.964
   117   1 H    0.998 --    99 C    0.972
   118   1 H    0.998 --   100 C    0.968
   119   1 H    0.998 --   105 C    0.968
   120   1 H    0.998 --   106 C    0.972
   121   1 H    0.996 --   109 C    0.964
   122  27 Co   3.427 --   143 N    0.723   137 N    0.722   131 N    0.721
                           146 N    0.721
   123   6 C    3.954 --   124 C    1.636   145 C    1.177   147 H    0.972
   124   6 C    3.956 --   123 C    1.636   125 C    1.186   148 H    0.968
   125   6 C    3.921 --   146 N    1.270   126 C    1.243   124 C    1.186
   126   6 C    3.928 --   125 C    1.243   127 C    1.242    76 C    1.194
   127   6 C    3.921 --   131 N    1.270   126 C    1.242   128 C    1.186
   128   6 C    3.957 --   129 C    1.636   127 C    1.186   149 H    0.968
   129   6 C    3.954 --   128 C    1.636   130 C    1.177   150 H    0.972
   130   6 C    3.930 --   132 C    1.356   131 N    1.222   129 C    1.177
   131   7 N    3.504 --   127 C    1.270   130 C    1.222   122 Co   0.721
   132   6 C    3.927 --   130 C    1.356   133 C    1.354   151 H    0.964
   133   6 C    3.930 --   132 C    1.354   137 N    1.223   134 C    1.177
   134   6 C    3.954 --   135 C    1.636   133 C    1.177   152 H    0.972
   135   6 C    3.956 --   134 C    1.636   136 C    1.186   153 H    0.968
   136   6 C    3.922 --   137 N    1.269   138 C    1.244   135 C    1.186
   137   7 N    3.505 --   136 C    1.269   133 C    1.223   122 Co   0.722
   138   6 C    3.929 --   136 C    1.244   139 C    1.243    77 C    1.191
   139   6 C    3.922 --   143 N    1.269   138 C    1.243   140 C    1.186
   140   6 C    3.957 --   141 C    1.636   139 C    1.186   154 H    0.968
   141   6 C    3.954 --   140 C    1.636   142 C    1.177   155 H    0.972
   142   6 C    3.930 --   144 C    1.355   143 N    1.222   141 C    1.177
   143   7 N    3.505 --   139 C    1.269   142 C    1.222   122 Co   0.723
   144   6 C    3.927 --   145 C    1.355   142 C    1.355   156 H    0.964
   145   6 C    3.930 --   144 C    1.355   146 N    1.223   123 C    1.177
   146   7 N    3.504 --   125 C    1.270   145 C    1.223   122 Co   0.721
   147   1 H    0.998 --   123 C    0.972
   148   1 H    0.998 --   124 C    0.968
   149   1 H    0.998 --   128 C    0.968
   150   1 H    0.998 --   129 C    0.972
   151   1 H    0.996 --   132 C    0.964
   152   1 H    0.998 --   134 C    0.972
   153   1 H    0.998 --   135 C    0.968
   154   1 H    0.998 --   140 C    0.968
   155   1 H    0.998 --   141 C    0.972
   156   1 H    0.996 --   144 C    0.964
   157  27 Co   3.382 --   172 N    0.722   178 N    0.721   166 N    0.719
                           181 N    0.718
   158   6 C    3.954 --   159 C    1.639   180 C    1.175   182 H    0.972
   159   6 C    3.957 --   158 C    1.639   160 C    1.184   183 H    0.968
   160   6 C    3.921 --   181 N    1.270   161 C    1.246   159 C    1.184
   161   6 C    3.932 --   162 C    1.248   160 C    1.246    78 C    1.188
   162   6 C    3.921 --   166 N    1.269   161 C    1.248   163 C    1.184
   163   6 C    3.956 --   164 C    1.638   162 C    1.184   184 H    0.967
   164   6 C    3.954 --   163 C    1.638   165 C    1.175   185 H    0.972
   165   6 C    3.930 --   167 C    1.359   166 N    1.224   164 C    1.175
   166   7 N    3.504 --   162 C    1.269   165 C    1.224   157 Co   0.719
   167   6 C    3.929 --   165 C    1.359   168 C    1.355   186 H    0.963
   168   6 C    3.930 --   167 C    1.355   172 N    1.227   169 C    1.175
   169   6 C    3.955 --   170 C    1.640   168 C    1.175   187 H    0.972
   170   6 C    3.957 --   169 C    1.640   171 C    1.183   188 H    0.969
   171   6 C    3.924 --   172 N    1.264   173 C    1.256   170 C    1.183
   172   7 N    3.505 --   171 C    1.264   168 C    1.227   157 Co   0.722
   173   6 C    3.931 --   174 C    1.257   171 C    1.256    79 C    1.170
   174   6 C    3.923 --   178 N    1.262   173 C    1.257   175 C    1.183
   175   6 C    3.957 --   176 C    1.640   174 C    1.183   189 H    0.968
   176   6 C    3.955 --   175 C    1.640   177 C    1.176   190 H    0.972
   177   6 C    3.930 --   179 C    1.353   178 N    1.229   176 C    1.176
   178   7 N    3.505 --   174 C    1.262   177 C    1.229   157 Co   0.721
   179   6 C    3.929 --   180 C    1.360   177 C    1.353   191 H    0.963
   180   6 C    3.930 --   179 C    1.360   181 N    1.222   158 C    1.175
   181   7 N    3.504 --   160 C    1.270   180 C    1.222   157 Co   0.718
   182   1 H    0.998 --   158 C    0.972
   183   1 H    0.998 --   159 C    0.968
   184   1 H    0.998 --   163 C    0.967
   185   1 H    0.998 --   164 C    0.972
   186   1 H    0.996 --   167 C    0.963
   187   1 H    0.998 --   169 C    0.972
   188   1 H    0.998 --   170 C    0.969
   189   1 H    0.998 --   175 C    0.968
   190   1 H    0.998 --   176 C    0.972
   191   1 H    0.996 --   179 C    0.963
   192  27 Co   3.327 --   216 N    0.718   213 N    0.717   201 N    0.717
                           207 N    0.717
   193   6 C    3.954 --   194 C    1.642   215 C    1.174   217 H    0.972
   194   6 C    3.956 --   193 C    1.642   195 C    1.182   218 H    0.967
   195   6 C    3.923 --   216 N    1.265   196 C    1.257   194 C    1.182
   196   6 C    3.936 --   197 C    1.262   195 C    1.257    80 C    1.167
   197   6 C    3.923 --   201 N    1.263   196 C    1.262   198 C    1.182
   198   6 C    3.956 --   199 C    1.643   197 C    1.182   219 H    0.969
   199   6 C    3.954 --   198 C    1.643   200 C    1.174   220 H    0.972
   200   6 C    3.930 --   202 C    1.357   201 N    1.229   199 C    1.174
   201   7 N    3.504 --   197 C    1.263   200 C    1.229   192 Co   0.717
   202   6 C    3.932 --   203 C    1.360   200 C    1.357   221 H    0.963
   203   6 C    3.930 --   202 C    1.360   207 N    1.227   204 C    1.173
   204   6 C    3.954 --   205 C    1.643   203 C    1.173   222 H    0.972
   205   6 C    3.957 --   204 C    1.643   206 C    1.182   223 H    0.969
   206   6 C    3.922 --   207 N    1.265   208 C    1.259   205 C    1.182
   207   7 N    3.504 --   206 C    1.265   203 C    1.227   192 Co   0.717
   208   6 C    3.936 --   209 C    1.259   206 C    1.259    81 C    1.169
   209   6 C    3.922 --   213 N    1.264   208 C    1.259   210 C    1.182
   210   6 C    3.956 --   211 C    1.642   209 C    1.182   224 H    0.966
   211   6 C    3.954 --   210 C    1.642   212 C    1.174   225 H    0.972
   212   6 C    3.930 --   214 C    1.358   213 N    1.228   211 C    1.174
   213   7 N    3.505 --   209 C    1.264   212 C    1.228   192 Co   0.717
   214   6 C    3.932 --   215 C    1.360   212 C    1.358   226 H    0.963
   215   6 C    3.930 --   214 C    1.360   216 N    1.226   193 C    1.174
   216   7 N    3.505 --   195 C    1.265   215 C    1.226   192 Co   0.718
   217   1 H    0.998 --   193 C    0.972
   218   1 H    0.998 --   194 C    0.967
   219   1 H    0.998 --   198 C    0.969
   220   1 H    0.998 --   199 C    0.972
   221   1 H    0.996 --   202 C    0.963
   222   1 H    0.998 --   204 C    0.972
   223   1 H    0.998 --   205 C    0.969
   224   1 H    0.998 --   210 C    0.966
   225   1 H    0.998 --   211 C    0.972
   226   1 H    0.996 --   214 C    0.963
   227  27 Co   3.399 --   236 N    0.723   251 N    0.722   242 N    0.720
                           248 N    0.719
   228   6 C    3.955 --   229 C    1.639   250 C    1.176   252 H    0.972
   229   6 C    3.957 --   228 C    1.639   230 C    1.184   253 H    0.966
   230   6 C    3.923 --   251 N    1.262   231 C    1.256   229 C    1.184
   231   6 C    3.931 --   230 C    1.256   232 C    1.253    82 C    1.173
   232   6 C    3.924 --   236 N    1.264   231 C    1.253   233 C    1.184
   233   6 C    3.957 --   234 C    1.639   232 C    1.184   254 H    0.969
   234   6 C    3.955 --   233 C    1.639   235 C    1.176   255 H    0.972
   235   6 C    3.930 --   237 C    1.355   236 N    1.225   234 C    1.176
   236   7 N    3.506 --   232 C    1.264   235 C    1.225   227 Co   0.723
   237   6 C    3.929 --   238 C    1.357   235 C    1.355   256 H    0.963
   238   6 C    3.930 --   237 C    1.357   242 N    1.224   239 C    1.176
   239   6 C    3.954 --   240 C    1.638   238 C    1.176   257 H    0.972
   240   6 C    3.956 --   239 C    1.638   241 C    1.185   258 H    0.968
   241   6 C    3.921 --   242 N    1.268   243 C    1.248   240 C    1.185
   242   7 N    3.504 --   241 C    1.268   238 C    1.224   227 Co   0.720
   243   6 C    3.931 --   241 C    1.248   244 C    1.244    83 C    1.189
   244   6 C    3.921 --   248 N    1.271   243 C    1.244   245 C    1.184
   245   6 C    3.957 --   246 C    1.638   244 C    1.184   259 H    0.968
   246   6 C    3.954 --   245 C    1.638   247 C    1.175   260 H    0.972
   247   6 C    3.930 --   249 C    1.360   248 N    1.222   246 C    1.175
   248   7 N    3.504 --   244 C    1.271   247 C    1.222   227 Co   0.719
   249   6 C    3.929 --   247 C    1.360   250 C    1.352   261 H    0.963
   250   6 C    3.930 --   249 C    1.352   251 N    1.228   228 C    1.176
   251   7 N    3.505 --   230 C    1.262   250 C    1.228   227 Co   0.722
   252   1 H    0.998 --   228 C    0.972
   253   1 H    0.998 --   229 C    0.966
   254   1 H    0.998 --   233 C    0.969
   255   1 H    0.998 --   234 C    0.972
   256   1 H    0.996 --   237 C    0.963
   257   1 H    0.998 --   239 C    0.972
   258   1 H    0.998 --   240 C    0.968
   259   1 H    0.998 --   245 C    0.968
   260   1 H    0.998 --   246 C    0.972
   261   1 H    0.996 --   249 C    0.963
   262  27 Co   3.421 --   277 N    0.723   283 N    0.722   286 N    0.722
                           271 N    0.721
   263   6 C    3.954 --   264 C    1.637   285 C    1.177   287 H    0.972
   264   6 C    3.957 --   263 C    1.637   265 C    1.185   288 H    0.969
   265   6 C    3.922 --   286 N    1.269   266 C    1.244   264 C    1.185
   266   6 C    3.929 --   267 C    1.245   265 C    1.244    84 C    1.190
   267   6 C    3.922 --   271 N    1.269   266 C    1.245   268 C    1.186
   268   6 C    3.957 --   269 C    1.636   267 C    1.186   289 H    0.968
   269   6 C    3.954 --   268 C    1.636   270 C    1.177   290 H    0.972
   270   6 C    3.930 --   272 C    1.356   271 N    1.223   269 C    1.177
   271   7 N    3.505 --   267 C    1.269   270 C    1.223   262 Co   0.721
   272   6 C    3.928 --   270 C    1.356   273 C    1.355   291 H    0.964
   273   6 C    3.930 --   272 C    1.355   277 N    1.223   274 C    1.177
   274   6 C    3.954 --   275 C    1.637   273 C    1.177   292 H    0.972
   275   6 C    3.957 --   274 C    1.637   276 C    1.185   293 H    0.969
   276   6 C    3.922 --   277 N    1.268   278 C    1.245   275 C    1.185
   277   7 N    3.505 --   276 C    1.268   273 C    1.223   262 Co   0.723
   278   6 C    3.930 --   279 C    1.247   276 C    1.245    85 C    1.187
   279   6 C    3.922 --   283 N    1.267   278 C    1.247   280 C    1.186
   280   6 C    3.957 --   281 C    1.636   279 C    1.186   294 H    0.968
   281   6 C    3.954 --   280 C    1.636   282 C    1.177   295 H    0.972
   282   6 C    3.930 --   284 C    1.355   283 N    1.224   281 C    1.177
   283   7 N    3.505 --   279 C    1.267   282 C    1.224   262 Co   0.722
   284   6 C    3.928 --   285 C    1.356   282 C    1.355   296 H    0.964
   285   6 C    3.930 --   284 C    1.356   286 N    1.223   263 C    1.177
   286   7 N    3.505 --   265 C    1.269   285 C    1.223   262 Co   0.722
   287   1 H    0.998 --   263 C    0.972
   288   1 H    0.998 --   264 C    0.969
   289   1 H    0.998 --   268 C    0.968
   290   1 H    0.998 --   269 C    0.972
   291   1 H    0.996 --   272 C    0.964
   292   1 H    0.998 --   274 C    0.972
   293   1 H    0.998 --   275 C    0.969
   294   1 H    0.998 --   280 C    0.968
   295   1 H    0.998 --   281 C    0.972
   296   1 H    0.996 --   284 C    0.964
 ---------------------------------------------------------------------------

Topologies differ in total number of bonds
Writing topology from bond orders to xtbtopo.mol

molecular dipole:
                 x           y           z       tot (Debye)
 q only:       -0.183      -0.004       0.001
   full:       -0.181      -0.011      -0.013       0.463
molecular quadrupole (traceless):
                xx          xy          yy          xz          yz          zz
 q only:       48.361       0.518       5.178       0.973      -5.100     -53.538
  q+dip:      116.547      -0.463      13.965      -2.000     -12.437    -130.512
   full:       73.586      -0.816       7.303      -2.580      -7.636     -80.889


           -------------------------------------------------
          | TOTAL ENERGY             -537.694387513732 Eh   |
          | GRADIENT NORM               0.000865134829 Eh/α |
          | HOMO-LUMO GAP               0.002601330791 eV   |
           -------------------------------------------------

------------------------------------------------------------------------
 * finished run on 2021/11/21 at 19:22:55.129     
------------------------------------------------------------------------
 total:
 * wall-time:     0 d,  0 h,  1 min,  3.681 sec
 *  cpu-time:     0 d,  0 h,  1 min,  3.681 sec
 * ratio c/w:     1.000 speedup
 SCF:
 * wall-time:     0 d,  0 h,  1 min,  3.485 sec
 *  cpu-time:     0 d,  0 h,  1 min,  3.486 sec
 * ratio c/w:     1.000 speedup

