 Entering Gaussian System
 *********************************************
 Gaussian 98:
 frequency output generated by the xtb code
 *********************************************
                         Standard orientation:
 --------------------------------------------------------------------
  Center     Atomic     Atomic              Coordinates (Angstroms)
  Number     Number      Type              X           Y           Z
 --------------------------------------------------------------------
    1         26             0        6.756250   -0.054016    0.023375
    2          6             0        9.236656   -3.533252    0.103538
    3          6             0       10.160659   -2.545487    0.149138
    4          6             0        9.441187   -1.304823    0.120734
    5          6             0       10.085640   -0.061882    0.136223
    6          6             0        9.447689    1.183965    0.093362
    7          6             0       10.174078    2.420959    0.089450
    8          6             0        9.254822    3.413095    0.043664
    9          6             0        7.972565    2.776858    0.022768
   10          7             0        8.104752    1.415351    0.049793
   11          6             0        6.764933    3.444574   -0.006367
   12          6             0        5.554956    2.781282   -0.013468
   13          6             0        4.270123    3.417731   -0.027975
   14          6             0        3.351974    2.425427   -0.033083
   15          6             0        4.078479    1.185572   -0.024508
   16          7             0        5.424521    1.422307   -0.008959
   17          6             0        3.453747   -0.046036   -0.044493
   18          6             0        4.073254   -1.280487   -0.050459
   19          6             0        3.341574   -2.516451   -0.088905
   20          6             0        4.254934   -3.513151   -0.083518
   21          6             0        5.542195   -2.883172   -0.038937
   22          7             0        5.417863   -1.523683   -0.022031
   23          6             0        6.748422   -3.552545   -0.004785
   24          6             0        7.958647   -2.890828    0.050519
   25          7             0        8.097641   -1.529954    0.063245
   26          1             0        9.387903   -4.595055    0.105461
   27          1             0       11.229092   -2.628538    0.195809
   28          1             0       11.243518    2.498943    0.117105
   29          1             0        9.411843    4.474061    0.026241
   30          1             0        6.768845    4.523615   -0.019058
   31          1             0        4.115223    4.479414   -0.032813
   32          1             0        2.281424    2.501565   -0.043338
   33          1             0        2.373189   -0.043439   -0.062806
   34          1             0        2.271215   -2.587193   -0.116757
   35          1             0        4.095384   -4.573831   -0.105719
   36          1             0        6.746923   -4.631601   -0.016582
   37          6             0       11.485338   -0.063882    0.187067
   38          6             0       12.703785   -0.062546    0.227244
   39          6             0       14.040841   -0.055544    0.256138
   40          6             0       15.264066   -0.041686    0.271027
   41          6             0       16.601382   -0.026515    0.266192
   42          6             0       17.820288   -0.009514    0.245957
   43         26             0       22.541161    0.054899   -0.053009
   44          6             0       20.015059    3.493997    0.174407
   45          6             0       19.105889    2.491999    0.205149
   46          6             0       19.843220    1.262867    0.148897
   47          6             0       19.219675    0.010053    0.191095
   48          6             0       19.879019   -1.225235    0.177491
   49          6             0       19.178193   -2.472990    0.275113
   50          6             0       20.112595   -3.450549    0.218799
   51          6             0       21.377392   -2.794830    0.082119
   52          7             0       21.221490   -1.435623    0.068124
   53          6             0       22.589078   -3.443226   -0.045803
   54          6             0       23.779311   -2.760459   -0.191826
   55          6             0       25.064665   -3.376049   -0.350638
   56          6             0       25.961205   -2.369006   -0.450026
   57          6             0       25.221653   -1.141203   -0.348330
   58          7             0       23.888061   -1.399567   -0.197275
   59          6             0       25.826814    0.099885   -0.381245
   60          6             0       25.195788    1.323609   -0.271806
   61          6             0       25.909829    2.570374   -0.289027
   62          6             0       24.988321    3.551745   -0.164729
   63          6             0       23.713283    2.901881   -0.076777
   64          7             0       23.853849    1.545238   -0.137488
   65          6             0       22.501141    3.552096    0.032488
   66          6             0       21.301561    2.871723    0.091865
   67          7             0       21.182293    1.509019    0.075566
   68          1             0       19.848644    4.553320    0.201673
   69          1             0       18.036930    2.558023    0.264847
   70          1             0       18.114282   -2.567324    0.377577
   71          1             0       19.976057   -4.513601    0.262126
   72          1             0       22.603681   -4.522201   -0.038857
   73          1             0       25.233977   -4.435169   -0.379494
   74          1             0       27.025059   -2.427819   -0.577717
   75          1             0       26.901413    0.114561   -0.495187
   76          1             0       26.975078    2.657917   -0.383233
   77          1             0       25.134488    4.614203   -0.136201
   78          1             0       22.488095    4.630748    0.062989
 --------------------------------------------------------------------
     1 basis functions        1 primitive gaussians
     1 alpha electrons        1 beta electrons

 Harmonic frequencies (cm**-1), IR intensities (km*mol⁻¹),
 Raman scattering activities (A**4/amu), Raman depolarization ratios,
 reduced masses (AMU), force constants (mDyne/A) and normal coordinates:
                      1                      2                      3
                        a                      a                      a 
 Frequencies --    -1.7993                 6.2179                 6.3311
 Red. masses --    11.2616                11.5458                11.6229
 Frc consts  --     0.0000                 0.0000                 0.0000
 IR Inten    --     3.9678                 0.3921                 0.2555
 Raman Activ --     0.0000                 0.0000                 0.0000
 Depolar     --     0.0000                 0.0000                 0.0000
 Atom AN      X      Y      Z        X      Y      Z        X      Y      Z
   1  26    -0.00  -0.00  -0.00    -0.00   0.04   0.01    -0.02  -0.01   0.04
   2   6    -0.01  -0.00   0.19    -0.12  -0.07  -0.02     0.02   0.02  -0.11
   3   6    -0.01  -0.00   0.14    -0.09  -0.10  -0.03     0.02   0.03  -0.14
   4   6    -0.00  -0.00   0.07    -0.04  -0.08  -0.02     0.00   0.02  -0.10
   5   6     0.00  -0.00  -0.00    -0.00  -0.10  -0.03    -0.01   0.02  -0.12
   6   6     0.00  -0.00  -0.07     0.04  -0.08  -0.03    -0.02   0.02  -0.10
   7   6     0.01  -0.00  -0.14     0.09  -0.10  -0.04    -0.03   0.02  -0.14
   8   6     0.01  -0.00  -0.19     0.12  -0.07  -0.03    -0.04   0.02  -0.11
   9   6     0.01  -0.00  -0.16     0.10  -0.03  -0.02    -0.03   0.01  -0.05
  10   7     0.00  -0.00  -0.09     0.05  -0.03  -0.02    -0.02   0.01  -0.05
  11   6     0.01  -0.00  -0.20     0.12   0.02  -0.01    -0.04  -0.00   0.00
  12   6     0.01  -0.00  -0.16     0.10   0.06   0.01    -0.04  -0.01   0.07
  13   6     0.01   0.00  -0.20     0.12   0.10   0.03    -0.04  -0.03   0.13
  14   6     0.01   0.00  -0.14     0.09   0.14   0.04    -0.03  -0.03   0.19
  15   6     0.00   0.00  -0.07     0.04   0.11   0.04    -0.02  -0.03   0.15
  16   7     0.00   0.00  -0.09     0.05   0.07   0.02    -0.03  -0.02   0.09
  17   6    -0.00   0.00   0.00    -0.00   0.13   0.05    -0.01  -0.03   0.19
  18   6    -0.00   0.00   0.07    -0.04   0.11   0.04    -0.00  -0.03   0.16
  19   6    -0.01   0.00   0.14    -0.09   0.14   0.05     0.01  -0.03   0.19
  20   6    -0.01  -0.00   0.20    -0.12   0.10   0.04     0.01  -0.02   0.13
  21   6    -0.01  -0.00   0.16    -0.10   0.06   0.02     0.01  -0.01   0.07
  22   7    -0.00  -0.00   0.09    -0.06   0.07   0.02     0.00  -0.02   0.09
  23   6    -0.01  -0.00   0.20    -0.12   0.02   0.01     0.02  -0.00   0.00
  24   6    -0.01  -0.00   0.16    -0.10  -0.03  -0.01     0.02   0.01  -0.05
  25   7    -0.00  -0.00   0.09    -0.06  -0.03  -0.01     0.00   0.01  -0.05
  26   1    -0.00  -0.00   0.07    -0.05  -0.02  -0.01     0.01   0.01  -0.04
  27   1    -0.00  -0.00   0.04    -0.03  -0.04  -0.01     0.01   0.01  -0.05
  28   1     0.00  -0.00  -0.04     0.03  -0.04  -0.01    -0.01   0.01  -0.05
  29   1     0.00  -0.00  -0.07     0.05  -0.02  -0.01    -0.01   0.01  -0.04
  30   1     0.00  -0.00  -0.08     0.05   0.00  -0.00    -0.01  -0.00  -0.00
  31   1     0.00   0.00  -0.07     0.05   0.03   0.01    -0.01  -0.01   0.04
  32   1     0.00   0.00  -0.04     0.03   0.05   0.02    -0.01  -0.01   0.07
  33   1    -0.00   0.00   0.00    -0.00   0.05   0.02    -0.00  -0.01   0.07
  34   1    -0.00   0.00   0.04    -0.03   0.05   0.02     0.00  -0.01   0.07
  35   1    -0.00  -0.00   0.07    -0.05   0.03   0.01     0.01  -0.01   0.04
  36   1    -0.00  -0.00   0.07    -0.05   0.00   0.00     0.01  -0.00  -0.00
  37   6     0.00  -0.00  -0.00     0.00  -0.15  -0.04    -0.00   0.04  -0.16
  38   6     0.00  -0.00  -0.00     0.00  -0.17  -0.04    -0.00   0.04  -0.18
  39   6     0.00  -0.00  -0.00     0.00  -0.19  -0.05    -0.00   0.05  -0.19
  40   6     0.00  -0.00  -0.00     0.00  -0.19  -0.05    -0.00   0.05  -0.19
  41   6     0.00  -0.00   0.00     0.00  -0.17  -0.04    -0.00   0.04  -0.18
  42   6     0.00  -0.00   0.00     0.00  -0.15  -0.04    -0.00   0.04  -0.16
  43  26     0.00   0.00   0.00     0.00   0.04   0.01     0.02  -0.01   0.04
  44   6     0.01  -0.00   0.19    -0.12  -0.07  -0.04     0.03   0.02  -0.12
  45   6     0.01  -0.00   0.14    -0.09  -0.10  -0.04     0.02   0.03  -0.15
  46   6     0.00  -0.00   0.07    -0.04  -0.08  -0.03     0.01   0.02  -0.11
  47   6     0.00  -0.00   0.00    -0.00  -0.10  -0.03    -0.00   0.02  -0.13
  48   6    -0.00  -0.00  -0.07     0.04  -0.08  -0.02    -0.01   0.02  -0.11
  49   6    -0.01  -0.01  -0.14     0.09  -0.10  -0.03    -0.03   0.02  -0.15
  50   6    -0.01  -0.01  -0.19     0.12  -0.07  -0.02    -0.03   0.02  -0.12
  51   6    -0.01  -0.00  -0.16     0.10  -0.02  -0.00    -0.02   0.01  -0.06
  52   7    -0.00  -0.00  -0.09     0.06  -0.03  -0.01    -0.01   0.01  -0.06
  53   6    -0.01   0.00  -0.19     0.12   0.02   0.01    -0.02  -0.00  -0.00
  54   6    -0.01   0.01  -0.16     0.10   0.06   0.03    -0.01  -0.01   0.07
  55   6    -0.01   0.01  -0.20     0.13   0.10   0.05    -0.00  -0.03   0.13
  56   6    -0.01   0.01  -0.14     0.09   0.14   0.06     0.01  -0.03   0.20
  57   6    -0.00   0.01  -0.07     0.05   0.11   0.04     0.02  -0.03   0.16
  58   7    -0.00   0.01  -0.09     0.06   0.07   0.03     0.01  -0.02   0.09
  59   6    -0.00   0.01  -0.00     0.00   0.13   0.05     0.03  -0.03   0.20
  60   6     0.00   0.01   0.07    -0.04   0.11   0.03     0.03  -0.03   0.16
  61   6     0.01   0.01   0.14    -0.08   0.13   0.04     0.05  -0.03   0.20
  62   6     0.01   0.00   0.20    -0.12   0.10   0.02     0.05  -0.02   0.14
  63   6     0.01  -0.00   0.16    -0.10   0.06   0.01     0.04  -0.01   0.07
  64   7     0.00   0.00   0.09    -0.05   0.07   0.02     0.03  -0.02   0.09
  65   6     0.01  -0.00   0.20    -0.12   0.02  -0.01     0.04  -0.00  -0.00
  66   6     0.01  -0.00   0.16    -0.10  -0.03  -0.02     0.03   0.01  -0.06
  67   7     0.00  -0.00   0.09    -0.06  -0.03  -0.02     0.02   0.01  -0.06
  68   1     0.00  -0.00   0.07    -0.05  -0.02  -0.01     0.01   0.01  -0.04
  69   1     0.00  -0.00   0.04    -0.03  -0.04  -0.02     0.00   0.01  -0.06
  70   1    -0.00  -0.00  -0.04     0.03  -0.04  -0.01    -0.01   0.01  -0.06
  71   1    -0.00  -0.00  -0.07     0.05  -0.02  -0.01    -0.01   0.00  -0.04
  72   1    -0.00   0.00  -0.07     0.05   0.01   0.00    -0.01  -0.00  -0.00
  73   1    -0.00   0.00  -0.07     0.05   0.03   0.01    -0.00  -0.01   0.04
  74   1    -0.00   0.01  -0.04     0.03   0.05   0.02     0.01  -0.01   0.07
  75   1    -0.00   0.00  -0.00     0.00   0.05   0.02     0.01  -0.01   0.08
  76   1     0.00   0.00   0.04    -0.03   0.05   0.02     0.02  -0.01   0.08
  77   1     0.00  -0.00   0.07    -0.05   0.03   0.00     0.02  -0.01   0.04
  78   1     0.00  -0.00   0.07    -0.05   0.00  -0.01     0.01  -0.00  -0.00
                      4                      5                      6
                        a                      a                      a 
 Frequencies --    13.5079                24.3535                28.8040
 Red. masses --    11.5981                12.1994                11.4351
 Frc consts  --     0.0000                 0.0000                 0.0000
 IR Inten    --     6.9434                 0.7005                 8.5148
 Raman Activ --     0.0000                 0.0000                 0.0000
 Depolar     --     0.0000                 0.0000                 0.0000
 Atom AN      X      Y      Z        X      Y      Z        X      Y      Z
   1  26     0.01  -0.00  -0.06     0.00  -0.09   0.00    -0.03  -0.00   0.02
   2   6     0.01  -0.00  -0.20    -0.12  -0.13   0.00    -0.02  -0.01   0.14
   3   6     0.01  -0.00  -0.19    -0.09  -0.16   0.00    -0.02  -0.01   0.04
   4   6     0.01  -0.00  -0.14    -0.04  -0.14   0.00    -0.01  -0.01  -0.01
   5   6     0.01  -0.00  -0.13     0.00  -0.16   0.00    -0.01  -0.01  -0.08
   6   6     0.01  -0.00  -0.13     0.04  -0.14   0.00    -0.01  -0.01  -0.02
   7   6     0.01  -0.00  -0.19     0.09  -0.16  -0.00    -0.01  -0.01   0.01
   8   6     0.01  -0.00  -0.20     0.12  -0.13   0.00    -0.01  -0.00   0.12
   9   6     0.01  -0.00  -0.14     0.10  -0.09   0.00    -0.01  -0.00   0.13
  10   7     0.01  -0.00  -0.11     0.06  -0.10   0.00    -0.01  -0.00   0.05
  11   6     0.01  -0.00  -0.10     0.13  -0.04   0.01    -0.01  -0.00   0.17
  12   6     0.00  -0.00  -0.00     0.10   0.00   0.01    -0.01   0.00   0.09
  13   6     0.00   0.00   0.08     0.12   0.05   0.01    -0.01   0.00   0.05
  14   6     0.00   0.00   0.18     0.09   0.08   0.01    -0.01   0.00  -0.08
  15   6     0.00   0.00   0.15     0.04   0.05   0.00    -0.01   0.00  -0.09
  16   7     0.00  -0.00   0.04     0.06   0.01   0.00    -0.01   0.00   0.01
  17   6    -0.00   0.00   0.21     0.00   0.08  -0.00    -0.01   0.00  -0.16
  18   6    -0.00   0.00   0.15    -0.04   0.05  -0.01    -0.01   0.00  -0.10
  19   6    -0.00   0.00   0.18    -0.09   0.08  -0.01    -0.01   0.00  -0.10
  20   6    -0.00   0.00   0.08    -0.12   0.05  -0.01    -0.02   0.00   0.03
  21   6    -0.00   0.00  -0.00    -0.10   0.00  -0.01    -0.02  -0.00   0.08
  22   7     0.00   0.00   0.04    -0.06   0.01  -0.01    -0.02   0.00   0.00
  23   6     0.00   0.00  -0.10    -0.12  -0.04  -0.01    -0.02  -0.00   0.17
  24   6     0.00  -0.00  -0.14    -0.10  -0.09  -0.00    -0.02  -0.00   0.14
  25   7     0.01  -0.00  -0.12    -0.05  -0.10   0.00    -0.02  -0.00   0.05
  26   1     0.00  -0.00  -0.07    -0.05  -0.04   0.00    -0.01  -0.00   0.06
  27   1     0.00  -0.00  -0.06    -0.03  -0.06   0.00    -0.00  -0.00   0.00
  28   1     0.00  -0.00  -0.06     0.03  -0.06  -0.00    -0.00  -0.00  -0.01
  29   1     0.00  -0.00  -0.07     0.05  -0.04   0.00    -0.00  -0.00   0.05
  30   1     0.00  -0.00  -0.04     0.05  -0.01   0.00    -0.00   0.00   0.07
  31   1     0.00   0.00   0.02     0.05   0.02   0.01    -0.00   0.00   0.03
  32   1     0.00   0.00   0.08     0.03   0.03   0.00    -0.00   0.00  -0.04
  33   1    -0.00   0.00   0.09     0.00   0.03  -0.00    -0.00   0.00  -0.07
  34   1    -0.00   0.00   0.08    -0.03   0.03  -0.01    -0.00   0.00  -0.05
  35   1    -0.00   0.00   0.02    -0.05   0.02  -0.01    -0.01  -0.00   0.02
  36   1     0.00   0.00  -0.04    -0.05  -0.01  -0.00    -0.01  -0.00   0.07
  37   6     0.01  -0.00  -0.11     0.00  -0.19   0.00    -0.00  -0.01  -0.17
  38   6     0.00  -0.00  -0.08     0.00  -0.13   0.00    -0.00  -0.01  -0.25
  39   6     0.00  -0.00  -0.03     0.00  -0.06   0.00     0.00  -0.00  -0.29
  40   6     0.00   0.00   0.02    -0.00   0.06  -0.00     0.00   0.00  -0.29
  41   6     0.00   0.00   0.06    -0.00   0.13  -0.00     0.00   0.01  -0.25
  42   6     0.00   0.00   0.10    -0.00   0.19  -0.00     0.00   0.01  -0.17
  43  26    -0.01   0.00   0.06    -0.00   0.09  -0.00     0.03   0.00   0.03
  44   6     0.01   0.00   0.19     0.12   0.13  -0.04     0.03   0.00   0.24
  45   6     0.01   0.00   0.18     0.08   0.16  -0.04     0.03   0.01   0.14
  46   6     0.01   0.00   0.13     0.04   0.14  -0.02     0.02   0.01   0.03
  47   6     0.00   0.00   0.12    -0.00   0.16  -0.00     0.01   0.01  -0.08
  48   6     0.00   0.00   0.13    -0.04   0.14   0.01     0.00   0.01  -0.07
  49   6     0.01   0.00   0.18    -0.09   0.16   0.03    -0.00   0.01  -0.08
  50   6     0.01   0.00   0.19    -0.12   0.13   0.03     0.01   0.01   0.02
  51   6     0.01   0.00   0.14    -0.10   0.08   0.01     0.01   0.01   0.08
  52   7     0.00   0.00   0.11    -0.06   0.10   0.01     0.01   0.01   0.03
  53   6     0.00   0.00   0.10    -0.12   0.04  -0.00     0.02   0.00   0.17
  54   6    -0.01   0.00   0.01    -0.10  -0.00  -0.02     0.02   0.00   0.14
  55   6    -0.02  -0.00  -0.07    -0.13  -0.05  -0.03     0.02  -0.00   0.14
  56   6    -0.03  -0.00  -0.17    -0.09  -0.08  -0.03     0.01  -0.01   0.02
  57   6    -0.03  -0.00  -0.14    -0.04  -0.05  -0.01     0.00  -0.00  -0.05
  58   7    -0.01   0.00  -0.04    -0.06  -0.01  -0.01     0.01   0.00   0.03
  59   6    -0.03   0.00  -0.20     0.00  -0.08   0.01    -0.01  -0.00  -0.16
  60   6    -0.02   0.00  -0.14     0.05  -0.05   0.02    -0.00   0.00  -0.15
  61   6    -0.02  -0.00  -0.17     0.09  -0.08   0.04    -0.00   0.00  -0.20
  62   6    -0.01  -0.00  -0.08     0.13  -0.05   0.03     0.01  -0.00  -0.07
  63   6    -0.00  -0.00   0.00     0.10  -0.00   0.01     0.02  -0.00   0.03
  64   7    -0.01  -0.00  -0.04     0.06  -0.01   0.01     0.01  -0.00  -0.02
  65   6     0.01  -0.00   0.10     0.12   0.04  -0.00     0.03  -0.00   0.17
  66   6     0.01   0.00   0.14     0.10   0.09  -0.02     0.03  -0.00   0.18
  67   7     0.00   0.00   0.11     0.05   0.10  -0.01     0.02   0.00   0.08
  68   1     0.00   0.00   0.07     0.04   0.04  -0.01     0.01   0.00   0.10
  69   1     0.00   0.00   0.06     0.02   0.06  -0.01     0.01   0.00   0.04
  70   1     0.00   0.00   0.06    -0.03   0.06   0.01    -0.00   0.00  -0.05
  71   1     0.00   0.00   0.07    -0.05   0.04   0.01     0.00   0.00   0.02
  72   1     0.00   0.00   0.04    -0.05   0.01  -0.00     0.01   0.00   0.07
  73   1    -0.01  -0.00  -0.02    -0.05  -0.02  -0.01     0.01  -0.00   0.06
  74   1    -0.01  -0.00  -0.07    -0.03  -0.03  -0.01     0.00  -0.00  -0.01
  75   1    -0.01   0.00  -0.08     0.00  -0.03   0.00    -0.00  -0.00  -0.07
  76   1    -0.01  -0.00  -0.07     0.03  -0.03   0.01    -0.00   0.00  -0.09
  77   1    -0.00  -0.00  -0.02     0.05  -0.02   0.01     0.00  -0.00  -0.02
  78   1     0.00  -0.00   0.04     0.05   0.01  -0.00     0.01  -0.00   0.07
                      7                      8                      9
                        a                      a                      a 
 Frequencies --    29.1417                29.3803                49.8000
 Red. masses --    10.9689                10.9634                11.6355
 Frc consts  --     0.0000                 0.0000                 0.0000
 IR Inten    --     0.8205                 0.8898                 0.0189
 Raman Activ --     0.0000                 0.0000                 0.0000
 Depolar     --     0.0000                 0.0000                 0.0000
 Atom AN      X      Y      Z        X      Y      Z        X      Y      Z
   1  26     0.00  -0.01  -0.01    -0.01   0.01   0.01     0.02   0.00  -0.08
   2   6    -0.00  -0.01  -0.23     0.01   0.01  -0.19     0.01  -0.00   0.05
   3   6     0.00  -0.02  -0.20     0.01   0.01  -0.22     0.01   0.00  -0.11
   4   6     0.00  -0.01  -0.08     0.00   0.01  -0.11     0.01  -0.00  -0.14
   5   6     0.00  -0.02   0.03    -0.00   0.01  -0.02     0.01  -0.00  -0.21
   6   6     0.00  -0.01   0.10    -0.01   0.01   0.10     0.01   0.00  -0.14
   7   6     0.01  -0.01   0.20    -0.01   0.01   0.24     0.01   0.00  -0.11
   8   6     0.01  -0.01   0.16    -0.01   0.01   0.27     0.00   0.00   0.05
   9   6     0.01  -0.01   0.05    -0.01   0.01   0.14     0.00   0.00   0.10
  10   7     0.01  -0.01   0.03    -0.01   0.01   0.07     0.01   0.00  -0.03
  11   6     0.02  -0.00  -0.05    -0.01   0.00   0.05     0.00   0.00   0.21
  12   6     0.01   0.00  -0.12    -0.01   0.00  -0.08     0.00   0.00   0.14
  13   6     0.02   0.00  -0.21    -0.01  -0.00  -0.21     0.00   0.00   0.13
  14   6     0.01   0.01  -0.17    -0.00  -0.00  -0.25     0.01  -0.00  -0.04
  15   6     0.01   0.01  -0.06    -0.00  -0.00  -0.13     0.01   0.00  -0.10
  16   7     0.01   0.00  -0.06    -0.01   0.00  -0.06     0.01   0.00   0.01
  17   6     0.00   0.01   0.04    -0.00  -0.00  -0.05     0.01   0.00  -0.18
  18   6    -0.01   0.00   0.12    -0.00  -0.00   0.07     0.01  -0.00  -0.09
  19   6    -0.01   0.01   0.21    -0.01  -0.01   0.19     0.01  -0.00  -0.03
  20   6    -0.02   0.00   0.18    -0.01  -0.01   0.23     0.00  -0.00   0.14
  21   6    -0.01  -0.00   0.07    -0.00  -0.00   0.13     0.00  -0.00   0.14
  22   7    -0.01  -0.00   0.05    -0.00  -0.00   0.06     0.01  -0.00   0.01
  23   6    -0.01  -0.00  -0.04     0.00   0.00   0.05    -0.00  -0.00   0.21
  24   6    -0.00  -0.01  -0.12     0.00   0.00  -0.07     0.00  -0.00   0.10
  25   7    -0.00  -0.01  -0.06     0.00   0.00  -0.04     0.01  -0.00  -0.03
  26   1    -0.00  -0.00  -0.09     0.00   0.00  -0.07     0.00  -0.00   0.04
  27   1     0.00  -0.01  -0.07     0.00   0.00  -0.09     0.00   0.00  -0.06
  28   1     0.00  -0.00   0.08    -0.00   0.00   0.09     0.00   0.00  -0.06
  29   1     0.00  -0.00   0.06    -0.01   0.00   0.10     0.00   0.00   0.04
  30   1     0.01  -0.00  -0.02    -0.00   0.00   0.02    -0.00   0.00   0.09
  31   1     0.01   0.00  -0.08    -0.00  -0.00  -0.08     0.00   0.00   0.07
  32   1     0.00   0.00  -0.06    -0.00  -0.00  -0.10     0.00  -0.00  -0.03
  33   1     0.00   0.00   0.02    -0.00  -0.00  -0.02     0.00   0.00  -0.08
  34   1    -0.00   0.00   0.08    -0.00  -0.00   0.07     0.00   0.00  -0.03
  35   1    -0.01   0.00   0.07    -0.00  -0.00   0.09     0.00  -0.00   0.07
  36   1    -0.00  -0.00  -0.02     0.00   0.00   0.02    -0.00  -0.00   0.09
  37   6    -0.00  -0.02   0.05     0.00   0.01  -0.05     0.01   0.00  -0.24
  38   6    -0.00  -0.01   0.07     0.00   0.00  -0.07     0.01  -0.00  -0.18
  39   6    -0.00  -0.00   0.08     0.00  -0.00  -0.08     0.01  -0.00  -0.07
  40   6    -0.00   0.01   0.08     0.00  -0.01  -0.08     0.01  -0.00   0.07
  41   6    -0.00   0.02   0.07     0.00  -0.01  -0.07     0.01  -0.00   0.17
  42   6    -0.00   0.02   0.05     0.00  -0.01  -0.05     0.01  -0.00   0.24
  43  26    -0.00   0.01  -0.01     0.01  -0.00   0.01    -0.01  -0.00   0.08
  44   6     0.02   0.01   0.17    -0.01  -0.01  -0.14    -0.01   0.00  -0.05
  45   6     0.02   0.02   0.21    -0.01  -0.01  -0.18    -0.00  -0.00   0.11
  46   6     0.01   0.01   0.10    -0.00  -0.01  -0.09     0.00   0.00   0.14
  47   6    -0.00   0.02   0.02     0.00  -0.01  -0.02     0.01  -0.00   0.21
  48   6    -0.02   0.01  -0.10     0.01  -0.00   0.08     0.00  -0.00   0.14
  49   6    -0.03   0.01  -0.22     0.03  -0.00   0.19     0.00  -0.00   0.11
  50   6    -0.04   0.01  -0.25     0.03   0.00   0.22    -0.01  -0.01  -0.05
  51   6    -0.03   0.00  -0.13     0.02  -0.00   0.12    -0.02  -0.01  -0.10
  52   7    -0.01   0.01  -0.07     0.01  -0.00   0.06    -0.01  -0.00   0.03
  53   6    -0.02   0.00  -0.04     0.01   0.00   0.05    -0.03  -0.01  -0.21
  54   6    -0.00  -0.00   0.08    -0.00   0.00  -0.06    -0.02  -0.00  -0.14
  55   6     0.01  -0.01   0.20    -0.01   0.01  -0.17    -0.02  -0.00  -0.13
  56   6     0.02  -0.01   0.23    -0.02   0.01  -0.20    -0.00  -0.00   0.04
  57   6     0.01  -0.01   0.12    -0.01   0.01  -0.11     0.00  -0.00   0.10
  58   7     0.00  -0.00   0.06    -0.00   0.00  -0.05    -0.01  -0.00  -0.01
  59   6     0.01  -0.01   0.05    -0.00   0.01  -0.05     0.01  -0.00   0.18
  60   6    -0.00  -0.00  -0.07     0.00   0.00   0.05     0.00  -0.00   0.09
  61   6    -0.01  -0.00  -0.18     0.01  -0.00   0.15    -0.00   0.00   0.03
  62   6    -0.01   0.00  -0.22     0.01  -0.00   0.19    -0.02   0.01  -0.13
  63   6    -0.00   0.00  -0.12     0.01  -0.00   0.11    -0.02   0.01  -0.14
  64   7     0.00   0.00  -0.06     0.00  -0.00   0.05    -0.01   0.00  -0.01
  65   6     0.01   0.01  -0.05    -0.00  -0.00   0.05    -0.02   0.01  -0.21
  66   6     0.01   0.01   0.06    -0.01  -0.00  -0.04    -0.02   0.01  -0.10
  67   7     0.01   0.01   0.03    -0.00  -0.01  -0.03    -0.01   0.00   0.03
  68   1     0.01   0.00   0.06    -0.01  -0.00  -0.05    -0.01   0.00  -0.04
  69   1     0.01   0.01   0.08    -0.00  -0.00  -0.07     0.00  -0.00   0.06
  70   1    -0.01   0.00  -0.08     0.01  -0.00   0.07     0.00  -0.00   0.06
  71   1    -0.01   0.00  -0.10     0.01   0.00   0.09    -0.01  -0.00  -0.04
  72   1    -0.01   0.00  -0.02     0.01   0.00   0.02    -0.01  -0.00  -0.09
  73   1     0.00  -0.00   0.07    -0.00   0.00  -0.06    -0.01   0.00  -0.06
  74   1     0.01  -0.01   0.09    -0.01   0.00  -0.08     0.00   0.00   0.03
  75   1     0.00  -0.00   0.02    -0.00   0.00  -0.02     0.01  -0.00   0.07
  76   1    -0.00  -0.00  -0.06     0.00  -0.00   0.05     0.00  -0.00   0.03
  77   1    -0.00   0.00  -0.09     0.00  -0.00   0.07    -0.01   0.00  -0.07
  78   1     0.00   0.00  -0.02    -0.00  -0.00   0.02    -0.01   0.00  -0.09
                     10                     11                     12
                        a                      a                      a 
 Frequencies --    69.3660                75.0036                93.0226
 Red. masses --    18.8683                14.5251                29.8241
 Frc consts  --     0.0000                 0.0000                 0.0000
 IR Inten    --     3.2621                10.3867                 1.8878
 Raman Activ --     0.0000                 0.0000                 0.0000
 Depolar     --     0.0000                 0.0000                 0.0000
 Atom AN      X      Y      Z        X      Y      Z        X      Y      Z
   1  26     0.28   0.00  -0.02     0.05   0.00   0.19    -0.01   0.00   0.44
   2   6     0.13  -0.01   0.00     0.02  -0.00   0.03     0.01   0.00  -0.15
   3   6     0.10   0.01  -0.02     0.01   0.00   0.12     0.01   0.00  -0.15
   4   6     0.07  -0.01  -0.02     0.01   0.00   0.12     0.00   0.00   0.00
   5   6     0.04   0.00  -0.03    -0.00   0.00   0.11     0.00   0.00  -0.01
   6   6     0.07   0.02  -0.02     0.01   0.01   0.12     0.00   0.00   0.00
   7   6     0.10  -0.00  -0.01     0.01   0.00   0.12     0.00   0.00  -0.15
   8   6     0.12   0.02   0.01     0.02   0.00   0.03     0.00  -0.00  -0.15
   9   6     0.11   0.05   0.01     0.02   0.01  -0.02    -0.00   0.00   0.01
  10   7     0.08   0.05  -0.01     0.01   0.01   0.07    -0.00   0.00   0.10
  11   6     0.11   0.05   0.04     0.02   0.01  -0.15    -0.00   0.00   0.00
  12   6     0.13   0.03   0.03     0.02   0.00  -0.13    -0.00   0.00   0.02
  13   6     0.12   0.01   0.03     0.02   0.00  -0.18    -0.00   0.00  -0.13
  14   6     0.14  -0.01   0.00     0.02  -0.00  -0.02     0.00  -0.00  -0.15
  15   6     0.16   0.00  -0.01     0.03  -0.00   0.09     0.00   0.00  -0.01
  16   7     0.16   0.03   0.00     0.03   0.01   0.02    -0.00   0.00   0.10
  17   6     0.17  -0.00  -0.03     0.03  -0.00   0.17     0.00  -0.00  -0.04
  18   6     0.16  -0.01  -0.01     0.03  -0.00   0.09     0.00  -0.00  -0.01
  19   6     0.14   0.00   0.01     0.03   0.00  -0.02     0.01   0.00  -0.15
  20   6     0.12  -0.01   0.04     0.03   0.00  -0.18     0.01   0.00  -0.13
  21   6     0.13  -0.03   0.03     0.03  -0.00  -0.13     0.01   0.00   0.02
  22   7     0.17  -0.03   0.00     0.03  -0.00   0.02     0.00   0.00   0.10
  23   6     0.12  -0.05   0.04     0.03  -0.01  -0.15     0.01   0.00   0.00
  24   6     0.11  -0.04   0.01     0.02  -0.01  -0.02     0.01   0.00   0.01
  25   7     0.09  -0.04  -0.01     0.01  -0.01   0.07    -0.00   0.00   0.10
  26   1     0.04  -0.00   0.00     0.01   0.00  -0.00     0.01   0.00  -0.07
  27   1     0.03   0.01  -0.01     0.00   0.00   0.05     0.00   0.00  -0.08
  28   1     0.03  -0.01  -0.01     0.00  -0.00   0.05     0.00  -0.00  -0.07
  29   1     0.04   0.00   0.01     0.01   0.00  -0.00     0.00  -0.00  -0.07
  30   1     0.03   0.01   0.02     0.01   0.00  -0.07    -0.00   0.00  -0.02
  31   1     0.03   0.00   0.02     0.01  -0.00  -0.09    -0.00  -0.00  -0.06
  32   1     0.04  -0.01  -0.00     0.01  -0.00   0.00     0.00  -0.00  -0.07
  33   1     0.05  -0.00  -0.01     0.01  -0.00   0.06     0.00  -0.00  -0.04
  34   1     0.04   0.01   0.00     0.01   0.00   0.00     0.00   0.00  -0.08
  35   1     0.03  -0.00   0.02     0.01   0.00  -0.09     0.00   0.00  -0.06
  36   1     0.03  -0.01   0.02     0.01  -0.00  -0.07     0.00   0.00  -0.02
  37   6     0.02   0.00  -0.02     0.00  -0.00  -0.01     0.00   0.00  -0.06
  38   6     0.02  -0.00   0.01     0.01  -0.01  -0.21     0.00  -0.02  -0.05
  39   6     0.00  -0.01   0.01     0.01  -0.02  -0.31     0.00  -0.03  -0.03
  40   6    -0.00  -0.01   0.01     0.00  -0.02  -0.31     0.00  -0.03   0.02
  41   6    -0.02  -0.00  -0.01     0.00  -0.01  -0.21    -0.00  -0.02   0.05
  42   6    -0.02   0.00  -0.05     0.00  -0.00  -0.01    -0.00  -0.00   0.06
  43  26    -0.28  -0.00  -0.02    -0.04   0.00   0.19    -0.05   0.01  -0.48
  44   6    -0.12   0.01  -0.01    -0.02   0.01   0.02     0.01   0.00   0.16
  45   6    -0.10  -0.00  -0.05    -0.01  -0.00   0.11     0.01   0.00   0.17
  46   6    -0.07   0.01  -0.05    -0.00   0.00   0.12    -0.01   0.01   0.00
  47   6    -0.04   0.00  -0.06     0.01   0.00   0.11    -0.00   0.01   0.01
  48   6    -0.07  -0.01  -0.05    -0.00  -0.00   0.12    -0.00   0.01   0.00
  49   6    -0.11   0.01  -0.05    -0.01   0.00   0.11     0.01   0.01   0.17
  50   6    -0.13  -0.01  -0.02    -0.02  -0.00   0.02     0.01   0.01   0.16
  51   6    -0.11  -0.04   0.01    -0.02  -0.01  -0.02    -0.00   0.01  -0.01
  52   7    -0.09  -0.04  -0.02    -0.01  -0.01   0.07    -0.01   0.00  -0.11
  53   6    -0.11  -0.05   0.06    -0.04  -0.01  -0.15    -0.00   0.00  -0.01
  54   6    -0.13  -0.03   0.05    -0.04  -0.01  -0.13    -0.00  -0.00  -0.02
  55   6    -0.12  -0.01   0.06    -0.05  -0.00  -0.18     0.01  -0.00   0.14
  56   6    -0.14   0.00   0.02    -0.03   0.00  -0.02     0.02  -0.01   0.16
  57   6    -0.16  -0.01  -0.01    -0.02  -0.00   0.09     0.00  -0.00   0.01
  58   7    -0.17  -0.03   0.01    -0.03  -0.01   0.02    -0.01   0.00  -0.11
  59   6    -0.17  -0.00  -0.04    -0.02  -0.01   0.16     0.00  -0.00   0.04
  60   6    -0.16   0.00  -0.02    -0.02  -0.00   0.09    -0.00  -0.00   0.01
  61   6    -0.14  -0.01   0.01    -0.03  -0.00  -0.02     0.01  -0.01   0.16
  62   6    -0.12   0.00   0.06    -0.04   0.01  -0.18     0.01  -0.01   0.14
  63   6    -0.13   0.03   0.05    -0.03   0.01  -0.13    -0.00  -0.00  -0.02
  64   7    -0.17   0.02   0.01    -0.03   0.01   0.02    -0.01   0.00  -0.11
  65   6    -0.11   0.05   0.06    -0.03   0.02  -0.15    -0.00  -0.00  -0.01
  66   6    -0.11   0.04   0.02    -0.02   0.01  -0.02    -0.00   0.00  -0.01
  67   7    -0.09   0.04  -0.01    -0.01   0.01   0.07    -0.01   0.01  -0.11
  68   1    -0.04   0.00   0.00    -0.01   0.00  -0.00     0.00   0.00   0.08
  69   1    -0.03  -0.01  -0.02    -0.00  -0.00   0.05     0.00   0.00   0.08
  70   1    -0.03   0.01  -0.02    -0.00   0.00   0.05     0.01   0.00   0.08
  71   1    -0.04  -0.00  -0.00    -0.01  -0.00  -0.00     0.01   0.00   0.08
  72   1    -0.03  -0.01   0.02    -0.01  -0.00  -0.07     0.00   0.00   0.02
  73   1    -0.03  -0.00   0.03    -0.02  -0.00  -0.09     0.01  -0.00   0.07
  74   1    -0.04   0.01   0.00    -0.01   0.00   0.00     0.01  -0.00   0.08
  75   1    -0.05  -0.00  -0.02    -0.00  -0.00   0.06     0.00  -0.00   0.04
  76   1    -0.04  -0.01  -0.00    -0.01  -0.00   0.00     0.01  -0.00   0.08
  77   1    -0.03  -0.00   0.03    -0.01   0.00  -0.09     0.01  -0.00   0.07
  78   1    -0.03   0.01   0.03    -0.01   0.01  -0.07     0.00  -0.00   0.02
                     13                     14                     15
                        a                      a                      a 
 Frequencies --    93.8698                95.7590               113.2696
 Red. masses --    26.7011                12.9095                11.1718
 Frc consts  --     0.0000                 0.0000                 0.0000
 IR Inten    --     3.2706                 0.4156                 8.8550
 Raman Activ --     0.0000                 0.0000                 0.0000
 Depolar     --     0.0000                 0.0000                 0.0000
 Atom AN      X      Y      Z        X      Y      Z        X      Y      Z
   1  26     0.01   0.01  -0.45    -0.01   0.07   0.06    -0.00   0.00   0.04
   2   6     0.00   0.01   0.19     0.05   0.07  -0.03    -0.01  -0.00   0.18
   3   6    -0.00   0.02   0.20     0.03   0.08  -0.03    -0.01  -0.00   0.09
   4   6    -0.00   0.02   0.01     0.01   0.07  -0.00     0.00   0.00  -0.05
   5   6    -0.00   0.02   0.00     0.00   0.08  -0.00     0.01  -0.00  -0.15
   6   6    -0.00   0.02   0.01    -0.01   0.07  -0.01     0.00  -0.00  -0.04
   7   6    -0.01   0.02   0.19    -0.03   0.08  -0.04    -0.00   0.00   0.09
   8   6    -0.01   0.02   0.19    -0.05   0.07  -0.04    -0.01   0.00   0.18
   9   6    -0.01   0.01  -0.00    -0.04   0.05  -0.00    -0.00  -0.00   0.07
  10   7    -0.00   0.01  -0.10    -0.02   0.05   0.01     0.00  -0.00  -0.02
  11   6    -0.01   0.01  -0.03    -0.06   0.02   0.01    -0.00  -0.00  -0.04
  12   6    -0.01   0.00  -0.05    -0.05   0.01   0.01    -0.00  -0.00  -0.11
  13   6    -0.01  -0.00   0.09    -0.06  -0.01  -0.01    -0.00  -0.00  -0.19
  14   6    -0.01  -0.01   0.16    -0.04  -0.03  -0.02    -0.00  -0.00  -0.02
  15   6    -0.00  -0.00   0.03    -0.03  -0.02  -0.01    -0.01  -0.00   0.11
  16   7     0.00   0.00  -0.10    -0.03   0.00   0.01    -0.01  -0.00   0.03
  17   6     0.00  -0.01   0.09    -0.01  -0.03  -0.02    -0.01  -0.00   0.21
  18   6     0.01  -0.01   0.03     0.01  -0.02  -0.01    -0.01  -0.00   0.11
  19   6     0.01  -0.01   0.16     0.04  -0.03  -0.02    -0.00   0.00  -0.02
  20   6     0.01  -0.01   0.09     0.05  -0.01  -0.00     0.00   0.01  -0.19
  21   6     0.01  -0.00  -0.05     0.04   0.01   0.01     0.00   0.00  -0.11
  22   7     0.01  -0.00  -0.11     0.02   0.01   0.02    -0.00   0.00   0.03
  23   6     0.01   0.00  -0.03     0.05   0.03   0.01    -0.00   0.00  -0.04
  24   6     0.01   0.01  -0.00     0.04   0.05   0.00    -0.01   0.00   0.07
  25   7     0.00   0.01  -0.10     0.02   0.06   0.01     0.00   0.00  -0.01
  26   1     0.00   0.00   0.09     0.02   0.02  -0.01    -0.01  -0.00   0.09
  27   1    -0.00   0.01   0.09     0.01   0.03  -0.02    -0.00  -0.00   0.03
  28   1    -0.00   0.01   0.09    -0.01   0.03  -0.02    -0.00   0.00   0.04
  29   1    -0.01   0.01   0.09    -0.02   0.02  -0.02    -0.00   0.00   0.09
  30   1    -0.00   0.00   0.01    -0.02   0.01   0.00    -0.00  -0.00  -0.02
  31   1    -0.00  -0.00   0.04    -0.02  -0.00  -0.00     0.00  -0.00  -0.09
  32   1    -0.00  -0.00   0.08    -0.01  -0.01  -0.01    -0.00   0.00   0.00
  33   1     0.00  -0.00   0.06    -0.00  -0.01  -0.01    -0.00  -0.00   0.09
  34   1     0.00  -0.00   0.08     0.01  -0.01  -0.01    -0.00   0.00   0.00
  35   1     0.00  -0.00   0.04     0.02  -0.00  -0.00     0.00   0.00  -0.09
  36   1     0.00   0.00   0.01     0.02   0.01   0.00    -0.00   0.00  -0.02
  37   6    -0.00   0.00   0.02     0.00   0.02   0.00     0.01  -0.00  -0.26
  38   6    -0.00  -0.07  -0.04     0.00  -0.35   0.02     0.01  -0.01  -0.27
  39   6    -0.00  -0.10  -0.06     0.00  -0.50   0.03     0.01  -0.01  -0.14
  40   6    -0.00  -0.10  -0.06     0.00  -0.50   0.02     0.01  -0.00   0.14
  41   6    -0.00  -0.07  -0.04     0.00  -0.35   0.01     0.01   0.00   0.27
  42   6    -0.00   0.00   0.01    -0.00   0.02  -0.01     0.01   0.00   0.26
  43  26    -0.04   0.02  -0.40     0.02   0.07   0.10    -0.01   0.00  -0.04
  44   6     0.02   0.01   0.17     0.05   0.07  -0.04    -0.01   0.00  -0.18
  45   6     0.01   0.02   0.18     0.03   0.08  -0.05    -0.00   0.00  -0.09
  46   6    -0.00   0.02   0.01     0.01   0.07  -0.01     0.00   0.00   0.04
  47   6    -0.00   0.02   0.00    -0.00   0.08  -0.01     0.01   0.00   0.15
  48   6    -0.00   0.02   0.01    -0.01   0.07  -0.01    -0.00   0.00   0.04
  49   6     0.01   0.02   0.18    -0.04   0.08  -0.05    -0.01  -0.01  -0.09
  50   6     0.01   0.02   0.17    -0.05   0.07  -0.05    -0.01  -0.01  -0.18
  51   6    -0.01   0.01   0.00    -0.04   0.05  -0.00    -0.01   0.00  -0.07
  52   7    -0.01   0.01  -0.09    -0.02   0.06   0.02    -0.00   0.00   0.02
  53   6    -0.01   0.01  -0.03    -0.05   0.03   0.01     0.01   0.00   0.04
  54   6    -0.01   0.00  -0.05    -0.04   0.01   0.02     0.02   0.00   0.11
  55   6    -0.00  -0.01   0.08    -0.06  -0.01  -0.01     0.02   0.00   0.19
  56   6     0.01  -0.01   0.14    -0.04  -0.03  -0.03     0.01   0.00   0.02
  57   6     0.00  -0.01   0.03    -0.02  -0.02  -0.00    -0.01   0.00  -0.11
  58   7    -0.01   0.00  -0.09    -0.02   0.01   0.03     0.00   0.00  -0.03
  59   6     0.01  -0.01   0.08     0.00  -0.03  -0.02    -0.02   0.01  -0.21
  60   6     0.01  -0.01   0.03     0.02  -0.02  -0.01    -0.01   0.00  -0.11
  61   6     0.02  -0.01   0.14     0.04  -0.03  -0.05     0.00  -0.00   0.02
  62   6     0.02  -0.01   0.08     0.06  -0.01  -0.03     0.02  -0.01   0.19
  63   6     0.00   0.00  -0.05     0.05   0.01   0.01     0.01  -0.01   0.11
  64   7    -0.00   0.00  -0.09     0.03   0.01   0.02    -0.00  -0.00  -0.03
  65   6     0.01   0.00  -0.03     0.06   0.02   0.01     0.01  -0.00   0.04
  66   6     0.01   0.01   0.00     0.04   0.05   0.00    -0.00   0.00  -0.07
  67   7    -0.01   0.01  -0.09     0.02   0.05   0.02     0.00  -0.00   0.02
  68   1     0.01   0.00   0.08     0.02   0.02  -0.02    -0.00   0.00  -0.09
  69   1     0.01   0.01   0.09     0.01   0.03  -0.02    -0.00   0.00  -0.04
  70   1     0.01   0.01   0.08    -0.01   0.03  -0.02    -0.00  -0.00  -0.04
  71   1     0.00   0.01   0.08    -0.02   0.02  -0.02    -0.01  -0.00  -0.09
  72   1    -0.00   0.00   0.01    -0.02   0.01  -0.00     0.00   0.00   0.02
  73   1    -0.00  -0.00   0.04    -0.02  -0.00  -0.01     0.01  -0.00   0.09
  74   1     0.01  -0.00   0.07    -0.01  -0.01  -0.01     0.00   0.00  -0.00
  75   1     0.01  -0.00   0.06    -0.00  -0.01  -0.01    -0.01   0.00  -0.09
  76   1     0.01  -0.01   0.07     0.01  -0.01  -0.02     0.00  -0.00  -0.00
  77   1     0.01  -0.00   0.04     0.02  -0.00  -0.01     0.01  -0.00   0.09
  78   1     0.00   0.00   0.01     0.02   0.01   0.00     0.00  -0.00   0.02
                     16                     17                     18
                        a                      a                      a 
 Frequencies --   121.4688               121.4788               138.0482
 Red. masses --    10.5578                10.5566                11.1143
 Frc consts  --     0.0000                 0.0000                 0.0000
 IR Inten    --     1.0193                 0.1645                18.8788
 Raman Activ --     0.0000                 0.0000                 0.0000
 Depolar     --     0.0000                 0.0000                 0.0000
 Atom AN      X      Y      Z        X      Y      Z        X      Y      Z
   1  26    -0.00  -0.00  -0.00     0.00  -0.00  -0.00     0.01  -0.00   0.03
   2   6     0.00  -0.00  -0.04     0.00  -0.00  -0.05    -0.01  -0.00   0.17
   3   6     0.01  -0.00  -0.18     0.01   0.00  -0.25     0.00  -0.00  -0.02
   4   6     0.00  -0.00  -0.07     0.01   0.00  -0.10     0.00  -0.00  -0.16
   5   6     0.00   0.00  -0.00    -0.00   0.00   0.00     0.00  -0.00  -0.24
   6   6    -0.00   0.00   0.07    -0.00   0.00   0.10     0.00   0.00  -0.16
   7   6    -0.01   0.00   0.18    -0.01   0.01   0.25     0.00   0.00  -0.02
   8   6    -0.00   0.00   0.04    -0.00   0.00   0.05    -0.00   0.01   0.17
   9   6     0.00  -0.00  -0.11     0.00  -0.00  -0.15    -0.00   0.01   0.10
  10   7     0.00  -0.00  -0.06     0.00  -0.00  -0.09     0.00   0.00  -0.07
  11   6     0.00  -0.00  -0.19     0.00  -0.00  -0.27    -0.00   0.01   0.05
  12   6     0.00  -0.00  -0.10     0.00  -0.00  -0.14     0.00   0.00  -0.06
  13   6     0.00  -0.00   0.05     0.00  -0.00   0.07     0.00  -0.00  -0.19
  14   6    -0.00   0.00   0.18    -0.00   0.00   0.25     0.00  -0.00  -0.06
  15   6    -0.00  -0.00   0.08     0.00  -0.00   0.11     0.00  -0.00   0.11
  16   7     0.00  -0.00  -0.05     0.00  -0.00  -0.07     0.00   0.00   0.08
  17   6    -0.00   0.00   0.00     0.00   0.00  -0.00     0.00  -0.00   0.21
  18   6    -0.00   0.00  -0.08     0.00   0.00  -0.11     0.00  -0.00   0.11
  19   6     0.00   0.00  -0.18     0.01   0.01  -0.25     0.00   0.00  -0.06
  20   6    -0.00   0.00  -0.04     0.00   0.00  -0.06     0.01   0.00  -0.19
  21   6    -0.00  -0.00   0.10    -0.00  -0.00   0.14     0.00  -0.00  -0.06
  22   7    -0.00   0.00   0.05    -0.00  -0.00   0.07     0.00  -0.00   0.08
  23   6    -0.01  -0.00   0.19    -0.01  -0.00   0.27    -0.00  -0.01   0.05
  24   6    -0.00  -0.00   0.11    -0.00  -0.00   0.15    -0.00  -0.01   0.10
  25   7    -0.00  -0.00   0.06    -0.00  -0.00   0.09     0.00  -0.01  -0.07
  26   1     0.00  -0.00  -0.01     0.00   0.00  -0.02    -0.00  -0.00   0.10
  27   1     0.00  -0.00  -0.09     0.01   0.00  -0.13     0.00   0.00  -0.02
  28   1    -0.00   0.00   0.09    -0.00   0.00   0.13     0.00   0.00  -0.02
  29   1    -0.00   0.00   0.02    -0.00   0.00   0.02    -0.00   0.00   0.10
  30   1     0.00  -0.00  -0.07     0.00  -0.00  -0.10    -0.00   0.00   0.02
  31   1     0.00  -0.00   0.02     0.00  -0.00   0.02     0.00  -0.00  -0.10
  32   1    -0.00   0.00   0.09    -0.00   0.00   0.13     0.00  -0.00  -0.03
  33   1    -0.00   0.00   0.00     0.00   0.00  -0.00     0.00  -0.00   0.07
  34   1     0.00   0.00  -0.09     0.00   0.00  -0.13     0.00   0.00  -0.03
  35   1    -0.00   0.00  -0.02     0.00   0.00  -0.02     0.00   0.00  -0.10
  36   1    -0.00  -0.00   0.07    -0.00  -0.00   0.10    -0.00  -0.00   0.02
  37   6     0.00   0.00  -0.00    -0.00   0.00   0.00     0.00  -0.00  -0.18
  38   6     0.00   0.01   0.00    -0.00  -0.00   0.00    -0.01  -0.00   0.07
  39   6     0.00   0.01   0.00    -0.00  -0.01   0.00    -0.01   0.00   0.20
  40   6     0.00   0.00   0.00    -0.00  -0.01  -0.00    -0.01   0.00   0.20
  41   6     0.00   0.00  -0.00    -0.00  -0.00  -0.00    -0.01   0.00   0.07
  42   6     0.00  -0.00  -0.00    -0.00   0.00  -0.00    -0.02  -0.00  -0.18
  43  26     0.00  -0.01  -0.00    -0.00   0.00   0.00     0.01  -0.00   0.02
  44   6    -0.00  -0.00  -0.05     0.00   0.00   0.04     0.01  -0.01   0.17
  45   6    -0.01   0.00  -0.25     0.01  -0.00   0.18    -0.00  -0.00  -0.02
  46   6    -0.00   0.00  -0.10     0.00   0.00   0.07    -0.01  -0.00  -0.16
  47   6     0.00   0.00  -0.00    -0.00  -0.00  -0.00    -0.02  -0.00  -0.24
  48   6     0.01   0.00   0.10    -0.01  -0.00  -0.07    -0.01   0.00  -0.16
  49   6     0.02   0.01   0.25    -0.02  -0.01  -0.18    -0.00   0.01  -0.02
  50   6     0.00   0.00   0.05    -0.00  -0.00  -0.04     0.02   0.01   0.17
  51   6    -0.02  -0.00  -0.15     0.01   0.00   0.11     0.01   0.01   0.10
  52   7    -0.01  -0.00  -0.09     0.01   0.00   0.06    -0.00   0.00  -0.07
  53   6    -0.03  -0.00  -0.27     0.02   0.00   0.19     0.00   0.00   0.05
  54   6    -0.01  -0.00  -0.14     0.01   0.00   0.10    -0.01   0.00  -0.06
  55   6     0.01  -0.00   0.06    -0.01   0.00  -0.04    -0.03   0.00  -0.19
  56   6     0.03  -0.00   0.25    -0.02   0.00  -0.18    -0.01  -0.00  -0.06
  57   6     0.01  -0.00   0.11    -0.01   0.00  -0.08     0.01  -0.00   0.11
  58   7    -0.01  -0.00  -0.07     0.00   0.00   0.05     0.01  -0.00   0.08
  59   6    -0.00   0.00   0.00     0.00  -0.00  -0.00     0.02  -0.01   0.20
  60   6    -0.01   0.01  -0.11     0.01  -0.00   0.08     0.01  -0.00   0.11
  61   6    -0.03   0.01  -0.25     0.02  -0.01   0.18    -0.00   0.01  -0.06
  62   6    -0.01   0.00  -0.06     0.01  -0.00   0.04    -0.02   0.01  -0.19
  63   6     0.01  -0.00   0.14    -0.01   0.00  -0.10    -0.01   0.00  -0.06
  64   7     0.00  -0.00   0.07    -0.00   0.00  -0.05     0.01  -0.00   0.08
  65   6     0.02  -0.01   0.27    -0.01   0.01  -0.19     0.00  -0.00   0.05
  66   6     0.01  -0.00   0.15    -0.01   0.00  -0.11     0.00  -0.01   0.10
  67   7     0.01  -0.00   0.09    -0.01   0.00  -0.06    -0.01  -0.00  -0.07
  68   1    -0.00  -0.00  -0.02     0.00   0.00   0.01     0.01  -0.00   0.10
  69   1    -0.01   0.00  -0.13     0.00  -0.00   0.09    -0.00  -0.00  -0.02
  70   1     0.01   0.00   0.13    -0.01  -0.00  -0.09    -0.00   0.00  -0.02
  71   1     0.00   0.00   0.02    -0.00  -0.00  -0.02     0.01   0.00   0.10
  72   1    -0.01  -0.00  -0.10     0.01   0.00   0.07     0.00   0.00   0.02
  73   1     0.00  -0.00   0.02    -0.00   0.00  -0.02    -0.01   0.00  -0.10
  74   1     0.02  -0.00   0.13    -0.01   0.00  -0.09    -0.00  -0.00  -0.03
  75   1    -0.00   0.00   0.00     0.00  -0.00  -0.00     0.01  -0.00   0.07
  76   1    -0.01   0.01  -0.13     0.01  -0.00   0.09    -0.00   0.00  -0.03
  77   1    -0.00   0.00  -0.02     0.00  -0.00   0.02    -0.01   0.00  -0.10
  78   1     0.01  -0.00   0.10    -0.00   0.00  -0.07    -0.00  -0.00   0.02
                     19                     20                     21
                        a                      a                      a 
 Frequencies --   150.7308               174.8743               183.7369
 Red. masses --    12.5314                12.0848                12.1248
 Frc consts  --     0.0000                 0.0000                 0.0000
 IR Inten    --   356.7310                10.9714                 3.2337
 Raman Activ --     0.0000                 0.0000                 0.0000
 Depolar     --     0.0000                 0.0000                 0.0000
 Atom AN      X      Y      Z        X      Y      Z        X      Y      Z
   1  26     0.06   0.00   0.01    -0.01   0.00   0.08     0.00  -0.02  -0.01
   2   6     0.03  -0.04  -0.01     0.00   0.01  -0.08     0.11  -0.13   0.00
   3   6    -0.04   0.02  -0.00    -0.00   0.00   0.09     0.12  -0.13   0.01
   4   6    -0.12  -0.03   0.00    -0.01   0.00   0.16     0.11  -0.13   0.01
   5   6    -0.17   0.00   0.00    -0.00   0.00   0.12    -0.00  -0.08   0.01
   6   6    -0.12   0.03   0.00    -0.00   0.00   0.16    -0.11  -0.13   0.00
   7   6    -0.04  -0.02  -0.00    -0.00   0.00   0.09    -0.12  -0.13   0.00
   8   6     0.03   0.04  -0.00     0.00  -0.00  -0.08    -0.11  -0.13  -0.00
   9   6    -0.01   0.12  -0.00     0.00  -0.00  -0.06    -0.11  -0.11  -0.00
  10   7    -0.10   0.12  -0.00    -0.00   0.00   0.10    -0.13  -0.13   0.00
  11   6     0.01   0.16  -0.00     0.00  -0.00  -0.11    -0.05  -0.00  -0.00
  12   6     0.04   0.11   0.00     0.00  -0.00  -0.02    -0.11   0.10  -0.00
  13   6     0.01   0.04   0.00     0.00  -0.00   0.13    -0.10   0.12   0.00
  14   6     0.07  -0.02   0.00     0.00  -0.00   0.08    -0.11   0.12  -0.00
  15   6     0.14   0.02   0.00     0.00  -0.00  -0.08    -0.10   0.12  -0.00
  16   7     0.14   0.11   0.00     0.00  -0.00  -0.10    -0.12   0.12  -0.01
  17   6     0.19  -0.00  -0.00     0.00  -0.00  -0.14     0.00   0.07  -0.00
  18   6     0.14  -0.02   0.00    -0.00  -0.00  -0.08     0.11   0.12   0.00
  19   6     0.07   0.02   0.00    -0.00  -0.01   0.08     0.11   0.12   0.01
  20   6     0.01  -0.04   0.00    -0.00  -0.00   0.13     0.10   0.12   0.01
  21   6     0.04  -0.11   0.00     0.00   0.00  -0.02     0.11   0.10   0.00
  22   7     0.14  -0.11   0.00     0.00   0.00  -0.10     0.13   0.12   0.00
  23   6     0.01  -0.16  -0.00     0.01   0.00  -0.11     0.05  -0.01  -0.00
  24   6    -0.01  -0.12  -0.00     0.00   0.01  -0.06     0.11  -0.12   0.00
  25   7    -0.10  -0.12   0.00    -0.00   0.01   0.10     0.13  -0.13   0.01
  26   1     0.03  -0.01  -0.00     0.00   0.00  -0.05     0.03  -0.04  -0.00
  27   1    -0.01   0.02  -0.00    -0.00   0.00   0.04     0.03  -0.04   0.00
  28   1    -0.01  -0.02   0.00    -0.00   0.00   0.04    -0.03  -0.04   0.00
  29   1     0.03   0.01  -0.00     0.00  -0.00  -0.05    -0.03  -0.04  -0.00
  30   1     0.00   0.05  -0.00     0.00  -0.00  -0.05     0.02  -0.00  -0.00
  31   1    -0.02   0.01   0.00     0.00  -0.00   0.07    -0.03   0.04   0.00
  32   1     0.02  -0.03   0.00     0.00   0.00   0.05    -0.03   0.04   0.00
  33   1     0.05  -0.00  -0.00     0.00   0.00  -0.04     0.00  -0.01  -0.00
  34   1     0.02   0.03   0.00    -0.00  -0.00   0.05     0.03   0.04   0.00
  35   1    -0.02  -0.01   0.00    -0.00  -0.00   0.07     0.03   0.04   0.00
  36   1     0.00  -0.05  -0.00     0.00   0.00  -0.05    -0.02  -0.00  -0.00
  37   6    -0.18  -0.00  -0.00     0.01  -0.01  -0.12    -0.00   0.05  -0.00
  38   6    -0.18  -0.00  -0.01     0.01  -0.02  -0.37    -0.00   0.14  -0.01
  39   6    -0.18  -0.00  -0.01     0.01  -0.02  -0.26    -0.00   0.11  -0.01
  40   6    -0.18  -0.00  -0.01     0.00   0.01   0.26     0.00  -0.12   0.01
  41   6    -0.18  -0.00   0.01     0.00   0.02   0.37     0.00  -0.15   0.01
  42   6    -0.18  -0.00   0.02    -0.00   0.01   0.12     0.00  -0.04   0.00
  43  26     0.06   0.00   0.01     0.00  -0.01  -0.08     0.00   0.02   0.02
  44   6     0.03  -0.04  -0.01     0.01  -0.01   0.08    -0.08   0.10   0.01
  45   6    -0.04   0.01   0.00    -0.00  -0.00  -0.08    -0.09   0.10   0.01
  46   6    -0.11  -0.03   0.02    -0.01  -0.00  -0.16    -0.08   0.10   0.00
  47   6    -0.17  -0.00   0.02    -0.01  -0.00  -0.12    -0.00   0.06  -0.01
  48   6    -0.12   0.03   0.02    -0.01  -0.00  -0.16     0.08   0.10  -0.02
  49   6    -0.04  -0.02   0.01    -0.01   0.00  -0.08     0.08   0.10  -0.01
  50   6     0.03   0.04  -0.01     0.01   0.00   0.08     0.08   0.10  -0.01
  51   6    -0.01   0.12  -0.00     0.00   0.00   0.06     0.08   0.09  -0.01
  52   7    -0.10   0.12   0.01    -0.01  -0.00  -0.10     0.09   0.10  -0.02
  53   6     0.01   0.16  -0.00     0.01   0.00   0.11     0.04   0.00  -0.00
  54   6     0.04   0.11  -0.01    -0.00   0.00   0.02     0.08  -0.07  -0.01
  55   6     0.01   0.04  -0.00    -0.02   0.00  -0.13     0.07  -0.09  -0.01
  56   6     0.07  -0.02  -0.01    -0.01   0.00  -0.08     0.08  -0.09  -0.01
  57   6     0.14   0.02  -0.01     0.01   0.00   0.08     0.08  -0.09  -0.01
  58   7     0.13   0.11  -0.01     0.01   0.00   0.10     0.09  -0.09  -0.01
  59   6     0.18   0.00  -0.02     0.01  -0.00   0.14     0.00  -0.06  -0.00
  60   6     0.14  -0.02  -0.02     0.01   0.00   0.08    -0.07  -0.09   0.01
  61   6     0.07   0.02  -0.01    -0.01   0.01  -0.08    -0.08  -0.09   0.00
  62   6     0.01  -0.04   0.00    -0.01   0.01  -0.13    -0.07  -0.09   0.00
  63   6     0.05  -0.11  -0.00     0.00   0.00   0.02    -0.08  -0.08   0.00
  64   7     0.14  -0.11  -0.02     0.01  -0.00   0.10    -0.09  -0.09   0.01
  65   6     0.02  -0.16  -0.00     0.00  -0.01   0.11    -0.04   0.00   0.00
  66   6    -0.01  -0.12  -0.00     0.00  -0.01   0.06    -0.08   0.08   0.01
  67   7    -0.10  -0.12   0.01    -0.01  -0.01  -0.10    -0.10   0.10   0.01
  68   1     0.03  -0.01  -0.01     0.00  -0.00   0.05    -0.02   0.03   0.00
  69   1    -0.01   0.02  -0.00    -0.00  -0.00  -0.04    -0.03   0.03   0.00
  70   1    -0.01  -0.02   0.00    -0.00  -0.00  -0.04     0.02   0.03  -0.00
  71   1     0.03   0.01  -0.00     0.00   0.00   0.05     0.02   0.03   0.00
  72   1     0.00   0.05  -0.00     0.00   0.00   0.05    -0.01   0.00   0.00
  73   1    -0.02   0.01   0.00    -0.01   0.00  -0.07     0.02  -0.03  -0.00
  74   1     0.02  -0.02  -0.00    -0.01   0.00  -0.05     0.02  -0.03  -0.00
  75   1     0.05   0.00  -0.01     0.00  -0.00   0.04    -0.00   0.01   0.00
  76   1     0.02   0.03  -0.00    -0.00   0.00  -0.05    -0.02  -0.03   0.00
  77   1    -0.02  -0.01   0.00    -0.01   0.00  -0.07    -0.02  -0.03  -0.00
  78   1     0.00  -0.05  -0.00     0.00  -0.00   0.05     0.01   0.00  -0.00
                     22                     23                     24
                        a                      a                      a 
 Frequencies --   184.1589               188.2847               206.9744
 Red. masses --    12.1416                12.3345                34.8191
 Frc consts  --     0.0000                 0.0000                 0.0000
 IR Inten    --     4.0025                 0.0989                 6.2901
 Raman Activ --     0.0000                 0.0000                 0.0000
 Depolar     --     0.0000                 0.0000                 0.0000
 Atom AN      X      Y      Z        X      Y      Z        X      Y      Z
   1  26    -0.00   0.01  -0.01    -0.00  -0.06   0.01     0.51  -0.00   0.01
   2   6     0.09  -0.09   0.00    -0.05  -0.00  -0.00    -0.03   0.02   0.00
   3   6     0.09  -0.09   0.00    -0.04  -0.01   0.00     0.02  -0.03   0.00
   4   6     0.08  -0.09   0.00    -0.02  -0.00   0.00     0.08   0.00  -0.00
   5   6     0.00  -0.05   0.00    -0.00  -0.01   0.00     0.06  -0.00   0.00
   6   6    -0.08  -0.09  -0.00     0.02  -0.00   0.00     0.08  -0.00   0.00
   7   6    -0.09  -0.09  -0.00     0.04  -0.01   0.00     0.02   0.03   0.00
   8   6    -0.09  -0.09  -0.00     0.05  -0.00   0.00    -0.03  -0.02  -0.00
   9   6    -0.09  -0.08  -0.00     0.05   0.00   0.00    -0.00  -0.07  -0.00
  10   7    -0.10  -0.10  -0.00     0.03   0.00   0.00     0.08  -0.07  -0.00
  11   6    -0.05  -0.00   0.00     0.04  -0.01  -0.00    -0.03  -0.13   0.00
  12   6    -0.09   0.08  -0.00     0.06  -0.03   0.00    -0.04  -0.12   0.01
  13   6    -0.09   0.09  -0.00     0.07  -0.02   0.00    -0.00  -0.06  -0.00
  14   6    -0.09   0.09  -0.00     0.06  -0.01   0.00    -0.05  -0.01  -0.01
  15   6    -0.09   0.09  -0.00     0.05  -0.02  -0.00    -0.10  -0.03  -0.00
  16   7    -0.10   0.10  -0.00     0.06  -0.04  -0.00    -0.09  -0.12   0.01
  17   6    -0.00   0.05   0.00     0.00  -0.00  -0.00    -0.15   0.00  -0.01
  18   6     0.09   0.09   0.00    -0.04  -0.02  -0.00    -0.10   0.03  -0.00
  19   6     0.09   0.09   0.00    -0.06  -0.01   0.00    -0.05   0.01  -0.00
  20   6     0.09   0.09   0.00    -0.07  -0.03   0.00    -0.00   0.06   0.00
  21   6     0.09   0.08   0.00    -0.06  -0.04  -0.00    -0.04   0.12   0.00
  22   7     0.10   0.10   0.01    -0.05  -0.04  -0.00    -0.09   0.12   0.00
  23   6     0.05   0.00   0.00    -0.04  -0.02  -0.01    -0.03   0.13   0.00
  24   6     0.09  -0.08   0.00    -0.05  -0.00  -0.00    -0.00   0.07  -0.00
  25   7     0.10  -0.09   0.00    -0.03   0.00   0.00     0.08   0.07  -0.00
  26   1     0.03  -0.03   0.00    -0.02  -0.00  -0.00    -0.02   0.00   0.00
  27   1     0.03  -0.03  -0.00    -0.01  -0.00   0.00     0.00  -0.02   0.00
  28   1    -0.03  -0.03  -0.00     0.01  -0.00   0.00     0.01   0.02   0.00
  29   1    -0.03  -0.03  -0.00     0.02  -0.00   0.00    -0.02  -0.00  -0.00
  30   1     0.01  -0.00   0.00     0.01  -0.00  -0.00    -0.02  -0.04  -0.00
  31   1    -0.03   0.03  -0.00     0.02  -0.01   0.00     0.02  -0.01  -0.00
  32   1    -0.03   0.03  -0.00     0.02  -0.00   0.00    -0.01   0.01  -0.00
  33   1    -0.00  -0.01   0.00     0.00   0.01  -0.00    -0.04   0.00  -0.00
  34   1     0.03   0.03   0.00    -0.02   0.00   0.00    -0.01  -0.01  -0.00
  35   1     0.03   0.03  -0.00    -0.02  -0.01   0.00     0.02   0.01   0.00
  36   1    -0.01   0.00   0.00    -0.01  -0.00  -0.00    -0.02   0.04   0.00
  37   6     0.00   0.02   0.00    -0.00   0.07  -0.00     0.04   0.00   0.01
  38   6     0.00  -0.04   0.00    -0.00   0.52  -0.01     0.03   0.01  -0.00
  39   6     0.00  -0.03   0.00    -0.00   0.39  -0.01     0.00   0.01  -0.01
  40   6     0.00   0.01  -0.00     0.01  -0.39   0.01    -0.01  -0.00  -0.02
  41   6     0.00   0.01  -0.00     0.01  -0.52   0.01    -0.03  -0.01  -0.02
  42   6    -0.00   0.03   0.00     0.00  -0.07   0.00    -0.04  -0.00  -0.00
  43  26    -0.00   0.00  -0.03     0.00   0.06  -0.01    -0.50  -0.01   0.02
  44   6     0.12  -0.12  -0.01     0.05   0.00   0.00     0.03  -0.02  -0.01
  45   6     0.12  -0.12  -0.01     0.04   0.01  -0.01    -0.02   0.03  -0.01
  46   6     0.11  -0.13  -0.01     0.02   0.00  -0.01    -0.08  -0.00   0.01
  47   6     0.00  -0.07   0.00     0.00   0.01  -0.00    -0.07  -0.00   0.01
  48   6    -0.11  -0.13   0.02    -0.02   0.00  -0.00    -0.08   0.00   0.00
  49   6    -0.12  -0.13   0.01    -0.04   0.01  -0.00    -0.02  -0.03  -0.02
  50   6    -0.11  -0.13   0.01    -0.05   0.00  -0.00     0.03   0.02  -0.00
  51   6    -0.12  -0.11   0.01    -0.05  -0.00   0.00     0.00   0.07   0.01
  52   7    -0.13  -0.13   0.02    -0.03  -0.00   0.00    -0.08   0.07   0.02
  53   6    -0.06  -0.00   0.01    -0.05   0.01   0.01     0.03   0.13   0.01
  54   6    -0.12   0.11   0.01    -0.06   0.04   0.01     0.03   0.12  -0.01
  55   6    -0.12   0.12   0.01    -0.07   0.02   0.01     0.00   0.05  -0.01
  56   6    -0.12   0.12   0.01    -0.06   0.01   0.00     0.05   0.01  -0.00
  57   6    -0.11   0.12   0.01    -0.05   0.02   0.01     0.10   0.03  -0.01
  58   7    -0.13   0.13   0.01    -0.05   0.04   0.01     0.09   0.12  -0.01
  59   6    -0.00   0.07   0.00    -0.00   0.00   0.00     0.16   0.00   0.00
  60   6     0.11   0.13  -0.01     0.04   0.02  -0.00     0.10  -0.03  -0.00
  61   6     0.12   0.12  -0.01     0.06   0.02  -0.01     0.05  -0.01  -0.01
  62   6     0.11   0.13  -0.01     0.07   0.03  -0.01     0.00  -0.05  -0.02
  63   6     0.12   0.11  -0.01     0.06   0.04  -0.00     0.04  -0.12  -0.01
  64   7     0.13   0.13  -0.01     0.05   0.04  -0.00     0.09  -0.12  -0.00
  65   6     0.06   0.00  -0.00     0.05   0.01   0.00     0.03  -0.13   0.00
  66   6     0.12  -0.11  -0.01     0.05  -0.00  -0.00     0.00  -0.07   0.01
  67   7     0.13  -0.13  -0.01     0.03  -0.00  -0.01    -0.08  -0.07   0.02
  68   1     0.03  -0.04  -0.00     0.02   0.00   0.00     0.02  -0.00  -0.01
  69   1     0.04  -0.03  -0.00     0.01   0.00  -0.00    -0.01   0.02  -0.01
  70   1    -0.03  -0.04   0.00    -0.01   0.00  -0.00    -0.01  -0.02  -0.01
  71   1    -0.03  -0.04   0.00    -0.02   0.00  -0.00     0.02   0.00  -0.00
  72   1     0.02  -0.00  -0.00    -0.01   0.00   0.00     0.02   0.04   0.00
  73   1    -0.03   0.04   0.00    -0.02   0.01   0.00    -0.02   0.01  -0.00
  74   1    -0.04   0.04   0.00    -0.02   0.00  -0.00     0.01  -0.01   0.00
  75   1     0.00  -0.01   0.00    -0.00  -0.01   0.00     0.04   0.00   0.00
  76   1     0.03   0.04  -0.00     0.02   0.00  -0.00     0.01   0.01  -0.00
  77   1     0.03   0.04  -0.00     0.02   0.01  -0.00    -0.02  -0.01  -0.01
  78   1    -0.02  -0.00   0.00     0.01   0.00   0.00     0.02  -0.04  -0.00
                     25                     26                     27
                        a                      a                      a 
 Frequencies --   213.0606               219.9867               220.4641
 Red. masses --    47.1853                24.0906                15.9917
 Frc consts  --     0.0000                 0.0000                 0.0000
 IR Inten    --    37.8947                17.3229                34.9090
 Raman Activ --     0.0000                 0.0000                 0.0000
 Depolar     --     0.0000                 0.0000                 0.0000
 Atom AN      X      Y      Z        X      Y      Z        X      Y      Z
   1  26    -0.63   0.00  -0.02     0.10  -0.00   0.37     0.12   0.00  -0.21
   2   6     0.08   0.01  -0.00    -0.03  -0.01   0.11    -0.03  -0.01   0.02
   3   6     0.05   0.03  -0.00    -0.03  -0.01   0.10    -0.03  -0.01  -0.07
   4   6     0.01   0.01   0.01    -0.02  -0.01  -0.11    -0.03  -0.01  -0.06
   5   6     0.03  -0.00  -0.00    -0.02  -0.00  -0.12    -0.03   0.00   0.07
   6   6     0.01  -0.01  -0.01    -0.03   0.00  -0.01    -0.03   0.01   0.14
   7   6     0.05  -0.03  -0.00    -0.03   0.01   0.11    -0.03   0.01  -0.06
   8   6     0.08  -0.01   0.01    -0.03   0.01   0.03    -0.02   0.01  -0.11
   9   6     0.06   0.00   0.00    -0.03   0.01  -0.08    -0.03   0.02   0.09
  10   7     0.02   0.00  -0.01    -0.03   0.01  -0.05    -0.04   0.02   0.23
  11   6     0.07   0.02   0.01    -0.02   0.03  -0.13    -0.03   0.04   0.01
  12   6     0.07   0.02  -0.01    -0.02   0.03  -0.04    -0.02   0.03   0.04
  13   6     0.07   0.03   0.01    -0.03   0.01   0.04    -0.04   0.01  -0.14
  14   6     0.06   0.03   0.00    -0.01  -0.01   0.07    -0.01  -0.02  -0.02
  15   6     0.03   0.02  -0.01     0.01   0.01  -0.01     0.02   0.00   0.15
  16   7     0.04   0.03  -0.02     0.01   0.03  -0.00     0.01   0.03   0.19
  17   6     0.05  -0.00   0.01     0.03   0.00  -0.14     0.03  -0.00   0.08
  18   6     0.03  -0.02   0.01     0.02   0.00  -0.13     0.02  -0.00  -0.07
  19   6     0.06  -0.03   0.01    -0.01   0.01   0.05    -0.01   0.01  -0.05
  20   6     0.07  -0.03  -0.01    -0.03  -0.01   0.14    -0.04  -0.01   0.03
  21   6     0.07  -0.02  -0.00    -0.02  -0.03  -0.06    -0.02  -0.04   0.01
  22   7     0.04  -0.03   0.01     0.02  -0.02  -0.17     0.01  -0.03  -0.10
  23   6     0.07  -0.02  -0.00    -0.02  -0.03  -0.08    -0.03  -0.04   0.11
  24   6     0.06  -0.00   0.01    -0.02  -0.02  -0.11    -0.03  -0.02   0.02
  25   7     0.02  -0.00   0.02    -0.02  -0.02  -0.21    -0.03  -0.02  -0.07
  26   1     0.03   0.00  -0.01    -0.01  -0.00   0.08    -0.01  -0.00   0.02
  27   1     0.02   0.02  -0.00    -0.01  -0.00   0.07    -0.01  -0.00  -0.03
  28   1     0.02  -0.02  -0.00    -0.01   0.00   0.06    -0.01   0.00  -0.05
  29   1     0.03  -0.00   0.01    -0.01   0.00   0.02    -0.00   0.00  -0.08
  30   1     0.02   0.01   0.01    -0.00   0.01  -0.06    -0.00   0.01  -0.04
  31   1     0.02   0.01   0.01    -0.02   0.00   0.02    -0.02   0.00  -0.09
  32   1     0.02   0.02   0.00    -0.00  -0.01   0.04    -0.00  -0.01  -0.03
  33   1     0.01  -0.00   0.00     0.01   0.00  -0.05     0.01  -0.00   0.03
  34   1     0.02  -0.02   0.00    -0.00   0.01   0.04    -0.00   0.01  -0.02
  35   1     0.02  -0.01  -0.01    -0.02  -0.00   0.09    -0.02  -0.00   0.03
  36   1     0.02  -0.00  -0.01    -0.00  -0.01   0.00    -0.01  -0.01   0.07
  37   6     0.03  -0.00  -0.00    -0.01  -0.00  -0.13    -0.02  -0.00   0.07
  38   6     0.03   0.00   0.00    -0.01  -0.00  -0.00    -0.01   0.00  -0.00
  39   6     0.03   0.00   0.00    -0.01  -0.00   0.08    -0.00  -0.00  -0.04
  40   6     0.03   0.00   0.00    -0.00  -0.00   0.08     0.00  -0.00  -0.03
  41   6     0.03   0.00  -0.00     0.01  -0.00   0.00     0.01  -0.00   0.01
  42   6     0.03   0.00  -0.01     0.01   0.00  -0.13     0.01   0.01   0.07
  43  26    -0.64  -0.01   0.04    -0.08  -0.01   0.37    -0.06  -0.01  -0.18
  44   6     0.08   0.02  -0.02     0.03   0.01   0.02     0.01   0.02  -0.15
  45   6     0.05   0.04  -0.02     0.04   0.00   0.10     0.03   0.01  -0.05
  46   6     0.01   0.01   0.02     0.03   0.00   0.02     0.04   0.00   0.19
  47   6     0.03   0.00  -0.00     0.02  -0.00  -0.12     0.02   0.00   0.06
  48   6     0.01  -0.01  -0.02     0.01  -0.01  -0.14     0.02  -0.01  -0.14
  49   6     0.05  -0.03  -0.02     0.04  -0.00   0.10     0.02  -0.01  -0.05
  50   6     0.08  -0.01   0.01     0.03  -0.01   0.12     0.03  -0.01   0.07
  51   6     0.07   0.01   0.00     0.01  -0.02  -0.12     0.03  -0.02  -0.01
  52   7     0.02   0.00  -0.02     0.01  -0.02  -0.25     0.01  -0.02  -0.20
  53   6     0.07   0.02   0.01     0.02  -0.03  -0.07     0.03  -0.04   0.13
  54   6     0.07   0.03  -0.02     0.01  -0.03  -0.06     0.02  -0.04  -0.00
  55   6     0.07   0.03   0.00     0.05  -0.00   0.15     0.04  -0.01   0.09
  56   6     0.06   0.04  -0.00     0.02   0.02   0.05    -0.00   0.01  -0.06
  57   6     0.03   0.02  -0.02    -0.04   0.00  -0.15    -0.04  -0.00  -0.14
  58   7     0.03   0.03  -0.04    -0.04  -0.02  -0.20    -0.04  -0.03  -0.20
  59   6     0.05   0.00   0.01    -0.04   0.01  -0.13    -0.03  -0.00   0.07
  60   6     0.03  -0.02   0.02    -0.01   0.01   0.02    -0.00  -0.00   0.22
  61   6     0.06  -0.03  -0.00     0.02  -0.01   0.07     0.01  -0.01  -0.00
  62   6     0.07  -0.02  -0.03     0.04   0.01   0.02     0.01   0.02  -0.19
  63   6     0.07  -0.02  -0.01     0.02   0.04  -0.03     0.02   0.04   0.05
  64   7     0.04  -0.03   0.02    -0.00   0.03   0.03     0.01   0.03   0.30
  65   6     0.07  -0.02  -0.01     0.01   0.04  -0.15     0.02   0.04  -0.03
  66   6     0.07  -0.00   0.01     0.03   0.02  -0.07     0.03   0.02   0.10
  67   7     0.02  -0.00   0.04     0.03   0.01  -0.01     0.05   0.02   0.31
  68   1     0.03   0.01  -0.01     0.01   0.00   0.01    -0.00   0.01  -0.11
  69   1     0.01   0.02  -0.01     0.01   0.00   0.05     0.01   0.00  -0.05
  70   1     0.02  -0.02  -0.01     0.01   0.00   0.08     0.01  -0.00  -0.01
  71   1     0.03  -0.00   0.01     0.01  -0.00   0.09     0.01  -0.00   0.06
  72   1     0.02   0.01   0.01     0.01  -0.01   0.02     0.01  -0.01   0.10
  73   1     0.02   0.01   0.01     0.03   0.00   0.10     0.02  -0.00   0.07
  74   1     0.02   0.02   0.00     0.01   0.01   0.04     0.00   0.01  -0.02
  75   1     0.02   0.00   0.01    -0.01   0.00  -0.05    -0.01  -0.00   0.03
  76   1     0.02  -0.02  -0.00     0.01  -0.01   0.04    -0.00  -0.01  -0.03
  77   1     0.02  -0.01  -0.02     0.02   0.00   0.01     0.00   0.01  -0.13
  78   1     0.02  -0.00  -0.01    -0.00   0.01  -0.07    -0.00   0.01  -0.08
                     28                     29                     30
                        a                      a                      a 
 Frequencies --   221.0314               222.7849               224.2676
 Red. masses --    12.1694                23.2361                22.2952
 Frc consts  --     0.0000                 0.0000                 0.0000
 IR Inten    --     7.6059                 4.9444                10.8553
 Raman Activ --     0.0000                 0.0000                 0.0000
 Depolar     --     0.0000                 0.0000                 0.0000
 Atom AN      X      Y      Z        X      Y      Z        X      Y      Z
   1  26     0.07  -0.00  -0.00    -0.08  -0.00   0.35    -0.33   0.00  -0.02
   2   6    -0.00  -0.00  -0.13     0.01   0.00   0.08     0.09   0.04   0.03
   3   6    -0.01  -0.00   0.00     0.01   0.00   0.14     0.10   0.02  -0.01
   4   6    -0.01  -0.00   0.20     0.02   0.00  -0.11     0.10   0.02  -0.03
   5   6    -0.01   0.00   0.00     0.02  -0.00  -0.12     0.08  -0.00   0.00
   6   6    -0.00  -0.00  -0.19     0.01  -0.00  -0.10     0.09  -0.02   0.04
   7   6    -0.01   0.00  -0.00     0.01   0.00   0.14     0.10  -0.02  -0.00
   8   6    -0.01   0.01   0.13     0.01  -0.00   0.08     0.09  -0.04  -0.02
   9   6    -0.01   0.00  -0.07     0.02  -0.01  -0.15     0.10  -0.07   0.03
  10   7     0.00  -0.00  -0.30     0.02  -0.01  -0.24     0.11  -0.06   0.08
  11   6    -0.01   0.00   0.10     0.01  -0.02  -0.09     0.08  -0.12  -0.01
  12   6    -0.01   0.00  -0.03     0.01  -0.01   0.02     0.07  -0.12   0.00
  13   6    -0.01   0.00   0.17     0.02   0.00   0.08     0.12  -0.03  -0.03
  14   6    -0.00  -0.00  -0.04     0.01   0.01   0.00     0.04   0.04   0.01
  15   6     0.00  -0.00  -0.22    -0.01   0.00  -0.04    -0.06  -0.01   0.04
  16   7     0.00   0.00  -0.30    -0.01  -0.01   0.03    -0.04  -0.11   0.05
  17   6    -0.00  -0.00   0.00    -0.01   0.00  -0.14    -0.10   0.00   0.01
  18   6    -0.01  -0.00   0.22    -0.00   0.00  -0.05    -0.06   0.01  -0.04
  19   6    -0.01   0.00   0.04     0.01  -0.00   0.00     0.04  -0.04   0.00
  20   6    -0.00   0.01  -0.17     0.02   0.00   0.08     0.12   0.03   0.03
  21   6    -0.01   0.00   0.03     0.01   0.01   0.02     0.07   0.11  -0.01
  22   7    -0.01  -0.00   0.30    -0.00   0.01   0.02    -0.04   0.11  -0.07
  23   6    -0.00   0.00  -0.10     0.02   0.01  -0.09     0.08   0.12   0.02
  24   6    -0.01  -0.00   0.07     0.02   0.01  -0.15     0.10   0.07   0.01
  25   7    -0.02  -0.00   0.30     0.03   0.01  -0.25     0.11   0.06  -0.03
  26   1     0.00  -0.00  -0.10     0.00   0.00   0.07     0.02   0.01   0.02
  27   1    -0.00  -0.00  -0.03     0.00   0.00   0.10     0.03   0.01  -0.00
  28   1    -0.00   0.00   0.03     0.00   0.00   0.10     0.03  -0.01  -0.01
  29   1    -0.00   0.00   0.10     0.00   0.00   0.06     0.02  -0.01  -0.02
  30   1    -0.00   0.00   0.11     0.00  -0.00  -0.02     0.01  -0.04  -0.02
  31   1    -0.00   0.00   0.12     0.01   0.00   0.04     0.06  -0.01  -0.02
  32   1    -0.00  -0.00   0.01     0.00   0.01  -0.00     0.01   0.04   0.00
  33   1    -0.00   0.00   0.00    -0.00   0.00  -0.08    -0.03   0.00   0.00
  34   1    -0.00   0.00  -0.01     0.00  -0.00  -0.00     0.01  -0.04   0.01
  35   1     0.00   0.00  -0.12     0.01   0.00   0.04     0.06   0.00   0.02
  36   1     0.00   0.00  -0.11     0.00   0.00  -0.01     0.01   0.03   0.02
  37   6    -0.01   0.00  -0.00     0.01   0.00  -0.02     0.05   0.00  -0.01
  38   6    -0.01   0.00  -0.00     0.00   0.00   0.06     0.04   0.01  -0.01
  39   6    -0.01  -0.00  -0.00    -0.00   0.00   0.06     0.00   0.01  -0.01
  40   6    -0.01  -0.00   0.00    -0.00   0.00  -0.07    -0.01  -0.00  -0.00
  41   6    -0.00  -0.00   0.00    -0.00  -0.00  -0.07    -0.04  -0.00  -0.01
  42   6    -0.00   0.00  -0.00    -0.00  -0.00   0.03    -0.05   0.00  -0.02
  43  26     0.04  -0.01   0.02     0.06   0.01  -0.36     0.35  -0.00   0.08
  44   6    -0.00   0.00  -0.07    -0.03  -0.00  -0.10    -0.09  -0.04  -0.02
  45   6     0.00  -0.00   0.01    -0.03  -0.00  -0.14    -0.10  -0.02   0.06
  46   6     0.01  -0.00   0.11    -0.01  -0.00   0.13    -0.09  -0.02   0.05
  47   6    -0.00   0.00  -0.01    -0.00   0.00   0.12    -0.09  -0.00  -0.03
  48   6    -0.01  -0.00  -0.12    -0.01   0.00   0.08    -0.10   0.01  -0.09
  49   6     0.00   0.00   0.01    -0.03  -0.00  -0.14    -0.10   0.02   0.05
  50   6     0.01   0.00   0.08    -0.02   0.00  -0.06    -0.08   0.04   0.08
  51   6    -0.01  -0.00  -0.05    -0.00   0.01   0.14    -0.11   0.06  -0.06
  52   7    -0.02  -0.01  -0.19     0.00   0.01   0.21    -0.13   0.06  -0.17
  53   6     0.00  -0.01   0.05    -0.00   0.02   0.10    -0.08   0.12   0.01
  54   6    -0.00  -0.01  -0.02    -0.02   0.01  -0.02    -0.07   0.11  -0.00
  55   6     0.01  -0.00   0.10    -0.03  -0.00  -0.06    -0.11   0.03   0.10
  56   6    -0.01   0.00  -0.02    -0.01  -0.02  -0.01    -0.04  -0.04  -0.01
  57   6    -0.02   0.00  -0.13     0.01  -0.01   0.01     0.05   0.02  -0.10
  58   7    -0.03  -0.01  -0.17     0.00   0.01  -0.06     0.03   0.11  -0.11
  59   6    -0.01   0.00  -0.01     0.02  -0.01   0.14     0.09   0.00  -0.06
  60   6     0.01  -0.00   0.13     0.01  -0.01   0.07     0.07  -0.01   0.06
  61   6     0.00   0.00   0.02    -0.01   0.00   0.00    -0.04   0.04   0.01
  62   6    -0.01   0.01  -0.09    -0.03  -0.00  -0.10    -0.12  -0.03  -0.02
  63   6     0.00   0.01   0.02    -0.02  -0.02  -0.01    -0.06  -0.11   0.03
  64   7     0.01   0.00   0.18    -0.00  -0.02   0.02     0.05  -0.11   0.11
  65   6    -0.01   0.01  -0.06    -0.01  -0.01   0.08    -0.08  -0.12  -0.06
  66   6     0.00   0.00   0.03    -0.01  -0.01   0.16    -0.10  -0.07  -0.02
  67   7     0.01  -0.00   0.16    -0.00  -0.01   0.28    -0.11  -0.07   0.04
  68   1    -0.00   0.00  -0.06    -0.01   0.00  -0.08    -0.02  -0.01  -0.02
  69   1     0.00  -0.00  -0.01    -0.01  -0.00  -0.10    -0.03  -0.01   0.03
  70   1     0.00   0.00   0.02    -0.01  -0.00  -0.09    -0.03   0.01   0.04
  71   1     0.00   0.00   0.06    -0.01  -0.00  -0.05    -0.01   0.01   0.06
  72   1     0.01  -0.00   0.06    -0.00   0.01   0.03    -0.01   0.03   0.03
  73   1     0.01  -0.00   0.07    -0.01  -0.00  -0.02    -0.05   0.00   0.06
  74   1    -0.00   0.00   0.00    -0.00  -0.01   0.00    -0.01  -0.04   0.01
  75   1    -0.00   0.00  -0.00     0.01  -0.00   0.07     0.03   0.00  -0.03
  76   1    -0.00  -0.00  -0.00    -0.00   0.01  -0.00    -0.01   0.04  -0.00
  77   1    -0.00   0.00  -0.07    -0.01   0.00  -0.05    -0.06  -0.00  -0.02
  78   1    -0.01   0.00  -0.07    -0.00  -0.00   0.00    -0.02  -0.03  -0.04
                     31                     32                     33
                        a                      a                      a 
 Frequencies --   228.2575               234.1435               244.8345
 Red. masses --    12.3169                16.3856                10.8547
 Frc consts  --     0.0000                 0.0000                 0.0000
 IR Inten    --    69.5825                63.0027                 0.0041
 Raman Activ --     0.0000                 0.0000                 0.0000
 Depolar     --     0.0000                 0.0000                 0.0000
 Atom AN      X      Y      Z        X      Y      Z        X      Y      Z
   1  26    -0.01  -0.01  -0.04    -0.00  -0.01  -0.23     0.00   0.00   0.00
   2   6     0.00   0.00  -0.01     0.01   0.00  -0.07     0.01   0.00  -0.18
   3   6    -0.01   0.00   0.12    -0.00   0.01   0.10    -0.01  -0.00   0.24
   4   6    -0.00   0.00  -0.05    -0.00   0.00   0.04    -0.00  -0.00   0.14
   5   6    -0.00   0.00   0.03    -0.00   0.00   0.09     0.00  -0.00  -0.00
   6   6    -0.00   0.00  -0.04     0.00   0.00   0.04     0.01  -0.00  -0.14
   7   6    -0.01   0.01   0.12    -0.00   0.00   0.10     0.01  -0.01  -0.24
   8   6    -0.00   0.00  -0.01     0.00  -0.00  -0.07    -0.00   0.00   0.18
   9   6     0.00   0.00  -0.16     0.00  -0.00  -0.11    -0.01   0.00   0.25
  10   7     0.00  -0.00  -0.23     0.00  -0.00  -0.10    -0.00   0.00   0.13
  11   6    -0.00   0.00   0.00     0.00  -0.01   0.01    -0.00   0.00  -0.00
  12   6    -0.00   0.01   0.17     0.00  -0.00   0.18     0.00  -0.00  -0.26
  13   6    -0.00   0.00  -0.00     0.01  -0.00  -0.02    -0.00  -0.00  -0.15
  14   6     0.00   0.00  -0.13     0.00   0.00  -0.14    -0.00  -0.00   0.24
  15   6     0.00   0.00   0.06    -0.00   0.00   0.08    -0.00  -0.00   0.11
  16   7    -0.00   0.01   0.26    -0.00  -0.00   0.28     0.00  -0.00  -0.18
  17   6     0.01   0.00  -0.03    -0.00   0.00   0.00    -0.00   0.00  -0.00
  18   6     0.00  -0.00   0.06    -0.00   0.00   0.08     0.00   0.00  -0.11
  19   6     0.00   0.01  -0.13     0.00   0.00  -0.14     0.00   0.00  -0.24
  20   6    -0.00  -0.00  -0.00     0.00   0.00  -0.02    -0.00  -0.00   0.15
  21   6    -0.01  -0.01   0.17    -0.00  -0.00   0.18    -0.01  -0.00   0.26
  22   7    -0.00  -0.01   0.26    -0.01  -0.00   0.28    -0.01  -0.00   0.18
  23   6    -0.00  -0.01   0.00     0.00   0.00   0.01     0.00  -0.00   0.00
  24   6     0.01  -0.00  -0.16     0.01   0.00  -0.12     0.01   0.00  -0.25
  25   7     0.00  -0.00  -0.23     0.00   0.00  -0.10     0.01   0.00  -0.13
  26   1     0.00   0.00   0.02     0.00   0.00  -0.02     0.00   0.00  -0.08
  27   1    -0.00   0.00   0.09    -0.00   0.00   0.07    -0.01  -0.00   0.14
  28   1    -0.00   0.00   0.09    -0.00   0.00   0.07     0.00  -0.00  -0.14
  29   1    -0.00   0.00   0.02     0.00  -0.00  -0.03    -0.00   0.00   0.08
  30   1     0.00   0.00  -0.00     0.00  -0.00  -0.01    -0.00   0.00   0.00
  31   1    -0.00   0.00  -0.03     0.00  -0.00  -0.04    -0.00  -0.00  -0.06
  32   1     0.00   0.00  -0.10     0.00   0.00  -0.10    -0.00   0.00   0.15
  33   1     0.00   0.00  -0.07     0.00   0.00  -0.05    -0.00   0.00  -0.00
  34   1     0.00   0.00  -0.10     0.00   0.00  -0.10     0.00   0.00  -0.15
  35   1    -0.00   0.00  -0.03     0.00   0.00  -0.04    -0.00  -0.00   0.06
  36   1     0.00  -0.00  -0.00     0.00   0.00  -0.01     0.00   0.00  -0.01
  37   6    -0.01   0.00   0.16    -0.00   0.00   0.09     0.00  -0.00  -0.00
  38   6    -0.00   0.00  -0.01     0.00  -0.00  -0.15     0.00   0.00  -0.00
  39   6     0.00  -0.00  -0.08     0.00  -0.00  -0.13     0.00   0.00   0.00
  40   6     0.00  -0.00  -0.08    -0.00   0.00   0.13     0.00  -0.00   0.00
  41   6     0.00   0.00  -0.01    -0.00   0.00   0.15     0.00  -0.00   0.00
  42   6     0.01   0.00   0.16    -0.00  -0.00  -0.09     0.00   0.00  -0.00
  43  26    -0.04  -0.02  -0.04     0.04   0.01   0.22     0.00   0.00   0.00
  44   6     0.01   0.00  -0.01    -0.00  -0.01   0.07    -0.00   0.00  -0.07
  45   6     0.01   0.01   0.12    -0.01  -0.01  -0.10     0.01  -0.00   0.09
  46   6    -0.00   0.01  -0.05     0.00  -0.01  -0.04     0.00  -0.00   0.05
  47   6     0.00   0.00   0.03    -0.01  -0.00  -0.09     0.00  -0.00  -0.00
  48   6     0.00   0.00  -0.04    -0.01  -0.00  -0.04    -0.00  -0.00  -0.05
  49   6     0.02   0.01   0.12    -0.01  -0.01  -0.10    -0.01  -0.00  -0.09
  50   6     0.00   0.00  -0.01     0.00  -0.00   0.07     0.01   0.00   0.07
  51   6    -0.01  -0.01  -0.16     0.01   0.00   0.11     0.01   0.00   0.10
  52   7    -0.01  -0.01  -0.22     0.01   0.00   0.10     0.00   0.00   0.05
  53   6     0.01  -0.01   0.00    -0.00   0.00  -0.01    -0.00   0.00  -0.00
  54   6     0.03  -0.01   0.17    -0.03   0.00  -0.18    -0.01   0.00  -0.10
  55   6     0.01   0.00  -0.01    -0.00  -0.00   0.02    -0.01  -0.00  -0.06
  56   6    -0.01   0.01  -0.13     0.01  -0.01   0.14     0.01  -0.00   0.09
  57   6     0.00   0.00   0.06    -0.01  -0.00  -0.08     0.00  -0.00   0.04
  58   7     0.03  -0.01   0.26    -0.03   0.01  -0.28    -0.01   0.00  -0.07
  59   6    -0.01   0.01  -0.03    -0.00  -0.00  -0.00    -0.00   0.00   0.00
  60   6     0.00   0.00   0.05    -0.01   0.00  -0.07    -0.01   0.00  -0.04
  61   6    -0.01   0.01  -0.13     0.01  -0.01   0.14    -0.01   0.00  -0.09
  62   6     0.01   0.00  -0.00     0.00  -0.00   0.02     0.00  -0.00   0.06
  63   6     0.02  -0.00   0.17    -0.02   0.01  -0.18     0.01  -0.00   0.10
  64   7     0.02  -0.01   0.25    -0.03   0.01  -0.27     0.01  -0.00   0.07
  65   6     0.01   0.00   0.00    -0.00   0.00  -0.01     0.00   0.00   0.00
  66   6    -0.00   0.00  -0.16     0.00  -0.00   0.12    -0.01   0.00  -0.10
  67   7    -0.01   0.00  -0.23     0.01  -0.00   0.10    -0.00   0.00  -0.05
  68   1     0.01   0.00   0.02    -0.00  -0.00   0.03    -0.00   0.00  -0.03
  69   1     0.01   0.00   0.09    -0.00  -0.00  -0.07     0.00  -0.00   0.06
  70   1     0.01   0.00   0.09    -0.01  -0.00  -0.07    -0.00  -0.00  -0.06
[...]
 Frc consts  --     0.0000                 0.0000                 0.0000
 IR Inten    --    39.8522                75.1453                32.2264
 Raman Activ --     0.0000                 0.0000                 0.0000
 Depolar     --     0.0000                 0.0000                 0.0000
 Atom AN      X      Y      Z        X      Y      Z        X      Y      Z
   1  26    -0.00  -0.00  -0.00     0.00  -0.00   0.00    -0.00  -0.00   0.00
   2   6     0.03  -0.21   0.00    -0.00   0.00  -0.00    -0.00   0.00   0.00
   3   6    -0.16   0.01  -0.01    -0.00   0.00  -0.00    -0.00   0.00  -0.00
   4   6    -0.00  -0.00  -0.00     0.00  -0.00   0.00    -0.00  -0.00   0.00
   5   6    -0.00  -0.00  -0.00    -0.00   0.00  -0.00    -0.00   0.00  -0.00
   6   6    -0.00   0.00  -0.00    -0.00   0.00  -0.00    -0.00   0.00  -0.00
   7   6    -0.02  -0.00  -0.00    -0.01  -0.00  -0.00    -0.00  -0.00  -0.00
   8   6     0.00   0.02  -0.00     0.00   0.00  -0.00     0.00  -0.00   0.00
   9   6    -0.00   0.00  -0.00    -0.00   0.00  -0.00     0.00   0.00   0.00
  10   7     0.00  -0.00   0.00     0.00  -0.00   0.00     0.00   0.00   0.00
  11   6    -0.00   0.00  -0.00    -0.00   0.01  -0.00    -0.00   0.00  -0.00
  12   6    -0.00   0.00  -0.00     0.01   0.00   0.00     0.00   0.00   0.00
  13   6     0.00  -0.00   0.00    -0.02   0.23  -0.00    -0.00   0.02  -0.00
  14   6     0.00  -0.00   0.00    -0.18   0.00  -0.00    -0.01   0.00  -0.00
  15   6     0.00   0.00  -0.00    -0.00  -0.01  -0.00    -0.00  -0.00  -0.00
  16   7    -0.00   0.00   0.00     0.00  -0.00   0.00     0.00  -0.00   0.00
  17   6     0.00   0.00   0.00    -0.00   0.00  -0.00    -0.00   0.00   0.00
  18   6     0.00  -0.00   0.00     0.00  -0.00  -0.00     0.00  -0.00  -0.00
  19   6     0.01   0.00   0.00     0.02   0.00   0.00     0.02   0.00   0.00
  20   6    -0.00   0.00   0.00     0.00   0.03   0.00     0.00   0.02   0.00
  21   6     0.00  -0.00   0.00    -0.00   0.00  -0.00    -0.00   0.00  -0.00
  22   7    -0.00   0.00  -0.00    -0.00  -0.00  -0.00    -0.00  -0.00  -0.00
  23   6    -0.00  -0.01  -0.00     0.00   0.00   0.00     0.00   0.00   0.00
  24   6    -0.01  -0.00  -0.00     0.00   0.00   0.00     0.00  -0.00   0.00
  25   7     0.00   0.00   0.00    -0.00  -0.00  -0.00     0.00  -0.00  -0.00
  26   1    -0.11   0.74  -0.00     0.00  -0.00   0.00     0.00  -0.00   0.00
  27   1     0.59  -0.05   0.03     0.00  -0.00   0.00     0.01  -0.00   0.00
  28   1     0.06   0.00   0.00     0.03   0.00   0.00     0.01   0.00   0.00
  29   1    -0.01  -0.09   0.00    -0.00  -0.01   0.00     0.00   0.00  -0.00
  30   1     0.00  -0.00   0.00    -0.00  -0.02   0.00    -0.00  -0.00   0.00
  31   1    -0.00   0.00  -0.00     0.11  -0.75   0.00     0.01  -0.06   0.00
  32   1    -0.00   0.00  -0.00     0.55  -0.04   0.01     0.04  -0.00   0.00
  33   1    -0.00   0.00  -0.00     0.01   0.00   0.00     0.00   0.00   0.00
  34   1    -0.03  -0.00  -0.00    -0.06  -0.00  -0.00    -0.06  -0.00  -0.00
  35   1    -0.00  -0.00  -0.00    -0.01  -0.09  -0.00    -0.01  -0.08  -0.00
  36   1     0.00   0.03   0.00     0.00  -0.00  -0.00     0.00  -0.00  -0.00
  37   6     0.00   0.00   0.00     0.00  -0.00   0.00     0.00   0.00   0.00
  38   6    -0.00  -0.00  -0.00    -0.00   0.00  -0.00    -0.00   0.00  -0.00
  39   6     0.00  -0.00   0.00     0.00   0.00   0.00     0.00   0.00  -0.00
  40   6    -0.00   0.00  -0.00    -0.00  -0.00  -0.00    -0.00  -0.00   0.00
  41   6     0.00   0.00   0.00    -0.00   0.00   0.00     0.00  -0.00   0.00
  42   6    -0.00   0.00  -0.00     0.00  -0.00  -0.00    -0.00   0.00   0.00
  43  26     0.00  -0.00  -0.00     0.00  -0.00  -0.00    -0.00   0.00   0.00
  44   6    -0.00   0.00   0.00     0.00  -0.00  -0.00     0.00   0.00  -0.00
  45   6     0.00  -0.00  -0.00     0.00  -0.00  -0.00    -0.00   0.00   0.00
  46   6     0.00   0.00  -0.00     0.00   0.00  -0.00     0.00  -0.00  -0.00
  47   6    -0.00  -0.00   0.00     0.00   0.00  -0.00     0.00   0.00  -0.00
  48   6     0.00  -0.00  -0.00     0.00  -0.00   0.00     0.00  -0.00   0.00
  49   6     0.00   0.00  -0.00     0.00   0.00  -0.00     0.01   0.00  -0.00
  50   6    -0.00  -0.00   0.00     0.00   0.00  -0.00     0.00   0.01  -0.00
  51   6     0.00  -0.00  -0.00    -0.00  -0.00   0.00    -0.00  -0.00   0.00
  52   7    -0.00   0.00  -0.00    -0.00  -0.00   0.00    -0.00   0.00   0.00
  53   6    -0.00  -0.00   0.00    -0.00   0.00   0.00     0.00  -0.01  -0.00
  54   6     0.00   0.00  -0.00     0.00   0.00  -0.00    -0.01  -0.00   0.00
  55   6    -0.00   0.00   0.00    -0.00   0.02   0.00     0.03  -0.22  -0.00
  56   6    -0.00   0.00   0.00    -0.02   0.00   0.00     0.19  -0.00  -0.02
  57   6    -0.00  -0.00   0.00    -0.00  -0.00   0.00     0.00   0.01  -0.00
  58   7    -0.00  -0.00  -0.00     0.00  -0.00  -0.00    -0.00   0.00   0.00
  59   6    -0.00  -0.00   0.00    -0.00   0.00   0.00     0.00  -0.00  -0.00
  60   6    -0.00   0.00   0.00    -0.00   0.00   0.00    -0.00   0.00   0.00
  61   6    -0.00  -0.00   0.00    -0.01  -0.00   0.00    -0.03  -0.00   0.00
  62   6    -0.00  -0.00  -0.00    -0.00  -0.01  -0.00    -0.00  -0.04  -0.00
  63   6     0.00  -0.00  -0.00     0.00  -0.00  -0.00     0.00  -0.00  -0.00
  64   7    -0.00  -0.00  -0.00     0.00   0.00  -0.00     0.00   0.00   0.00
  65   6    -0.00   0.00   0.00    -0.00   0.00   0.00    -0.00  -0.00  -0.00
  66   6     0.00   0.00  -0.00    -0.00   0.00   0.00    -0.00  -0.00  -0.00
  67   7    -0.00  -0.00  -0.00    -0.00   0.00   0.00     0.00   0.00  -0.00
  68   1     0.00  -0.01  -0.00    -0.00   0.00   0.00    -0.00   0.00   0.00
  69   1    -0.01   0.00   0.00    -0.01   0.00   0.00     0.00  -0.00  -0.00
  70   1    -0.01  -0.00   0.00    -0.01  -0.00   0.00    -0.05  -0.00   0.00
  71   1     0.00   0.01  -0.00    -0.00  -0.00   0.00    -0.00  -0.02   0.00
  72   1    -0.00   0.00  -0.00    -0.00  -0.00   0.00     0.00   0.02  -0.00
  73   1     0.00  -0.00  -0.00     0.01  -0.07  -0.00    -0.11   0.70   0.02
  74   1     0.00  -0.00  -0.00     0.06  -0.00  -0.01    -0.60   0.03   0.07
  75   1     0.00   0.00  -0.00     0.00   0.00  -0.00    -0.01  -0.00   0.00
  76   1     0.00   0.00  -0.00     0.02   0.00  -0.00     0.09   0.01  -0.01
  77   1     0.00   0.00   0.00     0.00   0.02   0.00     0.02   0.12   0.00
  78   1    -0.00  -0.00  -0.00    -0.00  -0.00  -0.00    -0.00   0.00   0.00
                    223                    224                    225
                        a                      a                      a 
 Frequencies --  3161.5317              3161.9664              3165.5541
 Red. masses --     1.9754                 1.9757                 1.9729
 Frc consts  --     0.0000                 0.0000                 0.0000
 IR Inten    --    84.2607                94.8897               567.2392
 Raman Activ --     0.0000                 0.0000                 0.0000
 Depolar     --     0.0000                 0.0000                 0.0000
 Atom AN      X      Y      Z        X      Y      Z        X      Y      Z
   1  26     0.00   0.00   0.00    -0.00  -0.00  -0.00     0.00  -0.00   0.00
   2   6     0.00   0.00   0.00     0.00  -0.00  -0.00    -0.00   0.01   0.00
   3   6    -0.01   0.00  -0.00     0.01  -0.00   0.00    -0.02   0.00  -0.00
   4   6    -0.00  -0.00  -0.00     0.00   0.00   0.00    -0.00  -0.00  -0.00
   5   6    -0.00  -0.00  -0.00     0.00   0.00   0.00    -0.00   0.00  -0.00
   6   6    -0.00   0.00  -0.00     0.00  -0.00   0.00    -0.00   0.00  -0.00
   7   6    -0.00  -0.00  -0.00     0.01   0.00   0.00    -0.01  -0.00  -0.00
   8   6    -0.00  -0.00   0.00     0.00   0.00  -0.00    -0.00  -0.01   0.00
   9   6     0.00   0.00   0.00    -0.00  -0.00  -0.00     0.00  -0.00   0.00
  10   7     0.00  -0.00   0.00    -0.00  -0.00  -0.00     0.00   0.00  -0.00
  11   6    -0.00   0.00  -0.00     0.00  -0.00   0.00    -0.00   0.00  -0.00
  12   6     0.00   0.00   0.00    -0.00  -0.00  -0.00     0.00   0.00   0.00
  13   6    -0.00   0.02  -0.00     0.00  -0.02   0.00    -0.00   0.00  -0.00
  14   6    -0.02   0.00  -0.00     0.01  -0.00   0.00    -0.00   0.00  -0.00
  15   6    -0.00  -0.00  -0.00     0.00   0.00   0.00    -0.00  -0.00   0.00
  16   7     0.00  -0.00   0.00    -0.00   0.00  -0.00    -0.00   0.00  -0.00
  17   6    -0.00  -0.00  -0.00     0.00   0.00   0.00    -0.00  -0.00  -0.00
  18   6    -0.00   0.01   0.00     0.00  -0.00  -0.00    -0.00   0.00   0.00
  19   6    -0.18  -0.00  -0.00     0.05   0.00   0.00    -0.00  -0.00  -0.00
  20   6    -0.02  -0.21  -0.00     0.01   0.06   0.00    -0.00  -0.00  -0.00
  21   6     0.01  -0.00   0.00    -0.00   0.00  -0.00     0.00  -0.00   0.00
  22   7     0.00   0.00   0.00    -0.00  -0.00  -0.00    -0.00  -0.00  -0.00
  23   6    -0.00  -0.00  -0.00     0.00   0.00   0.00    -0.00  -0.00  -0.00
  24   6     0.00  -0.00  -0.00    -0.00   0.00  -0.00     0.00   0.00   0.00
  25   7     0.00   0.00   0.00    -0.00  -0.00  -0.00     0.00  -0.00   0.00
  26   1    -0.00   0.00  -0.00    -0.00   0.01  -0.00     0.01  -0.04   0.00
  27   1     0.04  -0.00   0.00    -0.02   0.00  -0.00     0.05  -0.00   0.00
  28   1     0.01   0.00   0.00    -0.02  -0.00  -0.00     0.03   0.00   0.00
  29   1     0.00   0.00  -0.00    -0.00  -0.01   0.00     0.00   0.02  -0.00
  30   1    -0.00  -0.00   0.00     0.00   0.00  -0.00    -0.00  -0.00   0.00
  31   1     0.01  -0.07   0.00    -0.01   0.06  -0.00     0.00  -0.01   0.00
  32   1     0.06  -0.00   0.00    -0.04   0.00  -0.00     0.01  -0.00   0.00
  33   1     0.01  -0.00   0.00    -0.01   0.00  -0.00     0.00  -0.00   0.00
  34   1     0.57   0.04   0.01    -0.16  -0.01  -0.00     0.01   0.00   0.00
  35   1     0.10   0.69   0.01    -0.03  -0.19  -0.00     0.00   0.01   0.00
  36   1    -0.00   0.02   0.00     0.00  -0.01  -0.00    -0.00   0.00   0.00
  37   6     0.00   0.00   0.00    -0.00   0.00  -0.00     0.00  -0.00   0.00
  38   6    -0.00  -0.00  -0.00     0.00   0.00   0.00    -0.00  -0.00  -0.00
  39   6     0.00  -0.00   0.00    -0.00   0.00  -0.00    -0.00  -0.00   0.00
  40   6    -0.00  -0.00  -0.00     0.00  -0.00   0.00     0.00   0.00  -0.00
  41   6    -0.00  -0.00   0.00    -0.00  -0.00  -0.00    -0.00   0.00  -0.00
  42   6     0.00   0.00  -0.00     0.00   0.00  -0.00     0.00  -0.00   0.00
  43  26     0.00   0.00  -0.00     0.00   0.00  -0.00     0.00   0.00  -0.00
  44   6     0.00  -0.00  -0.00     0.00   0.00   0.00     0.00  -0.00  -0.00
  45   6    -0.00   0.00   0.00    -0.01   0.00   0.00     0.00  -0.00  -0.00
  46   6    -0.00   0.00  -0.00    -0.00  -0.00   0.00     0.00  -0.00   0.00
  47   6     0.00   0.00  -0.00    -0.00  -0.00   0.00    -0.00  -0.00   0.00
  48   6     0.00  -0.00   0.00    -0.00   0.00  -0.00    -0.00   0.01  -0.00
  49   6     0.01   0.00  -0.00    -0.01  -0.00   0.00    -0.22  -0.01   0.02
  50   6     0.00   0.00  -0.00    -0.00  -0.00   0.00    -0.02  -0.20   0.01
  51   6    -0.00  -0.00   0.00     0.00  -0.00  -0.00     0.01  -0.00  -0.00
  52   7    -0.00  -0.00   0.00     0.00  -0.00  -0.00     0.00   0.00  -0.00
  53   6     0.00  -0.00  -0.00    -0.00   0.00   0.00    -0.00  -0.00   0.00
  54   6    -0.00  -0.00   0.00     0.00   0.00  -0.00    -0.00  -0.00   0.00
  55   6     0.00  -0.01  -0.00    -0.00   0.04   0.00     0.00  -0.01  -0.00
  56   6     0.01  -0.00  -0.00    -0.03   0.00   0.00     0.01  -0.00  -0.00
  57   6     0.00   0.00  -0.00    -0.00  -0.00  -0.00     0.00   0.00  -0.00
  58   7    -0.00   0.00   0.00     0.00  -0.00  -0.00    -0.00   0.00   0.00
  59   6    -0.00  -0.00   0.00    -0.00  -0.00   0.00     0.00  -0.00  -0.00
  60   6    -0.00   0.00   0.00    -0.00   0.01   0.00     0.00  -0.00  -0.00
  61   6    -0.06  -0.00   0.01    -0.18  -0.01   0.02     0.00   0.00  -0.00
  62   6    -0.01  -0.06  -0.00    -0.02  -0.21  -0.01    -0.00   0.00   0.00
  63   6     0.00  -0.00  -0.00     0.01  -0.00  -0.00    -0.00  -0.00   0.00
  64   7     0.00   0.00  -0.00     0.00   0.00  -0.00    -0.00  -0.00   0.00
  65   6    -0.00  -0.00  -0.00    -0.00  -0.01  -0.00     0.00  -0.00  -0.00
  66   6    -0.00  -0.00   0.00     0.00  -0.00  -0.00    -0.00  -0.00   0.00
  67   7     0.00   0.00   0.00     0.00   0.00   0.00     0.00   0.00  -0.00
  68   1    -0.00   0.00   0.00     0.00  -0.00  -0.00    -0.00   0.01   0.00
  69   1     0.00  -0.00  -0.00     0.04  -0.00  -0.00    -0.02   0.00   0.00
  70   1    -0.02  -0.00   0.00     0.02   0.00  -0.00     0.70   0.06  -0.07
  71   1    -0.00  -0.01   0.00     0.00   0.01  -0.00     0.08   0.63  -0.03
  72   1     0.00   0.00  -0.00    -0.00  -0.00   0.00    -0.00   0.02  -0.00
  73   1    -0.01   0.04   0.00     0.02  -0.11  -0.00    -0.01   0.04   0.00
  74   1    -0.03   0.00   0.00     0.11  -0.01  -0.01    -0.03   0.00   0.00
  75   1     0.00  -0.00  -0.00     0.02  -0.00  -0.00    -0.00  -0.00   0.00
  76   1     0.18   0.01  -0.02     0.58   0.05  -0.05    -0.01  -0.00   0.00
  77   1     0.03   0.20   0.01     0.09   0.68   0.02     0.00   0.00   0.00
  78   1    -0.00   0.00   0.00    -0.00   0.02   0.00     0.00   0.00   0.00
                    226                    227                    228
                        a                      a                      a 
 Frequencies --  3167.5466              3167.8614              3168.1270
 Red. masses --     1.9676                 1.9680                 1.9698
 Frc consts  --     0.0000                 0.0000                 0.0000
 IR Inten    --   826.0278                65.6711               240.6477
 Raman Activ --     0.0000                 0.0000                 0.0000
 Depolar     --     0.0000                 0.0000                 0.0000
 Atom AN      X      Y      Z        X      Y      Z        X      Y      Z
   1  26    -0.00  -0.00  -0.00     0.00   0.00  -0.00     0.00  -0.00   0.00
   2   6     0.00  -0.02  -0.00     0.01  -0.09  -0.00    -0.01   0.16   0.00
   3   6     0.02  -0.00   0.00     0.12  -0.00   0.01    -0.20   0.01  -0.01
   4   6     0.00   0.00   0.00     0.00   0.00   0.00    -0.00  -0.01  -0.00
   5   6     0.00   0.00  -0.00    -0.00  -0.00   0.00    -0.00   0.00  -0.00
   6   6     0.00  -0.00   0.00    -0.00   0.01  -0.00    -0.00   0.00  -0.00
   7   6     0.13   0.00   0.00    -0.18  -0.01  -0.00    -0.09  -0.00  -0.00
   8   6     0.01   0.09  -0.00    -0.01  -0.13   0.00    -0.01  -0.07   0.00
   9   6    -0.00   0.00  -0.00     0.01  -0.00   0.00     0.00  -0.00   0.00
  10   7    -0.00  -0.00  -0.00     0.00   0.00   0.00     0.00   0.00   0.00
  11   6     0.00   0.00  -0.00    -0.00  -0.00   0.00    -0.00  -0.00   0.00
  12   6     0.00  -0.00   0.00    -0.00  -0.00  -0.00    -0.00  -0.00  -0.00
  13   6    -0.00   0.00  -0.00     0.00  -0.00   0.00     0.00  -0.01   0.00
  14   6    -0.00   0.00  -0.00     0.00  -0.00   0.00     0.00  -0.00   0.00
  15   6    -0.00  -0.00  -0.00     0.00   0.00   0.00     0.00   0.00   0.00
  16   7     0.00  -0.00   0.00    -0.00   0.00  -0.00    -0.00   0.00  -0.00
  17   6    -0.00   0.00   0.00     0.00  -0.00   0.00     0.00   0.00   0.00
  18   6     0.00   0.00  -0.00    -0.00   0.00   0.00     0.00  -0.00  -0.00
  19   6    -0.00  -0.00  -0.00     0.00   0.00   0.00     0.01   0.00   0.00
  20   6     0.00   0.00   0.00    -0.00  -0.00  -0.00     0.00   0.01   0.00
  21   6    -0.00   0.00   0.00     0.00  -0.00   0.00    -0.00   0.00  -0.00
  22   7     0.00   0.00   0.00    -0.00   0.00   0.00    -0.00  -0.00  -0.00
  23   6     0.00  -0.00  -0.00     0.00  -0.00  -0.00    -0.00   0.00   0.00
  24   6    -0.00  -0.00  -0.00    -0.00  -0.00  -0.00     0.01   0.00   0.00
  25   7    -0.00   0.00  -0.00    -0.00   0.00  -0.00     0.00  -0.00   0.00
  26   1    -0.01   0.05  -0.00    -0.04   0.29  -0.00     0.07  -0.50   0.00
  27   1    -0.07   0.01  -0.00    -0.38   0.03  -0.02     0.64  -0.05   0.03
  28   1    -0.41  -0.03  -0.01     0.60   0.04   0.02     0.31   0.02   0.01
  29   1    -0.04  -0.28   0.00     0.06   0.41  -0.01     0.03   0.21  -0.00
  30   1     0.00  -0.01   0.00    -0.00   0.01  -0.00    -0.00   0.01  -0.00
  31   1     0.00  -0.01   0.00    -0.00   0.02  -0.00    -0.00   0.02  -0.00
  32   1     0.00  -0.00   0.00    -0.01   0.00  -0.00    -0.01   0.00  -0.00
  33   1    -0.00   0.00  -0.00    -0.00  -0.00  -0.00    -0.00   0.00  -0.00
  34   1     0.00   0.00   0.00    -0.00  -0.00  -0.00    -0.02  -0.00  -0.00
  35   1    -0.00  -0.00  -0.00     0.00   0.00   0.00    -0.00  -0.03  -0.00
  36   1     0.00   0.00   0.00     0.00   0.01   0.00    -0.00  -0.01  -0.00
  37   6    -0.00   0.00  -0.00     0.00  -0.00   0.00     0.00   0.00   0.00
  38   6     0.00  -0.00   0.00    -0.00   0.00  -0.00    -0.00  -0.00  -0.00
  39   6    -0.00  -0.00   0.00     0.00   0.00  -0.00     0.00  -0.00   0.00
  40   6    -0.00   0.00  -0.00    -0.00   0.00  -0.00    -0.00   0.00  -0.00
  41   6     0.00   0.00   0.00     0.00   0.00   0.00     0.00   0.00   0.00
  42   6    -0.00  -0.00   0.00    -0.00  -0.00   0.00    -0.00  -0.00  -0.00
  43  26    -0.00   0.00   0.00    -0.00   0.00   0.00    -0.00   0.00   0.00
  44   6     0.02  -0.15  -0.00     0.01  -0.07  -0.00     0.01  -0.06  -0.00
  45   6     0.20  -0.01  -0.01     0.10  -0.00  -0.01     0.08  -0.00  -0.00
  46   6     0.00   0.01  -0.00     0.00   0.00  -0.00     0.00   0.00  -0.00
  47   6     0.00  -0.00  -0.00     0.00  -0.00  -0.00     0.00  -0.00  -0.00
  48   6    -0.00  -0.00   0.00    -0.00  -0.00   0.00     0.00  -0.00   0.00
  49   6    -0.00   0.00   0.00     0.00   0.00  -0.00     0.02   0.00  -0.00
  50   6    -0.00  -0.00   0.00     0.00   0.00  -0.00     0.00   0.02  -0.00
  51   6     0.00  -0.00  -0.00    -0.00   0.00   0.00    -0.00   0.00   0.00
  52   7    -0.00  -0.00   0.00    -0.00   0.00   0.00    -0.00  -0.00   0.00
  53   6     0.00  -0.00   0.00    -0.00   0.00   0.00     0.00   0.00  -0.00
  54   6    -0.00  -0.00   0.00     0.00   0.00  -0.00     0.00   0.00  -0.00
  55   6     0.00  -0.00  -0.00    -0.00   0.00   0.00    -0.00   0.00   0.00
  56   6     0.00   0.00  -0.00    -0.00   0.00   0.00    -0.00   0.00   0.00
  57   6     0.00   0.00   0.00    -0.00  -0.00   0.00    -0.00  -0.00   0.00
  58   7     0.00  -0.00  -0.00     0.00  -0.00  -0.00     0.00  -0.00  -0.00
  59   6    -0.00  -0.00   0.00    -0.00  -0.00   0.00    -0.00  -0.00   0.00
  60   6    -0.00   0.00   0.00    -0.00   0.00   0.00    -0.00   0.00   0.00
  61   6    -0.00  -0.00   0.00    -0.00  -0.00   0.00    -0.01  -0.00   0.00
  62   6    -0.00  -0.01  -0.00    -0.00  -0.00  -0.00    -0.00  -0.01  -0.00
  63   6     0.00  -0.00  -0.00     0.00  -0.00  -0.00     0.00  -0.00  -0.00
  64   7     0.00   0.00  -0.00     0.00   0.00  -0.00     0.00   0.00   0.00
  65   6     0.00  -0.00  -0.00     0.00  -0.00  -0.00     0.00  -0.00  -0.00
  66   6    -0.01  -0.00   0.00    -0.00  -0.00   0.00    -0.00  -0.00   0.00
  67   7    -0.00   0.00   0.00    -0.00   0.00   0.00    -0.00   0.00   0.00
  68   1    -0.07   0.46   0.01    -0.03   0.22   0.01    -0.03   0.18   0.00
  69   1    -0.66   0.04   0.04    -0.32   0.02   0.02    -0.25   0.02   0.01
  70   1     0.00   0.00  -0.00    -0.00  -0.00   0.00    -0.06  -0.00   0.01
  71   1     0.00   0.01  -0.00    -0.00  -0.00   0.00    -0.01  -0.05   0.00
  72   1    -0.00   0.00  -0.00     0.00  -0.00  -0.00     0.00  -0.00   0.00
  73   1    -0.00   0.01   0.00     0.00  -0.00  -0.00     0.00  -0.01  -0.00
  74   1    -0.00   0.00   0.00     0.00  -0.00  -0.00     0.01  -0.00  -0.00
  75   1     0.00  -0.00  -0.00     0.00  -0.00  -0.00     0.00   0.00  -0.00
  76   1     0.01   0.00  -0.00     0.01   0.00  -0.00     0.02   0.00  -0.00
  77   1     0.00   0.02   0.00     0.00   0.02   0.00     0.00   0.02   0.00
  78   1     0.00   0.01   0.00     0.00   0.01   0.00     0.00   0.01   0.00
