      -----------------------------------------------------------      
     |                   =====================                   |     
     |                           x T B                           |     
     |                   =====================                   |     
     |                         S. Grimme                         |     
     |          Mulliken Center for Theoretical Chemistry        |     
     |                    University of Bonn                     |     
      -----------------------------------------------------------      

   * xtb version 6.4.1 (bd6e46d) compiled by 'conda@4901f00b25ba' on 2021-06-10

   xtb is free software: you can redistribute it and/or modify it under
   the terms of the GNU Lesser General Public License as published by
   the Free Software Foundation, either version 3 of the License, or
   (at your option) any later version.
   
   xtb is distributed in the hope that it will be useful,
   but WITHOUT ANY WARRANTY; without even the implied warranty of
   MERCHANTABILITY or FITNESS FOR A PARTICULAR PURPOSE.  See the
   GNU Lesser General Public License for more details.
   
   Cite this work as:
   * C. Bannwarth, E. Caldeweyher, S. Ehlert, A. Hansen, P. Pracht,
     J. Seibert, S. Spicher, S. Grimme, WIREs Comput. Mol. Sci., 2020, 11,
     e01493. DOI: 10.1002/wcms.1493
   
   for GFN2-xTB:
   * C. Bannwarth, S. Ehlert and S. Grimme., J. Chem. Theory Comput., 2019,
     15, 1652-1671. DOI: 10.1021/acs.jctc.8b01176
   for GFN1-xTB:
   * S. Grimme, C. Bannwarth, P. Shushkov, J. Chem. Theory Comput., 2017,
     13, 1989-2009. DOI: 10.1021/acs.jctc.7b00118
   for GFN0-xTB:
   * P. Pracht, E. Caldeweyher, S. Ehlert, S. Grimme, ChemRxiv, 2019, preprint.
     DOI: 10.26434/chemrxiv.8326202.v1
   for GFN-FF:
   * S. Spicher and S. Grimme, Angew. Chem. Int. Ed., 2020, 59, 15665-15673.
     DOI: 10.1002/anie.202004239
   
   for DFT-D4:
   * E. Caldeweyher, C. Bannwarth and S. Grimme, J. Chem. Phys., 2017,
     147, 034112. DOI: 10.1063/1.4993215
   * E. Caldeweyher, S. Ehlert, A. Hansen, H. Neugebauer, S. Spicher,
     C. Bannwarth and S. Grimme, J. Chem. Phys., 2019, 150, 154122.
     DOI: 10.1063/1.5090222
   * E. Caldeweyher, J.-M. Mewes, S. Ehlert and S. Grimme, Phys. Chem. Chem. Phys.
     2020, 22, 8499-8512. DOI: 10.1039/D0CP00502A
   
   for sTDA-xTB:
   * S. Grimme and C. Bannwarth, J. Chem. Phys., 2016, 145, 054103.
     DOI: 10.1063/1.4959605
   
   in the mass-spec context:
   * V. Asgeirsson, C. Bauer and S. Grimme, Chem. Sci., 2017, 8, 4879.
     DOI: 10.1039/c7sc00601b
   * J. Koopman and S. Grimme, ACS Omega 2019, 4, 12, 15120-15133.
     DOI: 10.1021/acsomega.9b02011
   
   for metadynamics refer to:
   * S. Grimme, J. Chem. Theory Comput., 2019, 155, 2847-2862
     DOI: 10.1021/acs.jctc.9b00143
   
   for SPH calculations refer to:
   * S. Spicher and S. Grimme, J. Chem. Theory Comput., 2021, 17, 1701-1714
     DOI: 10.1021/acs.jctc.0c01306
   
   with help from (in alphabetical order)
   P. Atkinson, C. Bannwarth, F. Bohle, G. Brandenburg, E. Caldeweyher
   M. Checinski, S. Dohm, S. Ehlert, S. Ehrlich, I. Gerasimov, J. Koopman
   C. Lavigne, S. Lehtola, F. März, M. Müller, F. Musil, H. Neugebauer
   J. Pisarek, C. Plett, P. Pracht, J. Seibert, P. Shushkov, S. Spicher
   M. Stahn, M. Steiner, T. Strunk, J. Stückrath, T. Rose, and J. Unsleber
   
 * started run on 2021/11/19 at 10:47:28.380     

           -------------------------------------------------
          |                Calculation Setup                |
           -------------------------------------------------

          program call               : /home/jeff/miniconda3/bin/xtb input_structure_1.xyz --gfn 2 --ohess normal --parallel 1 --etemp 300 --chrg 0 --uhf 0 -I det_control.in
          hostname                   : jelfscompute1
          coordinate file            : input_structure_1.xyz
          omp threads                :                     1
          number of atoms            :                    78
          number of electrons        :                   262
          charge                     :                     0
          spin                       :                   0.0
          first test random number   :      0.15849623410622

   ID    Z sym.   atoms
    1   26 Fe     1, 43
    2    6 C      2-9, 11-15, 17-21, 23, 24, 37-42, 44-51, 53-57, 59-63, 65,
                  66
    3    7 N      10, 16, 22, 25, 52, 58, 64, 67
    4    1 H      26-36, 68-78

           -------------------------------------------------
          |                 G F N 2 - x T B                 |
           -------------------------------------------------

        Reference                      10.1021/acs.jctc.8b01176
      * Hamiltonian:
        H0-scaling (s, p, d)           1.850000    2.230000    2.230000
        zeta-weighting                 0.500000
      * Dispersion:
        s8                             2.700000
        a1                             0.520000
        a2                             5.000000
        s9                             5.000000
      * Repulsion:
        kExp                           1.500000    1.000000
        rExp                           1.000000
      * Coulomb:
        alpha                          2.000000
        third order                    shell-resolved
        anisotropic                    true
        a3                             3.000000
        a5                             4.000000
        cn-shift                       1.200000
        cn-exp                         4.000000
        max-rad                        5.000000


          ...................................................
          :                      SETUP                      :
          :.................................................:
          :  # basis functions                 258          :
          :  # atomic orbitals                 256          :
          :  # shells                          136          :
          :  # electrons                       262          :
          :  max. iterations                   250          :
          :  Hamiltonian                  GFN2-xTB          :
          :  restarted?                      false          :
          :  GBSA solvation                  false          :
          :  PC potential                    false          :
          :  electronic temp.          300.0000000     K    :
          :  accuracy                    1.0000000          :
          :  -> integral cutoff          0.2500000E+02      :
          :  -> integral neglect         0.1000000E-07      :
          :  -> SCF convergence          0.1000000E-05 Eh   :
          :  -> wf. convergence          0.1000000E-03 e    :
          :  Broyden damping             0.4000000          :
          ...................................................

 iter      E             dE          RMSdq      gap      omega  full diag
   1   -139.7636123 -0.139764E+03  0.828E+00    0.32       0.0  T
   2   -129.7962212  0.996739E+01  0.116E+01    0.28       1.0  T
   3   -136.9055699 -0.710935E+01  0.734E+00    0.16       1.0  T
   4   -132.0915412  0.481403E+01  0.779E+00    0.09       1.0  T
   5   -136.7018217 -0.461028E+01  0.594E+00    0.01       1.0  T
   6   -139.4854962 -0.278367E+01  0.520E+00    0.22       1.0  T
   7   -139.5832692 -0.977730E-01  0.470E+00    0.10       1.0  T
   8   -139.8468782 -0.263609E+00  0.444E+00    0.25       1.0  T
   9   -139.9256166 -0.787384E-01  0.379E+00    0.12       1.0  T
  10   -139.4327726  0.492844E+00  0.405E+00    0.07       1.0  T
  11   -140.8271663 -0.139439E+01  0.287E+00    0.06       1.0  T
  12   -140.9778492 -0.150683E+00  0.272E+00    0.05       1.0  T
  13   -140.6147048  0.363144E+00  0.299E+00    0.03       1.0  T
  14   -140.6528348 -0.381301E-01  0.298E+00    0.03       1.0  T
  15   -141.3663458 -0.713511E+00  0.287E+00    0.01       1.0  T
  16   -140.2707454  0.109560E+01  0.363E+00    0.08       1.0  T
  17   -141.5391312 -0.126839E+01  0.413E+00    0.07       1.0  T
  18   -141.5446189 -0.548765E-02  0.436E+00    0.08       1.0  T
  19   -140.4151190  0.112950E+01  0.513E+00    0.02       1.0  T
  20   -141.0636259 -0.648507E+00  0.400E+00    0.02       1.0  T
  21   -140.3112334  0.752392E+00  0.390E+00    0.06       1.0  T
  22   -141.6249564 -0.131372E+01  0.217E+00    0.04       1.0  T
  23   -141.2153424  0.409614E+00  0.312E+00    0.01       1.0  T
  24   -141.0120810  0.203261E+00  0.344E+00    0.03       1.0  T
  25   -141.6350636 -0.622983E+00  0.223E+00    0.04       1.0  T
  26   -141.6385521 -0.348848E-02  0.225E+00    0.04       1.0  T
  27   -141.6326993  0.585280E-02  0.231E+00    0.04       1.0  T
  28   -141.4227877  0.209912E+00  0.190E+00    0.01       1.0  T
  29   -141.5487797 -0.125992E+00  0.238E+00    0.01       1.0  T
  30   -141.5995930 -0.508133E-01  0.167E+00    0.01       1.0  T
  31   -141.5511493  0.484437E-01  0.158E+00    0.00       1.0  T
  32   -141.2874995  0.263650E+00  0.198E+00    0.03       1.0  T
  33   -141.6421591 -0.354660E+00  0.487E-01    0.01       1.0  T
  34   -141.6616320 -0.194729E-01  0.372E-01    0.01       1.0  T
  35   -141.6251817  0.364503E-01  0.553E-01    0.01       1.0  T
  36   -141.6189737  0.620805E-02  0.681E-01    0.00       1.0  T
  37   -141.6581150 -0.391414E-01  0.399E-01    0.01       1.0  T
  38   -141.6637123 -0.559721E-02  0.126E-01    0.01       1.0  T
  39   -141.6646553 -0.943091E-03  0.839E-02    0.01       1.0  T
  40   -141.6637535  0.901843E-03  0.146E-01    0.01       1.0  T
  41   -141.6648594 -0.110586E-02  0.863E-02    0.01       1.0  T
  42   -141.6654486 -0.589217E-03  0.145E-02    0.01       1.0  T
  43   -141.6653822  0.664174E-04  0.289E-02    0.01       1.0  T
  44   -141.6654379 -0.557674E-04  0.163E-02    0.01       1.0  T
  45   -141.6654353  0.260123E-05  0.188E-02    0.01       1.0  T
  46   -141.6654546 -0.192700E-04  0.717E-03    0.01       1.6  T
  47   -141.6654506  0.400300E-05  0.119E-02    0.01       1.0  T
  48   -141.6654577 -0.715510E-05  0.370E-03    0.01       3.1  T
  49   -141.6654564  0.134860E-05  0.479E-03    0.01       2.4  T
  50   -141.6654579 -0.154819E-05  0.111E-03    0.01      10.2  T
  51   -141.6654579  0.205308E-07  0.663E-04    0.01      17.1  T
  52   -141.6654580 -0.616212E-07  0.122E-04    0.01      92.6  T

   *** convergence criteria satisfied after 52 iterations ***

         #    Occupation            Energy/Eh            Energy/eV
      -------------------------------------------------------------
         1        2.0000           -0.6816211             -18.5479
       ...           ...                  ...                  ...
       125        2.0000           -0.3377533              -9.1907
       126        1.9992           -0.3327783              -9.0554
       127        1.9967           -0.3314427              -9.0190
       128        1.9803           -0.3297276              -8.9723
       129        1.8831           -0.3279880              -8.9250
       130        1.2610           -0.3258555              -8.8670
       131        1.1862           -0.3257058              -8.8629 (HOMO)
       132        0.9176           -0.3251910              -8.8489 (LUMO)
       133        0.7760           -0.3249148              -8.8414
       134        0.0000           -0.3133715              -8.5273
       135                         -0.3014502              -8.2029
       136                         -0.2950671              -8.0292
       ...                                ...                  ...
       256                          2.9449263              80.1355
      -------------------------------------------------------------
                  HL-Gap            0.0005148 Eh            0.0140 eV
             Fermi-level           -0.3253479 Eh           -8.8532 eV

 SCC (total)                   0 d,  0 h,  0 min,  0.769 sec
 SCC setup                      ...        0 min,  0.001 sec (  0.153%)
 Dispersion                     ...        0 min,  0.003 sec (  0.329%)
 classical contributions        ...        0 min,  0.000 sec (  0.056%)
 integral evaluation            ...        0 min,  0.029 sec (  3.783%)
 iterations                     ...        0 min,  0.652 sec ( 84.843%)
 molecular gradient             ...        0 min,  0.082 sec ( 10.693%)
 printout                       ...        0 min,  0.001 sec (  0.142%)

         :::::::::::::::::::::::::::::::::::::::::::::::::::::
         ::                     SUMMARY                     ::
         :::::::::::::::::::::::::::::::::::::::::::::::::::::
         :: total energy            -138.632196169637 Eh    ::
         :: gradient norm              1.603199969847 Eh/a0 ::
         :: HOMO-LUMO gap              0.014009261073 eV    ::
         ::.................................................::
         :: SCC energy              -141.665457988881 Eh    ::
         :: -> isotropic ES            0.004476857492 Eh    ::
         :: -> anisotropic ES          0.019648683903 Eh    ::
         :: -> anisotropic XC          0.089213270302 Eh    ::
         :: -> dispersion             -0.103162065087 Eh    ::
         :: repulsion energy           3.033304485593 Eh    ::
         :: add. restraining           0.000000000000 Eh    ::
         :: total charge               0.000000000000 e     ::
         :::::::::::::::::::::::::::::::::::::::::::::::::::::

      ----------------------------------------------------------- 
     |                   =====================                   |
     |                        A N C O P T                        |
     |                   =====================                   |
     |               Approximate Normal Coordinate               |
     |                Rational Function Optimizer                |
      ----------------------------------------------------------- 

          ...................................................
          :                      SETUP                      :
          :.................................................:
          :   optimization level            normal          :
          :   max. optcycles                   234          :
          :   ANC micro-cycles                  20          :
          :   degrees of freedom               228          :
          :.................................................:
          :   RF solver                   davidson          :
          :   write xtbopt.log                true          :
          :   linear?                        false          :
          :   energy convergence         0.5000000E-05 Eh   :
          :   grad. convergence          0.1000000E-02 Eh/α :
          :   maximium RF displ.         1.0000000          :
          :   Hlow (freq-cutoff)         0.1000000E-01      :
          :   Hmax (freq-cutoff)         5.0000000          :
          :   S6 in model hess.         20.0000000          :
          ...................................................

generating ANC from model Hessian ...
Using Lindh-Hessian (1995)
 Shifting diagonal of input Hessian by    1.0028689730541536E-002
 Lowest  eigenvalues of input Hessian
    0.010000    0.010003    0.010007    0.000000    0.000000    0.000000
    0.000000    0.000000    0.000000    0.010079    0.010228    0.010781
    0.011079    0.011231    0.011470    0.011769    0.011898    0.012193
 Highest eigenvalues
    2.226775    2.628022    2.844493    2.912028    3.722891    3.821033


........................................................................
.............................. CYCLE    1 ..............................
........................................................................
   1   -141.6654580 -0.141665E+03  0.188E-04    0.01       0.0  T
   2   -141.6653952  0.627696E-04  0.217E-02    0.01       1.0  T
   3   -141.6654566 -0.613642E-04  0.316E-03    0.01       3.6  T
   4   -141.6654563  0.240026E-06  0.340E-03    0.01       3.3  T
   5   -141.6654580 -0.162606E-05  0.406E-04    0.01      27.9  T
   6   -141.6654580 -0.215133E-07  0.967E-05    0.01     117.1  T
   7   -141.6654580 -0.910347E-09  0.141E-05    0.01     805.7  T
     SCC iter.                  ...        0 min,  0.085 sec
     gradient                   ...        0 min,  0.082 sec
 * total energy  :  -138.6321962 Eh     change       -0.1842352E-08 Eh
   gradient norm :     1.6031999 Eh/α   predicted     0.0000000E+00 (-100.00%)
   displ. norm   :     0.5288861 α      lambda       -0.7641844E+00
   maximum displ.:     0.2231423 α      in ANC's #228, #182, #227, ...

........................................................................
.............................. CYCLE    2 ..............................
........................................................................
   1   -141.6961001 -0.141696E+03  0.658E-01    0.02       0.0  T
   2   -141.5265112  0.169589E+00  0.184E+00    0.01       1.0  T
   3   -139.7438121  0.178270E+01  0.408E+00    0.06       1.0  T
   4   -141.5695671 -0.182575E+01  0.115E+00    0.00       1.0  T
   5   -141.5161674  0.533997E-01  0.131E+00    0.02       1.0  T
   6   -141.4947502  0.214172E-01  0.126E+00    0.01       1.0  T
   7   -140.3585452  0.113620E+01  0.339E+00    0.07       1.0  T
   8   -140.8256081 -0.467063E+00  0.266E+00    0.07       1.0  T
   9   -141.7044178 -0.878810E+00  0.454E-01    0.02       1.0  T
  10   -141.4858915  0.218526E+00  0.129E+00    0.01       1.0  T
  11   -141.3535543  0.132337E+00  0.169E+00    0.03       1.0  T
  12   -141.6948214 -0.341267E+00  0.379E-01    0.01       1.0  T
  13   -141.7106489 -0.158274E-01  0.154E-01    0.02       1.0  T
  14   -141.7047586  0.589024E-02  0.250E-01    0.02       1.0  T
  15   -141.7131231 -0.836447E-02  0.347E-02    0.02       1.0  T
  16   -141.7131294 -0.630651E-05  0.359E-02    0.02       1.0  T
  17   -141.7132769 -0.147485E-03  0.113E-02    0.02       1.0  T
  18   -141.7132619  0.149822E-04  0.134E-02    0.02       1.0  T
  19   -141.7132792 -0.173326E-04  0.368E-03    0.02       3.1  T
  20   -141.7132786  0.637254E-06  0.319E-03    0.02       3.6  T
  21   -141.7132798 -0.116281E-05  0.774E-04    0.02      14.6  T
  22   -141.7132798 -0.302324E-07  0.639E-04    0.02      17.7  T
  23   -141.7132798 -0.595062E-08  0.602E-04    0.02      18.8  T
     SCC iter.                  ...        0 min,  0.273 sec
     gradient                   ...        0 min,  0.082 sec
 * total energy  :  -139.0615623 Eh     change       -0.4293661E+00 Eh
   gradient norm :     0.4079175 Eh/α   predicted    -0.4889900E+00 (  13.89%)
   displ. norm   :     0.5154128 α      lambda       -0.1471770E+00
   maximum displ.:     0.1959024 α      in ANC's #79, #182, #70, ...

........................................................................
.............................. CYCLE    3 ..............................
........................................................................
   1   -141.6453868 -0.141645E+03  0.160E+00    0.03       0.0  T
   2   -131.7244121  0.992097E+01  0.843E+00    0.06       1.0  T
   3   -140.3000744 -0.857566E+01  0.387E+00    0.06       1.0  T
   4   -140.6998281 -0.399754E+00  0.306E+00    0.03       1.0  T
   5   -141.7089211 -0.100909E+01  0.213E+00    0.06       1.0  T
   6   -140.8738849  0.835036E+00  0.272E+00    0.07       1.0  T
   7   -141.1699490 -0.296064E+00  0.215E+00    0.04       1.0  T
   8   -140.6119301  0.558019E+00  0.330E+00    0.09       1.0  T
   9   -140.2329653  0.378965E+00  0.385E+00    0.08       1.0  T
  10   -140.0450625  0.187903E+00  0.414E+00    0.08       1.0  T
  11   -140.1020423 -0.569798E-01  0.403E+00    0.07       1.0  T
  12   -140.1915919 -0.895496E-01  0.373E+00    0.08       1.0  T
  13   -140.2603564 -0.687645E-01  0.362E+00    0.08       1.0  T
  14   -140.4001797 -0.139823E+00  0.334E+00    0.08       1.0  T
  15   -141.1801638 -0.779984E+00  0.211E+00    0.03       1.0  T
  16   -141.3725742 -0.192410E+00  0.191E+00    0.01       1.0  T
  17   -141.3644750  0.809922E-02  0.192E+00    0.01       1.0  T
  18   -141.4950394 -0.130564E+00  0.191E+00    0.01       1.0  T
  19   -141.4043540  0.906854E-01  0.194E+00    0.00       1.0  T
  20   -141.3669614  0.373926E-01  0.193E+00    0.01       1.0  T
  21   -141.3391447  0.278167E-01  0.183E+00    0.01       1.0  T
  22   -141.7141085 -0.374964E+00  0.834E-01    0.03       1.0  T
  23   -141.6540679  0.600406E-01  0.832E-01    0.02       1.0  T
  24   -141.0177587  0.636309E+00  0.242E+00    0.06       1.0  T
  25   -141.5049605 -0.487202E+00  0.140E+00    0.01       1.0  T
  26   -141.7171534 -0.212193E+00  0.350E-01    0.03       1.0  T
  27   -141.6462637  0.708896E-01  0.749E-01    0.01       1.0  T
  28   -141.7012708 -0.550071E-01  0.456E-01    0.02       1.0  T
  29   -141.7145032 -0.132324E-01  0.222E-01    0.03       1.0  T
  30   -141.7200455 -0.554225E-02  0.932E-02    0.03       1.0  T
  31   -141.7184656  0.157985E-02  0.152E-01    0.03       1.0  T
  32   -141.7195636 -0.109801E-02  0.103E-01    0.03       1.0  T
  33   -141.7201116 -0.547963E-03  0.104E-01    0.03       1.0  T
  34   -141.7202535 -0.141931E-03  0.414E-02    0.03       1.0  T
  35   -141.7187860  0.146753E-02  0.107E-01    0.03       1.0  T
  36   -141.7193511 -0.565117E-03  0.897E-02    0.03       1.0  T
  37   -141.7202647 -0.913611E-03  0.221E-02    0.03       1.0  T
  38   -141.7200124  0.252368E-03  0.437E-02    0.03       1.0  T
  39   -141.7202645 -0.252108E-03  0.390E-03    0.03       2.9  T
  40   -141.7202487  0.157317E-04  0.116E-02    0.03       1.0  T
  41   -141.7202658 -0.170842E-04  0.448E-03    0.03       2.5  T
  42   -141.7202648  0.987393E-06  0.339E-03    0.03       3.3  T
  43   -141.7202656 -0.771150E-06  0.172E-03    0.03       6.6  T
  44   -141.7202660 -0.378740E-06  0.395E-04    0.03      28.6  T
  45   -141.7202660  0.143361E-07  0.472E-04    0.03      24.0  T
     SCC iter.                  ...        0 min,  0.536 sec
     gradient                   ...        0 min,  0.082 sec
 * total energy  :  -139.1713157 Eh     change       -0.1097534E+00 Eh
   gradient norm :     0.1995966 Eh/α   predicted    -0.9313737E-01 ( -15.14%)
   displ. norm   :     0.6289261 α      lambda       -0.8090663E-01
   maximum displ.:     0.2531841 α      in ANC's #79, #39, #55, ...

........................................................................
.............................. CYCLE    4 ..............................
........................................................................
   1   -141.6549512 -0.141655E+03  0.193E+00    0.04       0.0  T
   2   -132.7206326  0.893432E+01  0.837E+00    0.15       1.0  T
   3   -140.1311381 -0.741051E+01  0.415E+00    0.10       1.0  T
   4   -140.9933050 -0.862167E+00  0.346E+00    0.14       1.0  T
   5   -141.3671809 -0.373876E+00  0.240E+00    0.01       1.0  T
   6   -141.5772191 -0.210038E+00  0.133E+00    0.02       1.0  T
   7   -141.0028023  0.574417E+00  0.263E+00    0.05       1.0  T
   8   -140.6856292  0.317173E+00  0.301E+00    0.10       1.0  T
   9   -141.6437841 -0.958155E+00  0.181E+00    0.04       1.0  T
  10   -141.4689856  0.174798E+00  0.173E+00    0.00       1.0  T
  11   -141.2928093  0.176176E+00  0.191E+00    0.02       1.0  T
  12   -141.2996451 -0.683579E-02  0.190E+00    0.02       1.0  T
  13   -141.4220814 -0.122436E+00  0.161E+00    0.00       1.0  T
  14   -141.7252352 -0.303154E+00  0.908E-01    0.06       1.0  T
  15   -141.6944208  0.308144E-01  0.860E-01    0.04       1.0  T
  16   -141.7133154 -0.188946E-01  0.741E-01    0.05       1.0  T
  17   -141.7309474 -0.176320E-01  0.679E-01    0.06       1.0  T
  18   -141.7218939  0.905352E-02  0.797E-01    0.05       1.0  T
  19   -141.6380474  0.838465E-01  0.932E-01    0.03       1.0  T
  20   -141.7485662 -0.110519E+00  0.444E-01    0.05       1.0  T
  21   -141.7311981  0.173681E-01  0.423E-01    0.05       1.0  T
  22   -141.7445116 -0.133136E-01  0.286E-01    0.05       1.0  T
  23   -141.7460195 -0.150792E-02  0.215E-01    0.05       1.0  T
  24   -141.7485956 -0.257605E-02  0.111E-01    0.05       1.0  T
  25   -141.7498473 -0.125171E-02  0.230E-02    0.05       1.0  T
  26   -141.7497854  0.618756E-04  0.307E-02    0.05       1.0  T
  27   -141.7498790 -0.935373E-04  0.693E-03    0.05       1.6  T
  28   -141.7498366  0.423776E-04  0.202E-02    0.05       1.0  T
  29   -141.7498801 -0.434830E-04  0.476E-03    0.05       2.4  T
  30   -141.7498827 -0.260806E-05  0.167E-03    0.05       6.8  T
  31   -141.7498830 -0.350225E-06  0.535E-04    0.05      21.2  T
  32   -141.7498830 -0.765857E-08  0.344E-04    0.05      32.9  T
     SCC iter.                  ...        0 min,  0.384 sec
     gradient                   ...        0 min,  0.082 sec
 * total energy  :  -139.2317007 Eh     change       -0.6038498E-01 Eh
   gradient norm :     0.0841350 Eh/α   predicted    -0.5645485E-01 (  -6.51%)
   displ. norm   :     0.7114324 α      lambda       -0.4512410E-01
   maximum displ.:     0.2682548 α      in ANC's #39, #79, #55, ...

........................................................................
.............................. CYCLE    5 ..............................
........................................................................
   1   -141.6992958 -0.141699E+03  0.166E+00    0.06       0.0  T
   2   -133.1463181  0.855298E+01  0.846E+00    0.64       1.0  T
   3   -140.1890854 -0.704277E+01  0.423E+00    0.16       1.0  T
   4   -141.1195875 -0.930502E+00  0.273E+00    0.05       1.0  T
   5   -140.4035116  0.716076E+00  0.379E+00    0.18       1.0  T
   6   -141.6432525 -0.123974E+01  0.186E+00    0.05       1.0  T
   7   -140.2362040  0.140705E+01  0.409E+00    0.22       1.0  T
   8   -140.2525530 -0.163490E-01  0.402E+00    0.21       1.0  T
   9   -140.3206646 -0.681116E-01  0.381E+00    0.21       1.0  T
  10   -141.5532483 -0.123258E+01  0.300E+00    0.06       1.0  T
  11   -141.7136564 -0.160408E+00  0.304E+00    0.14       1.0  T
  12   -141.7481260 -0.344696E-01  0.234E+00    0.13       1.0  T
  13   -140.3354948  0.141263E+01  0.376E+00    0.17       1.0  T
  14   -141.6138805 -0.127839E+01  0.200E+00    0.04       1.0  T
  15   -141.7569472 -0.143067E+00  0.266E+00    0.17       1.0  T
  16   -141.7571767 -0.229496E-03  0.262E+00    0.17       1.0  T
  17   -141.7605158 -0.333906E-02  0.238E+00    0.16       1.0  T
  18   -141.7619755 -0.145969E-02  0.218E+00    0.16       1.0  T
  19   -141.7626432 -0.667724E-03  0.209E+00    0.15       1.0  T
  20   -141.7646752 -0.203203E-02  0.171E+00    0.14       1.0  T
  21   -141.7669490 -0.227377E-02  0.128E+00    0.13       1.0  T
  22   -141.7561499  0.107991E-01  0.624E-01    0.09       1.0  T
  23   -141.7623076 -0.615768E-02  0.311E-01    0.09       1.0  T
  24   -141.7653213 -0.301367E-02  0.247E-01    0.09       1.0  T
  25   -141.7692290 -0.390769E-02  0.204E-01    0.09       1.0  T
  26   -141.7674977  0.173123E-02  0.181E-01    0.09       1.0  T
  27   -141.7704332 -0.293545E-02  0.165E-01    0.09       1.0  T
  28   -141.7695395  0.893658E-03  0.116E-01    0.09       1.0  T
  29   -141.7707444 -0.120492E-02  0.351E-02    0.09       1.0  T
  30   -141.7707498 -0.538076E-05  0.199E-02    0.09       1.0  T
  31   -141.7707501 -0.261357E-06  0.140E-02    0.09       1.0  T
  32   -141.7707672 -0.171011E-04  0.124E-02    0.09       1.0  T
  33   -141.7707682 -0.981359E-06  0.303E-03    0.09       3.7  T
  34   -141.7707674  0.754630E-06  0.306E-03    0.09       3.7  T
  35   -141.7707676 -0.173488E-06  0.311E-03    0.09       3.6  T
  36   -141.7707685 -0.919513E-06  0.281E-04    0.09      40.4  T
  37   -141.7707685  0.258220E-08  0.218E-04    0.09      52.0  T
     SCC iter.                  ...        0 min,  0.432 sec
     gradient                   ...        0 min,  0.082 sec
 * total energy  :  -139.2689305 Eh     change       -0.3722980E-01 Eh
   gradient norm :     0.0678562 Eh/α   predicted    -0.3398152E-01 (  -8.72%)
   displ. norm   :     0.7691000 α      lambda       -0.3440033E-01
   maximum displ.:     0.3345480 α      in ANC's #39, #55, #79, ...

........................................................................
.............................. CYCLE    6 ..............................
........................................................................
   1   -141.7579011 -0.141758E+03  0.108E+00    0.10       0.0  T
   2   -138.9050118  0.285289E+01  0.620E+00    0.07       1.0  T
   3   -140.3187787 -0.141377E+01  0.431E+00    0.19       1.0  T
   4   -141.0217606 -0.702982E+00  0.290E+00    0.05       1.0  T
   5   -140.2884575  0.733303E+00  0.454E+00    0.23       1.0  T
   6   -141.3030177 -0.101456E+01  0.233E+00    0.02       1.0  T
   7   -141.7813945 -0.478377E+00  0.101E+00    0.14       1.0  T
   8   -140.8130906  0.968304E+00  0.343E+00    0.08       1.0  T
   9   -141.7713254 -0.958235E+00  0.112E+00    0.12       1.0  T
  10   -141.7760467 -0.472129E-02  0.113E+00    0.13       1.0  T
  11   -141.6583150  0.117732E+00  0.106E+00    0.05       1.0  T
  12   -141.7847289 -0.126414E+00  0.121E+00    0.19       1.0  T
  13   -141.7853025 -0.573545E-03  0.114E+00    0.21       1.0  T
  14   -141.7855234 -0.220898E-03  0.112E+00    0.21       1.0  T
  15   -141.7854569  0.664468E-04  0.114E+00    0.21       1.0  T
  16   -141.7860725 -0.615583E-03  0.104E+00    0.22       1.0  T
  17   -141.7867279 -0.655453E-03  0.777E-01    0.19       1.0  T
  18   -141.7859356  0.792383E-03  0.613E-01    0.16       1.0  T
  19   -141.7859689 -0.333819E-04  0.528E-01    0.16       1.0  T
  20   -141.7854392  0.529772E-03  0.420E-01    0.15       1.0  T
  21   -141.7846209  0.818262E-03  0.325E-01    0.14       1.0  T
  22   -141.7869882 -0.236724E-02  0.261E-01    0.16       1.0  T
  23   -141.7875515 -0.563342E-03  0.176E-01    0.16       1.0  T
  24   -141.7878227 -0.271210E-03  0.727E-02    0.16       1.0  T
  25   -141.7881439 -0.321242E-03  0.182E-02    0.16       1.0  T
  26   -141.7881512 -0.725069E-05  0.758E-03    0.16       1.5  T
  27   -141.7881520 -0.785052E-06  0.499E-03    0.16       2.3  T
  28   -141.7881527 -0.670975E-06  0.336E-03    0.16       3.4  T
  29   -141.7881533 -0.662625E-06  0.129E-03    0.16       8.8  T
  30   -141.7881534 -0.126123E-06  0.643E-04    0.16      17.6  T
  31   -141.7881535 -0.326187E-07  0.236E-04    0.16      47.9  T
     SCC iter.                  ...        0 min,  0.364 sec
     gradient                   ...        0 min,  0.082 sec
 * total energy  :  -139.2977205 Eh     change       -0.2879001E-01 Eh
   gradient norm :     0.0615496 Eh/α   predicted    -0.2737432E-01 (  -4.92%)
   displ. norm   :     0.7526031 α      lambda       -0.2489541E-01
   maximum displ.:     0.3371823 α      in ANC's #39, #55, #17, ...

........................................................................
.............................. CYCLE    7 ..............................
........................................................................
   1   -141.8007209 -0.141801E+03  0.447E-01    0.17       0.0  T
   2   -140.2964196  0.150430E+01  0.508E+00    0.21       1.0  T
   3   -141.6644674 -0.136805E+01  0.143E+00    0.05       1.0  T
   4   -141.8055395 -0.141072E+00  0.220E-01    0.22       1.0  T
   5   -141.8058045 -0.264987E-03  0.159E-01    0.24       1.0  T
   6   -141.6239344  0.181870E+00  0.161E+00    0.03       1.0  T
   7   -141.8059076 -0.181973E+00  0.132E-01    0.25       1.0  T
   8   -141.8059953 -0.876744E-04  0.119E-01    0.26       1.0  T
   9   -141.8059445  0.507771E-04  0.110E-01    0.25       1.0  T
  10   -141.8059664 -0.219281E-04  0.108E-01    0.25       1.0  T
  11   -141.8059801 -0.136771E-04  0.101E-01    0.25       1.0  T
  12   -141.8059908 -0.107304E-04  0.950E-02    0.25       1.0  T
  13   -141.8060028 -0.120059E-04  0.875E-02    0.26       1.0  T
  14   -141.8060112 -0.830936E-05  0.805E-02    0.26       1.0  T
  15   -141.8060342 -0.230249E-04  0.511E-02    0.26       1.0  T
  16   -141.8060418 -0.765807E-05  0.315E-02    0.26       1.0  T
  17   -141.8060439 -0.201178E-05  0.214E-02    0.26       1.0  T
  18   -141.8060451 -0.123113E-05  0.897E-03    0.26       1.3  T
  19   -141.8060453 -0.171231E-06  0.282E-03    0.26       4.0  T
  20   -141.8060453 -0.132983E-07  0.876E-04    0.26      12.9  T
  21   -141.8060453 -0.327981E-08  0.309E-04    0.26      36.6  T
     SCC iter.                  ...        0 min,  0.249 sec
     gradient                   ...        0 min,  0.082 sec
 * total energy  :  -139.3174198 Eh     change       -0.1969927E-01 Eh
   gradient norm :     0.0451553 Eh/α   predicted    -0.1949824E-01 (  -1.02%)
   displ. norm   :     0.6658434 α      lambda       -0.1423784E-01
   maximum displ.:     0.3057039 α      in ANC's #17, #39, #55, ...

........................................................................
.............................. CYCLE    8 ..............................
........................................................................
   1   -141.8247007 -0.141825E+03  0.353E-01    0.27       0.0  T
   2   -141.8224985  0.220223E-02  0.350E-01    0.20       1.0  T
   3   -141.8223046  0.193831E-03  0.238E-01    0.18       1.0  T
   4   -141.8081820  0.141227E-01  0.493E-01    0.12       1.0  T
   5   -141.8252295 -0.170475E-01  0.212E-01    0.27       1.0  T
   6   -141.8250535  0.176031E-03  0.149E-01    0.24       1.0  T
   7   -141.8250001  0.533332E-04  0.108E-01    0.23       1.0  T
   8   -141.8254685 -0.468342E-03  0.752E-02    0.27       1.0  T
   9   -141.8255234 -0.549013E-04  0.532E-02    0.29       1.0  T
  10   -141.8255657 -0.422965E-04  0.386E-02    0.30       1.0  T
  11   -141.8255860 -0.203269E-04  0.192E-02    0.30       1.0  T
  12   -141.8255936 -0.763376E-05  0.365E-03    0.30       3.1  T
  13   -141.8255941 -0.408802E-06  0.121E-03    0.30       9.3  T
  14   -141.8255941 -0.281132E-07  0.289E-03    0.30       3.9  T
  15   -141.8255941 -0.493995E-07  0.344E-04    0.30      32.9  T
  16   -141.8255941 -0.164809E-08  0.526E-04    0.30      21.5  T
     SCC iter.                  ...        0 min,  0.191 sec
     gradient                   ...        0 min,  0.082 sec
 * total energy  :  -139.3281441 Eh     change       -0.1072431E-01 Eh
   gradient norm :     0.0303498 Eh/α   predicted    -0.1027510E-01 (  -4.19%)
   displ. norm   :     0.6261794 α      lambda       -0.7854020E-02
   maximum displ.:     0.3512122 α      in ANC's #17, #9, #8, ...

........................................................................
.............................. CYCLE    9 ..............................
........................................................................
   1   -141.8402851 -0.141840E+03  0.249E-01    0.30       0.0  T
   2   -141.8401757  0.109368E-03  0.191E-01    0.30       1.0  T
   3   -141.8403463 -0.170539E-03  0.113E-01    0.30       1.0  T
   4   -141.8402934  0.529020E-04  0.751E-02    0.29       1.0  T
   5   -141.8404367 -0.143321E-03  0.367E-02    0.30       1.0  T
   6   -141.8404804 -0.436838E-04  0.129E-02    0.30       1.0  T
   7   -141.8404796  0.807994E-06  0.543E-03    0.30       2.1  T
   8   -141.8404813 -0.172231E-05  0.129E-03    0.30       8.8  T
   9   -141.8404813 -0.200635E-07  0.598E-04    0.30      18.9  T
  10   -141.8404813  0.570139E-08  0.407E-04    0.30      27.8  T
     SCC iter.                  ...        0 min,  0.120 sec
     gradient                   ...        0 min,  0.082 sec
 * total energy  :  -139.3340542 Eh     change       -0.5910110E-02 Eh
   gradient norm :     0.0258885 Eh/α   predicted    -0.5466807E-02 (  -7.50%)
   displ. norm   :     0.7197211 α      lambda       -0.7057107E-02
   maximum displ.:     0.3861784 α      in ANC's #9, #17, #8, ...

........................................................................
.............................. CYCLE   10 ..............................
........................................................................
   1   -141.8531972 -0.141853E+03  0.309E-01    0.29       0.0  T
   2   -141.8532903 -0.930777E-04  0.195E-01    0.29       1.0  T
   3   -141.8533545 -0.642289E-04  0.162E-01    0.30       1.0  T
   4   -141.8534128 -0.582756E-04  0.806E-02    0.29       1.0  T
   5   -141.8534150 -0.225066E-05  0.252E-02    0.29       1.0  T
   6   -141.8534212 -0.616185E-05  0.611E-03    0.29       1.9  T
   7   -141.8534220 -0.778817E-06  0.441E-03    0.29       2.6  T
   8   -141.8534230 -0.106452E-05  0.182E-03    0.29       6.2  T
   9   -141.8534231 -0.525718E-07  0.100E-03    0.29      11.3  T
  10   -141.8534231 -0.145107E-07  0.572E-04    0.29      19.8  T
  11   -141.8534231 -0.184235E-07  0.166E-04    0.29      68.0  T
     SCC iter.                  ...        0 min,  0.132 sec
     gradient                   ...        0 min,  0.082 sec
 * total energy  :  -139.3377560 Eh     change       -0.3701783E-02 Eh
   gradient norm :     0.0301070 Eh/α   predicted    -0.5356340E-02 (  44.70%)
   displ. norm   :     0.5883378 α      lambda       -0.5918920E-02
   maximum displ.:     0.3728833 α      in ANC's #9, #17, #8, ...

........................................................................
.............................. CYCLE   11 ..............................
........................................................................
   1   -141.8580477 -0.141858E+03  0.240E-01    0.28       0.0  T
   2   -141.8580284  0.192512E-04  0.233E-01    0.27       1.0  T
   3   -141.8581638 -0.135308E-03  0.127E-01    0.28       1.0  T
   4   -141.8581854 -0.216506E-04  0.630E-02    0.28       1.0  T
   5   -141.8581895 -0.413565E-05  0.339E-02    0.28       1.0  T
   6   -141.8581927 -0.313420E-05  0.728E-03    0.28       1.6  T
   7   -141.8581928 -0.175052E-06  0.338E-03    0.28       3.4  T
   8   -141.8581933 -0.474039E-06  0.198E-03    0.28       5.7  T
   9   -141.8581936 -0.233269E-06  0.619E-04    0.28      18.3  T
  10   -141.8581936 -0.275250E-08  0.282E-04    0.28      40.2  T
     SCC iter.                  ...        0 min,  0.120 sec
     gradient                   ...        0 min,  0.082 sec
 * total energy  :  -139.3421521 Eh     change       -0.4396112E-02 Eh
   gradient norm :     0.0234259 Eh/α   predicted    -0.3983854E-02 (  -9.38%)
   displ. norm   :     0.6458272 α      lambda       -0.4255949E-02
   maximum displ.:     0.4466504 α      in ANC's #9, #17, #8, ...

........................................................................
.............................. CYCLE   12 ..............................
........................................................................
   1   -141.8584028 -0.141858E+03  0.191E-01    0.27       0.0  T
   2   -141.8582174  0.185419E-03  0.217E-01    0.26       1.0  T
   3   -141.8584680 -0.250679E-03  0.109E-01    0.26       1.0  T
   4   -141.8584768 -0.872111E-05  0.462E-02    0.26       1.0  T
   5   -141.8584625  0.142952E-04  0.349E-02    0.26       1.0  T
   6   -141.8585060 -0.435559E-04  0.160E-02    0.26       1.0  T
   7   -141.8585239 -0.178441E-04  0.627E-03    0.26       1.8  T
   8   -141.8585245 -0.634786E-06  0.185E-03    0.26       6.1  T
   9   -141.8585246 -0.894795E-07  0.884E-04    0.26      12.8  T
  10   -141.8585246 -0.717455E-08  0.567E-04    0.26      20.0  T
     SCC iter.                  ...        0 min,  0.118 sec
     gradient                   ...        0 min,  0.082 sec
 * total energy  :  -139.3455387 Eh     change       -0.3386650E-02 Eh
   gradient norm :     0.0231454 Eh/α   predicted    -0.3015539E-02 ( -10.96%)
   displ. norm   :     0.7232440 α      lambda       -0.4475269E-02
   maximum displ.:     0.4923442 α      in ANC's #9, #8, #17, ...

........................................................................
.............................. CYCLE   13 ..............................
........................................................................
   1   -141.8587514 -0.141859E+03  0.210E-01    0.25       0.0  T
   2   -141.8576190  0.113234E-02  0.219E-01    0.21       1.0  T
   3   -141.8560779  0.154112E-02  0.205E-01    0.17       1.0  T
   4   -141.8573085 -0.123064E-02  0.161E-01    0.19       1.0  T
   5   -141.8588809 -0.157233E-02  0.956E-02    0.25       1.0  T
   6   -141.8589552 -0.743306E-04  0.543E-02    0.26       1.0  T
   7   -141.8590033 -0.480730E-04  0.357E-02    0.25       1.0  T
   8   -141.8590031  0.209101E-06  0.115E-02    0.25       1.0  T
   9   -141.8590139 -0.108454E-04  0.552E-03    0.25       2.1  T
  10   -141.8590157 -0.183219E-05  0.180E-03    0.25       6.3  T
  11   -141.8590155  0.239515E-06  0.198E-03    0.25       5.7  T
  12   -141.8590158 -0.314122E-06  0.782E-04    0.25      14.5  T
  13   -141.8590158 -0.286698E-07  0.324E-04    0.25      35.0  T
     SCC iter.                  ...        0 min,  0.156 sec
     gradient                   ...        0 min,  0.082 sec
 * total energy  :  -139.3490181 Eh     change       -0.3479383E-02 Eh
   gradient norm :     0.0210723 Eh/α   predicted    -0.3408106E-02 (  -2.05%)
   displ. norm   :     0.7266025 α      lambda       -0.3719645E-02
   maximum displ.:     0.5189557 α      in ANC's #9, #8, #17, ...

........................................................................
.............................. CYCLE   14 ..............................
........................................................................
   1   -141.8581549 -0.141858E+03  0.184E-01    0.25       0.0  T
   2   -141.8552266  0.292824E-02  0.286E-01    0.18       1.0  T
   3   -141.8536910  0.153561E-02  0.239E-01    0.16       1.0  T
   4   -141.8579504 -0.425933E-02  0.143E-01    0.23       1.0  T
   5   -141.8582589 -0.308488E-03  0.101E-01    0.25       1.0  T
   6   -141.8579376  0.321275E-03  0.748E-02    0.22       1.0  T
   7   -141.8583197 -0.382100E-03  0.569E-02    0.25       1.0  T
   8   -141.8583353 -0.155841E-04  0.443E-02    0.25       1.0  T
   9   -141.8583606 -0.253139E-04  0.175E-02    0.25       1.0  T
  10   -141.8583623 -0.170807E-05  0.500E-03    0.24       2.3  T
  11   -141.8583621  0.229000E-06  0.286E-03    0.24       4.0  T
  12   -141.8583623 -0.285830E-06  0.104E-03    0.24      10.9  T
  13   -141.8583624 -0.474582E-07  0.315E-04    0.24      36.0  T
  14   -141.8583624  0.155984E-08  0.586E-04    0.24      19.3  T
     SCC iter.                  ...        0 min,  0.167 sec
     gradient                   ...        0 min,  0.081 sec
 * total energy  :  -139.3521465 Eh     change       -0.3128352E-02 Eh
   gradient norm :     0.0170174 Eh/α   predicted    -0.2841719E-02 (  -9.16%)
   displ. norm   :     0.7543288 α      lambda       -0.3239678E-02
   maximum displ.:     0.5480590 α      in ANC's #9, #8, #7, ...

........................................................................
.............................. CYCLE   15 ..............................
........................................................................
   1   -141.8597029 -0.141860E+03  0.178E-01    0.24       0.0  T
   2   -141.8586712  0.103175E-02  0.156E-01    0.20       1.0  T
   3   -141.8318106  0.268605E-01  0.604E-01    0.10       1.0  T
   4   -141.8591309 -0.273202E-01  0.135E-01    0.21       1.0  T
   5   -141.8595598 -0.428918E-03  0.765E-02    0.24       1.0  T
   6   -141.8597061 -0.146293E-03  0.566E-02    0.25       1.0  T
   7   -141.8596845  0.215505E-04  0.545E-02    0.24       1.0  T
   8   -141.8597179 -0.334072E-04  0.466E-02    0.25       1.0  T
   9   -141.8597466 -0.286097E-04  0.421E-02    0.25       1.0  T
  10   -141.8597483 -0.174552E-05  0.413E-02    0.25       1.0  T
  11   -141.8597749 -0.266065E-04  0.331E-02    0.25       1.0  T
  12   -141.8597821 -0.717828E-05  0.296E-02    0.25       1.0  T
  13   -141.8598006 -0.185447E-04  0.197E-02    0.24       1.0  T
  14   -141.8598120 -0.113716E-04  0.104E-02    0.24       1.1  T
  15   -141.8598161 -0.414481E-05  0.282E-03    0.24       4.0  T
  16   -141.8598165 -0.342385E-06  0.790E-04    0.24      14.3  T
  17   -141.8598165 -0.130439E-07  0.210E-04    0.24      53.9  T
     SCC iter.                  ...        0 min,  0.203 sec
     gradient                   ...        0 min,  0.081 sec
 * total energy  :  -139.3546845 Eh     change       -0.2538001E-02 Eh
   gradient norm :     0.0150043 Eh/α   predicted    -0.2541558E-02 (   0.14%)
   displ. norm   :     0.7477317 α      lambda       -0.2720650E-02
   maximum displ.:     0.5402020 α      in ANC's #9, #8, #7, ...

........................................................................
.............................. CYCLE   16 ..............................
........................................................................
   1   -141.8646359 -0.141865E+03  0.188E-01    0.23       0.0  T
   2   -141.8567922  0.784368E-02  0.432E-01    0.14       1.0  T
   3   -141.8514696  0.532265E-02  0.416E-01    0.12       1.0  T
   4   -141.8648101 -0.133406E-01  0.125E-01    0.24       1.0  T
   5   -141.8638997  0.910476E-03  0.122E-01    0.20       1.0  T
   6   -141.8647564 -0.856742E-03  0.836E-02    0.24       1.0  T
   7   -141.8646564  0.999737E-04  0.728E-02    0.23       1.0  T
   8   -141.8647522 -0.958000E-04  0.663E-02    0.24       1.0  T
   9   -141.8648027 -0.504352E-04  0.476E-02    0.24       1.0  T
  10   -141.8648126 -0.994131E-05  0.399E-02    0.24       1.0  T
  11   -141.8648248 -0.122217E-04  0.260E-02    0.24       1.0  T
  12   -141.8648287 -0.385819E-05  0.156E-02    0.24       1.0  T
  13   -141.8648317 -0.304612E-05  0.666E-04    0.24      17.0  T
  14   -141.8648317 -0.387323E-08  0.331E-04    0.24      34.3  T
  15   -141.8648317  0.168981E-08  0.429E-04    0.24      26.4  T
     SCC iter.                  ...        0 min,  0.177 sec
     gradient                   ...        0 min,  0.081 sec
 * total energy  :  -139.3566504 Eh     change       -0.1965936E-02 Eh
   gradient norm :     0.0147268 Eh/α   predicted    -0.2120894E-02 (   7.88%)
   displ. norm   :     0.7334469 α      lambda       -0.2168691E-02
   maximum displ.:     0.5411687 α      in ANC's #9, #7, #8, ...

........................................................................
.............................. CYCLE   17 ..............................
........................................................................
   1   -141.8626603 -0.141863E+03  0.182E-01    0.22       0.0  T
   2   -141.8490832  0.135771E-01  0.461E-01    0.12       1.0  T
   3   -141.8475219  0.156135E-02  0.459E-01    0.12       1.0  T
   4   -141.8627152 -0.151934E-01  0.144E-01    0.23       1.0  T
   5   -141.8619564  0.758792E-03  0.149E-01    0.20       1.0  T
   6   -141.8626334 -0.676947E-03  0.104E-01    0.23       1.0  T
   7   -141.8628299 -0.196479E-03  0.728E-02    0.23       1.0  T
   8   -141.8628363 -0.644534E-05  0.639E-02    0.23       1.0  T
   9   -141.8628413 -0.495840E-05  0.405E-02    0.23       1.0  T
  10   -141.8628418 -0.487093E-06  0.301E-02    0.23       1.0  T
  11   -141.8628422 -0.474597E-06  0.114E-02    0.23       1.0  T
  12   -141.8628444 -0.217534E-05  0.365E-03    0.23       3.1  T
  13   -141.8628447 -0.279442E-06  0.318E-03    0.23       3.6  T
  14   -141.8628447  0.837019E-08  0.172E-03    0.23       6.6  T
  15   -141.8628447 -0.475250E-07  0.102E-04    0.23     111.2  T
  16   -141.8628447 -0.219700E-10  0.110E-04    0.23     102.6  T
     SCC iter.                  ...        0 min,  0.189 sec
     gradient                   ...        0 min,  0.081 sec
 * total energy  :  -139.3581634 Eh     change       -0.1512942E-02 Eh
   gradient norm :     0.0175414 Eh/α   predicted    -0.1667671E-02 (  10.23%)
   displ. norm   :     0.6663531 α      lambda       -0.1907881E-02
   maximum displ.:     0.4854900 α      in ANC's #9, #8, #7, ...

........................................................................
.............................. CYCLE   18 ..............................
........................................................................
   1   -141.8682131 -0.141868E+03  0.139E-01    0.22       0.0  T
   2   -141.8639641  0.424902E-02  0.282E-01    0.15       1.0  T
   3   -141.8609022  0.306187E-02  0.300E-01    0.14       1.0  T
   4   -141.8680084 -0.710621E-02  0.115E-01    0.21       1.0  T
   5   -141.8680961 -0.876628E-04  0.977E-02    0.22       1.0  T
   6   -141.8682139 -0.117840E-03  0.710E-02    0.22       1.0  T
   7   -141.8682911 -0.771327E-04  0.566E-02    0.23       1.0  T
   8   -141.8682857  0.538073E-05  0.532E-02    0.23       1.0  T
   9   -141.8683063 -0.205845E-04  0.204E-02    0.23       1.0  T
  10   -141.8683075 -0.123579E-05  0.821E-03    0.22       1.4  T
  11   -141.8683075 -0.526603E-07  0.158E-03    0.22       7.2  T
  12   -141.8683077 -0.107061E-06  0.710E-04    0.22      15.9  T
  13   -141.8683077 -0.254059E-07  0.227E-04    0.22      49.9  T
     SCC iter.                  ...        0 min,  0.153 sec
     gradient                   ...        0 min,  0.081 sec
 * total energy  :  -139.3595580 Eh     change       -0.1394690E-02 Eh
   gradient norm :     0.0140501 Eh/α   predicted    -0.1377520E-02 (  -1.23%)
   displ. norm   :     0.6645150 α      lambda       -0.1537392E-02
   maximum displ.:     0.4666226 α      in ANC's #9, #7, #8, ...

........................................................................
.............................. CYCLE   19 ..............................
........................................................................
   1   -141.8734938 -0.141873E+03  0.134E-01    0.22       0.0  T
   2   -141.8689946  0.449922E-02  0.296E-01    0.15       1.0  T
   3   -141.8642174  0.477723E-02  0.329E-01    0.13       1.0  T
   4   -141.8735160 -0.929861E-02  0.107E-01    0.22       1.0  T
   5   -141.8726033  0.912702E-03  0.100E-01    0.19       1.0  T
   6   -141.8734720 -0.868719E-03  0.765E-02    0.22       1.0  T
   7   -141.8735538 -0.817970E-04  0.632E-02    0.22       1.0  T
   8   -141.8735556 -0.178939E-05  0.580E-02    0.22       1.0  T
   9   -141.8735599 -0.435864E-05  0.320E-02    0.22       1.0  T
  10   -141.8735661 -0.618866E-05  0.226E-02    0.22       1.0  T
  11   -141.8735709 -0.473543E-05  0.754E-03    0.22       1.5  T
  12   -141.8735711 -0.274063E-06  0.307E-03    0.22       3.7  T
  13   -141.8735711  0.104304E-07  0.996E-04    0.22      11.4  T
  14   -141.8735712 -0.332522E-07  0.387E-04    0.22      29.3  T
     SCC iter.                  ...        0 min,  0.164 sec
     gradient                   ...        0 min,  0.081 sec
 * total energy  :  -139.3607529 Eh     change       -0.1194891E-02 Eh
   gradient norm :     0.0145479 Eh/α   predicted    -0.1108140E-02 (  -7.26%)
   displ. norm   :     0.7045109 α      lambda       -0.1643975E-02
   maximum displ.:     0.4893826 α      in ANC's #9, #7, #8, ...

........................................................................
.............................. CYCLE   20 ..............................
........................................................................
   1   -141.8769364 -0.141877E+03  0.142E-01    0.21       0.0  T
   2   -141.8744323  0.250409E-02  0.217E-01    0.16       1.0  T
   3   -141.8442314  0.302009E-01  0.650E-01    0.09       1.0  T
   4   -141.8759054 -0.316740E-01  0.135E-01    0.18       1.0  T
   5   -141.8769512 -0.104582E-02  0.651E-02    0.22       1.0  T
   6   -141.8769854 -0.342028E-04  0.407E-02    0.21       1.0  T
   7   -141.8768159  0.169463E-03  0.483E-02    0.21       1.0  T
   8   -141.8769480 -0.132078E-03  0.355E-02    0.21       1.0  T
   9   -141.8769561 -0.804597E-05  0.312E-02    0.21       1.0  T
  10   -141.8769606 -0.450159E-05  0.299E-02    0.21       1.0  T
  11   -141.8769803 -0.197435E-04  0.202E-02    0.21       1.0  T
  12   -141.8769829 -0.260463E-05  0.170E-02    0.21       1.0  T
  13   -141.8769862 -0.330609E-05  0.128E-02    0.21       1.0  T
  14   -141.8769902 -0.393305E-05  0.482E-03    0.21       2.3  T
  15   -141.8769910 -0.891375E-06  0.831E-04    0.21      13.6  T
  16   -141.8769911 -0.144117E-07  0.283E-04    0.21      40.0  T
     SCC iter.                  ...        0 min,  0.192 sec
     gradient                   ...        0 min,  0.081 sec
 * total energy  :  -139.3619525 Eh     change       -0.1199530E-02 Eh
   gradient norm :     0.0154670 Eh/α   predicted    -0.1229972E-02 (   2.54%)
   displ. norm   :     0.6819896 α      lambda       -0.1434399E-02
   maximum displ.:     0.4506216 α      in ANC's #9, #7, #8, ...
 * RMSD in coord.:     1.1606480 α      energy gain  -0.7297563E+00 Eh

generating ANC from model Hessian ...
Using Lindh-Hessian (1995)
 Shifting diagonal of input Hessian by    1.0030533322832472E-002
 Lowest  eigenvalues of input Hessian
    0.010000    0.010019    0.010020    0.000000    0.000000    0.000000
    0.000000    0.000000    0.000000    0.010049    0.010123    0.010396
    0.010814    0.011249    0.011349    0.011435    0.011967    0.012303
 Highest eigenvalues
    2.144894    2.157135    2.160893    2.245445    2.689016    3.027561


........................................................................
.............................. CYCLE   21 ..............................
........................................................................
   1   -141.8791256 -0.141879E+03  0.131E-01    0.21       0.0  T
   2   -141.8667954  0.123302E-01  0.382E-01    0.12       1.0  T
   3   -141.8766127 -0.981722E-02  0.172E-01    0.16       1.0  T
   4   -141.8766487 -0.360094E-04  0.187E-01    0.16       1.0  T
   5   -141.8790942 -0.244553E-02  0.836E-02    0.21       1.0  T
   6   -141.8792029 -0.108715E-03  0.834E-02    0.21       1.0  T
   7   -141.8785061  0.696843E-03  0.806E-02    0.18       1.0  T
   8   -141.8791631 -0.657051E-03  0.444E-02    0.21       1.0  T
   9   -141.8791814 -0.182360E-04  0.356E-02    0.21       1.0  T
  10   -141.8792188 -0.374663E-04  0.176E-02    0.21       1.0  T
  11   -141.8792263 -0.745031E-05  0.275E-03    0.21       4.1  T
  12   -141.8792266 -0.358936E-06  0.113E-03    0.21      10.0  T
  13   -141.8792266 -0.905462E-08  0.514E-04    0.21      22.0  T
  14   -141.8792266 -0.706470E-08  0.313E-04    0.21      36.1  T
     SCC iter.                  ...        0 min,  0.165 sec
     gradient                   ...        0 min,  0.081 sec
 * total energy  :  -139.3630833 Eh     change       -0.1130863E-02 Eh
   gradient norm :     0.0146922 Eh/α   predicted     0.0000000E+00 (-100.00%)
   displ. norm   :     0.1823441 α      lambda       -0.7972760E-03
   maximum displ.:     0.1039798 α      in ANC's #10, #17, #15, ...

........................................................................
.............................. CYCLE   22 ..............................
........................................................................
   1   -141.8773039 -0.141877E+03  0.618E-02    0.21       0.0  T
   2   -141.8772877  0.162749E-04  0.576E-02    0.21       1.0  T
   3   -141.8769726  0.315027E-03  0.749E-02    0.19       1.0  T
   4   -141.8750632  0.190947E-02  0.146E-01    0.16       1.0  T
   5   -141.8773074 -0.224425E-02  0.336E-02    0.21       1.0  T
   6   -141.8772772  0.302255E-04  0.197E-02    0.21       1.0  T
   7   -141.8773101 -0.329364E-04  0.120E-02    0.21       1.0  T
   8   -141.8773048  0.533778E-05  0.101E-02    0.21       1.1  T
   9   -141.8773105 -0.571453E-05  0.370E-03    0.21       3.1  T
  10   -141.8773106 -0.114668E-06  0.193E-03    0.21       5.9  T
  11   -141.8773106 -0.860365E-08  0.571E-04    0.21      19.8  T
  12   -141.8773106 -0.159243E-07  0.277E-04    0.21      40.9  T
     SCC iter.                  ...        0 min,  0.142 sec
     gradient                   ...        0 min,  0.081 sec
 * total energy  :  -139.3637017 Eh     change       -0.6183223E-03 Eh
   gradient norm :     0.0060550 Eh/α   predicted    -0.4119018E-03 ( -33.38%)
   displ. norm   :     0.4363033 α      lambda       -0.1143669E-02
   maximum displ.:     0.2582131 α      in ANC's #10, #17, #15, ...

........................................................................
.............................. CYCLE   23 ..............................
........................................................................
   1   -141.8711910 -0.141871E+03  0.157E-01    0.21       0.0  T
   2   -141.8710550  0.136009E-03  0.150E-01    0.21       1.0  T
   3   -141.8680034  0.305166E-02  0.239E-01    0.16       1.0  T
   4   -141.7829859  0.850174E-01  0.109E+00    0.06       1.0  T
   5   -141.8635745 -0.805886E-01  0.261E-01    0.14       1.0  T
   6   -141.8710000 -0.742551E-02  0.925E-02    0.20       1.0  T
   7   -141.8711486 -0.148553E-03  0.577E-02    0.21       1.0  T
   8   -141.8710045  0.144054E-03  0.508E-02    0.20       1.0  T
   9   -141.8711271 -0.122543E-03  0.415E-02    0.21       1.0  T
  10   -141.8711502 -0.231277E-04  0.377E-02    0.21       1.0  T
  11   -141.8711726 -0.224078E-04  0.326E-02    0.21       1.0  T
  12   -141.8711790 -0.645331E-05  0.299E-02    0.21       1.0  T
  13   -141.8711838 -0.476609E-05  0.276E-02    0.21       1.0  T
  14   -141.8712008 -0.170322E-04  0.186E-02    0.21       1.0  T
  15   -141.8712109 -0.100699E-04  0.112E-02    0.21       1.0  T
  16   -141.8712152 -0.432655E-05  0.452E-03    0.21       2.5  T
  17   -141.8712162 -0.911622E-06  0.162E-03    0.21       7.0  T
  18   -141.8712162 -0.723508E-07  0.292E-04    0.21      38.8  T
  19   -141.8712162 -0.284368E-08  0.718E-05    0.21     157.8  T
     SCC iter.                  ...        0 min,  0.223 sec
     gradient                   ...        0 min,  0.081 sec
 * total energy  :  -139.3640266 Eh     change       -0.3249017E-03 Eh
   gradient norm :     0.0123387 Eh/α   predicted    -0.6806890E-03 ( 109.51%)
   displ. norm   :     0.3760617 α      lambda       -0.1430008E-02
   maximum displ.:     0.2176669 α      in ANC's #10, #17, #8, ...

........................................................................
.............................. CYCLE   24 ..............................
........................................................................
   1   -141.8711180 -0.141871E+03  0.143E-01    0.21       0.0  T
   2   -141.8710469  0.711007E-04  0.122E-01    0.21       1.0  T
   3   -141.8686288  0.241804E-02  0.223E-01    0.16       1.0  T
   4   -141.7355018  0.133127E+00  0.137E+00    0.04       1.0  T
   5   -141.8580030 -0.122501E+00  0.353E-01    0.12       1.0  T
   6   -141.8711140 -0.131111E-01  0.722E-02    0.21       1.0  T
   7   -141.8710691  0.449331E-04  0.451E-02    0.21       1.0  T
   8   -141.8709797  0.893800E-04  0.410E-02    0.20       1.0  T
   9   -141.8710670 -0.872326E-04  0.320E-02    0.21       1.0  T
  10   -141.8710939 -0.269162E-04  0.286E-02    0.21       1.0  T
  11   -141.8710928  0.105203E-05  0.267E-02    0.21       1.0  T
  12   -141.8711037 -0.108873E-04  0.238E-02    0.21       1.0  T
  13   -141.8711062 -0.253087E-05  0.221E-02    0.21       1.0  T
  14   -141.8711131 -0.688027E-05  0.179E-02    0.21       1.0  T
  15   -141.8711239 -0.107283E-04  0.101E-02    0.21       1.1  T
  16   -141.8711269 -0.302993E-05  0.539E-03    0.21       2.1  T
  17   -141.8711282 -0.126475E-05  0.121E-03    0.21       9.3  T
  18   -141.8711282 -0.606706E-07  0.171E-04    0.21      66.3  T
  19   -141.8711282 -0.301270E-11  0.121E-04    0.21      93.9  T
     SCC iter.                  ...        0 min,  0.229 sec
     gradient                   ...        0 min,  0.081 sec
 * total energy  :  -139.3645143 Eh     change       -0.4877490E-03 Eh
   gradient norm :     0.0164842 Eh/α   predicted    -0.8161223E-03 (  67.32%)
   displ. norm   :     0.1189160 α      lambda       -0.5824213E-03
   maximum displ.:     0.0632385 α      in ANC's #10, #5, #9, ...

........................................................................
.............................. CYCLE   25 ..............................
........................................................................
   1   -141.8765754 -0.141877E+03  0.766E-02    0.21       0.0  T
   2   -141.8765309  0.444946E-04  0.522E-02    0.21       1.0  T
   3   -141.8701472  0.638370E-02  0.254E-01    0.14       1.0  T
   4   -141.8765475 -0.640030E-02  0.689E-02    0.21       1.0  T
   5   -141.8762010  0.346506E-03  0.634E-02    0.19       1.0  T
   6   -141.8765728 -0.371783E-03  0.246E-02    0.21       1.0  T
   7   -141.8765796 -0.684260E-05  0.162E-02    0.21       1.0  T
   8   -141.8765767  0.289534E-05  0.159E-02    0.21       1.0  T
   9   -141.8765783 -0.161039E-05  0.103E-02    0.21       1.1  T
  10   -141.8765794 -0.109342E-05  0.744E-03    0.21       1.5  T
  11   -141.8765801 -0.697125E-06  0.472E-03    0.21       2.4  T
  12   -141.8765803 -0.195945E-06  0.245E-03    0.21       4.6  T
  13   -141.8765804 -0.494185E-07  0.243E-04    0.21      46.6  T
  14   -141.8765804  0.142322E-08  0.237E-04    0.21      47.9  T
     SCC iter.                  ...        0 min,  0.168 sec
     gradient                   ...        0 min,  0.081 sec
 * total energy  :  -139.3649003 Eh     change       -0.3860035E-03 Eh
   gradient norm :     0.0082204 Eh/α   predicted    -0.2953318E-03 ( -23.49%)
   displ. norm   :     0.2724179 α      lambda       -0.7067444E-03
   maximum displ.:     0.1853012 α      in ANC's #10, #8, #5, ...

........................................................................
.............................. CYCLE   26 ..............................
........................................................................
   1   -141.8829694 -0.141883E+03  0.109E-01    0.21       0.0  T
   2   -141.8825963  0.373078E-03  0.878E-02    0.19       1.0  T
   3   -141.7899503  0.926461E-01  0.114E+00    0.06       1.0  T
   4   -141.8754166 -0.854663E-01  0.266E-01    0.14       1.0  T
   5   -141.8827566 -0.733999E-02  0.596E-02    0.20       1.0  T
   6   -141.8829793 -0.222712E-03  0.419E-02    0.21       1.0  T
   7   -141.8829490  0.302214E-04  0.430E-02    0.21       1.0  T
   8   -141.8828867  0.623336E-04  0.428E-02    0.21       1.0  T
   9   -141.8829054 -0.187105E-04  0.392E-02    0.21       1.0  T
  10   -141.8829204 -0.149636E-04  0.368E-02    0.21       1.0  T
  11   -141.8829416 -0.212194E-04  0.313E-02    0.21       1.0  T
  12   -141.8829471 -0.553437E-05  0.290E-02    0.21       1.0  T
  13   -141.8829572 -0.100756E-04  0.245E-02    0.21       1.0  T
  14   -141.8829774 -0.202218E-04  0.116E-02    0.21       1.0  T
  15   -141.8829826 -0.514013E-05  0.679E-03    0.21       1.7  T
  16   -141.8829840 -0.143911E-05  0.337E-03    0.21       3.4  T
  17   -141.8829845 -0.440300E-06  0.556E-04    0.21      20.4  T
  18   -141.8829845 -0.154742E-07  0.260E-04    0.21      43.6  T
     SCC iter.                  ...        0 min,  0.212 sec
     gradient                   ...        0 min,  0.081 sec
 * total energy  :  -139.3652345 Eh     change       -0.3341436E-03 Eh
   gradient norm :     0.0061621 Eh/α   predicted    -0.3795960E-03 (  13.60%)
   displ. norm   :     0.3133821 α      lambda       -0.4197541E-03
   maximum displ.:     0.2135812 α      in ANC's #10, #8, #17, ...

........................................................................
.............................. CYCLE   27 ..............................
........................................................................
   1   -141.8818469 -0.141882E+03  0.773E-02    0.21       0.0  T
   2   -141.8814367  0.410205E-03  0.837E-02    0.19       1.0  T
   3   -141.8715386  0.989807E-02  0.350E-01    0.13       1.0  T
   4   -141.8818210 -0.102823E-01  0.645E-02    0.21       1.0  T
   5   -141.8810841  0.736882E-03  0.934E-02    0.18       1.0  T
   6   -141.8818516 -0.767534E-03  0.460E-02    0.21       1.0  T
   7   -141.8818028  0.487826E-04  0.448E-02    0.21       1.0  T
   8   -141.8818316 -0.287977E-04  0.330E-02    0.21       1.0  T
   9   -141.8818408 -0.922111E-05  0.260E-02    0.21       1.0  T
  10   -141.8818404  0.481909E-06  0.263E-02    0.21       1.0  T
  11   -141.8818492 -0.882893E-05  0.174E-02    0.21       1.0  T
  12   -141.8818549 -0.567042E-05  0.453E-03    0.21       2.5  T
  13   -141.8818553 -0.466499E-06  0.123E-03    0.21       9.2  T
  14   -141.8818554 -0.248116E-07  0.157E-03    0.21       7.2  T
  15   -141.8818554 -0.587286E-07  0.389E-04    0.21      29.1  T
  16   -141.8818554 -0.122054E-08  0.630E-05    0.21     179.8  T
     SCC iter.                  ...        0 min,  0.192 sec
     gradient                   ...        0 min,  0.081 sec
 * total energy  :  -139.3655758 Eh     change       -0.3413719E-03 Eh
   gradient norm :     0.0048773 Eh/α   predicted    -0.2304922E-03 ( -32.48%)
   displ. norm   :     0.3659253 α      lambda       -0.3992506E-03
   maximum displ.:     0.2554142 α      in ANC's #10, #8, #17, ...

........................................................................
.............................. CYCLE   28 ..............................
........................................................................
   1   -141.8801746 -0.141880E+03  0.728E-02    0.21       0.0  T
   2   -141.8793680  0.806597E-03  0.984E-02    0.18       1.0  T
   3   -141.8724359  0.693204E-02  0.289E-01    0.13       1.0  T
   4   -141.8797735 -0.733761E-02  0.915E-02    0.19       1.0  T
   5   -141.8799783 -0.204812E-03  0.565E-02    0.20       1.0  T
   6   -141.8801678 -0.189457E-03  0.458E-02    0.21       1.0  T
   7   -141.8800746  0.932001E-04  0.454E-02    0.20       1.0  T
   8   -141.8801667 -0.920466E-04  0.297E-02    0.21       1.0  T
   9   -141.8801721 -0.547497E-05  0.253E-02    0.21       1.0  T
  10   -141.8801809 -0.880869E-05  0.185E-02    0.21       1.0  T
  11   -141.8801854 -0.443500E-05  0.112E-02    0.21       1.0  T
  12   -141.8801878 -0.244717E-05  0.794E-04    0.21      14.3  T
  13   -141.8801879 -0.327307E-07  0.560E-04    0.21      20.2  T
  14   -141.8801878  0.148766E-07  0.105E-03    0.21      10.8  T
  15   -141.8801879 -0.362009E-07  0.234E-04    0.21      48.5  T
     SCC iter.                  ...        0 min,  0.180 sec
     gradient                   ...        0 min,  0.081 sec
 * total energy  :  -139.3659104 Eh     change       -0.3345533E-03 Eh
   gradient norm :     0.0035442 Eh/α   predicted    -0.2263601E-03 ( -32.34%)
   displ. norm   :     0.3791399 α      lambda       -0.3536112E-03
   maximum displ.:     0.2680265 α      in ANC's #10, #8, #5, ...

........................................................................
.............................. CYCLE   29 ..............................
........................................................................
   1   -141.8798247 -0.141880E+03  0.673E-02    0.21       0.0  T
   2   -141.8785933  0.123145E-02  0.119E-01    0.17       1.0  T
   3   -141.8764219  0.217139E-02  0.183E-01    0.15       1.0  T
   4   -141.8798224 -0.340054E-02  0.782E-02    0.21       1.0  T
   5   -141.8798172  0.520468E-05  0.392E-02    0.21       1.0  T
   6   -141.8798170  0.199931E-06  0.350E-02    0.21       1.0  T
   7   -141.8798217 -0.468196E-05  0.227E-02    0.21       1.0  T
   8   -141.8798403 -0.186172E-04  0.131E-02    0.21       1.0  T
   9   -141.8798403  0.233175E-07  0.943E-03    0.21       1.2  T
  10   -141.8798408 -0.484161E-06  0.190E-03    0.21       6.0  T
  11   -141.8798409 -0.845812E-07  0.277E-03    0.21       4.1  T
  12   -141.8798409 -0.281995E-07  0.298E-04    0.21      37.9  T
  13   -141.8798409 -0.223943E-08  0.397E-04    0.21      28.5  T
     SCC iter.                  ...        0 min,  0.154 sec
     gradient                   ...        0 min,  0.081 sec
 * total energy  :  -139.3662247 Eh     change       -0.3143041E-03 Eh
   gradient norm :     0.0030732 Eh/α   predicted    -0.2022220E-03 ( -35.66%)
   displ. norm   :     0.4316805 α      lambda       -0.3873929E-03
   maximum displ.:     0.3014241 α      in ANC's #10, #8, #5, ...

........................................................................
.............................. CYCLE   30 ..............................
........................................................................
   1   -141.8800884 -0.141880E+03  0.755E-02    0.20       0.0  T
   2   -141.8783172  0.177121E-02  0.152E-01    0.17       1.0  T
   3   -141.8754134  0.290382E-02  0.218E-01    0.14       1.0  T
   4   -141.8800994 -0.468605E-02  0.728E-02    0.21       1.0  T
   5   -141.8800842  0.152079E-04  0.417E-02    0.21       1.0  T
   6   -141.8800797  0.455177E-05  0.346E-02    0.20       1.0  T
   7   -141.8800943 -0.146483E-04  0.232E-02    0.21       1.0  T
   8   -141.8801075 -0.131860E-04  0.126E-02    0.21       1.0  T
   9   -141.8801074  0.113466E-06  0.107E-02    0.21       1.1  T
  10   -141.8801079 -0.479088E-06  0.332E-03    0.21       3.4  T
  11   -141.8801079  0.161774E-07  0.435E-03    0.21       2.6  T
  12   -141.8801080 -0.967510E-07  0.826E-04    0.21      13.7  T
  13   -141.8801080 -0.980572E-08  0.426E-04    0.21      26.6  T
     SCC iter.                  ...        0 min,  0.156 sec
     gradient                   ...        0 min,  0.081 sec
 * total energy  :  -139.3665735 Eh     change       -0.3488507E-03 Eh
   gradient norm :     0.0039437 Eh/α   predicted    -0.2297938E-03 ( -34.13%)
   displ. norm   :     0.5345166 α      lambda       -0.4499479E-03
   maximum displ.:     0.3673141 α      in ANC's #10, #8, #5, ...

........................................................................
.............................. CYCLE   31 ..............................
........................................................................
   1   -141.8798897 -0.141880E+03  0.932E-02    0.20       0.0  T
   2   -141.8774418  0.244798E-02  0.188E-01    0.16       1.0  T
   3   -141.8681809  0.926090E-02  0.359E-01    0.12       1.0  T
   4   -141.8797806 -0.115997E-01  0.826E-02    0.19       1.0  T
   5   -141.8798681 -0.875059E-04  0.483E-02    0.20       1.0  T
   6   -141.8798897 -0.216256E-04  0.362E-02    0.20       1.0  T
   7   -141.8798215  0.682001E-04  0.364E-02    0.20       1.0  T
   8   -141.8799066 -0.850787E-04  0.232E-02    0.20       1.0  T
   9   -141.8799083 -0.173697E-05  0.181E-02    0.20       1.0  T
  10   -141.8799085 -0.163113E-06  0.178E-02    0.20       1.0  T
  11   -141.8799122 -0.374840E-05  0.908E-03    0.20       1.2  T
  12   -141.8799128 -0.590827E-06  0.409E-03    0.20       2.8  T
  13   -141.8799130 -0.241640E-06  0.218E-04    0.20      51.8  T
  14   -141.8799130  0.612059E-08  0.439E-04    0.20      25.8  T
     SCC iter.                  ...        0 min,  0.165 sec
     gradient                   ...        0 min,  0.081 sec
 * total energy  :  -139.3669724 Eh     change       -0.3988523E-03 Eh
   gradient norm :     0.0043762 Eh/α   predicted    -0.2892543E-03 ( -27.48%)
   displ. norm   :     0.6257321 α      lambda       -0.4603514E-03
   maximum displ.:     0.4273006 α      in ANC's #10, #8, #5, ...

........................................................................
.............................. CYCLE   32 ..............................
........................................................................
   1   -141.8787119 -0.141879E+03  0.109E-01    0.20       0.0  T
   2   -141.8763491  0.236285E-02  0.202E-01    0.16       1.0  T
   3   -141.8522503  0.240988E-01  0.558E-01    0.10       1.0  T
   4   -141.8780701 -0.258198E-01  0.106E-01    0.18       1.0  T
   5   -141.8783574 -0.287320E-03  0.677E-02    0.18       1.0  T
   6   -141.8784733 -0.115894E-03  0.523E-02    0.18       1.0  T
   7   -141.8787279 -0.254577E-03  0.304E-02    0.20       1.0  T
   8   -141.8787133  0.145943E-04  0.279E-02    0.20       1.0  T
   9   -141.8787190 -0.572981E-05  0.221E-02    0.20       1.0  T
  10   -141.8787250 -0.597962E-05  0.182E-02    0.20       1.0  T
  11   -141.8787312 -0.618611E-05  0.118E-02    0.20       1.0  T
  12   -141.8787318 -0.594937E-06  0.905E-03    0.20       1.3  T
  13   -141.8787334 -0.159066E-05  0.302E-03    0.20       3.7  T
  14   -141.8787336 -0.267510E-06  0.166E-03    0.20       6.8  T
  15   -141.8787338 -0.110215E-06  0.259E-04    0.20      43.6  T
  16   -141.8787338 -0.150325E-08  0.572E-05    0.20     197.8  T
     SCC iter.                  ...        0 min,  0.186 sec
     gradient                   ...        0 min,  0.081 sec
 * total energy  :  -139.3673690 Eh     change       -0.3966036E-03 Eh
   gradient norm :     0.0041681 Eh/α   predicted    -0.3203047E-03 ( -19.24%)
   displ. norm   :     0.6689631 α      lambda       -0.4015884E-03
   maximum displ.:     0.4580445 α      in ANC's #10, #8, #5, ...

........................................................................
.............................. CYCLE   33 ..............................
........................................................................
   1   -141.8776432 -0.141878E+03  0.114E-01    0.19       0.0  T
   2   -141.8759041  0.173913E-02  0.194E-01    0.16       1.0  T
   3   -141.8434263  0.324778E-01  0.637E-01    0.09       1.0  T
   4   -141.8768023 -0.333759E-01  0.115E-01    0.17       1.0  T
   5   -141.8765889  0.213414E-03  0.961E-02    0.17       1.0  T
   6   -141.8769717 -0.382889E-03  0.734E-02    0.17       1.0  T
   7   -141.8776582 -0.686480E-03  0.248E-02    0.19       1.0  T
   8   -141.8776589 -0.662939E-06  0.237E-02    0.19       1.0  T
   9   -141.8776446  0.142775E-04  0.203E-02    0.19       1.0  T
  10   -141.8776550 -0.104037E-04  0.153E-02    0.19       1.0  T
  11   -141.8776587 -0.365333E-05  0.110E-02    0.19       1.0  T
  12   -141.8776588 -0.113327E-06  0.936E-03    0.19       1.2  T
  13   -141.8776598 -0.101784E-05  0.561E-03    0.19       2.0  T
  14   -141.8776604 -0.613053E-06  0.254E-03    0.19       4.5  T
  15   -141.8776606 -0.213842E-06  0.353E-04    0.19      32.1  T
  16   -141.8776606 -0.466363E-08  0.152E-04    0.19      74.7  T
     SCC iter.                  ...        0 min,  0.191 sec
     gradient                   ...        0 min,  0.081 sec
 * total energy  :  -139.3677006 Eh     change       -0.3315687E-03 Eh
   gradient norm :     0.0034957 Eh/α   predicted    -0.2906530E-03 ( -12.34%)
   displ. norm   :     0.6492339 α      lambda       -0.2974925E-03
   maximum displ.:     0.4488049 α      in ANC's #10, #8, #5, ...

........................................................................
.............................. CYCLE   34 ..............................
........................................................................
   1   -141.8772297 -0.141877E+03  0.110E-01    0.19       0.0  T
   2   -141.8760739  0.115580E-02  0.175E-01    0.16       1.0  T
   3   -141.8479564  0.281174E-01  0.579E-01    0.09       1.0  T
   4   -141.8767079 -0.287515E-01  0.105E-01    0.17       1.0  T
   5   -141.8756492  0.105875E-02  0.114E-01    0.16       1.0  T
   6   -141.8766636 -0.101445E-02  0.686E-02    0.17       1.0  T
   7   -141.8772385 -0.574889E-03  0.229E-02    0.19       1.0  T
   8   -141.8772373  0.119632E-05  0.215E-02    0.19       1.0  T
   9   -141.8772318  0.553632E-05  0.179E-02    0.19       1.0  T
  10   -141.8772390 -0.719222E-05  0.131E-02    0.19       1.0  T
  11   -141.8772410 -0.205177E-05  0.968E-03    0.19       1.2  T
  12   -141.8772413 -0.307094E-06  0.743E-03    0.19       1.5  T
  13   -141.8772420 -0.643852E-06  0.384E-03    0.19       2.9  T
  14   -141.8772422 -0.226829E-06  0.142E-03    0.19       8.0  T
  15   -141.8772423 -0.897639E-07  0.296E-04    0.19      38.3  T
  16   -141.8772423 -0.349658E-08  0.175E-04    0.19      64.7  T
     SCC iter.                  ...        0 min,  0.191 sec
     gradient                   ...        0 min,  0.081 sec
 * total energy  :  -139.3679335 Eh     change       -0.2329382E-03 Eh
   gradient norm :     0.0026817 Eh/α   predicted    -0.2114443E-03 (  -9.23%)
   displ. norm   :     0.5487858 α      lambda       -0.1812266E-03
   maximum displ.:     0.3830268 α      in ANC's #10, #8, #5, ...

........................................................................
.............................. CYCLE   35 ..............................
........................................................................
   1   -141.8785224 -0.141879E+03  0.916E-02    0.19       0.0  T
   2   -141.8778808  0.641557E-03  0.136E-01    0.17       1.0  T
   3   -141.8615913  0.162896E-01  0.424E-01    0.11       1.0  T
   4   -141.8784172 -0.168259E-01  0.826E-02    0.18       1.0  T
   5   -141.8779252  0.491971E-03  0.704E-02    0.17       1.0  T
   6   -141.8782460 -0.320789E-03  0.487E-02    0.17       1.0  T
   7   -141.8785290 -0.283016E-03  0.188E-02    0.19       1.0  T
   8   -141.8785291 -0.113903E-06  0.166E-02    0.19       1.0  T
   9   -141.8785257  0.344100E-05  0.128E-02    0.19       1.0  T
  10   -141.8785288 -0.315310E-05  0.826E-03    0.19       1.4  T
  11   -141.8785293 -0.514777E-06  0.514E-03    0.19       2.2  T
  12   -141.8785295 -0.169662E-06  0.269E-03    0.19       4.2  T
  13   -141.8785297 -0.195433E-06  0.544E-04    0.19      20.8  T
  14   -141.8785297 -0.464854E-08  0.245E-04    0.19      46.1  T
     SCC iter.                  ...        0 min,  0.165 sec
     gradient                   ...        0 min,  0.081 sec
 * total energy  :  -139.3680694 Eh     change       -0.1359140E-03 Eh
   gradient norm :     0.0020955 Eh/α   predicted    -0.1179042E-03 ( -13.25%)
   displ. norm   :     0.4407699 α      lambda       -0.9767155E-04
   maximum displ.:     0.3100919 α      in ANC's #10, #8, #5, ...

........................................................................
.............................. CYCLE   36 ..............................
........................................................................
   1   -141.8799331 -0.141880E+03  0.711E-02    0.18       0.0  T
   2   -141.8794776  0.455509E-03  0.930E-02    0.17       1.0  T
   3   -141.8642344  0.152432E-01  0.407E-01    0.11       1.0  T
   4   -141.8794610 -0.152266E-01  0.913E-02    0.17       1.0  T
   5   -141.8794881 -0.270926E-04  0.616E-02    0.17       1.0  T
   6   -141.8796938 -0.205716E-03  0.443E-02    0.17       1.0  T
   7   -141.8799366 -0.242844E-03  0.173E-02    0.19       1.0  T
   8   -141.8799339  0.274115E-05  0.131E-02    0.18       1.0  T
   9   -141.8799350 -0.111801E-05  0.102E-02    0.18       1.1  T
  10   -141.8799367 -0.170370E-05  0.710E-03    0.19       1.6  T
  11   -141.8799369 -0.175592E-06  0.428E-03    0.19       2.6  T
  12   -141.8799371 -0.174690E-06  0.193E-03    0.19       5.9  T
  13   -141.8799372 -0.118877E-06  0.469E-04    0.19      24.1  T
  14   -141.8799372 -0.420511E-08  0.226E-04    0.19      50.0  T
     SCC iter.                  ...        0 min,  0.166 sec
     gradient                   ...        0 min,  0.081 sec
 * total energy  :  -139.3681408 Eh     change       -0.7137746E-04 Eh
   gradient norm :     0.0019908 Eh/α   predicted    -0.5832494E-04 ( -18.29%)
   displ. norm   :     0.5027451 α      lambda       -0.5362778E-04
   maximum displ.:     0.3554994 α      in ANC's #10, #8, #5, ...

........................................................................
.............................. CYCLE   37 ..............................
........................................................................
   1   -141.8822559 -0.141882E+03  0.800E-02    0.19       0.0  T
   2   -141.8814695  0.786333E-03  0.100E-01    0.17       1.0  T
   3   -141.8428490  0.386205E-01  0.689E-01    0.08       1.0  T
   4   -141.8776669 -0.348178E-01  0.204E-01    0.14       1.0  T
   5   -141.8813923 -0.372546E-02  0.964E-02    0.16       1.0  T
   6   -141.8821499 -0.757599E-03  0.521E-02    0.18       1.0  T
   7   -141.8821276  0.223381E-04  0.502E-02    0.18       1.0  T
   8   -141.8822120 -0.844034E-04  0.384E-02    0.18       1.0  T
   9   -141.8822071  0.491146E-05  0.356E-02    0.18       1.0  T
[...]
    60   6 C       61   6 C                                       1.4368620
    61   6 C       62   6 C                                       1.3519306
    62   6 C       63   6 C                                       1.4338004
    60   6 C       64   7 N                                       1.3667342
    63   6 C       64   7 N                                       1.3652562
    63   6 C       65   6 C                                       1.3798570
    44   6 C       66   6 C                                       1.4314767
    65   6 C       66   6 C                                       1.3803715
    46   6 C       67   7 N                                       1.3634830
    66   6 C       67   7 N                                       1.3680108
    44   6 C       68   1 H                                       1.0726611
    45   6 C       69   1 H                                       1.0726580
    49   6 C       70   1 H                                       1.0729878
    50   6 C       71   1 H                                       1.0726607
    53   6 C       72   1 H                                       1.0790963
    55   6 C       73   1 H                                       1.0729556
    56   6 C       74   1 H                                       1.0731028
    59   6 C       75   1 H                                       1.0807227
    61   6 C       76   1 H                                       1.0729839
    62   6 C       77   1 H                                       1.0728440
    65   6 C       78   1 H                                       1.0791624

 * 3 distinct bonds (by element types)

   Z      Z             #   av. dist./Å        max./Å        min./Å
   1 H    6 C          22     1.0747011     1.0807227     1.0725229
   6 C    6 C          43     1.3859513     1.4370537     1.2191099
   6 C    7 N          16     1.3658771     1.3681897     1.3632504

           -------------------------------------------------
          |               Frequency Printout                |
           -------------------------------------------------
 projected vibrational frequencies (cm⁻¹)
eigval :       -0.00    -0.00    -0.00    -0.00     0.00     0.00
eigval :       -1.80     6.22     6.33    13.51    24.35    28.80
eigval :       29.14    29.38    49.80    69.37    75.00    93.02
eigval :       93.87    95.76   113.27   121.47   121.48   138.05
eigval :      150.73   174.87   183.74   184.16   188.28   206.97
eigval :      213.06   219.99   220.46   221.03   222.78   224.27
eigval :      228.26   234.14   244.83   244.94   257.14   257.32
eigval :      278.88   279.05   283.43   299.33   302.75   319.32
eigval :      321.52   324.94   326.00   345.17   350.02   350.98
eigval :      353.89   356.74   374.75   382.70   383.78   384.39
eigval :      385.12   393.16   393.25   393.59   417.97   418.30
eigval :      427.22   427.33   433.63   433.96   458.78   459.00
eigval :      468.88   508.46   509.13   618.01   618.22   622.91
eigval :      622.99   625.99   626.00   638.74   638.81   643.47
eigval :      643.54   658.14   658.17   663.26   663.36   666.01
eigval :      666.21   702.62   717.42   720.50   721.98   722.01
eigval :      758.61   758.82   762.07   768.62   779.03   779.06
eigval :      779.58   780.83   795.89   796.32   798.47   798.54
eigval :      803.45   803.57   809.81   810.05   816.06   816.15
eigval :      827.00   827.14   831.32   831.41   837.08   837.18
eigval :      840.51   840.55   842.29   842.69   843.20   843.33
eigval :      843.67   843.82   895.49   951.75   981.13   981.43
eigval :     1002.06  1002.15  1008.94  1017.04  1017.19  1018.04
eigval :     1024.46  1024.59  1031.76  1031.91  1039.91  1040.11
eigval :     1066.29  1066.41  1069.15  1069.73  1071.08  1071.39
eigval :     1072.90  1073.10  1074.90  1134.03  1146.24  1147.16
eigval :     1147.18  1171.19  1176.57  1176.68  1178.67  1231.37
eigval :     1231.52  1236.79  1237.11  1258.51  1281.81  1281.86
eigval :     1301.68  1308.05  1308.10  1308.21  1312.88  1312.94
eigval :     1325.60  1326.86  1327.00  1330.79  1332.65  1332.84
eigval :     1348.26  1351.01  1360.58  1360.66  1423.04  1453.49
eigval :     1470.84  1471.04  1472.52  1477.05  1490.90  1494.79
eigval :     1494.88  1508.11  1508.95  1523.74  1526.30  1529.89
eigval :     1530.02  1542.84  1542.88  1555.22  1555.66  1571.85
eigval :     1571.90  1580.29  1580.78  1604.87  1604.92  2171.78
eigval :     2208.47  2269.10  3079.84  3079.93  3095.42  3095.81
eigval :     3095.86  3096.12  3145.34  3146.54  3147.36  3147.81
eigval :     3151.88  3153.20  3153.27  3154.07  3159.95  3160.67
eigval :     3161.53  3161.97  3165.55  3167.55  3167.86  3168.13
 reduced masses (amu)
   1: 13.32   2: 17.49   3: 17.83   4: 18.04   5: 17.72   6: 16.92   7: 11.26   8: 11.55
   9: 11.62  10: 11.60  11: 12.20  12: 11.44  13: 10.97  14: 10.96  15: 11.64  16: 18.87
  17: 14.53  18: 29.82  19: 26.70  20: 12.91  21: 11.17  22: 10.56  23: 10.56  24: 11.11
  25: 12.53  26: 12.08  27: 12.12  28: 12.14  29: 12.33  30: 34.82  31: 47.19  32: 24.09
  33: 15.99  34: 12.17  35: 23.24  36: 22.30  37: 12.32  38: 16.39  39: 10.85  40: 10.85
  41: 12.10  42: 12.08  43: 32.79  44: 32.67  45: 14.11  46: 11.80  47: 12.85  48: 16.33
  49: 16.49  50: 12.07  51: 12.07  52: 11.99  53: 12.01  54: 10.47  55: 10.66  56: 11.95
  57: 12.58  58: 12.44  59: 12.00  60: 12.30  61: 12.36  62:  9.94  63:  9.92  64: 12.21
  65: 20.96  66: 20.95  67:  9.95  68:  9.96  69: 10.25  70: 10.27  71: 12.07  72: 12.08
  73: 11.87  74: 11.60  75: 11.60  76: 11.05  77: 11.05  78: 11.11  79: 11.11  80: 10.78
  81: 10.78  82: 11.21  83: 11.21  84: 11.13  85: 11.13  86: 11.38  87: 11.38  88: 11.51
  89: 11.51  90: 11.34  91: 11.34  92: 11.70  93: 11.07  94: 10.98  95: 11.08  96: 11.08
  97: 11.18  98: 11.17  99: 11.26 100: 11.36 101: 11.40 102: 11.40 103: 11.06 104: 11.01
 105: 11.78 106: 11.78 107:  3.81 108:  3.81 109:  3.91 110:  3.91 111:  4.13 112:  4.11
 113:  4.34 114:  4.33 115:  3.69 116:  3.69 117:  3.91 118:  3.91 119:  3.89 120:  3.90
 121:  3.34 122:  3.35 123:  3.42 124:  3.42 125:  3.48 126:  3.57 127:  3.47 128:  3.58
 129: 11.47 130: 11.83 131: 12.32 132: 12.29 133: 12.16 134: 12.16 135: 11.63 136: 10.48
 137: 10.46 138: 10.93 139:  8.55 140:  8.57 141:  9.32 142:  9.33 143:  8.51 144:  8.51
 145:  1.62 146:  1.61 147:  2.07 148:  1.79 149:  1.84 150:  1.85 151:  2.15 152:  1.99
 153:  9.49 154:  5.22 155:  6.01 156:  5.82 157:  5.83 158:  6.25 159:  7.23 160:  7.23
 161:  6.79 162:  8.89 163:  8.89 164:  8.65 165:  8.58 166: 11.90 167:  9.48 168:  9.47
 169: 10.73 170: 10.95 171: 10.91 172: 10.93 173:  9.90 174:  9.90 175: 11.81 176:  9.73
 177:  9.74 178: 11.21 179: 12.18 180: 11.89 181:  9.74 182:  9.87 183:  8.49 184:  8.49
 185: 11.65 186: 11.60 187: 11.55 188: 11.55 189: 11.57 190: 11.65 191: 11.86 192: 11.46
 193: 11.46 194: 11.70 195: 11.71 196: 11.68 197: 11.73 198: 11.82 199: 11.82 200: 11.65
 201: 11.65 202: 11.57 203: 11.57 204: 11.62 205: 11.62 206: 11.62 207: 11.62 208: 11.71
 209: 11.71 210: 12.01 211: 12.01 212: 12.01 213:  1.81 214:  1.81 215:  1.82 216:  1.82
 217:  1.82 218:  1.82 219:  1.81 220:  1.80 221:  1.80 222:  1.80 223:  1.81 224:  1.81
 225:  1.81 226:  1.81 227:  1.97 228:  1.98 229:  1.98 230:  1.98 231:  1.97 232:  1.97
 233:  1.97 234:  1.97
 IR intensities (km·mol⁻¹)
   1:  2.27   2: 45.16   3: 25.88   4:  4.35   5:  0.01   6: 31.58   7:  3.97   8:  0.39
   9:  0.26  10:  6.94  11:  0.70  12:  8.51  13:  0.82  14:  0.89  15:  0.02  16:  3.26
  17: 10.39  18:  1.89  19:  3.27  20:  0.42  21:  8.86  22:  1.02  23:  0.16  24: 18.88
  25:356.73  26: 10.97  27:  3.23  28:  4.00  29:  0.10  30:  6.29  31: 37.89  32: 17.32
  33: 34.91  34:  7.61  35:  4.94  36: 10.86  37: 69.58  38: 63.00  39:  0.00  40:  9.73
  41: 11.77  42: 14.58  43:  0.00  44:  0.56  45: 16.30  46: 87.47  47: 14.66  48:  2.77
  49:  0.14  50: 80.02  51:  6.25  52: 14.75  53:  1.55  54: 31.18  55: 34.50  56:  0.23
  57: 28.42  58: 14.15  59:  1.21  60:  0.46  61:  1.18  62:  2.30  63:  5.49  64:  0.10
  65:  4.50  66:  6.82  67:  1.77  68:  7.52  69:187.63  70: 35.77  71:  1.23  72:  2.02
  73: 25.35  74:  0.93  75:  5.69  76:  1.42  77:  2.08  78: 33.17  79:  0.05  80:  6.55
  81: 14.75  82:  1.42  83:  0.82  84: 39.53  85:  2.65  86: 16.81  87:  4.66  88: 30.22
  89: 16.75  90:  3.16  91: 16.93  92:  0.11  93: 22.50  94:  0.31  95:  0.50  96:  8.53
  97:  3.09  98: 12.23  99:221.43 100:  0.48 101:  4.25 102: 14.33 103:154.47 104:  1.03
 105:  9.68 106: 20.89 107: 25.52 108: 34.13 109:  0.13 110:  2.42 111:  3.33 112:  6.94
 113:  0.74 114:  2.31 115:  7.08 116: 21.59 117:  1.04 118:  0.05 119: 12.50 120:109.37
 121:  0.65 122:  0.80 123:  1.99 124:  4.14 125:  0.91 126:  2.30 127:  0.46 128:  2.70
 129:472.49 130:  6.51 131: 43.33 132: 26.62 133: 21.60 134: 45.09 135: 50.07 136:  1.60
 137:  8.46 138:  0.20 139:  0.59 140:  3.67 141:  2.00 142: 27.90 143:  8.65 144: 16.34
 145:  6.19 146:  6.87 147:  3.17 148:  6.39 149:  2.53 150: 25.62 151:477.00 152: 69.58
 153:  0.11 154:  2.03 155:  0.29 156:  0.88 157:  6.85 158: 31.01 159:  2.91 160:  6.82
 161: 29.23 162:  1.25 163:  3.32 164:  1.35 165: 41.37 166:  1.11 167:  6.57 168: 43.88
 169: 89.87 170: 24.28 171:  2.85 172: 28.97 173:  2.08 174:  2.49 175: 41.65 176:  5.65
 177:  7.54 178: 25.32 179:  4.85 180: 87.02 181: 16.13 182:  3.75 183:  3.94 184:  3.77
 185: 44.33 186:  2.40 187: 17.26 188: 54.28 189: 84.26 190: 17.13 191: 30.88 192:  8.06
 193:  0.33 194:  1.29 195: 47.44 196:  0.38 197:  0.12 198:  3.06 199:  9.29 200:  0.57
 201: 86.78 202: 10.82 203:****** 204: 15.05 205:  1.00 206: 15.63 207: 91.22 208:  0.14
 209:  0.02 210:  0.03 211:  2.99 212: 87.45 213: 12.82 214: 39.03 215: 28.31 216:  5.58
 217: 11.93 218: 17.80 219: 25.77 220:216.49 221: 29.77 222:546.40 223: 15.41 224: 21.74
 225: 22.06 226: 39.85 227: 75.15 228: 32.23 229: 84.26 230: 94.89 231:567.24 232:826.03
 233: 65.67 234:240.65
 Raman intensities (amu)
   1:  0.00   2:  0.00   3:  0.00   4:  0.00   5:  0.00   6:  0.00   7:  0.00   8:  0.00
   9:  0.00  10:  0.00  11:  0.00  12:  0.00  13:  0.00  14:  0.00  15:  0.00  16:  0.00
  17:  0.00  18:  0.00  19:  0.00  20:  0.00  21:  0.00  22:  0.00  23:  0.00  24:  0.00
  25:  0.00  26:  0.00  27:  0.00  28:  0.00  29:  0.00  30:  0.00  31:  0.00  32:  0.00
  33:  0.00  34:  0.00  35:  0.00  36:  0.00  37:  0.00  38:  0.00  39:  0.00  40:  0.00
  41:  0.00  42:  0.00  43:  0.00  44:  0.00  45:  0.00  46:  0.00  47:  0.00  48:  0.00
  49:  0.00  50:  0.00  51:  0.00  52:  0.00  53:  0.00  54:  0.00  55:  0.00  56:  0.00
  57:  0.00  58:  0.00  59:  0.00  60:  0.00  61:  0.00  62:  0.00  63:  0.00  64:  0.00
  65:  0.00  66:  0.00  67:  0.00  68:  0.00  69:  0.00  70:  0.00  71:  0.00  72:  0.00
  73:  0.00  74:  0.00  75:  0.00  76:  0.00  77:  0.00  78:  0.00  79:  0.00  80:  0.00
  81:  0.00  82:  0.00  83:  0.00  84:  0.00  85:  0.00  86:  0.00  87:  0.00  88:  0.00
  89:  0.00  90:  0.00  91:  0.00  92:  0.00  93:  0.00  94:  0.00  95:  0.00  96:  0.00
  97:  0.00  98:  0.00  99:  0.00 100:  0.00 101:  0.00 102:  0.00 103:  0.00 104:  0.00
 105:  0.00 106:  0.00 107:  0.00 108:  0.00 109:  0.00 110:  0.00 111:  0.00 112:  0.00
 113:  0.00 114:  0.00 115:  0.00 116:  0.00 117:  0.00 118:  0.00 119:  0.00 120:  0.00
 121:  0.00 122:  0.00 123:  0.00 124:  0.00 125:  0.00 126:  0.00 127:  0.00 128:  0.00
 129:  0.00 130:  0.00 131:  0.00 132:  0.00 133:  0.00 134:  0.00 135:  0.00 136:  0.00
 137:  0.00 138:  0.00 139:  0.00 140:  0.00 141:  0.00 142:  0.00 143:  0.00 144:  0.00
 145:  0.00 146:  0.00 147:  0.00 148:  0.00 149:  0.00 150:  0.00 151:  0.00 152:  0.00
 153:  0.00 154:  0.00 155:  0.00 156:  0.00 157:  0.00 158:  0.00 159:  0.00 160:  0.00
 161:  0.00 162:  0.00 163:  0.00 164:  0.00 165:  0.00 166:  0.00 167:  0.00 168:  0.00
 169:  0.00 170:  0.00 171:  0.00 172:  0.00 173:  0.00 174:  0.00 175:  0.00 176:  0.00
 177:  0.00 178:  0.00 179:  0.00 180:  0.00 181:  0.00 182:  0.00 183:  0.00 184:  0.00
 185:  0.00 186:  0.00 187:  0.00 188:  0.00 189:  0.00 190:  0.00 191:  0.00 192:  0.00
 193:  0.00 194:  0.00 195:  0.00 196:  0.00 197:  0.00 198:  0.00 199:  0.00 200:  0.00
 201:  0.00 202:  0.00 203:  0.00 204:  0.00 205:  0.00 206:  0.00 207:  0.00 208:  0.00
 209:  0.00 210:  0.00 211:  0.00 212:  0.00 213:  0.00 214:  0.00 215:  0.00 216:  0.00
 217:  0.00 218:  0.00 219:  0.00 220:  0.00 221:  0.00 222:  0.00 223:  0.00 224:  0.00
Refinement of some symmetry elements was terminated before convergence was reached.
Some symmetry elements may remain unidentified.
Molecule has no symmetry elements
It seems to be the C1 point group
 225:  0.00 226:  0.00 227:  0.00 228:  0.00 229:  0.00 230:  0.00 231:  0.00 232:  0.00
 233:  0.00 234:  0.00
 output can be read by thermo (or use thermo option).
 writing <g98.out> molden fake output.
 recommended (thermochemical) frequency scaling factor: 1.0
           -------------------------------------------------
          |             Thermodynamic Functions             |
           -------------------------------------------------

c1  symmetry found (for desy threshold:  0.10E+00) used in thermo
 inverting freq            1   1.7992779222799224     

          ...................................................
          :                      SETUP                      :
          :.................................................:
          :  # frequencies                         228      :
          :  # imaginary freq.                       0      :
          :  linear?                             false      :
          :  only rotor calc.                    false      :
          :  symmetry                               c1      :
          :  rotational number                       1      :
          :  scaling factor                  1.0000000      :
          :  rotor cutoff                   50.0000000 cm⁻¹ :
          :  imag. cutoff                  -20.0000000 cm⁻¹ :
          :.................................................:

    mode    ω/cm⁻¹     T·S(HO)/kcal·mol⁻¹    T·S(FR)/kcal·mol⁻¹   T·S(vib)
   ------------------------------------------------------------------------
       1      1.80    -3.40466 (  0.00%)    -2.04137 (100.00%)    -2.04137
       2      6.22    -2.66998 (  0.02%)    -1.67407 ( 99.98%)    -1.67431
       3      6.33    -2.65929 (  0.03%)    -1.66873 ( 99.97%)    -1.66898
       4     13.51    -2.21038 (  0.53%)    -1.44425 ( 99.47%)    -1.44831
       5     24.35    -1.86141 (  5.33%)    -1.26965 ( 94.67%)    -1.30118
       6     28.80    -1.76210 (  9.92%)    -1.21993 ( 90.08%)    -1.27372
       7     29.14    -1.75521 ( 10.35%)    -1.21647 ( 89.65%)    -1.27221
       8     29.38    -1.75039 ( 10.65%)    -1.21406 ( 89.35%)    -1.27119
       9     49.80    -1.43867 ( 49.60%)    -1.05774 ( 50.40%)    -1.24667
      10     69.37    -1.24366 ( 78.74%)    -0.95957 ( 21.26%)    -1.18327
      11     75.00    -1.19783 ( 83.51%)    -0.93642 ( 16.49%)    -1.15472
      12     93.02    -1.07199 ( 92.30%)    -0.87264 (  7.70%)    -1.05663
      13     93.87    -1.06671 ( 92.55%)    -0.86995 (  7.45%)    -1.05205
      14     95.76    -1.05511 ( 93.08%)    -0.86405 (  6.92%)    -1.04189
      15    113.27    -0.95768 ( 96.34%)    -0.81430 (  3.66%)    -0.95244
      16    121.47    -0.91737 ( 97.21%)    -0.79359 (  2.79%)    -0.91391
      17    121.48    -0.91732 ( 97.21%)    -0.79357 (  2.79%)    -0.91387
      18    138.05    -0.84399 ( 98.31%)    -0.75569 (  1.69%)    -0.84249
      19    150.73    -0.79397 ( 98.80%)    -0.72965 (  1.20%)    -0.79320
      20    174.87    -0.71032 ( 99.34%)    -0.68564 (  0.66%)    -0.71016
      21    183.74    -0.68279 ( 99.45%)    -0.67100 (  0.55%)    -0.68273
      22    184.16    -0.68152 ( 99.46%)    -0.67032 (  0.54%)    -0.68146
      23    188.28    -0.66924 ( 99.51%)    -0.66375 (  0.49%)    -0.66921
      24    206.97    -0.61723 ( 99.66%)    -0.63572 (  0.34%)    -0.61729
      25    213.06    -0.60145 ( 99.70%)    -0.62713 (  0.30%)    -0.60153
      26    219.99    -0.58413 ( 99.73%)    -0.61765 (  0.27%)    -0.58422
      27    220.46    -0.58296 ( 99.74%)    -0.61701 (  0.26%)    -0.58305
      28    221.03    -0.58158 ( 99.74%)    -0.61625 (  0.26%)    -0.58167
      29    222.78    -0.57732 ( 99.75%)    -0.61391 (  0.25%)    -0.57741
      30    224.27    -0.57375 ( 99.75%)    -0.61194 (  0.25%)    -0.57384
      31    228.26    -0.56428 ( 99.77%)    -0.60672 (  0.23%)    -0.56438
      32    234.14    -0.55067 ( 99.79%)    -0.59918 (  0.21%)    -0.55077
      33    244.83    -0.52697 ( 99.83%)    -0.58595 (  0.17%)    -0.52707
      34    244.94    -0.52675 ( 99.83%)    -0.58583 (  0.17%)    -0.52685
      35    257.14    -0.50122 ( 99.86%)    -0.57142 (  0.14%)    -0.50132
      36    257.32    -0.50087 ( 99.86%)    -0.57122 (  0.14%)    -0.50097
      37    278.88    -0.45931 ( 99.90%)    -0.54738 (  0.10%)    -0.45940
      38    279.05    -0.45899 ( 99.90%)    -0.54720 (  0.10%)    -0.45908
      39    283.43    -0.45106 ( 99.90%)    -0.54259 (  0.10%)    -0.45115
      40    299.33    -0.42356 ( 99.92%)    -0.52642 (  0.08%)    -0.42364
   ------------------------------------------------------------------------

   temp. (K)  partition function   enthalpy   heat capacity  entropy
                                   cal/mol     cal/K/mol   cal/K/mol   J/K/mol
 298.15  VIB  0.185E+22            26298.672    172.982    163.816
         ROT  0.241E+09              888.752      2.981     41.337
         INT  0.447E+30            27187.424    175.963    205.153
         TR   0.218E+29             1481.254      4.968     45.890
         TOT                       28668.6782   180.9314   251.0431  1050.3644

       T/K    H(0)-H(T)+PV         H(T)/Eh          T*S/Eh         G(T)/Eh
   ------------------------------------------------------------------------
    298.15    0.456864E-01    0.583601E+00    0.119279E+00    0.464322E+00
   ------------------------------------------------------------------------

         :::::::::::::::::::::::::::::::::::::::::::::::::::::
         ::                  THERMODYNAMIC                  ::
         :::::::::::::::::::::::::::::::::::::::::::::::::::::
         :: total free energy        -138.903911762669 Eh   ::
         ::.................................................::
         :: total energy             -139.368233680726 Eh   ::
         :: zero point energy           0.537914156651 Eh   ::
         :: G(RRHO) w/o ZPVE           -0.073592238593 Eh   ::
         :: G(RRHO) contrib.            0.464321918057 Eh   ::
         :::::::::::::::::::::::::::::::::::::::::::::::::::::

optimized geometry written to: xtbopt.xyz


           -------------------------------------------------
          | TOTAL ENERGY             -139.368233680726 Eh   |
          | TOTAL ENTHALPY           -138.784633077366 Eh   |
          | TOTAL FREE ENERGY        -138.903911762669 Eh   |
          | GRADIENT NORM               0.000850413256 Eh/α |
          | HOMO-LUMO GAP               0.194679869064 eV   |
           -------------------------------------------------

------------------------------------------------------------------------
 * finished run on 2021/11/19 at 10:49:12.732     
------------------------------------------------------------------------
 total:
 * wall-time:     0 d,  0 h,  1 min, 44.353 sec
 *  cpu-time:     0 d,  0 h,  1 min, 44.354 sec
 * ratio c/w:     1.000 speedup
 SCF:
 * wall-time:     0 d,  0 h,  0 min,  0.769 sec
 *  cpu-time:     0 d,  0 h,  0 min,  0.769 sec
 * ratio c/w:     1.000 speedup
 ANC optimizer:
 * wall-time:     0 d,  0 h,  0 min, 12.606 sec
 *  cpu-time:     0 d,  0 h,  0 min, 12.606 sec
 * ratio c/w:     1.000 speedup
 analytical hessian:
 * wall-time:     0 d,  0 h,  1 min, 30.908 sec
 *  cpu-time:     0 d,  0 h,  1 min, 30.909 sec
 * ratio c/w:     1.000 speedup

