78
 energy: -138.632196171479 gnorm: 1.603199932278 xtb: 6.4.1 (bd6e46d)
Fe        6.92102300000000    0.02323200000000   -0.00510600000000
C         9.25001400000000   -3.12356100000000    1.31758300000000
C        10.16612100000000   -2.17935300000000    1.26730100000000
C         9.75494200000000   -1.12544900000000    0.34600900000000
C        10.37381200000000   -0.00110300000000   -0.00040100000000
C         9.66977000000000    1.21884500000000   -0.36450600000000
C         9.99788000000000    2.17890000000000   -1.21197900000000
C         8.96310100000000    3.19518500000000   -1.22887700000000
C         8.02683300000000    2.81872300000000   -0.38198600000000
N         8.42882300000000    1.58571200000000    0.18183100000000
C         6.76575800000000    3.46372300000000   -0.00283400000000
C         5.67054100000000    2.82894000000000    0.34792600000000
C         4.59691500000000    3.14689600000000    1.31695400000000
C         3.75935300000000    2.15014200000000    1.23978800000000
C         4.19765000000000    1.14645900000000    0.25933600000000
N         5.30258800000000    1.58531200000000   -0.22495600000000
C         3.58681500000000   -0.10681200000000   -0.15421200000000
C         4.25097600000000   -1.21131800000000   -0.40863600000000
C         3.87712700000000   -2.27426000000000   -1.36616400000000
C         4.82587400000000   -3.16801600000000   -1.27714400000000
C         5.81159800000000   -2.73056600000000   -0.29426700000000
N         5.45855200000000   -1.58476100000000    0.20253100000000
C         7.04248600000000   -3.38663600000000    0.15145400000000
C         8.16552800000000   -2.74077500000000    0.41857500000000
N         8.49412800000000   -1.49333400000000   -0.17982800000000
H         9.31027600000000   -4.03334100000000    1.93513000000000
H        11.08244800000000   -2.21930300000000    1.84534900000000
H        10.92524600000000    2.19569600000000   -1.81312300000000
H         8.98000000000000    4.09987400000000   -1.84149900000000
H         6.71803500000000    4.55852500000000   -0.00661100000000
H         4.54409400000000    4.02562100000000    1.94194700000000
H         2.84772200000000    2.11447200000000    1.85711200000000
H         2.48856500000000   -0.10390100000000   -0.25348300000000
H         3.00827100000000   -2.32672500000000   -2.01511400000000
H         4.82302800000000   -4.08432400000000   -1.87590400000000
H         7.00700400000000   -4.48243800000000    0.26337900000000
C        11.41616500000000    0.01324000000000    0.00480700000000
C        12.63169800000000   -0.01210300000000   -0.00567300000000
C        14.05321500000000   -0.03352700000000   -0.00984800000000
C        15.26177600000000   -0.03573800000000   -0.00974300000000
C        16.68285200000000   -0.01677800000000   -0.01037000000000
C        17.89399400000000    0.01324000000000    0.00480700000000
Fe       22.42156600000000   -0.01037000000000   -0.16405400000000
C        19.87569700000000    3.22697400000000    1.12779700000000
C        18.94933700000000    2.29979900000000    0.98324900000000
C        19.55135000000000    1.13101900000000    0.32650500000000
C        18.95839800000000   -0.00110300000000   -0.00040100000000
C        19.59071200000000   -1.31429000000000   -0.02229200000000
C        19.07004900000000   -2.53385200000000    0.09922000000000
C        20.10559600000000   -3.53513400000000    0.01065300000000
C        21.25897100000000   -2.87966500000000   -0.16705900000000
N        20.97251800000000   -1.50894000000000   -0.19138400000000
C        22.60059500000000   -3.45128700000000   -0.31539800000000
C        23.74278900000000   -2.84605700000000   -0.14605100000000
C        25.02150100000000   -3.26490900000000    0.49050500000000
C        25.82137700000000   -2.25926100000000    0.35229500000000
C        25.17301500000000   -1.13369100000000   -0.35704900000000
N        23.98288600000000   -1.53123500000000   -0.61536200000000
C        25.68234000000000    0.18066200000000   -0.74387000000000
C        25.02295800000000    1.30982300000000   -0.64694100000000
C        25.42076500000000    2.59452800000000   -1.26735100000000
C        24.51356800000000    3.45765400000000   -0.92621000000000
C        23.50701000000000    2.78944100000000   -0.08781600000000
N        23.83693400000000    1.55074300000000    0.04962200000000
C        22.31156200000000    3.36070000000000    0.52574400000000
C        21.14493900000000    2.75031500000000    0.58523800000000
N        20.89392400000000    1.44795100000000    0.10090800000000
H        19.68407300000000    4.20917500000000    1.59557200000000
H        17.90702200000000    2.42465100000000    1.31518600000000
H        17.98403300000000   -2.70087600000000    0.24739700000000
H        19.93352000000000   -4.59664400000000    0.08019800000000
H        22.66152300000000   -4.51940300000000   -0.60147600000000
H        25.17465000000000   -4.22822900000000    0.95160700000000
H        26.84368300000000   -2.26201800000000    0.71926400000000
H        26.71640600000000    0.14733300000000   -1.14081700000000
H        26.29683000000000    2.79720700000000   -1.89031800000000
H        24.55322000000000    4.50889400000000   -1.24783700000000
H        22.39816000000000    4.35037600000000    0.95630400000000
78
 energy: -139.061562256686 gnorm: 0.407917490020 xtb: 6.4.1 (bd6e46d)
Fe        6.92471114002303    0.02352936709987   -0.00442707820864
C         9.24639851490488   -3.13399607182222    1.31380907596127
C        10.17264610306723   -2.17730669260552    1.26455719980212
C         9.70556428685533   -1.15127477657550    0.35469849838155
C        10.27110975076114    0.00996914303971   -0.00019029787276
C         9.62722871478533    1.22815693843401   -0.36326915945163
C        10.00325243407735    2.19958867219911   -1.22601922138061
C         8.98370097011822    3.20031039568223   -1.24028584552675
C         8.01874185358069    2.80812598639722   -0.37545286460666
N         8.40580223979110    1.57884563187740    0.18295908734273
C         6.77959677206802    3.46684220348462   -0.00421561639534
C         5.65959186731346    2.81810635098905    0.34931045057052
C         4.60044151427350    3.15344207487395    1.30690605148875
C         3.74018659159250    2.14323380305421    1.24338409776341
C         4.19071682837247    1.14780449104755    0.27037385889335
N         5.32493939397399    1.57644097241470   -0.21806805690676
C         3.57682163420749   -0.08948705766910   -0.14889912434163
C         4.25439974460235   -1.21722574713096   -0.41303294795646
C         3.87067920855514   -2.27138072021359   -1.35849426177257
C         4.83257692626945   -3.18400657992603   -1.27651789655451
C         5.81831576955965   -2.74109049823092   -0.29946962816788
N         5.46264175844006   -1.56999971692663    0.18996609347034
C         7.02651847480966   -3.39471580005453    0.14557916636074
C         8.17057881898425   -2.73429522916789    0.42149485598961
N         8.48208867617389   -1.49892111112444   -0.16124093475388
H         9.30578945681716   -4.03021424497666    1.93071629159603
H        11.08385084949921   -2.21226322760721    1.84262373967015
H        10.92223878780735    2.19830257933334   -1.81276632439114
H         8.98346022499343    4.09828245181869   -1.84218602009128
H         6.72593668890452    4.55712465309283   -0.00305477728497
H         4.54778645266069    4.02469558771568    1.93904616153000
H         2.84619406033156    2.10936398019390    1.85596972070888
H         2.49005248230069   -0.09995377820349   -0.25607198590354
H         3.00961389404702   -2.32139809378774   -2.01099262260102
H         4.82902898815760   -4.08584250640094   -1.87365858647345
H         7.00421568467658   -4.48035867801184    0.26350359556122
C        11.53095871951188    0.02407301260602    0.00376720430115
C        12.70875281427014   -0.01125646475649   -0.00498266030422
C        14.04916157474556   -0.03295437814204   -0.01031660515702
C        15.26660822642259   -0.03525310806605   -0.01031488646828
C        16.61030151096374   -0.02004924774299   -0.01254582241625
C        17.78925344386472    0.00496168849188    0.00214622386268
Fe       22.41618805444095   -0.01050325639026   -0.16418403166260
C        19.87942411949113    3.23677976211218    1.13147589368369
C        18.94560931732895    2.29810568619996    0.97862790283687
C        19.59698382383277    1.15898183641618    0.33289020558277
C        19.05032416839376   -0.01614422584666    0.00412821665121
C        19.63262978043680   -1.32191890302068   -0.02782073383928
C        19.06299488911870   -2.55263739459760    0.09973830655340
C        20.08558868602882   -3.53658634981640    0.00994876553182
C        21.26588203664109   -2.86924096405109   -0.17725933774267
N        20.99265797994252   -1.50407224455605   -0.19059505579621
C        22.58239747070585   -3.45735832172903   -0.31640836714206
C        23.75645221531004   -2.83306474832172   -0.14929499480348
C        25.01156504868431   -3.27195600135345    0.47857167696245
C        25.83974953283969   -2.24739113357582    0.35019620003993
C        25.18138408926594   -1.13694419529993   -0.35059963299786
N        23.96141060205386   -1.52219255350797   -0.60173133578024
C        25.69290162871521    0.16224422049970   -0.74258819539290
C        25.02150198642553    1.31569944090297   -0.65139602101326
C        25.42786335174537    2.58788779770159   -1.26638299824606
C        24.50661979930254    3.47358510941166   -0.91981758569862
C        23.50512008025772    2.80005202059612   -0.08679186059268
N        23.83209236067393    1.53682572341513    0.03866972706241
C        22.32447288945400    3.36598086993764    0.52197136763546
C        21.13640308890322    2.74062382425335    0.58847895602903
N        20.90571863301359    1.45326076625910    0.10679721351424
H        19.68950952154961    4.20638145364175    1.59338416037941
H        17.91155614297550    2.41750143609041    1.31089478011723
H        17.98931369563604   -2.70427166119413    0.24740611122476
H        19.93119089559931   -4.59671760369087    0.08080584786425
H        22.65358770144039   -4.51944306207310   -0.58919034999899
H        25.17124276438609   -4.22696602879285    0.95017794111608
H        26.84817289229492   -2.25701521821082    0.72008916712377
H        26.71383973761003    0.14766351476997   -1.13945926946109
H        26.29461302683085    2.79110132412068   -1.88750061128882
H        24.54687884532714    4.50877302207402   -1.24390206410438
H        22.39977929620922    4.35391580292279    0.95146485738517
78
 energy: -139.171315702575 gnorm: 0.199596611727 xtb: 6.4.1 (bd6e46d)
Fe        6.92684797599678    0.02226588624210   -0.00138976082234
C         9.24374665884952   -3.15113289969337    1.29994632668290
C        10.17898047152195   -2.18265536342505    1.25464673935668
C         9.66932691723924   -1.16335726690638    0.36947034746503
C        10.23400127877022    0.03395670331708    0.00483120671371
C         9.58151554286891    1.23885690348929   -0.36649789362061
C        10.00445372877118    2.23158040917180   -1.23765934784780
C         9.01091041706182    3.21068707307746   -1.24511633940525
C         8.00825690901261    2.79576208607568   -0.37682535548448
N         8.35523410028604    1.55992029147540    0.15610075805083
C         6.79932293065452    3.46199123296920   -0.00250539121970
C         5.65700220075228    2.79787551367178    0.35486360284555
C         4.59621711709163    3.15771004154966    1.27988746486935
C         3.71094807917755    2.14127233238144    1.23855052911788
C         4.18715929100509    1.14637467803041    0.29470992343919
N         5.36754138294326    1.54510746142178   -0.17556053861006
C         3.56843913941614   -0.06731896432624   -0.13991130022992
C         4.25861165066437   -1.21304650804987   -0.42499927612699
C         3.86395271665708   -2.27571986957113   -1.33705933158432
C         4.83315374229208   -3.20884551175972   -1.26657738891468
C         5.82548594875186   -2.75099561170643   -0.31519523323784
N         5.48090571589377   -1.54003908031818    0.14143307289312
C         7.00288326331323   -3.40777053333565    0.13786202108120
C         8.15955803778080   -2.73566806897746    0.43398455590564
N         8.44572201281192   -1.49850274038623   -0.10010904620950
H         9.29215519124330   -4.03209478593174    1.91810203848502
H        11.08765743141492   -2.19439568471210    1.83129389294869
H        10.91640696728529    2.21058016035224   -1.81284687659541
H         8.99525763435321    4.10095479887556   -1.84402503083551
H         6.75124591471617    4.54938061497835    0.00483462345158
H         4.55799365697087    4.02121425260345    1.92255709591204
H         2.83278636571580    2.09544369225643    1.85363287658641
H         2.49070232084408   -0.08523496700402   -0.26043792260205
H         3.01134502419724   -2.30774054083661   -1.99491037089085
H         4.84518310556575   -4.09827939050380   -1.86696410325461
H         6.99187931194367   -4.48371338305531    0.25980989473289
C        11.53797202236055    0.04484886535559    0.00186608359661
C        12.75068992558658   -0.00718117167958   -0.00249998342287
C        14.05284209669466   -0.03140874690902   -0.01152123345404
C        15.26267890120351   -0.03614660930029   -0.01498468540716
C        16.56574474926300   -0.02903967282507   -0.01662413488291
C        17.77679334177828   -0.01762858147513    0.01228176087464
Fe       22.40524627962453   -0.00777313752796   -0.16599550747041
C        19.89187472245116    3.24708461536384    1.13460980329384
C        18.95148399850233    2.30095691404962    0.96251085784982
C        19.63288094090710    1.17717026478086    0.33583719871833
C        19.08697820361804   -0.04209437139332    0.02272567353048
C        19.68171889629320   -1.32989359881010   -0.03924109983499
C        19.06531091139150   -2.57465522359864    0.09109695223256
C        20.06303680339780   -3.53526170898971   -0.00332647745987
C        21.27414205027808   -2.85927910199245   -0.19910611880038
N        21.03068441916757   -1.49903471064295   -0.18691322184559
C        22.55941062992336   -3.45684494120531   -0.31364371980707
C        23.76068778778930   -2.81185663408933   -0.15556887918821
C        25.00237545975294   -3.27082828210610    0.44284002245100
C        25.86201257716899   -2.23692048641061    0.33438345505740
C        25.18722808322718   -1.13808785324136   -0.33291011199476
N        23.92502244208968   -1.49366580724889   -0.55011561359923
C        25.70354091922363    0.13904775610563   -0.73594463815204
C        25.01776344166566    1.31280883906465   -0.66664244311863
C        25.43076957737605    2.58133405750811   -1.25592913806795
C        24.50600776896323    3.49050037561666   -0.89936814918592
C        23.50580924892239    2.80942113216779   -0.08914126136296
N        23.81412489846338    1.51518584079499   -0.00420276546322
C        22.34380420558655    3.37536813979356    0.51615003908807
C        21.14293009672135    2.73440203260437    0.60159320879197
N        20.93146717089239    1.45955973834254    0.13046055301924
H        19.70916445814973    4.20665962755648    1.58988897846050
H        17.92474636852341    2.39620077555117    1.29422698095280
H        18.00423075917758   -2.71473436410466    0.24769621561307
H        19.92447677642328   -4.59593120521497    0.08050099993022
H        22.62761973402356   -4.52153674026452   -0.54379988819505
H        25.15847177960129   -4.21718284338590    0.93552259254158
H        26.86190616284855   -2.24319285729495    0.71872103856094
H        26.71430988513385    0.14545835040816   -1.13105346375711
H        26.29005955413730    2.77362837311014   -1.87799775050069
H        24.52912830877472    4.51454622926737   -1.22784981174100
H        22.40613748908882    4.37046976082953    0.92867421910319
78
 energy: -139.231700686095 gnorm: 0.084135011971 xtb: 6.4.1 (bd6e46d)
Fe        6.91823870527783    0.02062012017064    0.00838442784694
C         9.23763861679118   -3.16709361892417    1.28668150961257
C        10.17501649388752   -2.18405197679108    1.24519939549310
C         9.62618989854480   -1.16161545223595    0.39518421022038
C        10.19843015690916    0.05649184808111    0.00861443119592
C         9.52801597824550    1.23984475488478   -0.37614023590493
C        10.00052340709550    2.26115864965568   -1.23918321112278
C         9.03462481880714    3.22728987858702   -1.24193590000751
C         7.98856806754330    2.78806961685852   -0.38469279693331
N         8.29175213246175    1.53716361320286    0.09922499822802
C         6.81432600228272    3.45498443449356   -0.00080155496772
C         5.66514494346083    2.76799823780828    0.37456109013753
C         4.59551931543981    3.15623744412978    1.25381149854123
C         3.68447716703024    2.14345243882208    1.22386454023435
C         4.18838116081035    1.13802520711164    0.32419188898559
N         5.41991332619881    1.50353495952996   -0.11141780824830
C         3.56914286332025   -0.04879590720728   -0.13074758421048
C         4.27284738487789   -1.20203663143372   -0.45102862336732
C         3.85985280141450   -2.27790154724574   -1.31849300202851
C         4.82542778484413   -3.23231144147599   -1.25011732272964
C         5.83167686971750   -2.75672815422473   -0.33665059938749
N         5.50920675308386   -1.50002185922447    0.07348428410817
C         6.97751593914441   -3.41915582293108    0.13169019209506
C         8.13738720983467   -2.73512761008774    0.46029699964508
N         8.39236203470831   -1.48748404938975   -0.02395704720947
H         9.28057873105542   -4.04533029922904    1.89711778116937
H        11.09132553323231   -2.17383427388903    1.80609957156945
H        10.91251623081391    2.22144151242863   -1.80231760459910
H         9.00622427098483    4.11542002824508   -1.83773178804233
H         6.77151491370144    4.53865076842930    0.00451839895064
H         4.56555459427446    4.02070394134200    1.89418102904688
H         2.81153148029302    2.08370656272688    1.83792025572736
H         2.49530539799745   -0.07400637650583   -0.25281224210533
H         3.00658305118271   -2.29496611955871   -1.97118652531321
H         4.85620108249308   -4.11864577505042   -1.84876588377190
H         6.97842793250234   -4.49090259683175    0.24608493558210
C        11.54230653165363    0.06388879166165   -0.00259398199485
C        12.75271543467183   -0.00363926511639   -0.00183899604415
C        14.04613227364804   -0.02996838463659   -0.01270053436455
C        15.26544657154329   -0.03670353183237   -0.02194651065814
C        16.55960181122594   -0.03929276480785   -0.02001642252154
C        17.76940664290975   -0.04240751860728    0.02686460423989
Fe       22.40102233281780   -0.00867542392349   -0.17151703781515
C        19.91305050080554    3.25321670471598    1.13611106969652
C        18.97110705851169    2.29710583320990    0.94621859518761
C        19.67104110484372    1.18462515191926    0.34125552025711
C        19.12090048685141   -0.06876068030041    0.05009990557718
C        19.73878090528530   -1.33060437746854   -0.04521996132153
C        19.07786695478967   -2.58806763986115    0.07652275864932
C        20.04760339130950   -3.53445138866591   -0.02504625400841
C        21.29126662193512   -2.85503293667850   -0.21416983598440
N        21.07555700940356   -1.49950282934053   -0.18220544865860
C        22.54161147081484   -3.45621937314668   -0.29971363108600
C        23.75690867377635   -2.78345834992505   -0.14964046361826
C        24.98937908971073   -3.26309274147504    0.40493001515952
C        25.87681899561678   -2.22889037390091    0.30729378016047
C        25.18649772058197   -1.13183752210483   -0.30924187858798
N        23.88382522070848   -1.46051045286451   -0.48613510979191
C        25.70457982633387    0.11967747318784   -0.72486353146094
C        25.00064675309897    1.30731675007569   -0.69407757703048
C        25.42935373783327    2.57214567555061   -1.24513535541571
C        24.51155389335883    3.50165519744887   -0.87218837513578
C        23.50458689207711    2.81607575213737   -0.09846995936159
N        23.78263613253550    1.48998808264077   -0.06531261964525
C        22.36644565994523    3.38717122309305    0.50705492622989
C        21.16047900390424    2.72965588775266    0.62173109697128
N        20.96934365876859    1.45895210889016    0.16584584701338
H        19.73726026584269    4.21039922102532    1.58359129819591
H        17.94434638349191    2.36690033636541    1.26436874055982
H        18.02431115281312   -2.71619746588300    0.24407948195207
H        19.92472746325218   -4.59641704813186    0.07165015995535
H        22.60488942161770   -4.52381577290046   -0.48485303775007
H        25.14585472495499   -4.20546201761010    0.90537098783197
H        26.87332989252629   -2.22914422777354    0.70120424523499
H        26.71636070102205    0.14663596008427   -1.10481721806989
H        26.28876785611331    2.75232317574603   -1.86361577612022
H        24.51501499569015    4.52288468034558   -1.19639940020379
H        22.41479573114261    4.39564557683339    0.88952717533648
78
 energy: -139.268930487142 gnorm: 0.067856258126 xtb: 6.4.1 (bd6e46d)
Fe        6.89678735162758    0.01783697056102    0.02828907928606
C         9.22905492641475   -3.17888678561310    1.27903409597917
C        10.15901517338794   -2.18219671838299    1.23747710341536
C         9.57831221551534   -1.14310712350708    0.43094365489765
C        10.16236304918720    0.07131865411059    0.01167048646636
C         9.47995466269878    1.22919572157311   -0.39737673587924
C         9.99334291371959    2.27822588108535   -1.23600002424792
C         9.04568425798331    3.24968717210890   -1.23776615272997
C         7.96354331523306    2.78771897199246   -0.40641890587716
N         8.22604306477860    1.51244538525195    0.02104120076896
C         6.81649083235979    3.45217629784932    0.00157231179294
C         5.67980926976306    2.74122941609709    0.40644343886191
C         4.59041458238801    3.15486313093594    1.23801251214967
C         3.66752412733673    2.14741667884512    1.20927940252832
C         4.20019599837366    1.11967310020080    0.35887051945963
N         5.46802905270215    1.46243095267338   -0.03528572398950
C         3.58061025882326   -0.04125745417927   -0.12473487633281
C         4.29329190070184   -1.18875883856112   -0.48530072773651
C         3.85351206347357   -2.28177445053076   -1.30890166258214
C         4.80989230021353   -3.25007045198491   -1.23670592829584
C         5.83814629497234   -2.75675300670941   -0.36602556523185
N         5.54405592608702   -1.46624982315570   -0.00110506420965
C         6.95693246741150   -3.42864199655794    0.12957170264403
C         8.10656040229736   -2.73537129452072    0.49656897793553
N         8.32395267371880   -1.46256004855079    0.06096349347458
H         9.27880645059374   -4.07207863778811    1.86666155025058
H        11.09465021593242   -2.15810898979486    1.76630262859655
H        10.91662747456092    2.23297984200842   -1.78014033599925
H         9.02122802402295    4.14794024302542   -1.81902705334450
H         6.77884945274179    4.53263618917074    0.00037376667575
H         4.55914849861790    4.03286296812302    1.85636460198642
H         2.77998081231773    2.08198127827622    1.80415001173632
H         2.50530658712544   -0.06719745660026   -0.23471350223573
H         2.98666569878706   -2.29116028128829   -1.94102504697685
H         4.85005399742835   -4.14962014432090   -1.81619421663615
H         6.96268406500288   -4.50235710749299    0.22240864766909
C        11.52958360969396    0.07655389825388   -0.00716930325194
C        12.74161349487263   -0.00194393975945   -0.00267331227439
C        14.04651725312564   -0.02861151428792   -0.01690454503416
C        15.26074505897594   -0.03655526441463   -0.03198613395281
C        16.56636015346949   -0.04841572328327   -0.01986909798933
C        17.77758325505184   -0.06277149651333    0.04770146190955
Fe       22.40648368629554   -0.00965873882612   -0.17648686441208
C        19.93912207852215    3.25393764658365    1.13680317092672
C        19.00289114509571    2.28898835020692    0.93470701539342
C        19.71074542953035    1.17624182956673    0.35662000633755
C        19.15183534907853   -0.08681058436802    0.07915786629065
C        19.78571277361317   -1.32513537992512   -0.04538110104933
C        19.09516317996861   -2.58821340034406    0.05784249856946
C        20.04587028144082   -3.53961852290784   -0.05169932616031
C        21.30897255063127   -2.86043907693490   -0.22365282624256
N        21.11681475430028   -1.50482074558973   -0.17686869634771
C        22.53987852823030   -3.46379832372181   -0.27818911766836
C        23.74906750613508   -2.76206773652192   -0.13124043506525
C        24.98649092101087   -3.25625876264498    0.37500932458562
C        25.88299371120072   -2.22402248807308    0.28055347501456
C        25.17465334777493   -1.11564568813990   -0.28141366084090
N        23.84857771880106   -1.43264228353692   -0.42139091851396
C        25.69309876817791    0.11316847221477   -0.71473495490429
C        24.97384745682275    1.30257583960811   -0.72668127747073
C        25.42898580860310    2.56655737980566   -1.23832655237849
C        24.52364672557237    3.50784712544353   -0.85118638047485
C        23.49929978371800    2.82091524514782   -0.11895208828184
N        23.74475062855464    1.47540687816686   -0.12870179154420
C        22.38609456591658    3.40243566702027    0.49562383054887
C        21.18737059838629    2.72920624881472    0.64520695732950
N        21.01674475738702    1.44961582589272    0.20934917918886
H        19.76818917295416    4.21709597683433    1.57393585628981
H        17.96771198527195    2.33791960938007    1.22444275683649
H        18.04288942853201   -2.70625444938246    0.23471878218938
H        19.93048254320308   -4.60184587905580    0.04988176063159
H        22.59734274029180   -4.53771415364151   -0.41210301518943
H        25.14517776836732   -4.20398204354617    0.85837977821141
H        26.88546209832526   -2.21808165741048    0.66203817890966
H        26.71830767252976    0.15035473316760   -1.06036509832667
H        26.29826663823616    2.73320309546874   -1.84504735067580
H        24.51696632888291    4.53703929822698   -1.14989700652821
H        22.42624238514927    4.42867248867675    0.83480429114464
78
 energy: -139.297720501211 gnorm: 0.061549621613 xtb: 6.4.1 (bd6e46d)
Fe        6.87760621485440    0.01151504917159    0.03351203350089
C         9.21897297895358   -3.18437933928921    1.27485715259266
C        10.13795957051696   -2.17775557339276    1.23111894693549
C         9.53135715700059   -1.11711167677633    0.47356617978012
C        10.13156608747167    0.07825425013358    0.01433329293133
C         9.43941474171187    1.21069930960179   -0.42723365804946
C         9.98464946702650    2.28702427273929   -1.22956874129836
C         9.04794687038150    3.26568451160644   -1.23461526257715
C         7.93487685700816    2.78307094743437   -0.44040238642237
N         8.16189412793849    1.48323814348546   -0.06934621148978
C         6.81107244564650    3.45115554048252    0.00578250462801
C         5.69689905886334    2.72065829640524    0.44535302779747
C         4.58059822872458    3.15609677231261    1.22741163797507
C         3.65984173474211    2.14949469292959    1.19831082236890
C         4.22199927787154    1.09609832456807    0.39801099559923
N         5.51602677168838    1.42464927843001    0.05206377861172
C         3.60225140257701   -0.04101864979246   -0.11828546071460
C         4.31934656693351   -1.17510027705935   -0.51981330544820
C         3.84733107312381   -2.28533570179655   -1.30175454837548
C         4.79388701794849   -3.26131094454960   -1.22781603101381
C         5.84940957576403   -2.75316993392740   -0.40190508529681
N         5.58933738322117   -1.43831930776174   -0.08154639429913
C         6.94316467302573   -3.43266910661248    0.12627174844947
C         8.07190631015984   -2.73048649494210    0.54034181037169
N         8.25493695900939   -1.43228266527872    0.15195447430400
H         9.28455741061886   -4.10364378143656    1.82506789504638
H        11.09771674358460   -2.14685612421603    1.71816901365546
H        10.92420637580247    2.24816109792522   -1.74813601563527
H         9.04213129263122    4.18404172494928   -1.78783702546618
H         6.77935409703700    4.52944734793925    0.00030712483994
H         4.54054183157178    4.05655410549385    1.81114314557267
H         2.74410406037763    2.08700772381914    1.75579918799252
H         2.52416370339149   -0.06333433655767   -0.21198858259280
H         2.95713925579836   -2.29214839988372   -1.90161708452085
H         4.83009663076512   -4.18548563984642   -1.77203381547559
H         6.94720029679964   -4.50942622789101    0.19448226483960
C        11.51351981742535    0.08342044944553   -0.00949118759466
C        12.72491542388061    0.00273842825942   -0.00780653838203
C        14.04244848289218   -0.02608807633569   -0.02050347692204
C        15.25730825194402   -0.03613967241552   -0.04079455686858
C        16.57510346300124   -0.05778436290308   -0.01389504787504
C        17.78491938531546   -0.07837004711409    0.07137425399993
Fe       22.41423579037106   -0.00748150086686   -0.17307727591466
C        19.96417954138697    3.25103729940127    1.13616253251175
C        19.03630844175090    2.27983281948153    0.92753501620267
C        19.74660514616664    1.16045242376155    0.37758043807580
C        19.17238818104058   -0.09670379887024    0.10649819085415
C        19.81840251747387   -1.31829765539366   -0.04617483303779
C        19.11222425552951   -2.58244193184116    0.03729148654009
C        20.05036975987238   -3.54405931094231   -0.07722762255299
C        21.32251992884637   -2.86779386015743   -0.22877848771938