      -----------------------------------------------------------      
     |                   =====================                   |     
     |                           x T B                           |     
     |                   =====================                   |     
     |                         S. Grimme                         |     
     |          Mulliken Center for Theoretical Chemistry        |     
     |                    University of Bonn                     |     
      -----------------------------------------------------------      

   * xtb version 6.4.1 (bd6e46d) compiled by 'conda@4901f00b25ba' on 2021-06-10

   xtb is free software: you can redistribute it and/or modify it under
   the terms of the GNU Lesser General Public License as published by
   the Free Software Foundation, either version 3 of the License, or
   (at your option) any later version.
   
   xtb is distributed in the hope that it will be useful,
   but WITHOUT ANY WARRANTY; without even the implied warranty of
   MERCHANTABILITY or FITNESS FOR A PARTICULAR PURPOSE.  See the
   GNU Lesser General Public License for more details.
   
   Cite this work as:
   * C. Bannwarth, E. Caldeweyher, S. Ehlert, A. Hansen, P. Pracht,
     J. Seibert, S. Spicher, S. Grimme, WIREs Comput. Mol. Sci., 2020, 11,
     e01493. DOI: 10.1002/wcms.1493
   
   for GFN2-xTB:
   * C. Bannwarth, S. Ehlert and S. Grimme., J. Chem. Theory Comput., 2019,
     15, 1652-1671. DOI: 10.1021/acs.jctc.8b01176
   for GFN1-xTB:
   * S. Grimme, C. Bannwarth, P. Shushkov, J. Chem. Theory Comput., 2017,
     13, 1989-2009. DOI: 10.1021/acs.jctc.7b00118
   for GFN0-xTB:
   * P. Pracht, E. Caldeweyher, S. Ehlert, S. Grimme, ChemRxiv, 2019, preprint.
     DOI: 10.26434/chemrxiv.8326202.v1
   for GFN-FF:
   * S. Spicher and S. Grimme, Angew. Chem. Int. Ed., 2020, 59, 15665-15673.
     DOI: 10.1002/anie.202004239
   
   for DFT-D4:
   * E. Caldeweyher, C. Bannwarth and S. Grimme, J. Chem. Phys., 2017,
     147, 034112. DOI: 10.1063/1.4993215
   * E. Caldeweyher, S. Ehlert, A. Hansen, H. Neugebauer, S. Spicher,
     C. Bannwarth and S. Grimme, J. Chem. Phys., 2019, 150, 154122.
     DOI: 10.1063/1.5090222
   * E. Caldeweyher, J.-M. Mewes, S. Ehlert and S. Grimme, Phys. Chem. Chem. Phys.
     2020, 22, 8499-8512. DOI: 10.1039/D0CP00502A
   
   for sTDA-xTB:
   * S. Grimme and C. Bannwarth, J. Chem. Phys., 2016, 145, 054103.
     DOI: 10.1063/1.4959605
   
   in the mass-spec context:
   * V. Asgeirsson, C. Bauer and S. Grimme, Chem. Sci., 2017, 8, 4879.
     DOI: 10.1039/c7sc00601b
   * J. Koopman and S. Grimme, ACS Omega 2019, 4, 12, 15120-15133.
     DOI: 10.1021/acsomega.9b02011
   
   for metadynamics refer to:
   * S. Grimme, J. Chem. Theory Comput., 2019, 155, 2847-2862
     DOI: 10.1021/acs.jctc.9b00143
   
   for SPH calculations refer to:
   * S. Spicher and S. Grimme, J. Chem. Theory Comput., 2021, 17, 1701-1714
     DOI: 10.1021/acs.jctc.0c01306
   
   with help from (in alphabetical order)
   P. Atkinson, C. Bannwarth, F. Bohle, G. Brandenburg, E. Caldeweyher
   M. Checinski, S. Dohm, S. Ehlert, S. Ehrlich, I. Gerasimov, J. Koopman
   C. Lavigne, S. Lehtola, F. März, M. Müller, F. Musil, H. Neugebauer
   J. Pisarek, C. Plett, P. Pracht, J. Seibert, P. Shushkov, S. Spicher
   M. Stahn, M. Steiner, T. Strunk, J. Stückrath, T. Rose, and J. Unsleber
   
 * started run on 2021/11/19 at 00:49:25.802     

           -------------------------------------------------
          |                Calculation Setup                |
           -------------------------------------------------

          program call               : /home/jeff/miniconda3/bin/xtb input_structure_1.xyz --gfn 2 --ohess normal --parallel 1 --etemp 300 --chrg 0 --uhf 0 -I det_control.in
          hostname                   : jelfscompute1
          coordinate file            : input_structure_1.xyz
          omp threads                :                     1
          number of atoms            :                   296
          number of electrons        :                   954
          charge                     :                     0
          spin                       :                   0.0
          first test random number   :      0.39056215480648

   ID    Z sym.   atoms
    1   30 Zn     1, 37, 87, 122, 157, 192, 227, 262
    2    6 C      2-9, 11-15, 17-21, 23, 24, 38-45, 47-51, 53-57, 59, 60,
                  73-86, 88-95, 97-101, 103-107, 109, 110, 123-130, 132-136,
                  138-142, 144, 145, 158-165, 167-171, 173-177, 179, 180,
                  193-200, 202-206, 208-212, 214, 215, 228-235, 237-241,
                  243-247, 249, 250, 263-270, 272-276, 278-282, 284, 285
    3    7 N      10, 16, 22, 25, 46, 52, 58, 61, 96, 102, 108, 111, 131,
                  137, 143, 146, 166, 172, 178, 181, 201, 207, 213, 216, 236,
                  242, 248, 251, 271, 277, 283, 286
    4    1 H      26-36, 62-72, 112-121, 147-156, 182-191, 217-226, 252-261,
                  287-296

molecular fragmentation (1/2 indicates fragments):
111111111111111111111111111111111111222222222222222222222222222222222222
222222222222222222222222222222222222222222222222222222222222222222222222
222222222222222222222222222222222222222222222222222222222222222222222222
222222222222222222222222222222222222222222222222222222222222222222222222
22222222
# atoms in fragment 1/2:    36   260
 fragment masses (1/2) :      372.71     2771.05
CMA distance (Bohr)    :  83.888
constraining FC (au)   :  0.0500

           -------------------------------------------------
          |                 G F N 2 - x T B                 |
           -------------------------------------------------

        Reference                      10.1021/acs.jctc.8b01176
      * Hamiltonian:
        H0-scaling (s, p, d)           1.850000    2.230000    2.230000
        zeta-weighting                 0.500000
      * Dispersion:
        s8                             2.700000
        a1                             0.520000
        a2                             5.000000
        s9                             5.000000
      * Repulsion:
        kExp                           1.500000    1.000000
        rExp                           1.000000
      * Coulomb:
        alpha                          2.000000
        third order                    shell-resolved
        anisotropic                    true
        a3                             3.000000
        a5                             4.000000
        cn-shift                       1.200000
        cn-exp                         4.000000
        max-rad                        5.000000


          ...................................................
          :                      SETUP                      :
          :.................................................:
          :  # basis functions                 938          :
          :  # atomic orbitals                 938          :
          :  # shells                          510          :
          :  # electrons                       954          :
          :  max. iterations                   250          :
          :  Hamiltonian                  GFN2-xTB          :
          :  restarted?                      false          :
          :  GBSA solvation                  false          :
          :  PC potential                    false          :
          :  electronic temp.          300.0000000     K    :
          :  accuracy                    1.0000000          :
          :  -> integral cutoff          0.2500000E+02      :
          :  -> integral neglect         0.1000000E-07      :
          :  -> SCF convergence          0.1000000E-05 Eh   :
          :  -> wf. convergence          0.1000000E-03 e    :
          :  Broyden damping             0.4000000          :
          ...................................................

 iter      E             dE          RMSdq      gap      omega  full diag
   1   -518.3518599 -0.518352E+03  0.659E+00    0.28       0.0  T
   2   -517.4881325  0.863727E+00  0.348E+00    0.22       1.0  T
   3   -439.6218324  0.778663E+02  0.571E+00    0.05       1.0  T
   4    -53.9315551  0.385690E+03  0.145E+01    0.03       1.0  T
   5   -477.5426121 -0.423611E+03  0.460E+00    0.01       1.0  T
   6   -404.7640301  0.727786E+02  0.586E+00    0.01       1.0  T
   7   -507.0860028 -0.102322E+03  0.296E+00    0.03       1.0  T
   8   -517.3769328 -0.102909E+02  0.205E+00    0.03       1.0  T
   9   -516.8519183  0.525014E+00  0.187E+00    0.06       1.0  T
  10   -519.0282678 -0.217635E+01  0.148E+00    0.11       1.0  T
  11   -518.5991735  0.429094E+00  0.137E+00    0.13       1.0  T
  12   -519.9142279 -0.131505E+01  0.105E+00    0.13       1.0  T
  13   -519.9567384 -0.425105E-01  0.963E-01    0.07       1.0  T
  14   -520.0492121 -0.924737E-01  0.793E-01    0.04       1.0  T
  15   -520.2431729 -0.193961E+00  0.743E-01    0.06       1.0  T
  16   -520.2538723 -0.106995E-01  0.631E-01    0.01       1.0  T
  17   -520.3500092 -0.961369E-01  0.525E-01    0.10       1.0  T
  18   -520.3283142  0.216950E-01  0.429E-01    0.03       1.0  T
  19   -520.3642584 -0.359442E-01  0.381E-01    0.10       1.0  T
  20   -520.4040190 -0.397606E-01  0.265E-01    0.17       1.0  T
  21   -520.4066808 -0.266186E-02  0.246E-01    0.14       1.0  T
  22   -520.4102830 -0.360212E-02  0.225E-01    0.13       1.0  T
  23   -520.4171004 -0.681739E-02  0.207E-01    0.15       1.0  T
  24   -520.4214837 -0.438334E-02  0.144E-01    0.14       1.0  T
  25   -520.4257992 -0.431551E-02  0.119E-01    0.14       1.0  T
  26   -520.4267521 -0.952911E-03  0.102E-01    0.13       1.0  T
  27   -520.4270802 -0.328043E-03  0.968E-02    0.13       1.0  T
  28   -520.4285958 -0.151563E-02  0.826E-02    0.13       1.0  T
  29   -520.4293177 -0.721895E-03  0.765E-02    0.13       1.0  T
  30   -520.4298156 -0.497957E-03  0.714E-02    0.13       1.0  T
  31   -520.4301716 -0.356007E-03  0.671E-02    0.13       1.0  T
  32   -520.4311419 -0.970289E-03  0.555E-02    0.14       1.0  T
  33   -520.4318791 -0.737218E-03  0.445E-02    0.14       1.0  T
  34   -520.4322461 -0.366936E-03  0.373E-02    0.14       1.0  T
  35   -520.4327313 -0.485166E-03  0.278E-02    0.13       1.0  T
  36   -520.4330399 -0.308697E-03  0.189E-02    0.13       1.0  T
  37   -520.4332178 -0.177848E-03  0.105E-02    0.13       1.0  T
  38   -520.4332836 -0.657905E-04  0.495E-03    0.12       1.2  T
  39   -520.4332980 -0.144545E-04  0.263E-03    0.12       2.2  T
  40   -520.4332998 -0.179666E-05  0.207E-03    0.12       2.8  T
  41   -520.4333022 -0.239794E-05  0.147E-03    0.12       3.9  T
  42   -520.4333016  0.599507E-06  0.136E-03    0.12       4.3  T
  43   -520.4333025 -0.861021E-06  0.135E-03    0.12       4.3  T
  44   -520.4333032 -0.728006E-06  0.830E-04    0.12       7.0  T
  45   -520.4333036 -0.342926E-06  0.454E-04    0.12      12.8  T

   *** convergence criteria satisfied after 45 iterations ***

         #    Occupation            Energy/Eh            Energy/eV
      -------------------------------------------------------------
         1        2.0000           -0.6836340             -18.6026
       ...           ...                  ...                  ...
       471        2.0000           -0.3544200              -9.6443
       472        2.0000           -0.3542633              -9.6400
       473        2.0000           -0.3521836              -9.5834
       474        2.0000           -0.3479834              -9.4691
       475        2.0000           -0.3432203              -9.3395
       476        1.9985           -0.3385705              -9.2130
       477        1.8139           -0.3339097              -9.0861 (HOMO)
       478        0.1446           -0.3293220              -8.9613 (LUMO)
       479        0.0430           -0.3281196              -8.9286
       480        0.0000           -0.3208978              -8.7321
       481        0.0000           -0.3178047              -8.6479
       482        0.0000           -0.3173120              -8.6345
       ...           ...                  ...                  ...
       938                          1.4389286              39.1552
      -------------------------------------------------------------
                  HL-Gap            0.0045876 Eh            0.1248 eV
             Fermi-level           -0.3317465 Eh           -9.0273 eV

 SCC (total)                   0 d,  0 h,  0 min, 13.240 sec
 SCC setup                      ...        0 min,  0.015 sec (  0.116%)
 Dispersion                     ...        0 min,  0.033 sec (  0.250%)
 classical contributions        ...        0 min,  0.003 sec (  0.022%)
 integral evaluation            ...        0 min,  0.234 sec (  1.764%)
 iterations                     ...        0 min, 12.318 sec ( 93.035%)
 molecular gradient             ...        0 min,  0.601 sec (  4.538%)
 printout                       ...        0 min,  0.037 sec (  0.276%)

         :::::::::::::::::::::::::::::::::::::::::::::::::::::
         ::                     SUMMARY                     ::
         :::::::::::::::::::::::::::::::::::::::::::::::::::::
         :: total energy            -511.011259270126 Eh    ::
         :: gradient norm              1.005280980992 Eh/a0 ::
         :: HOMO-LUMO gap              0.124836071074 eV    ::
         ::.................................................::
         :: SCC energy              -520.433303567082 Eh    ::
         :: -> isotropic ES            0.543585227954 Eh    ::
         :: -> anisotropic ES          0.061928816940 Eh    ::
         :: -> anisotropic XC          0.310206394217 Eh    ::
         :: -> dispersion             -0.482201303392 Eh    ::
         :: repulsion energy           9.421436456526 Eh    ::
         :: add. restraining           0.000000000000 Eh    ::
         :: total charge              -0.000000000000 e     ::
         :::::::::::::::::::::::::::::::::::::::::::::::::::::

      ----------------------------------------------------------- 
     |                   =====================                   |
     |                        A N C O P T                        |
     |                   =====================                   |
     |               Approximate Normal Coordinate               |
     |                Rational Function Optimizer                |
      ----------------------------------------------------------- 

          ...................................................
          :                      SETUP                      :
          :.................................................:
          :   optimization level            normal          :
          :   max. optcycles                   888          :
          :   ANC micro-cycles                  20          :
          :   degrees of freedom               882          :
          :.................................................:
          :   RF solver                   davidson          :
          :   write xtbopt.log                true          :
          :   linear?                        false          :
          :   energy convergence         0.5000000E-05 Eh   :
          :   grad. convergence          0.1000000E-02 Eh/α :
          :   maximium RF displ.         1.0000000          :
          :   Hlow (freq-cutoff)         0.1000000E-01      :
          :   Hmax (freq-cutoff)         5.0000000          :
          :   S6 in model hess.         20.0000000          :
          ...................................................

generating ANC from model Hessian ...
Using Lindh-Hessian (1995)
 Shifting diagonal of input Hessian by    1.0026869796207007E-002
 Lowest  eigenvalues of input Hessian
    0.010000    0.010001    0.010001    0.010002    0.010002    0.010004
    0.010005    0.010010    0.010013    0.010014    0.010017    0.010018
    0.010020    0.010022    0.010024    0.010024    0.010026    0.000000
 Highest eigenvalues
    2.512586    2.732930    2.732932    2.732932    2.732933    2.732934


........................................................................
.............................. CYCLE    1 ..............................
........................................................................
   1   -520.4333036 -0.520433E+03  0.444E-04    0.12       0.0  T
   2   -520.4332998  0.378145E-05  0.166E-03    0.13       3.5  T
   3   -520.4333011 -0.127781E-05  0.140E-03    0.13       4.2  T
   4   -520.4332996  0.148988E-05  0.167E-03    0.13       3.5  T
   5   -520.4333028 -0.319404E-05  0.988E-04    0.13       5.9  T
   6   -520.4333037 -0.870448E-06  0.373E-04    0.13      15.6  T
   7   -520.4333038 -0.823561E-07  0.141E-04    0.13      41.2  T
     SCC iter.                  ...        0 min,  1.922 sec
     gradient                   ...        0 min,  0.600 sec
 * total energy  :  -511.0112595 Eh     change       -0.2008184E-06 Eh
   gradient norm :     1.0052822 Eh/α   predicted     0.0000000E+00 (-100.00%)
   displ. norm   :     0.5847227 α      lambda       -0.4983653E+00
   maximum displ.:     0.2160739 α      in ANC's #861, #300, #860, ...

........................................................................
.............................. CYCLE    2 ..............................
........................................................................
   1   -520.3887439 -0.520389E+03  0.347E-01    0.12       0.0  T
   2   -519.7021813  0.686563E+00  0.743E-01    0.10       1.0  T
   3   -519.8032045 -0.101023E+00  0.699E-01    0.09       1.0  T
   4   -520.3131126 -0.509908E+00  0.411E-01    0.37       1.0  T
   5   -520.3945796 -0.814669E-01  0.193E-01    0.27       1.0  T
   6   -520.0525042  0.342075E+00  0.496E-01    0.07       1.0  T
   7   -520.3954856 -0.342981E+00  0.156E-01    0.31       1.0  T
   8   -520.4078122 -0.123266E-01  0.140E-01    0.26       1.0  T
   9   -520.4124261 -0.461385E-02  0.829E-02    0.21       1.0  T
  10   -520.4129254 -0.499375E-03  0.811E-02    0.16       1.0  T
  11   -520.4126363  0.289160E-03  0.675E-02    0.15       1.0  T
  12   -520.4144139 -0.177760E-02  0.549E-02    0.16       1.0  T
  13   -520.4151562 -0.742289E-03  0.448E-02    0.16       1.0  T
  14   -520.4157534 -0.597247E-03  0.378E-02    0.16       1.0  T
  15   -520.4167185 -0.965050E-03  0.273E-02    0.15       1.0  T
  16   -520.4175488 -0.830390E-03  0.124E-02    0.14       1.0  T
  17   -520.4176298 -0.809664E-04  0.730E-03    0.13       1.0  T
  18   -520.4176554 -0.255501E-04  0.480E-03    0.13       1.2  T
  19   -520.4176537  0.162266E-05  0.447E-03    0.13       1.3  T
  20   -520.4176677 -0.139238E-04  0.216E-03    0.13       2.7  T
  21   -520.4176712 -0.358738E-05  0.930E-04    0.13       6.3  T
  22   -520.4176713 -0.963504E-07  0.613E-04    0.13       9.5  T
  23   -520.4176717 -0.348390E-06  0.308E-04    0.13      18.8  T
     SCC iter.                  ...        0 min,  6.295 sec
     gradient                   ...        0 min,  0.600 sec
 * total energy  :  -511.4131690 Eh     change       -0.4019095E+00 Eh
   gradient norm :     0.5936686 Eh/α   predicted    -0.3344049E+00 ( -16.80%)
   displ. norm   :     0.6696606 α      lambda       -0.3401608E+00
   maximum displ.:     0.2224947 α      in ANC's #861, #300, #293, ...

........................................................................
.............................. CYCLE    3 ..............................
........................................................................
   1   -520.4435301 -0.520444E+03  0.349E-01    0.13       0.0  T
   2   -520.0781439  0.365386E+00  0.566E-01    0.06       1.0  T
   3   -519.8259486  0.252195E+00  0.694E-01    0.08       1.0  T
   4   -520.3636471 -0.537699E+00  0.404E-01    0.35       1.0  T
   5   -520.4461929 -0.825458E-01  0.186E-01    0.26       1.0  T
   6   -520.1298376  0.316355E+00  0.462E-01    0.07       1.0  T
   7   -520.4425419 -0.312704E+00  0.165E-01    0.33       1.0  T
   8   -520.4579190 -0.153771E-01  0.137E-01    0.23       1.0  T
   9   -520.4627760 -0.485701E-02  0.792E-02    0.17       1.0  T
  10   -520.4619422  0.833833E-03  0.858E-02    0.13       1.0  T
  11   -520.4627532 -0.811019E-03  0.648E-02    0.16       1.0  T
  12   -520.4639388 -0.118560E-02  0.558E-02    0.16       1.0  T
  13   -520.4645844 -0.645650E-03  0.466E-02    0.16       1.0  T
  14   -520.4649998 -0.415331E-03  0.400E-02    0.15       1.0  T
  15   -520.4658710 -0.871219E-03  0.318E-02    0.15       1.0  T
  16   -520.4665028 -0.631845E-03  0.241E-02    0.15       1.0  T
  17   -520.4671005 -0.597670E-03  0.123E-02    0.14       1.0  T
  18   -520.4672192 -0.118742E-03  0.588E-03    0.13       1.0  T
  19   -520.4672254 -0.612293E-05  0.455E-03    0.13       1.3  T
  20   -520.4672305 -0.509382E-05  0.355E-03    0.13       1.6  T
  21   -520.4672429 -0.124301E-04  0.101E-03    0.13       5.8  T
  22   -520.4672432 -0.291770E-06  0.583E-04    0.13      10.0  T
  23   -520.4672432  0.731325E-08  0.433E-04    0.13      13.4  T
     SCC iter.                  ...        0 min,  6.305 sec
     gradient                   ...        0 min,  0.602 sec
 * total energy  :  -511.6681929 Eh     change       -0.2550239E+00 Eh
   gradient norm :     0.2652783 Eh/α   predicted    -0.2463522E+00 (  -3.40%)
   displ. norm   :     0.7479089 α      lambda       -0.1678027E+00
   maximum displ.:     0.2807350 α      in ANC's #300, #293, #301, ...

........................................................................
.............................. CYCLE    4 ..............................
........................................................................
   1   -520.5727150 -0.520573E+03  0.245E-01    0.17       0.0  T
   2   -520.3835664  0.189149E+00  0.411E-01    0.03       1.0  T
   3   -520.5276478 -0.144081E+00  0.270E-01    0.24       1.0  T
   4   -520.5685385 -0.408907E-01  0.164E-01    0.24       1.0  T
   5   -520.5533414  0.151971E-01  0.191E-01    0.17       1.0  T
   6   -520.5713493 -0.180079E-01  0.119E-01    0.19       1.0  T
   7   -520.5766583 -0.530899E-02  0.704E-02    0.21       1.0  T
   8   -520.5782102 -0.155189E-02  0.477E-02    0.16       1.0  T
   9   -520.5787774 -0.567168E-03  0.402E-02    0.18       1.0  T
  10   -520.5792378 -0.460425E-03  0.334E-02    0.15       1.0  T
  11   -520.5780315  0.120632E-02  0.442E-02    0.13       1.0  T
  12   -520.5796035 -0.157200E-02  0.176E-02    0.14       1.0  T
  13   -520.5799515 -0.348011E-03  0.449E-03    0.14       1.3  T
  14   -520.5799538 -0.235487E-05  0.360E-03    0.14       1.6  T
  15   -520.5799645 -0.106482E-04  0.203E-03    0.14       2.9  T
  16   -520.5799666 -0.208967E-05  0.120E-03    0.14       4.8  T
  17   -520.5799673 -0.701380E-06  0.541E-04    0.14      10.7  T
  18   -520.5799675 -0.176792E-06  0.303E-04    0.14      19.2  T
     SCC iter.                  ...        0 min,  4.933 sec
     gradient                   ...        0 min,  0.601 sec
 * total energy  :  -511.8040256 Eh     change       -0.1358327E+00 Eh
   gradient norm :     0.1466243 Eh/α   predicted    -0.1308332E+00 (  -3.68%)
   displ. norm   :     0.8154638 α      lambda       -0.1126879E+00
   maximum displ.:     0.2921389 α      in ANC's #300, #293, #150, ...

........................................................................
.............................. CYCLE    5 ..............................
........................................................................
   1   -520.6863924 -0.520686E+03  0.222E-01    0.24       0.0  T
   2   -520.5005812  0.185811E+00  0.377E-01    0.01       1.0  T
   3   -520.6530106 -0.152429E+00  0.230E-01    0.14       1.0  T
   4   -520.6733247 -0.203141E-01  0.173E-01    0.39       1.0  T
   5   -520.6597802  0.135445E-01  0.170E-01    0.11       1.0  T
   6   -520.6775910 -0.178108E-01  0.120E-01    0.35       1.0  T
   7   -520.6830255 -0.543449E-02  0.823E-02    0.30       1.0  T
   8   -520.6857549 -0.272940E-02  0.666E-02    0.20       1.0  T
   9   -520.6862483 -0.493441E-03  0.581E-02    0.21       1.0  T
  10   -520.6868272 -0.578858E-03  0.542E-02    0.21       1.0  T
  11   -520.6876806 -0.853412E-03  0.443E-02    0.21       1.0  T
  12   -520.6885748 -0.894250E-03  0.319E-02    0.21       1.0  T
  13   -520.6890387 -0.463815E-03  0.252E-02    0.20       1.0  T
  14   -520.6894620 -0.423295E-03  0.153E-02    0.20       1.0  T
  15   -520.6896655 -0.203499E-03  0.662E-03    0.18       1.0  T
  16   -520.6896694 -0.395249E-05  0.429E-03    0.16       1.4  T
  17   -520.6896462  0.231639E-04  0.597E-03    0.18       1.0  T
  18   -520.6896888 -0.425974E-04  0.275E-03    0.16       2.1  T
  19   -520.6896995 -0.106419E-04  0.956E-04    0.17       6.1  T
  20   -520.6896969  0.260837E-05  0.159E-03    0.17       3.6  T
  21   -520.6897006 -0.376317E-05  0.383E-04    0.17      15.2  T
  22   -520.6897008 -0.196712E-06  0.160E-04    0.17      36.2  T
  23   -520.6897008  0.117138E-07  0.162E-04    0.17      35.9  T
     SCC iter.                  ...        0 min,  6.301 sec
     gradient                   ...        0 min,  0.600 sec
 * total energy  :  -511.9017680 Eh     change       -0.9774245E-01 Eh
   gradient norm :     0.1158670 Eh/α   predicted    -0.9381257E-01 (  -4.02%)
   displ. norm   :     0.8583488 α      lambda       -0.8935001E-01
   maximum displ.:     0.2757404 α      in ANC's #300, #150, #293, ...

........................................................................
.............................. CYCLE    6 ..............................
........................................................................
   1   -520.7872575 -0.520787E+03  0.235E-01    0.33       0.0  T
   2   -520.7794082  0.784928E-02  0.174E-01    0.14       1.0  T
   3   -520.7615697  0.178385E-01  0.238E-01    0.37       1.0  T
   4   -520.7849161 -0.233464E-01  0.990E-02    0.32       1.0  T
   5   -520.7874783 -0.256218E-02  0.645E-02    0.27       1.0  T
   6   -520.7892951 -0.181686E-02  0.149E-02    0.28       1.0  T
   7   -520.7894103 -0.115206E-03  0.126E-02    0.28       1.0  T
   8   -520.7894268 -0.164099E-04  0.103E-02    0.27       1.0  T
   9   -520.7894414 -0.146580E-04  0.818E-03    0.26       1.0  T
  10   -520.7894373  0.411084E-05  0.660E-03    0.26       1.0  T
  11   -520.7894498 -0.125494E-04  0.357E-03    0.25       1.6  T
  12   -520.7894544 -0.457176E-05  0.211E-03    0.24       2.8  T
  13   -520.7894572 -0.278235E-05  0.994E-04    0.24       5.8  T
  14   -520.7894576 -0.348209E-06  0.502E-04    0.24      11.6  T
  15   -520.7894577 -0.107832E-06  0.176E-04    0.24      33.1  T
     SCC iter.                  ...        0 min,  4.113 sec
     gradient                   ...        0 min,  0.601 sec
 * total energy  :  -511.9816281 Eh     change       -0.7986007E-01 Eh
   gradient norm :     0.0961674 Eh/α   predicted    -0.7759140E-01 (  -2.84%)
   displ. norm   :     0.8931906 α      lambda       -0.7477424E-01
   maximum displ.:     0.2734986 α      in ANC's #150, #300, #158, ...

........................................................................
.............................. CYCLE    7 ..............................
........................................................................
   1   -520.8751075 -0.520875E+03  0.256E-01    0.50       0.0  T
   2   -520.8712524  0.385508E-02  0.178E-01    0.42       1.0  T
   3   -520.8548273  0.164251E-01  0.245E-01    0.55       1.0  T
   4   -520.8740763 -0.192490E-01  0.808E-02    0.52       1.0  T
   5   -520.8765284 -0.245207E-02  0.353E-02    0.47       1.0  T
   6   -520.8771187 -0.590331E-03  0.570E-03    0.49       1.0  T
   7   -520.8771246 -0.587473E-05  0.413E-03    0.49       1.4  T
   8   -520.8771257 -0.103655E-05  0.340E-03    0.49       1.7  T
   9   -520.8771285 -0.280922E-05  0.166E-03    0.49       3.5  T
  10   -520.8771296 -0.117133E-05  0.597E-04    0.49       9.7  T
  11   -520.8771297 -0.900831E-07  0.357E-04    0.49      16.3  T
  12   -520.8771298 -0.455434E-07  0.192E-04    0.49      30.3  T
     SCC iter.                  ...        0 min,  3.286 sec
     gradient                   ...        0 min,  0.602 sec
 * total energy  :  -512.0504904 Eh     change       -0.6886225E-01 Eh
   gradient norm :     0.0812341 Eh/α   predicted    -0.6721419E-01 (  -2.39%)
   displ. norm   :     0.9303453 α      lambda       -0.6708209E-01
   maximum displ.:     0.2776193 α      in ANC's #150, #30, #94, ...

........................................................................
.............................. CYCLE    8 ..............................
........................................................................
   1   -520.9426808 -0.520943E+03  0.275E-01    0.69       0.0  T
   2   -520.9399922  0.268856E-02  0.183E-01    0.69       1.0  T
   3   -520.9275869  0.124053E-01  0.229E-01    0.69       1.0  T
   4   -520.9439790 -0.163921E-01  0.479E-02    0.69       1.0  T
   5   -520.9444505 -0.471475E-03  0.269E-02    0.69       1.0  T
   6   -520.9447975 -0.346969E-03  0.594E-03    0.69       1.0  T
   7   -520.9448089 -0.114437E-04  0.318E-03    0.69       1.8  T
   8   -520.9448093 -0.360290E-06  0.226E-03    0.69       2.6  T
   9   -520.9448107 -0.139335E-05  0.119E-03    0.69       4.9  T
  10   -520.9448112 -0.579857E-06  0.485E-04    0.69      12.0  T
  11   -520.9448113 -0.543744E-07  0.229E-04    0.69      25.4  T
     SCC iter.                  ...        0 min,  3.017 sec
     gradient                   ...        0 min,  0.602 sec
 * total energy  :  -512.1148933 Eh     change       -0.6440293E-01 Eh
   gradient norm :     0.0762279 Eh/α   predicted    -0.6257229E-01 (  -2.84%)
   displ. norm   :     0.9665977 α      lambda       -0.6631120E-01
   maximum displ.:     0.3224325 α      in ANC's #30, #94, #150, ...

........................................................................
.............................. CYCLE    9 ..............................
........................................................................
   1   -520.9931021 -0.520993E+03  0.284E-01    0.75       0.0  T
   2   -520.9915887  0.151336E-02  0.185E-01    0.75       1.0  T
   3   -520.9806234  0.109653E-01  0.213E-01    0.76       1.0  T
   4   -520.9947030 -0.140796E-01  0.341E-02    0.76       1.0  T
   5   -520.9949680 -0.264979E-03  0.126E-02    0.76       1.0  T
   6   -520.9950392 -0.711760E-04  0.575E-03    0.76       1.0  T
   7   -520.9950490 -0.985208E-05  0.300E-03    0.76       1.9  T
   8   -520.9950498 -0.767944E-06  0.171E-03    0.76       3.4  T
   9   -520.9950509 -0.107070E-05  0.708E-04    0.76       8.2  T
  10   -520.9950510 -0.899894E-07  0.430E-04    0.76      13.5  T
  11   -520.9950510 -0.649186E-07  0.210E-04    0.76      27.7  T
     SCC iter.                  ...        0 min,  3.012 sec
     gradient                   ...        0 min,  0.603 sec
 * total energy  :  -512.1800308 Eh     change       -0.6513753E-01 Eh
   gradient norm :     0.0755855 Eh/α   predicted    -0.6413328E-01 (  -1.54%)
   displ. norm   :     0.9760406 α      lambda       -0.6666707E-01
   maximum displ.:     0.3546694 α      in ANC's #30, #94, #150, ...

........................................................................
.............................. CYCLE   10 ..............................
........................................................................
   1   -521.0357904 -0.521036E+03  0.266E-01    0.80       0.0  T
   2   -521.0346353  0.115508E-02  0.178E-01    0.80       1.0  T
   3   -521.0238366  0.107987E-01  0.195E-01    0.81       1.0  T
   4   -521.0367315 -0.128949E-01  0.338E-02    0.81       1.0  T
   5   -521.0371240 -0.392587E-03  0.143E-02    0.80       1.0  T
   6   -521.0372320 -0.107970E-03  0.530E-03    0.81       1.1  T
   7   -521.0372380 -0.599443E-05  0.314E-03    0.81       1.9  T
   8   -521.0372389 -0.899719E-06  0.149E-03    0.81       3.9  T
   9   -521.0372397 -0.753266E-06  0.685E-04    0.81       8.5  T
  10   -521.0372398 -0.165365E-06  0.356E-04    0.81      16.3  T
     SCC iter.                  ...        0 min,  2.739 sec
     gradient                   ...        0 min,  0.603 sec
 * total energy  :  -512.2453761 Eh     change       -0.6534533E-01 Eh
   gradient norm :     0.0724325 Eh/α   predicted    -0.6508895E-01 (  -0.39%)
   displ. norm   :     0.9594498 α      lambda       -0.6300590E-01
   maximum displ.:     0.3895733 α      in ANC's #30, #94, #23, ...

........................................................................
.............................. CYCLE   11 ..............................
........................................................................
   1   -521.0698028 -0.521070E+03  0.232E-01    0.83       0.0  T
   2   -521.0683009  0.150188E-02  0.167E-01    0.83       1.0  T
   3   -521.0601591  0.814178E-02  0.165E-01    0.84       1.0  T
   4   -521.0705191 -0.103600E-01  0.296E-02    0.83       1.0  T
   5   -521.0709141 -0.395008E-03  0.919E-03    0.83       1.0  T
   6   -521.0709444 -0.302946E-04  0.457E-03    0.83       1.3  T
   7   -521.0709486 -0.420773E-05  0.289E-03    0.83       2.0  T
   8   -521.0709499 -0.125068E-05  0.124E-03    0.83       4.7  T
   9   -521.0709507 -0.832704E-06  0.439E-04    0.83      13.2  T
  10   -521.0709508 -0.777468E-07  0.235E-04    0.83      24.7  T
     SCC iter.                  ...        0 min,  2.738 sec
     gradient                   ...        0 min,  0.603 sec
 * total energy  :  -512.2995652 Eh     change       -0.5418910E-01 Eh
   gradient norm :     0.0663020 Eh/α   predicted    -0.6050292E-01 (  11.65%)
   displ. norm   :     0.8739025 α      lambda       -0.4607129E-01
   maximum displ.:     0.4038589 α      in ANC's #30, #46, #23, ...

........................................................................
.............................. CYCLE   12 ..............................
........................................................................
   1   -521.0925545 -0.521093E+03  0.188E-01    0.86       0.0  T
   2   -521.0920871  0.467400E-03  0.121E-01    0.86       1.0  T
   3   -521.0831831  0.890405E-02  0.134E-01    0.87       1.0  T
   4   -521.0927779 -0.959480E-02  0.182E-02    0.86       1.0  T
   5   -521.0929137 -0.135834E-03  0.389E-03    0.86       1.5  T
   6   -521.0929144 -0.714002E-06  0.286E-03    0.86       2.0  T
   7   -521.0929157 -0.129566E-05  0.186E-03    0.86       3.1  T
   8   -521.0929175 -0.173654E-05  0.645E-04    0.86       9.0  T
   9   -521.0929176 -0.185762E-06  0.262E-04    0.86      22.2  T
  10   -521.0929177 -0.118212E-07  0.150E-04    0.86      38.8  T
     SCC iter.                  ...        0 min,  2.740 sec
     gradient                   ...        0 min,  0.602 sec
 * total energy  :  -512.3404596 Eh     change       -0.4089434E-01 Eh
   gradient norm :     0.0614353 Eh/α   predicted    -0.4062819E-01 (  -0.65%)
   displ. norm   :     0.8687735 α      lambda       -0.4155763E-01
   maximum displ.:     0.4229520 α      in ANC's #30, #46, #23, ...

........................................................................
.............................. CYCLE   13 ..............................
........................................................................
   1   -521.1652800 -0.521165E+03  0.168E-01    0.87       0.0  T
   2   -521.1650486  0.231423E-03  0.105E-01    0.87       1.0  T
   3   -521.1575827  0.746589E-02  0.103E-01    0.87       1.0  T
   4   -521.1653276 -0.774492E-02  0.184E-02    0.87       1.0  T
   5   -521.1655031 -0.175474E-03  0.441E-03    0.87       1.3  T
   6   -521.1655098 -0.665189E-05  0.249E-03    0.87       2.3  T
   7   -521.1655111 -0.136689E-05  0.154E-03    0.87       3.8  T
   8   -521.1655118 -0.681804E-06  0.701E-04    0.87       8.3  T
   9   -521.1655120 -0.187453E-06  0.248E-04    0.87      23.4  T
     SCC iter.                  ...        0 min,  2.468 sec
     gradient                   ...        0 min,  0.603 sec
 * total energy  :  -512.3777273 Eh     change       -0.3726772E-01 Eh
   gradient norm :     0.0520378 Eh/α   predicted    -0.3646198E-01 (  -2.16%)
   displ. norm   :     0.9128419 α      lambda       -0.3645555E-01
   maximum displ.:     0.4741890 α      in ANC's #30, #46, #23, ...

........................................................................
.............................. CYCLE   14 ..............................
........................................................................
   1   -521.2369553 -0.521237E+03  0.133E-01    0.88       0.0  T
   2   -521.2367598  0.195481E-03  0.847E-02    0.88       1.0  T
   3   -521.2317451  0.501479E-02  0.889E-02    0.88       1.0  T
   4   -521.2370223 -0.527727E-02  0.111E-02    0.88       1.0  T
   5   -521.2370943 -0.719336E-04  0.311E-03    0.88       1.9  T
   6   -521.2370973 -0.300904E-05  0.188E-03    0.88       3.1  T
   7   -521.2370980 -0.758986E-06  0.111E-03    0.88       5.2  T
   8   -521.2370985 -0.469268E-06  0.384E-04    0.88      15.2  T
   9   -521.2370985 -0.552475E-07  0.150E-04    0.88      38.8  T
     SCC iter.                  ...        0 min,  2.466 sec
     gradient                   ...        0 min,  0.603 sec
 * total energy  :  -512.4114838 Eh     change       -0.3375653E-01 Eh
   gradient norm :     0.0468006 Eh/α   predicted    -0.3341662E-01 (  -1.01%)
   displ. norm   :     0.9333474 α      lambda       -0.3353998E-01
   maximum displ.:     0.4734825 α      in ANC's #30, #46, #23, ...

........................................................................
.............................. CYCLE   15 ..............................
........................................................................
   1   -521.2857378 -0.521286E+03  0.123E-01    0.89       0.0  T
   2   -521.2855096  0.228191E-03  0.812E-02    0.89       1.0  T
   3   -521.2811944  0.431518E-02  0.862E-02    0.89       1.0  T
   4   -521.2857990 -0.460460E-02  0.116E-02    0.89       1.0  T
   5   -521.2858845 -0.855183E-04  0.319E-03    0.89       1.8  T
   6   -521.2858875 -0.300400E-05  0.171E-03    0.89       3.4  T
   7   -521.2858880 -0.469647E-06  0.937E-04    0.89       6.2  T
   8   -521.2858883 -0.269011E-06  0.469E-04    0.89      12.4  T
     SCC iter.                  ...        0 min,  2.193 sec
     gradient                   ...        0 min,  0.604 sec
 * total energy  :  -512.4423760 Eh     change       -0.3089219E-01 Eh
   gradient norm :     0.0452083 Eh/α   predicted    -0.3137896E-01 (   1.58%)
   displ. norm   :     0.9398246 α      lambda       -0.3118392E-01
   maximum displ.:     0.4801378 α      in ANC's #30, #46, #23, ...

........................................................................
.............................. CYCLE   16 ..............................
........................................................................
   1   -521.3435679 -0.521344E+03  0.110E-01    0.89       0.0  T
   2   -521.3434959  0.720548E-04  0.701E-02    0.89       1.0  T
   3   -521.3410195  0.247631E-02  0.663E-02    0.89       1.0  T
   4   -521.3435715 -0.255197E-02  0.133E-02    0.89       1.0  T
   5   -521.3436824 -0.110904E-03  0.300E-03    0.89       1.9  T
   6   -521.3436854 -0.304051E-05  0.164E-03    0.89       3.5  T
   7   -521.3436861 -0.655131E-06  0.965E-04    0.89       6.0  T
   8   -521.3436864 -0.284678E-06  0.387E-04    0.89      15.0  T
     SCC iter.                  ...        0 min,  2.192 sec
     gradient                   ...        0 min,  0.604 sec
 * total energy  :  -512.4709151 Eh     change       -0.2853910E-01 Eh
   gradient norm :     0.0344165 Eh/α   predicted    -0.2936388E-01 (   2.89%)
   displ. norm   :     0.9462395 α      lambda       -0.2817460E-01
   maximum displ.:     0.4750628 α      in ANC's #30, #46, #23, ...

........................................................................
.............................. CYCLE   17 ..............................
........................................................................
   1   -521.3761885 -0.521376E+03  0.104E-01    0.89       0.0  T
   2   -521.3761137  0.747752E-04  0.658E-02    0.89       1.0  T
   3   -521.3736784  0.243537E-02  0.633E-02    0.89       1.0  T
   4   -521.3762062 -0.252783E-02  0.936E-03    0.89       1.0  T
   5   -521.3762597 -0.534891E-04  0.248E-03    0.89       2.3  T
   6   -521.3762615 -0.179159E-05  0.146E-03    0.89       4.0  T
   7   -521.3762620 -0.505144E-06  0.782E-04    0.89       7.4  T
   8   -521.3762622 -0.191758E-06  0.325E-04    0.89      17.9  T
     SCC iter.                  ...        0 min,  2.189 sec
     gradient                   ...        0 min,  0.604 sec
 * total energy  :  -512.4971652 Eh     change       -0.2625011E-01 Eh
   gradient norm :     0.0343321 Eh/α   predicted    -0.2670067E-01 (   1.72%)
   displ. norm   :     0.9577171 α      lambda       -0.2666723E-01
   maximum displ.:     0.4687706 α      in ANC's #46, #30, #23, ...

........................................................................
.............................. CYCLE   18 ..............................
........................................................................
   1   -521.4080152 -0.521408E+03  0.119E-01    0.90       0.0  T
   2   -521.4079212  0.940026E-04  0.743E-02    0.90       1.0  T
   3   -521.4052721  0.264910E-02  0.716E-02    0.90       1.0  T
   4   -521.4080483 -0.277626E-02  0.913E-03    0.90       1.0  T
   5   -521.4080956 -0.472830E-04  0.276E-03    0.90       2.1  T
   6   -521.4080972 -0.165437E-05  0.156E-03    0.90       3.7  T
   7   -521.4080976 -0.378230E-06  0.882E-04    0.90       6.6  T
   8   -521.4080980 -0.391889E-06  0.329E-04    0.90      17.6  T
     SCC iter.                  ...        0 min,  2.191 sec
     gradient                   ...        0 min,  0.605 sec
 * total energy  :  -512.5214856 Eh     change       -0.2432040E-01 Eh
   gradient norm :     0.0395449 Eh/α   predicted    -0.2556353E-01 (   5.11%)
   displ. norm   :     0.9445433 α      lambda       -0.2552091E-01
   maximum displ.:     0.4714884 α      in ANC's #46, #30, #23, ...

........................................................................
.............................. CYCLE   19 ..............................
........................................................................
   1   -521.4564173 -0.521456E+03  0.116E-01    0.89       0.0  T
   2   -521.4564118  0.551364E-05  0.704E-02    0.89       1.0  T
   3   -521.4550888  0.132296E-02  0.461E-02    0.89       1.0  T
   4   -521.4564077 -0.131885E-02  0.111E-02    0.89       1.0  T
   5   -521.4564826 -0.749111E-04  0.227E-03    0.89       2.6  T
   6   -521.4564835 -0.970291E-06  0.141E-03    0.89       4.1  T
   7   -521.4564839 -0.353551E-06  0.862E-04    0.89       6.7  T
   8   -521.4564842 -0.330211E-06  0.238E-04    0.89      24.4  T
     SCC iter.                  ...        0 min,  2.193 sec
     gradient                   ...        0 min,  0.605 sec
 * total energy  :  -512.5451209 Eh     change       -0.2363521E-01 Eh
   gradient norm :     0.0348861 Eh/α   predicted    -0.2414488E-01 (   2.16%)
   displ. norm   :     0.9487812 α      lambda       -0.2418268E-01
   maximum displ.:     0.4889461 α      in ANC's #46, #30, #23, ...

........................................................................
.............................. CYCLE   20 ..............................
........................................................................
   1   -521.4943211 -0.521494E+03  0.109E-01    0.88       0.0  T
   2   -521.4942248  0.962938E-04  0.707E-02    0.88       1.0  T
   3   -521.4925817  0.164310E-02  0.671E-02    0.88       1.0  T
   4   -521.4944048 -0.182312E-02  0.917E-03    0.88       1.0  T
   5   -521.4944481 -0.433014E-04  0.228E-03    0.88       2.6  T
   6   -521.4944497 -0.160410E-05  0.128E-03    0.88       4.6  T
   7   -521.4944500 -0.248125E-06  0.783E-04    0.88       7.4  T
   8   -521.4944502 -0.226838E-06  0.355E-04    0.88      16.4  T
     SCC iter.                  ...        0 min,  2.196 sec
     gradient                   ...        0 min,  0.605 sec
 * total energy  :  -512.5668994 Eh     change       -0.2177857E-01 Eh
   gradient norm :     0.0423105 Eh/α   predicted    -0.2297583E-01 (   5.50%)
   displ. norm   :     0.9373853 α      lambda       -0.2334159E-01
   maximum displ.:     0.4978503 α      in ANC's #46, #30, #23, ...
 * RMSD in coord.:     0.8256459 α      energy gain  -0.1555640E+01 Eh

generating ANC from model Hessian ...
Using Lindh-Hessian (1995)
 Shifting diagonal of input Hessian by    1.0026598574753911E-002
 Lowest  eigenvalues of input Hessian
    0.010000    0.010001    0.010004    0.010010    0.010014    0.010018
    0.010018    0.010020    0.010021    0.010021    0.010022    0.010023
    0.010023    0.010024    0.010025    0.010025    0.010026    0.000000
 Highest eigenvalues
    2.491861    2.573632    2.577402    2.642578    2.642977    2.651672


........................................................................
.............................. CYCLE   21 ..............................
........................................................................
   1   -521.5201315 -0.521520E+03  0.115E-01    0.89       0.0  T
   2   -521.5200880  0.434610E-04  0.703E-02    0.89       1.0  T
   3   -521.5184262  0.166181E-02  0.612E-02    0.89       1.0  T
   4   -521.5201704 -0.174421E-02  0.839E-03    0.89       1.0  T
   5   -521.5202033 -0.329195E-04  0.270E-03    0.89       2.1  T
   6   -521.5202050 -0.169244E-05  0.163E-03    0.89       3.6  T
   7   -521.5202058 -0.745996E-06  0.845E-04    0.89       6.9  T
   8   -521.5202061 -0.364670E-06  0.311E-04    0.89      18.7  T
     SCC iter.                  ...        0 min,  2.194 sec
     gradient                   ...        0 min,  0.605 sec
 * total energy  :  -512.5883826 Eh     change       -0.2148317E-01 Eh
   gradient norm :     0.0284867 Eh/α   predicted     0.0000000E+00 (-100.00%)
   displ. norm   :     0.7541104 α      lambda       -0.1688087E-01
   maximum displ.:     0.5483327 α      in ANC's #44, #42, #63, ...

........................................................................
.............................. CYCLE   22 ..............................
........................................................................
   1   -521.5535352 -0.521554E+03  0.886E-02    0.88       0.0  T
   2   -521.5535370 -0.179321E-05  0.522E-02    0.88       1.0  T
   3   -521.5531203  0.416692E-03  0.247E-02    0.88       1.0  T
   4   -521.5535269 -0.406632E-03  0.692E-03    0.88       1.0  T
   5   -521.5535590 -0.321059E-04  0.119E-03    0.88       4.9  T
   6   -521.5535592 -0.180126E-06  0.847E-04    0.88       6.9  T
   7   -521.5535594 -0.215917E-06  0.414E-04    0.88      14.1  T
     SCC iter.                  ...        0 min,  1.928 sec
     gradient                   ...        0 min,  0.606 sec
 * total energy  :  -512.6047568 Eh     change       -0.1637423E-01 Eh
   gradient norm :     0.0228509 Eh/α   predicted    -0.1324037E-01 ( -19.14%)
   displ. norm   :     0.9145440 α      lambda       -0.1934743E-01
   maximum displ.:     0.6421021 α      in ANC's #44, #42, #63, ...

........................................................................
.............................. CYCLE   23 ..............................
........................................................................
   1   -521.5872095 -0.521587E+03  0.107E-01    0.88       0.0  T
   2   -521.5872091  0.447699E-06  0.634E-02    0.88       1.0  T
   3   -521.5865880  0.621090E-03  0.294E-02    0.88       1.0  T
   4   -521.5872095 -0.621511E-03  0.699E-03    0.88       1.0  T
   5   -521.5872403 -0.308037E-04  0.147E-03    0.88       4.0  T
   6   -521.5872406 -0.311399E-06  0.996E-04    0.88       5.8  T
   7   -521.5872408 -0.254321E-06  0.516E-04    0.88      11.3  T
     SCC iter.                  ...        0 min,  1.924 sec
     gradient                   ...        0 min,  0.605 sec
 * total energy  :  -512.6235225 Eh     change       -0.1876568E-01 Eh
   gradient norm :     0.0205212 Eh/α   predicted    -0.1776499E-01 (  -5.33%)
   displ. norm   :     0.9403308 α      lambda       -0.1876740E-01
   maximum displ.:     0.6647431 α      in ANC's #44, #42, #63, ...

........................................................................
.............................. CYCLE   24 ..............................
........................................................................
   1   -521.6153307 -0.521615E+03  0.109E-01    0.88       0.0  T
   2   -521.6153323 -0.161981E-05  0.641E-02    0.88       1.0  T
   3   -521.6149019  0.430397E-03  0.241E-02    0.88       1.0  T
   4   -521.6153341 -0.432207E-03  0.575E-03    0.88       1.0  T
   5   -521.6153540 -0.199053E-04  0.137E-03    0.88       4.2  T
   6   -521.6153541 -0.123140E-06  0.951E-04    0.88       6.1  T
   7   -521.6153544 -0.208800E-06  0.495E-04    0.88      11.7  T
     SCC iter.                  ...        0 min,  1.923 sec
     gradient                   ...        0 min,  0.605 sec
 * total energy  :  -512.6417614 Eh     change       -0.1823891E-01 Eh
   gradient norm :     0.0199880 Eh/α   predicted    -0.1768106E-01 (  -3.06%)
   displ. norm   :     0.9470513 α      lambda       -0.1790947E-01
   maximum displ.:     0.6756775 α      in ANC's #44, #42, #63, ...

........................................................................
.............................. CYCLE   25 ..............................
........................................................................
   1   -521.6420312 -0.521642E+03  0.108E-01    0.88       0.0  T
   2   -521.6420348 -0.356445E-05  0.633E-02    0.88       1.0  T
   3   -521.6417347  0.300021E-03  0.201E-02    0.88       1.0  T
   4   -521.6420341 -0.299382E-03  0.529E-03    0.88       1.1  T
   5   -521.6420508 -0.166901E-04  0.129E-03    0.88       4.5  T
   6   -521.6420509 -0.492747E-07  0.879E-04    0.88       6.6  T
   7   -521.6420510 -0.149588E-06  0.469E-04    0.88      12.4  T
     SCC iter.                  ...        0 min,  1.924 sec
     gradient                   ...        0 min,  0.605 sec
 * total energy  :  -512.6591547 Eh     change       -0.1739328E-01 Eh
   gradient norm :     0.0188624 Eh/α   predicted    -0.1698633E-01 (  -2.34%)
   displ. norm   :     0.9486371 α      lambda       -0.1697717E-01
   maximum displ.:     0.6833270 α      in ANC's #44, #42, #63, ...

........................................................................
.............................. CYCLE   26 ..............................
........................................................................
   1   -521.6687303 -0.521669E+03  0.105E-01    0.87       0.0  T
   2   -521.6687350 -0.464921E-05  0.620E-02    0.87       1.0  T
   3   -521.6685091  0.225847E-03  0.176E-02    0.87       1.0  T
   4   -521.6687327 -0.223538E-03  0.503E-03    0.87       1.2  T
   5   -521.6687480 -0.153525E-04  0.122E-03    0.87       4.8  T
   6   -521.6687480 -0.247619E-07  0.824E-04    0.87       7.1  T
   7   -521.6687482 -0.128296E-06  0.423E-04    0.87      13.7  T
     SCC iter.                  ...        0 min,  1.923 sec
     gradient                   ...        0 min,  0.605 sec
 * total energy  :  -512.6756218 Eh     change       -0.1646709E-01 Eh
   gradient norm :     0.0175910 Eh/α   predicted    -0.1612758E-01 (  -2.06%)
   displ. norm   :     0.9488867 α      lambda       -0.1603944E-01
   maximum displ.:     0.6894115 α      in ANC's #44, #42, #63, ...

........................................................................
.............................. CYCLE   27 ..............................
........................................................................
   1   -521.6954752 -0.521695E+03  0.103E-01    0.87       0.0  T
   2   -521.6954801 -0.492739E-05  0.607E-02    0.87       1.0  T
   3   -521.6952835  0.196583E-03  0.166E-02    0.87       1.0  T
   4   -521.6954775 -0.193964E-03  0.484E-03    0.87       1.2  T
   5   -521.6954919 -0.143726E-04  0.115E-03    0.87       5.1  T
   6   -521.6954919 -0.518719E-08  0.799E-04    0.87       7.3  T
   7   -521.6954920 -0.140519E-06  0.379E-04    0.87      15.3  T
     SCC iter.                  ...        0 min,  1.922 sec
     gradient                   ...        0 min,  0.606 sec
 * total energy  :  -512.6911578 Eh     change       -0.1553602E-01 Eh
   gradient norm :     0.0165095 Eh/α   predicted    -0.1524056E-01 (  -1.90%)
   displ. norm   :     0.9488210 α      lambda       -0.1512608E-01
   maximum displ.:     0.6949198 α      in ANC's #44, #42, #63, ...

........................................................................
.............................. CYCLE   28 ..............................
........................................................................
   1   -521.7216701 -0.521722E+03  0.101E-01    0.87       0.0  T
   2   -521.7216752 -0.514887E-05  0.595E-02    0.87       1.0  T
   3   -521.7215036  0.171623E-03  0.157E-02    0.87       1.0  T
   4   -521.7216730 -0.169428E-03  0.459E-03    0.87       1.3  T
   5   -521.7216860 -0.129153E-04  0.109E-03    0.87       5.4  T
   6   -521.7216859  0.315016E-07  0.785E-04    0.87       7.4  T
   7   -521.7216861 -0.163579E-06  0.333E-04    0.87      17.5  T
     SCC iter.                  ...        0 min,  1.924 sec
     gradient                   ...        0 min,  0.606 sec
 * total energy  :  -512.7057845 Eh     change       -0.1462667E-01 Eh
   gradient norm :     0.0155706 Eh/α   predicted    -0.1437175E-01 (  -1.74%)
   displ. norm   :     0.9493309 α      lambda       -0.1423972E-01
   maximum displ.:     0.6998597 α      in ANC's #44, #42, #40, ...

........................................................................
.............................. CYCLE   29 ..............................
........................................................................
   1   -521.7468786 -0.521747E+03  0.997E-02    0.86       0.0  T
   2   -521.7468841 -0.553243E-05  0.586E-02    0.86       1.0  T
   3   -521.7467367  0.147346E-03  0.147E-02    0.86       1.0  T
   4   -521.7468817 -0.144940E-03  0.443E-03    0.86       1.3  T
   5   -521.7468938 -0.121126E-04  0.103E-03    0.86       5.7  T
   6   -521.7468937  0.534009E-07  0.771E-04    0.86       7.5  T
   7   -521.7468939 -0.178915E-06  0.296E-04    0.86      19.6  T
     SCC iter.                  ...        0 min,  1.925 sec
     gradient                   ...        0 min,  0.605 sec
 * total energy  :  -512.7195359 Eh     change       -0.1375139E-01 Eh
   gradient norm :     0.0145976 Eh/α   predicted    -0.1353648E-01 (  -1.56%)
   displ. norm   :     0.9498885 α      lambda       -0.1336677E-01
   maximum displ.:     0.7048590 α      in ANC's #44, #42, #40, ...

........................................................................
.............................. CYCLE   30 ..............................
........................................................................
   1   -521.7709894 -0.521771E+03  0.984E-02    0.86       0.0  T
   2   -521.7709952 -0.584150E-05  0.578E-02    0.86       1.0  T
   3   -521.7708734  0.121816E-03  0.135E-02    0.86       1.0  T
   4   -521.7709932 -0.119785E-03  0.418E-03    0.86       1.4  T
   5   -521.7710039 -0.107012E-04  0.973E-04    0.86       6.0  T
   6   -521.7710038  0.761208E-07  0.738E-04    0.86       7.9  T
   7   -521.7710040 -0.175172E-06  0.267E-04    0.86      21.7  T
     SCC iter.                  ...        0 min,  1.925 sec
     gradient                   ...        0 min,  0.606 sec
 * total energy  :  -512.7324302 Eh     change       -0.1289431E-01 Eh
   gradient norm :     0.0135600 Eh/α   predicted    -0.1271373E-01 (  -1.40%)
   displ. norm   :     0.9508606 α      lambda       -0.1251419E-01
   maximum displ.:     0.7094763 α      in ANC's #44, #42, #40, ...

........................................................................
.............................. CYCLE   31 ..............................
........................................................................
   1   -521.7939738 -0.521794E+03  0.973E-02    0.85       0.0  T
   2   -521.7939800 -0.614662E-05  0.571E-02    0.86       1.0  T
   3   -521.7938829  0.970277E-04  0.123E-02    0.85       1.0  T
   4   -521.7939781 -0.951700E-04  0.394E-03    0.85       1.5  T
   5   -521.7939876 -0.946656E-05  0.926E-04    0.85       6.3  T
   6   -521.7939875  0.773639E-07  0.703E-04    0.85       8.3  T
   7   -521.7939877 -0.160164E-06  0.242E-04    0.85      24.0  T
     SCC iter.                  ...        0 min,  1.924 sec
     gradient                   ...        0 min,  0.606 sec
 * total energy  :  -512.7444833 Eh     change       -0.1205308E-01 Eh
   gradient norm :     0.0125743 Eh/α   predicted    -0.1191437E-01 (  -1.15%)
   displ. norm   :     0.9525008 α      lambda       -0.1168508E-01
   maximum displ.:     0.7140517 α      in ANC's #44, #42, #47, ...

........................................................................
.............................. CYCLE   32 ..............................
........................................................................
   1   -521.8159261 -0.521816E+03  0.965E-02    0.85       0.0  T
   2   -521.8159325 -0.632701E-05  0.566E-02    0.85       1.0  T
   3   -521.8158538  0.786645E-04  0.113E-02    0.85       1.0  T
   4   -521.8159309 -0.771398E-04  0.372E-03    0.85       1.6  T
   5   -521.8159393 -0.832307E-05  0.885E-04    0.85       6.6  T
   6   -521.8159392  0.702101E-07  0.656E-04    0.85       8.9  T
   7   -521.8159393 -0.135450E-06  0.224E-04    0.85      25.9  T
     SCC iter.                  ...        0 min,  1.925 sec
     gradient                   ...        0 min,  0.607 sec
 * total energy  :  -512.7557112 Eh     change       -0.1122791E-01 Eh
   gradient norm :     0.0116811 Eh/α   predicted    -0.1114322E-01 (  -0.75%)
   displ. norm   :     0.9544176 α      lambda       -0.1087931E-01
   maximum displ.:     0.7181270 α      in ANC's #44, #42, #47, ...

........................................................................
.............................. CYCLE   33 ..............................
........................................................................
   1   -521.8368044 -0.521837E+03  0.959E-02    0.85       0.0  T
   2   -521.8368109 -0.646527E-05  0.562E-02    0.85       1.0  T
   3   -521.8367482  0.627241E-04  0.103E-02    0.85       1.0  T
   4   -521.8368100 -0.618061E-04  0.344E-03    0.85       1.7  T
   5   -521.8368170 -0.699649E-05  0.863E-04    0.85       6.7  T
   6   -521.8368169  0.531076E-07  0.625E-04    0.85       9.3  T
   7   -521.8368170 -0.113417E-06  0.206E-04    0.85      28.2  T
     SCC iter.                  ...        0 min,  1.924 sec
     gradient                   ...        0 min,  0.607 sec
 * total energy  :  -512.7661243 Eh     change       -0.1041317E-01 Eh
   gradient norm :     0.0108743 Eh/α   predicted    -0.1039471E-01 (  -0.18%)
   displ. norm   :     0.9565847 α      lambda       -0.1008717E-01
   maximum displ.:     0.7214492 α      in ANC's #44, #42, #47, ...

........................................................................
.............................. CYCLE   34 ..............................
........................................................................
   1   -521.8565939 -0.521857E+03  0.953E-02    0.84       0.0  T
   2   -521.8566004 -0.649644E-05  0.558E-02    0.84       1.0  T
   3   -521.8565467  0.536835E-04  0.966E-03    0.84       1.0  T
   4   -521.8565997 -0.530077E-04  0.327E-03    0.84       1.8  T
   5   -521.8566060 -0.628245E-05  0.839E-04    0.84       6.9  T
   6   -521.8566060  0.408035E-07  0.597E-04    0.84       9.7  T
   7   -521.8566061 -0.984739E-07  0.199E-04    0.84      29.2  T
     SCC iter.                  ...        0 min,  1.927 sec
     gradient                   ...        0 min,  0.607 sec
 * total energy  :  -512.7757369 Eh     change       -0.9612567E-02 Eh
   gradient norm :     0.0100813 Eh/α   predicted    -0.9658740E-02 (   0.48%)
   displ. norm   :     0.9535357 α      lambda       -0.9238243E-02
   maximum displ.:     0.7185940 α      in ANC's #44, #42, #47, ...

........................................................................
.............................. CYCLE   35 ..............................
........................................................................
   1   -521.8754116 -0.521875E+03  0.937E-02    0.84       0.0  T
   2   -521.8754180 -0.635326E-05  0.549E-02    0.84       1.0  T
   3   -521.8753747  0.433034E-04  0.889E-03    0.84       1.0  T
   4   -521.8754180 -0.432714E-04  0.297E-03    0.84       2.0  T
   5   -521.8754230 -0.506857E-05  0.806E-04    0.84       7.2  T
   6   -521.8754230  0.256099E-07  0.563E-04    0.84      10.3  T
   7   -521.8754231 -0.812349E-07  0.183E-04    0.84      31.7  T
     SCC iter.                  ...        0 min,  1.927 sec
     gradient                   ...        0 min,  0.607 sec
 * total energy  :  -512.7845120 Eh     change       -0.8775128E-02 Eh
   gradient norm :     0.0092584 Eh/α   predicted    -0.8818963E-02 (   0.50%)
   displ. norm   :     0.9491554 α      lambda       -0.8381013E-02
   maximum displ.:     0.7125028 α      in ANC's #44, #42, #47, ...

........................................................................
.............................. CYCLE   36 ..............................
........................................................................
   1   -521.8933558 -0.521893E+03  0.917E-02    0.83       0.0  T
   2   -521.8933620 -0.615390E-05  0.536E-02    0.83       1.0  T
   3   -521.8933257  0.363185E-04  0.832E-03    0.83       1.0  T
   4   -521.8933622 -0.365581E-04  0.275E-03    0.83       2.1  T
   5   -521.8933665 -0.432289E-05  0.769E-04    0.83       7.6  T
   6   -521.8933665  0.130972E-07  0.535E-04    0.83      10.9  T
   7   -521.8933666 -0.700286E-07  0.176E-04    0.83      32.9  T
     SCC iter.                  ...        0 min,  1.926 sec
     gradient                   ...        0 min,  0.608 sec
 * total energy  :  -512.7924516 Eh     change       -0.7939538E-02 Eh
   gradient norm :     0.0084767 Eh/α   predicted    -0.7965715E-02 (   0.33%)
   displ. norm   :     0.9442157 α      lambda       -0.7544821E-02
   maximum displ.:     0.7044282 α      in ANC's #44, #42, #47, ...

........................................................................
.............................. CYCLE   37 ..............................
........................................................................
   1   -521.9103242 -0.521910E+03  0.899E-02    0.83       0.0  T
   2   -521.9103302 -0.591406E-05  0.526E-02    0.83       1.0  T
   3   -521.9102991  0.310151E-04  0.788E-03    0.82       1.0  T
   4   -521.9103307 -0.315646E-04  0.254E-03    0.83       2.3  T
   5   -521.9103343 -0.363536E-05  0.740E-04    0.83       7.9  T
   6   -521.9103343  0.284967E-08  0.508E-04    0.83      11.4  T
   7   -521.9103344 -0.598177E-07  0.173E-04    0.83      33.5  T
     SCC iter.                  ...        0 min,  1.928 sec
     gradient                   ...        0 min,  0.608 sec
 * total energy  :  -512.7995656 Eh     change       -0.7114069E-02 Eh
   gradient norm :     0.0078122 Eh/α   predicted    -0.7135680E-02 (   0.30%)
   displ. norm   :     0.9386535 α      lambda       -0.6738803E-02
   maximum displ.:     0.6942963 α      in ANC's #44, #42, #47, ...

........................................................................
.............................. CYCLE   38 ..............................
........................................................................
   1   -521.9264243 -0.521926E+03  0.882E-02    0.82       0.0  T
   2   -521.9264300 -0.574396E-05  0.516E-02    0.82       1.0  T
   3   -521.9264050  0.249824E-04  0.733E-03    0.82       1.0  T
   4   -521.9264309 -0.258440E-04  0.230E-03    0.82       2.5  T
   5   -521.9264338 -0.289959E-05  0.735E-04    0.82       7.9  T
   6   -521.9264338 -0.186961E-07  0.487E-04    0.82      11.9  T
   7   -521.9264339 -0.540798E-07  0.181E-04    0.82      32.2  T
     SCC iter.                  ...        0 min,  1.927 sec
     gradient                   ...        0 min,  0.608 sec
 * total energy  :  -512.8058715 Eh     change       -0.6305816E-02 Eh
   gradient norm :     0.0074756 Eh/α   predicted    -0.6338083E-02 (   0.51%)
   displ. norm   :     0.9318905 α      lambda       -0.5961000E-02
   maximum displ.:     0.6815771 α      in ANC's #44, #42, #47, ...

........................................................................
.............................. CYCLE   39 ..............................
........................................................................
   1   -521.9409028 -0.521941E+03  0.867E-02    0.82       0.0  T
   2   -521.9409083 -0.555192E-05  0.507E-02    0.82       1.0  T
   3   -521.9408849  0.234795E-04  0.717E-03    0.82       1.0  T
   4   -521.9409092 -0.243141E-04  0.225E-03    0.82       2.6  T
   5   -521.9409119 -0.274344E-05  0.729E-04    0.82       8.0  T
   6   -521.9409120 -0.299401E-07  0.472E-04    0.82      12.3  T
   7   -521.9409120 -0.459005E-07  0.186E-04    0.82      31.3  T
     SCC iter.                  ...        0 min,  1.930 sec
     gradient                   ...        0 min,  0.608 sec
 * total energy  :  -512.8113879 Eh     change       -0.5516403E-02 Eh
   gradient norm :     0.0074446 Eh/α   predicted    -0.5568827E-02 (   0.95%)
   displ. norm   :     0.9230371 α      lambda       -0.5204479E-02
   maximum displ.:     0.6668025 α      in ANC's #44, #42, #47, ...

........................................................................
.............................. CYCLE   40 ..............................
........................................................................
   1   -521.9552296 -0.521955E+03  0.848E-02    0.81       0.0  T
   2   -521.9552349 -0.520398E-05  0.496E-02    0.81       1.0  T
   3   -521.9552163  0.185380E-04  0.654E-03    0.81       1.0  T
   4   -521.9552362 -0.198437E-04  0.193E-03    0.81       3.0  T
   5   -521.9552380 -0.188518E-05  0.725E-04    0.81       8.0  T
   6   -521.9552381 -0.407198E-07  0.462E-04    0.81      12.6  T
   7   -521.9552381 -0.570903E-07  0.175E-04    0.81      33.3  T
     SCC iter.                  ...        0 min,  1.927 sec
     gradient                   ...        0 min,  0.608 sec
 * total energy  :  -512.8161387 Eh     change       -0.4750793E-02 Eh
   gradient norm :     0.0074968 Eh/α   predicted    -0.4819344E-02 (   1.44%)
   displ. norm   :     0.9122771 α      lambda       -0.4466000E-02
   maximum displ.:     0.6482983 α      in ANC's #44, #42, #47, ...

........................................................................
.............................. CYCLE   41 ..............................
........................................................................
   1   -521.9674941 -0.521967E+03  0.829E-02    0.81       0.0  T
   2   -521.9674986 -0.455855E-05  0.485E-02    0.81       1.0  T
   3   -521.9674767  0.218944E-04  0.687E-03    0.81       1.0  T
   4   -521.9675000 -0.232381E-04  0.196E-03    0.81       3.0  T
   5   -521.9675018 -0.187907E-05  0.697E-04    0.81       8.3  T
   6   -521.9675018  0.264640E-08  0.479E-04    0.81      12.1  T
   7   -521.9675019 -0.729888E-07  0.154E-04    0.81      37.6  T
     SCC iter.                  ...        0 min,  1.929 sec
     gradient                   ...        0 min,  0.608 sec
 * total energy  :  -512.8201462 Eh     change       -0.4007565E-02 Eh
   gradient norm :     0.0074663 Eh/α   predicted    -0.4091417E-02 (   2.09%)
   displ. norm   :     0.8992187 α      lambda       -0.3777723E-02
   maximum displ.:     0.6273243 α      in ANC's #44, #42, #47, ...

........................................................................
.............................. CYCLE   42 ..............................
........................................................................
   1   -521.9797206 -0.521980E+03  0.812E-02    0.80       0.0  T
   2   -521.9797251 -0.446702E-05  0.474E-02    0.80       1.0  T
   3   -521.9797014  0.236988E-04  0.750E-03    0.80       1.0  T
   4   -521.9797268 -0.254463E-04  0.189E-03    0.80       3.1  T
   5   -521.9797283 -0.152948E-05  0.699E-04    0.80       8.3  T
   6   -521.9797284 -0.172139E-07  0.464E-04    0.80      12.5  T
   7   -521.9797284 -0.526820E-07  0.191E-04    0.80      30.4  T
     SCC iter.                  ...        0 min,  1.929 sec
     gradient                   ...        0 min,  0.609 sec
 * total energy  :  -512.8234497 Eh     change       -0.3303435E-02 Eh
   gradient norm :     0.0071529 Eh/α   predicted    -0.3416191E-02 (   3.41%)
   displ. norm   :     0.8804578 α      lambda       -0.3112463E-02
   maximum displ.:     0.6012058 α      in ANC's #44, #42, #47, ...
 * RMSD in coord.:     1.1641046 α      energy gain  -0.2565502E+00 Eh

generating ANC from model Hessian ...
Using Lindh-Hessian (1995)
 Shifting diagonal of input Hessian by    1.0060376858915329E-002
 Lowest  eigenvalues of input Hessian
    0.010000    0.010017    0.010018    0.010019    0.010021    0.010022
    0.010037    0.010038    0.010042    0.010047    0.010050    0.010053
    0.010054    0.010057    0.010059    0.000000    0.000000    0.000000
 Highest eigenvalues
    2.647234    2.647301    2.652128    2.653151    2.657497    2.663529


........................................................................
.............................. CYCLE   43 ..............................
........................................................................
   1   -521.9912994 -0.521991E+03  0.789E-02    0.80       0.0  T
   2   -521.9913038 -0.442965E-05  0.461E-02    0.80       1.0  T
   3   -521.9912873  0.165414E-04  0.649E-03    0.80       1.0  T
   4   -521.9913049 -0.176548E-04  0.186E-03    0.80       3.1  T
   5   -521.9913065 -0.153669E-05  0.741E-04    0.80       7.8  T
   6   -521.9913066 -0.827365E-07  0.451E-04    0.80      12.9  T
   7   -521.9913066 -0.348862E-07  0.215E-04    0.80      27.1  T
     SCC iter.                  ...        0 min,  1.926 sec
     gradient                   ...        0 min,  0.609 sec
 * total energy  :  -512.8261082 Eh     change       -0.2658586E-02 Eh
   gradient norm :     0.0063320 Eh/α   predicted     0.0000000E+00 (-100.00%)
   displ. norm   :     0.2310096 α      lambda       -0.7092169E-03
   maximum displ.:     0.1738002 α      in ANC's #40, #38, #41, ...

........................................................................
.............................. CYCLE   44 ..............................
........................................................................
   1   -521.9985301 -0.521999E+03  0.203E-02    0.80       0.0  T
   2   -521.9985305 -0.383878E-06  0.119E-02    0.80       1.0  T
   3   -521.9985291  0.138545E-05  0.196E-03    0.80       3.0  T
   4   -521.9985305 -0.137967E-05  0.662E-04    0.80       8.8  T
   5   -521.9985307 -0.198043E-06  0.215E-04    0.80      27.0  T
   6   -521.9985307 -0.489035E-08  0.145E-04    0.80      40.1  T
     SCC iter.                  ...        0 min,  1.658 sec
     gradient                   ...        0 min,  0.608 sec
 * total energy  :  -512.8267686 Eh     change       -0.6603242E-03 Eh
   gradient norm :     0.0033067 Eh/α   predicted    -0.3742241E-03 ( -43.33%)
   displ. norm   :     0.5624934 α      lambda       -0.1476136E-02
   maximum displ.:     0.3650925 α      in ANC's #40, #38, #41, ...

........................................................................
.............................. CYCLE   45 ..............................
........................................................................
   1   -522.0096695 -0.522010E+03  0.479E-02    0.80       0.0  T
   2   -522.0096710 -0.156225E-05  0.281E-02    0.80       1.0  T
   3   -522.0096657  0.534996E-05  0.364E-03    0.80       1.6  T
   4   -522.0096711 -0.541596E-05  0.125E-03    0.80       4.6  T
   5   -522.0096719 -0.786262E-06  0.449E-04    0.80      12.9  T
   6   -522.0096719 -0.300270E-07  0.292E-04    0.80      19.9  T
     SCC iter.                  ...        0 min,  1.656 sec
     gradient                   ...        0 min,  0.608 sec
 * total energy  :  -512.8280935 Eh     change       -0.1324906E-02 Eh
   gradient norm :     0.0048480 Eh/α   predicted    -0.9715922E-03 ( -26.67%)
   displ. norm   :     0.7131338 α      lambda       -0.1563568E-02
   maximum displ.:     0.4457232 α      in ANC's #40, #38, #41, ...

........................................................................
.............................. CYCLE   46 ..............................
........................................................................
   1   -522.0154826 -0.522015E+03  0.615E-02    0.79       0.0  T
   2   -522.0154846 -0.194600E-05  0.360E-02    0.79       1.0  T
   3   -522.0154795  0.502565E-05  0.348E-03    0.79       1.7  T
   4   -522.0154850 -0.550334E-05  0.118E-03    0.79       4.9  T
   5   -522.0154857 -0.639934E-06  0.532E-04    0.79      10.9  T
   6   -522.0154857 -0.386884E-07  0.288E-04    0.79      20.2  T
     SCC iter.                  ...        0 min,  1.655 sec
     gradient                   ...        0 min,  0.609 sec
 * total energy  :  -512.8294757 Eh     change       -0.1382269E-02 Eh
   gradient norm :     0.0061382 Eh/α   predicted    -0.1179397E-02 ( -14.68%)
   displ. norm   :     0.7583276 α      lambda       -0.1424656E-02
   maximum displ.:     0.4688548 α      in ANC's #40, #38, #37, ...

........................................................................
.............................. CYCLE   47 ..............................
........................................................................
   1   -522.0178418 -0.522018E+03  0.707E-02    0.79       0.0  T
   2   -522.0178442 -0.248085E-05  0.415E-02    0.79       1.0  T
   3   -522.0178386  0.561538E-05  0.377E-03    0.79       1.5  T
   4   -522.0178449 -0.631850E-05  0.128E-03    0.79       4.5  T
   5   -522.0178456 -0.655079E-06  0.665E-04    0.79       8.7  T
   6   -522.0178457 -0.813330E-07  0.325E-04    0.79      17.9  T
     SCC iter.                  ...        0 min,  1.664 sec
     gradient                   ...        0 min,  0.610 sec
 * total energy  :  -512.8306292 Eh     change       -0.1153441E-02 Eh
   gradient norm :     0.0051721 Eh/α   predicted    -0.1122014E-02 (  -2.72%)
   displ. norm   :     0.7323799 α      lambda       -0.1130806E-02
   maximum displ.:     0.4511354 α      in ANC's #40, #38, #37, ...

........................................................................
.............................. CYCLE   48 ..............................
........................................................................
   1   -522.0201697 -0.522020E+03  0.693E-02    0.79       0.0  T
   2   -522.0201722 -0.255713E-05  0.407E-02    0.79       1.0  T
   3   -522.0201640  0.822124E-05  0.431E-03    0.79       1.3  T
   4   -522.0201727 -0.866336E-05  0.147E-03    0.79       4.0  T
   5   -522.0201737 -0.104763E-05  0.658E-04    0.79       8.8  T
   6   -522.0201738 -0.698341E-07  0.347E-04    0.79      16.7  T
   7   -522.0201738 -0.332354E-07  0.144E-04    0.79      40.3  T
     SCC iter.                  ...        0 min,  1.927 sec
     gradient                   ...        0 min,  0.609 sec
 * total energy  :  -512.8314831 Eh     change       -0.8538929E-03 Eh
   gradient norm :     0.0035520 Eh/α   predicted    -0.8686789E-03 (   1.73%)
   displ. norm   :     0.6641252 α      lambda       -0.6516774E-03
   maximum displ.:     0.4089104 α      in ANC's #40, #38, #37, ...

........................................................................
.............................. CYCLE   49 ..............................
........................................................................
   1   -522.0236850 -0.522024E+03  0.570E-02    0.79       0.0  T
   2   -522.0236868 -0.181544E-05  0.334E-02    0.79       1.0  T
   3   -522.0236804  0.642958E-05  0.382E-03    0.79       1.5  T
   4   -522.0236873 -0.687734E-05  0.117E-03    0.79       5.0  T
   5   -522.0236880 -0.685427E-06  0.476E-04    0.79      12.2  T
   6   -522.0236880 -0.235852E-07  0.280E-04    0.79      20.7  T
     SCC iter.                  ...        0 min,  1.656 sec
     gradient                   ...        0 min,  0.609 sec
 * total energy  :  -512.8319862 Eh     change       -0.5031606E-03 Eh
   gradient norm :     0.0034369 Eh/α   predicted    -0.4695541E-03 (  -6.68%)
   displ. norm   :     0.5755120 α      lambda       -0.3654044E-03
   maximum displ.:     0.3533392 α      in ANC's #40, #37, #38, ...

........................................................................
.............................. CYCLE   50 ..............................
........................................................................
   1   -522.0300546 -0.522030E+03  0.483E-02    0.79       0.0  T
   2   -522.0300558 -0.117567E-05  0.283E-02    0.79       1.0  T
   3   -522.0300506  0.515611E-05  0.329E-03    0.79       1.8  T
   4   -522.0300560 -0.538074E-05  0.103E-03    0.79       5.6  T
   5   -522.0300566 -0.563337E-06  0.383E-04    0.79      15.2  T
   6   -522.0300566  0.511352E-08  0.264E-04    0.79      22.0  T
     SCC iter.                  ...        0 min,  1.658 sec
     gradient                   ...        0 min,  0.609 sec
 * total energy  :  -512.8322527 Eh     change       -0.2665056E-03 Eh
   gradient norm :     0.0028356 Eh/α   predicted    -0.2432175E-03 (  -8.74%)
   displ. norm   :     0.4555360 α      lambda       -0.1803452E-03
   maximum displ.:     0.2760792 α      in ANC's #40, #37, #38, ...

........................................................................
.............................. CYCLE   51 ..............................
........................................................................
   1   -522.0368634 -0.522037E+03  0.384E-02    0.78       0.0  T
   2   -522.0368641 -0.705832E-06  0.225E-02    0.78       1.0  T
   3   -522.0368615  0.260591E-05  0.242E-03    0.78       2.4  T
   4   -522.0368643 -0.274576E-05  0.773E-04    0.78       7.5  T
   5   -522.0368646 -0.294128E-06  0.322E-04    0.78      18.0  T
   6   -522.0368646 -0.492344E-08  0.216E-04    0.78      26.9  T
     SCC iter.                  ...        0 min,  1.656 sec
     gradient                   ...        0 min,  0.609 sec
 * total energy  :  -512.8323723 Eh     change       -0.1196023E-03 Eh
   gradient norm :     0.0018767 Eh/α   predicted    -0.1088852E-03 (  -8.96%)
   displ. norm   :     0.4046002 α      lambda       -0.6667819E-04
   maximum displ.:     0.2342357 α      in ANC's #40, #37, #38, ...

........................................................................
.............................. CYCLE   52 ..............................
........................................................................
   1   -522.0440380 -0.522044E+03  0.346E-02    0.78       0.0  T
   2   -522.0440387 -0.640818E-06  0.203E-02    0.78       1.0  T
   3   -522.0440365  0.221433E-05  0.231E-03    0.78       2.5  T
   4   -522.0440387 -0.228135E-05  0.767E-04    0.78       7.6  T
   5   -522.0440390 -0.289364E-06  0.324E-04    0.78      17.9  T
   6   -522.0440391 -0.206807E-07  0.200E-04    0.78      29.1  T
     SCC iter.                  ...        0 min,  1.655 sec
     gradient                   ...        0 min,  0.608 sec
 * total energy  :  -512.8324215 Eh     change       -0.4911448E-04 Eh
   gradient norm :     0.0015490 Eh/α   predicted    -0.3576494E-04 ( -27.18%)
   displ. norm   :     0.1040263 α      lambda       -0.2896274E-04
   maximum displ.:     0.0499980 α      in ANC's #6, #37, #41, ...

[...]
 585:  0.00 586:  0.00 587:  0.00 588:  0.00 589:  0.00 590:  0.00 591:  0.00 592:  0.00
 593:  0.00 594:  0.00 595:  0.00 596:  0.00 597:  0.00 598:  0.00 599:  0.00 600:  0.00
 601:  0.00 602:  0.00 603:  0.00 604:  0.00 605:  0.00 606:  0.00 607:  0.00 608:  0.00
 609:  0.00 610:  0.00 611:  0.00 612:  0.00 613:  0.00 614:  0.00 615:  0.00 616:  0.00
 617:  0.00 618:  0.00 619:  0.00 620:  0.00 621:  0.00 622:  0.00 623:  0.00 624:  0.00
 625:  0.00 626:  0.00 627:  0.00 628:  0.00 629:  0.00 630:  0.00 631:  0.00 632:  0.00
 633:  0.00 634:  0.00 635:  0.00 636:  0.00 637:  0.00 638:  0.00 639:  0.00 640:  0.00
 641:  0.00 642:  0.00 643:  0.00 644:  0.00 645:  0.00 646:  0.00 647:  0.00 648:  0.00
 649:  0.00 650:  0.00 651:  0.00 652:  0.00 653:  0.00 654:  0.00 655:  0.00 656:  0.00
 657:  0.00 658:  0.00 659:  0.00 660:  0.00 661:  0.00 662:  0.00 663:  0.00 664:  0.00
 665:  0.00 666:  0.00 667:  0.00 668:  0.00 669:  0.00 670:  0.00 671:  0.00 672:  0.00
 673:  0.00 674:  0.00 675:  0.00 676:  0.00 677:  0.00 678:  0.00 679:  0.00 680:  0.00
 681:  0.00 682:  0.00 683:  0.00 684:  0.00 685:  0.00 686:  0.00 687:  0.00 688:  0.00
 689:  0.00 690:  0.00 691:  0.00 692:  0.00 693:  0.00 694:  0.00 695:  0.00 696:  0.00
 697:  0.00 698:  0.00 699:  0.00 700:  0.00 701:  0.00 702:  0.00 703:  0.00 704:  0.00
 705:  0.00 706:  0.00 707:  0.00 708:  0.00 709:  0.00 710:  0.00 711:  0.00 712:  0.00
 713:  0.00 714:  0.00 715:  0.00 716:  0.00 717:  0.00 718:  0.00 719:  0.00 720:  0.00
 721:  0.00 722:  0.00 723:  0.00 724:  0.00 725:  0.00 726:  0.00 727:  0.00 728:  0.00
 729:  0.00 730:  0.00 731:  0.00 732:  0.00 733:  0.00 734:  0.00 735:  0.00 736:  0.00
 737:  0.00 738:  0.00 739:  0.00 740:  0.00 741:  0.00 742:  0.00 743:  0.00 744:  0.00
 745:  0.00 746:  0.00 747:  0.00 748:  0.00 749:  0.00 750:  0.00 751:  0.00 752:  0.00
 753:  0.00 754:  0.00 755:  0.00 756:  0.00 757:  0.00 758:  0.00 759:  0.00 760:  0.00
 761:  0.00 762:  0.00 763:  0.00 764:  0.00 765:  0.00 766:  0.00 767:  0.00 768:  0.00
 769:  0.00 770:  0.00 771:  0.00 772:  0.00 773:  0.00 774:  0.00 775:  0.00 776:  0.00
 777:  0.00 778:  0.00 779:  0.00 780:  0.00 781:  0.00 782:  0.00 783:  0.00 784:  0.00
 785:  0.00 786:  0.00 787:  0.00 788:  0.00 789:  0.00 790:  0.00 791:  0.00 792:  0.00
 793:  0.00 794:  0.00 795:  0.00 796:  0.00 797:  0.00 798:  0.00 799:  0.00 800:  0.00
 801:  0.00 802:  0.00 803:  0.00 804:  0.00 805:  0.00 806:  0.00 807:  0.00 808:  0.00
 809:  0.00 810:  0.00 811:  0.00 812:  0.00 813:  0.00 814:  0.00 815:  0.00 816:  0.00
 817:  0.00 818:  0.00 819:  0.00 820:  0.00 821:  0.00 822:  0.00 823:  0.00 824:  0.00
 825:  0.00 826:  0.00 827:  0.00 828:  0.00 829:  0.00 830:  0.00 831:  0.00 832:  0.00
 833:  0.00 834:  0.00 835:  0.00 836:  0.00 837:  0.00 838:  0.00 839:  0.00 840:  0.00
 841:  0.00 842:  0.00 843:  0.00 844:  0.00 845:  0.00 846:  0.00 847:  0.00 848:  0.00
 849:  0.00 850:  0.00 851:  0.00 852:  0.00 853:  0.00 854:  0.00 855:  0.00 856:  0.00
 857:  0.00 858:  0.00 859:  0.00 860:  0.00 861:  0.00 862:  0.00 863:  0.00 864:  0.00
 865:  0.00 866:  0.00 867:  0.00 868:  0.00 869:  0.00 870:  0.00 871:  0.00 872:  0.00
 873:  0.00 874:  0.00 875:  0.00 876:  0.00 877:  0.00 878:  0.00 879:  0.00 880:  0.00
 881:  0.00 882:  0.00 883:  0.00 884:  0.00 885:  0.00 886:  0.00 887:  0.00 888:  0.00
 output can be read by thermo (or use thermo option).
 writing <g98.out> molden fake output.
 recommended (thermochemical) frequency scaling factor: 1.0
           -------------------------------------------------
          |             Thermodynamic Functions             |
           -------------------------------------------------
 symmetry recognition skipped because # atoms >         200
 inverting freq            1   5.8692880941747294     
 inverting freq            2   4.8688373993339642     
 inverting freq            3   4.3516629992032430     
 inverting freq            4   2.1261340393856503     

          ...................................................
          :                      SETUP                      :
          :.................................................:
          :  # frequencies                         882      :
          :  # imaginary freq.                       0      :
          :  linear?                             false      :
          :  only rotor calc.                    false      :
          :  symmetry                               C1      :
          :  rotational number                       1      :
          :  scaling factor                  1.0000000      :
          :  rotor cutoff                   50.0000000 cm⁻¹ :
          :  imag. cutoff                  -20.0000000 cm⁻¹ :
          :.................................................:

    mode    ω/cm⁻¹     T·S(HO)/kcal·mol⁻¹    T·S(FR)/kcal·mol⁻¹   T·S(vib)
   ------------------------------------------------------------------------
       1      5.87    -2.70416 (  0.02%)    -1.69119 ( 99.98%)    -1.69138
       2      4.87    -2.81488 (  0.01%)    -1.74655 ( 99.99%)    -1.74664
       3      4.35    -2.88141 (  0.01%)    -1.77981 ( 99.99%)    -1.77988
       4      2.13    -3.30577 (  0.00%)    -1.99200 (100.00%)    -1.99200
       5      1.98    -3.34760 (  0.00%)    -2.01291 (100.00%)    -2.01292
       6      2.68    -3.16844 (  0.00%)    -1.92333 (100.00%)    -1.92334
       7      4.26    -2.89468 (  0.01%)    -1.78645 ( 99.99%)    -1.78651
       8      4.75    -2.82995 (  0.01%)    -1.75409 ( 99.99%)    -1.75417
       9      5.59    -2.73334 (  0.02%)    -1.70578 ( 99.98%)    -1.70594
      10      6.95    -2.60415 (  0.04%)    -1.64118 ( 99.96%)    -1.64154
      11      7.18    -2.58477 (  0.04%)    -1.63149 ( 99.96%)    -1.63189
      12      8.95    -2.45425 (  0.10%)    -1.56622 ( 99.90%)    -1.56713
      13      9.61    -2.41183 (  0.14%)    -1.54500 ( 99.86%)    -1.54619
      14     11.67    -2.29715 (  0.30%)    -1.48765 ( 99.70%)    -1.49005
      15     12.47    -2.25796 (  0.38%)    -1.46805 ( 99.62%)    -1.47109
      16     13.37    -2.21638 (  0.51%)    -1.44725 ( 99.49%)    -1.45117
      17     14.20    -2.18062 (  0.65%)    -1.42937 ( 99.35%)    -1.43423
      18     14.85    -2.15414 (  0.77%)    -1.41612 ( 99.23%)    -1.42182
      19     15.34    -2.13497 (  0.88%)    -1.40653 ( 99.12%)    -1.41293
      20     17.77    -2.04791 (  1.57%)    -1.36298 ( 98.43%)    -1.37374
      21     17.83    -2.04610 (  1.59%)    -1.36208 ( 98.41%)    -1.37295
      22     19.22    -2.00156 (  2.14%)    -1.33979 ( 97.86%)    -1.35393
      23     23.58    -1.88061 (  4.71%)    -1.27926 ( 95.29%)    -1.30759
      24     26.36    -1.81460 (  7.17%)    -1.24622 ( 92.83%)    -1.28697
      25     27.18    -1.79651 (  8.03%)    -1.23716 ( 91.97%)    -1.28206
      26     31.61    -1.70721 ( 13.77%)    -1.19243 ( 86.23%)    -1.26330
      27     36.44    -1.62313 ( 22.00%)    -1.15030 ( 78.00%)    -1.25431
      28     38.85    -1.58527 ( 26.71%)    -1.13132 ( 73.29%)    -1.25255
      29     39.26    -1.57895 ( 27.55%)    -1.12815 ( 72.45%)    -1.25236
      30     39.95    -1.56874 ( 28.95%)    -1.12303 ( 71.05%)    -1.25208
      31     41.07    -1.55244 ( 31.28%)    -1.11485 ( 68.72%)    -1.25171
      32     42.65    -1.53006 ( 34.62%)    -1.10363 ( 65.38%)    -1.25127
      33     42.85    -1.52738 ( 35.04%)    -1.10228 ( 64.96%)    -1.25122
      34     45.03    -1.49808 ( 39.68%)    -1.08758 ( 60.32%)    -1.25045
      35     45.29    -1.49462 ( 40.24%)    -1.08584 ( 59.76%)    -1.25033
      36     47.61    -1.46513 ( 45.13%)    -1.07103 ( 54.87%)    -1.24888
      37     48.51    -1.45411 ( 46.98%)    -1.06550 ( 53.02%)    -1.24808
      38     49.45    -1.44283 ( 48.89%)    -1.05983 ( 51.11%)    -1.24709
      39     51.77    -1.41575 ( 53.48%)    -1.04622 ( 46.52%)    -1.24385
      40     53.25    -1.39921 ( 56.26%)    -1.03791 ( 43.74%)    -1.24118
      41     54.64    -1.38403 ( 58.78%)    -1.03028 ( 41.22%)    -1.23820
      42     56.21    -1.36729 ( 61.50%)    -1.02186 ( 38.50%)    -1.23430
      43     58.09    -1.34796 ( 64.56%)    -1.01213 ( 35.44%)    -1.22894
      44     60.89    -1.32029 ( 68.74%)    -0.99820 ( 31.26%)    -1.21960
      45     62.14    -1.30826 ( 70.47%)    -0.99214 ( 29.53%)    -1.21490
      46     62.40    -1.30581 ( 70.81%)    -0.99091 ( 29.19%)    -1.21390
      47     68.47    -1.25129 ( 77.86%)    -0.96342 ( 22.14%)    -1.18755
      48     69.83    -1.23972 ( 79.19%)    -0.95758 ( 20.81%)    -1.18101
      49     71.70    -1.22427 ( 80.87%)    -0.94978 ( 19.13%)    -1.17176
      50     72.13    -1.22073 ( 81.24%)    -0.94799 ( 18.76%)    -1.16957
      51     72.43    -1.21833 ( 81.49%)    -0.94678 ( 18.51%)    -1.16807
      52     72.89    -1.21462 ( 81.87%)    -0.94490 ( 18.13%)    -1.16572
      53     73.27    -1.21151 ( 82.18%)    -0.94333 ( 17.82%)    -1.16373
      54     73.61    -1.20885 ( 82.45%)    -0.94199 ( 17.55%)    -1.16201
      55     76.52    -1.18607 ( 84.58%)    -0.93048 ( 15.42%)    -1.14667
      56     77.37    -1.17966 ( 85.15%)    -0.92723 ( 14.85%)    -1.14216
      57     80.01    -1.16000 ( 86.77%)    -0.91728 ( 13.23%)    -1.12788
      58     82.00    -1.14563 ( 87.85%)    -0.91000 ( 12.15%)    -1.11701
      59     84.81    -1.12594 ( 89.22%)    -0.90003 ( 10.78%)    -1.10159
      60     90.10    -1.09059 ( 91.34%)    -0.88209 (  8.66%)    -1.07253
      61     96.30    -1.05184 ( 93.22%)    -0.86239 (  6.78%)    -1.03900
      62    102.10    -1.01780 ( 94.56%)    -0.84504 (  5.44%)    -1.00841
      63    103.11    -1.01209 ( 94.76%)    -0.84213 (  5.24%)    -1.00319
      64    109.84    -0.97547 ( 95.88%)    -0.82341 (  4.12%)    -0.96921
      65    117.21    -0.93793 ( 96.79%)    -0.80416 (  3.21%)    -0.93364
      66    120.43    -0.92230 ( 97.11%)    -0.79613 (  2.89%)    -0.91866
      67    122.70    -0.91154 ( 97.32%)    -0.79060 (  2.68%)    -0.90830
      68    124.46    -0.90338 ( 97.46%)    -0.78640 (  2.54%)    -0.90041
      69    125.78    -0.89733 ( 97.56%)    -0.78327 (  2.44%)    -0.89455
      70    127.23    -0.89072 ( 97.67%)    -0.77987 (  2.33%)    -0.88814
      71    127.43    -0.88983 ( 97.68%)    -0.77941 (  2.32%)    -0.88727
      72    129.08    -0.88242 ( 97.80%)    -0.77558 (  2.20%)    -0.88007
      73    130.75    -0.87507 ( 97.91%)    -0.77179 (  2.09%)    -0.87290
      74    131.35    -0.87242 ( 97.94%)    -0.77042 (  2.06%)    -0.87033
      75    131.82    -0.87038 ( 97.97%)    -0.76936 (  2.03%)    -0.86833
      76    132.76    -0.86630 ( 98.03%)    -0.76725 (  1.97%)    -0.86435
      77    134.50    -0.85888 ( 98.13%)    -0.76341 (  1.87%)    -0.85709
      78    135.71    -0.85373 ( 98.19%)    -0.76075 (  1.81%)    -0.85205
      79    139.08    -0.83972 ( 98.36%)    -0.75348 (  1.64%)    -0.83830
      80    141.04    -0.83177 ( 98.44%)    -0.74935 (  1.56%)    -0.83049
      81    141.65    -0.82930 ( 98.47%)    -0.74806 (  1.53%)    -0.82806
      82    143.20    -0.82310 ( 98.54%)    -0.74484 (  1.46%)    -0.82196
      83    164.52    -0.74453 ( 99.15%)    -0.70372 (  0.85%)    -0.74419
      84    165.32    -0.74181 ( 99.17%)    -0.70229 (  0.83%)    -0.74148
      85    166.05    -0.73933 ( 99.18%)    -0.70098 (  0.82%)    -0.73901
      86    166.58    -0.73755 ( 99.19%)    -0.70005 (  0.81%)    -0.73725
      87    167.30    -0.73510 ( 99.21%)    -0.69875 (  0.79%)    -0.73482
      88    167.86    -0.73324 ( 99.22%)    -0.69777 (  0.78%)    -0.73296
      89    168.33    -0.73168 ( 99.23%)    -0.69695 (  0.77%)    -0.73141
      90    168.67    -0.73054 ( 99.23%)    -0.69634 (  0.77%)    -0.73028
      91    181.50    -0.68958 ( 99.43%)    -0.67462 (  0.57%)    -0.68950
      92    182.29    -0.68718 ( 99.44%)    -0.67334 (  0.56%)    -0.68710
      93    182.30    -0.68714 ( 99.44%)    -0.67332 (  0.56%)    -0.68707
      94    182.84    -0.68552 ( 99.44%)    -0.67245 (  0.56%)    -0.68545
      95    182.92    -0.68526 ( 99.44%)    -0.67231 (  0.56%)    -0.68519
      96    183.08    -0.68477 ( 99.45%)    -0.67205 (  0.55%)    -0.68470
      97    183.27    -0.68420 ( 99.45%)    -0.67175 (  0.55%)    -0.68413
      98    183.58    -0.68326 ( 99.45%)    -0.67124 (  0.55%)    -0.68319
      99    184.19    -0.68142 ( 99.46%)    -0.67027 (  0.54%)    -0.68136
     100    185.56    -0.67730 ( 99.48%)    -0.66806 (  0.52%)    -0.67725
     101    188.84    -0.66762 ( 99.51%)    -0.66288 (  0.49%)    -0.66759
     102    191.29    -0.66049 ( 99.54%)    -0.65906 (  0.46%)    -0.66048
     103    191.91    -0.65871 ( 99.54%)    -0.65811 (  0.46%)    -0.65871
     104    192.66    -0.65655 ( 99.55%)    -0.65695 (  0.45%)    -0.65655
     105    192.79    -0.65618 ( 99.55%)    -0.65675 (  0.45%)    -0.65618
     106    193.18    -0.65505 ( 99.55%)    -0.65614 (  0.45%)    -0.65505
     107    193.34    -0.65460 ( 99.55%)    -0.65590 (  0.45%)    -0.65461
     108    193.37    -0.65453 ( 99.55%)    -0.65586 (  0.45%)    -0.65453
     109    194.11    -0.65243 ( 99.56%)    -0.65473 (  0.44%)    -0.65244
     110    194.30    -0.65187 ( 99.56%)    -0.65444 (  0.44%)    -0.65188
     111    195.22    -0.64928 ( 99.57%)    -0.65304 (  0.43%)    -0.64929
     112    195.49    -0.64850 ( 99.57%)    -0.65262 (  0.43%)    -0.64852
     113    195.76    -0.64777 ( 99.58%)    -0.65223 (  0.42%)    -0.64779
     114    196.04    -0.64696 ( 99.58%)    -0.65179 (  0.42%)    -0.64698
     115    196.34    -0.64614 ( 99.58%)    -0.65135 (  0.42%)    -0.64616
     116    196.63    -0.64532 ( 99.58%)    -0.65091 (  0.42%)    -0.64534
     117    196.67    -0.64521 ( 99.58%)    -0.65085 (  0.42%)    -0.64524
     118    197.23    -0.64364 ( 99.59%)    -0.65000 (  0.41%)    -0.64366
     119    197.45    -0.64304 ( 99.59%)    -0.64968 (  0.41%)    -0.64307
     120    197.83    -0.64198 ( 99.59%)    -0.64911 (  0.41%)    -0.64201
     121    197.88    -0.64182 ( 99.59%)    -0.64902 (  0.41%)    -0.64185
     122    198.41    -0.64038 ( 99.60%)    -0.64824 (  0.40%)    -0.64041
     123    198.55    -0.63998 ( 99.60%)    -0.64803 (  0.40%)    -0.64001
     124    198.76    -0.63939 ( 99.60%)    -0.64771 (  0.40%)    -0.63942
     125    199.65    -0.63694 ( 99.61%)    -0.64639 (  0.39%)    -0.63697
     126    199.88    -0.63630 ( 99.61%)    -0.64604 (  0.39%)    -0.63634
     127    201.11    -0.63295 ( 99.62%)    -0.64423 (  0.38%)    -0.63299
     128    203.36    -0.62686 ( 99.64%)    -0.64094 (  0.36%)    -0.62691
     129    203.44    -0.62663 ( 99.64%)    -0.64081 (  0.36%)    -0.62668
     130    203.85    -0.62553 ( 99.64%)    -0.64022 (  0.36%)    -0.62558
     131    204.20    -0.62461 ( 99.64%)    -0.63972 (  0.36%)    -0.62466
     132    204.40    -0.62407 ( 99.64%)    -0.63943 (  0.36%)    -0.62412
     133    204.71    -0.62324 ( 99.65%)    -0.63898 (  0.35%)    -0.62330
     134    204.98    -0.62251 ( 99.65%)    -0.63858 (  0.35%)    -0.62257
     135    205.10    -0.62220 ( 99.65%)    -0.63841 (  0.35%)    -0.62225
     136    205.46    -0.62125 ( 99.65%)    -0.63790 (  0.35%)    -0.62130
     137    211.05    -0.60660 ( 99.69%)    -0.62993 (  0.31%)    -0.60667
     138    214.29    -0.59834 ( 99.70%)    -0.62543 (  0.30%)    -0.59842
     139    217.65    -0.58990 ( 99.72%)    -0.62082 (  0.28%)    -0.58999
     140    222.97    -0.57687 ( 99.75%)    -0.61366 (  0.25%)    -0.57696
     141    225.82    -0.57003 ( 99.76%)    -0.60990 (  0.24%)    -0.57013
     142    232.58    -0.55423 ( 99.79%)    -0.60116 (  0.21%)    -0.55433
     143    236.04    -0.54636 ( 99.80%)    -0.59678 (  0.20%)    -0.54646
     144    241.57    -0.53407 ( 99.82%)    -0.58993 (  0.18%)    -0.53417
     145    250.36    -0.51521 ( 99.84%)    -0.57934 (  0.16%)    -0.51531
     146    250.66    -0.51458 ( 99.84%)    -0.57898 (  0.16%)    -0.51468
     147    259.94    -0.49558 ( 99.86%)    -0.56822 (  0.14%)    -0.49568
     148    262.36    -0.49075 ( 99.87%)    -0.56547 (  0.13%)    -0.49085
     149    262.80    -0.48988 ( 99.87%)    -0.56497 (  0.13%)    -0.48998
     150    263.32    -0.48887 ( 99.87%)    -0.56439 (  0.13%)    -0.48897
     151    263.98    -0.48756 ( 99.87%)    -0.56364 (  0.13%)    -0.48765
     152    264.62    -0.48631 ( 99.87%)    -0.56293 (  0.13%)    -0.48641
     153    264.78    -0.48600 ( 99.87%)    -0.56275 (  0.13%)    -0.48610
     154    265.32    -0.48495 ( 99.87%)    -0.56215 (  0.13%)    -0.48505
     155    265.94    -0.48373 ( 99.88%)    -0.56146 (  0.12%)    -0.48383
     156    266.27    -0.48310 ( 99.88%)    -0.56109 (  0.12%)    -0.48320
     157    268.96    -0.47791 ( 99.88%)    -0.55812 (  0.12%)    -0.47800
     158    277.64    -0.46158 ( 99.89%)    -0.54870 (  0.11%)    -0.46167
     159    278.32    -0.46034 ( 99.90%)    -0.54798 (  0.10%)    -0.46043
     160    285.23    -0.44785 ( 99.91%)    -0.54071 (  0.09%)    -0.44794
     161    289.93    -0.43958 ( 99.91%)    -0.53587 (  0.09%)    -0.43967
   ------------------------------------------------------------------------

   temp. (K)  partition function   enthalpy   heat capacity  entropy
                                   cal/mol     cal/K/mol   cal/K/mol   J/K/mol
 298.15  VIB  0.292E+91           106126.393    677.956    677.442
         ROT  0.183E+11              888.752      2.981     49.938
         INT  0.534+101           107015.145    680.937    727.380
         TR   0.171E+30             1481.254      4.968     49.973
         TOT                      108496.3990   685.9048   777.3532  3252.4459

       T/K    H(0)-H(T)+PV         H(T)/Eh          T*S/Eh         G(T)/Eh
   ------------------------------------------------------------------------
    298.15    0.172900E+00    0.221740E+01    0.369346E+00    0.184805E+01
   ------------------------------------------------------------------------

         :::::::::::::::::::::::::::::::::::::::::::::::::::::
         ::                  THERMODYNAMIC                  ::
         :::::::::::::::::::::::::::::::::::::::::::::::::::::
         :: total free energy        -510.996110537409 Eh   ::
         ::.................................................::
         :: total energy             -512.844163550155 Eh   ::
         :: zero point energy           2.044498602461 Eh   ::
         :: G(RRHO) w/o ZPVE           -0.196445589715 Eh   ::
         :: G(RRHO) contrib.            1.848053012746 Eh   ::
         :::::::::::::::::::::::::::::::::::::::::::::::::::::
imag cut-off (cm-1) :    5.00
 found            1  significant imaginary frequency
 writing imag mode distorted coords to xtbhess.xyz
 for further optimization.

optimized geometry written to: xtbopt.xyz


           -------------------------------------------------
          | TOTAL ENERGY             -512.844163550155 Eh   |
          | TOTAL ENTHALPY           -510.626764930407 Eh   |
          | TOTAL FREE ENERGY        -510.996110537409 Eh   |
          | GRADIENT NORM               0.000329009082 Eh/α |
          | HOMO-LUMO GAP               0.845210118104 eV   |
           -------------------------------------------------

------------------------------------------------------------------------
 * finished run on 2021/11/19 at 02:01:19.588     
------------------------------------------------------------------------
 total:
 * wall-time:     0 d,  1 h, 11 min, 53.786 sec
 *  cpu-time:     0 d,  1 h, 11 min, 53.817 sec
 * ratio c/w:     1.000 speedup
 SCF:
 * wall-time:     0 d,  0 h,  0 min, 13.246 sec
 *  cpu-time:     0 d,  0 h,  0 min, 13.246 sec
 * ratio c/w:     1.000 speedup
 ANC optimizer:
 * wall-time:     0 d,  0 h, 12 min, 24.641 sec
 *  cpu-time:     0 d,  0 h, 12 min, 24.629 sec
 * ratio c/w:     1.000 speedup
 analytical hessian:
 * wall-time:     0 d,  0 h, 59 min, 15.388 sec
 *  cpu-time:     0 d,  0 h, 59 min, 15.430 sec
 * ratio c/w:     1.000 speedup

