      -----------------------------------------------------------      
     |                   =====================                   |     
     |                           x T B                           |     
     |                   =====================                   |     
     |                         S. Grimme                         |     
     |          Mulliken Center for Theoretical Chemistry        |     
     |                    University of Bonn                     |     
      -----------------------------------------------------------      

   * xtb version 6.4.1 (bd6e46d) compiled by 'conda@4901f00b25ba' on 2021-06-10

   xtb is free software: you can redistribute it and/or modify it under
   the terms of the GNU Lesser General Public License as published by
   the Free Software Foundation, either version 3 of the License, or
   (at your option) any later version.
   
   xtb is distributed in the hope that it will be useful,
   but WITHOUT ANY WARRANTY; without even the implied warranty of
   MERCHANTABILITY or FITNESS FOR A PARTICULAR PURPOSE.  See the
   GNU Lesser General Public License for more details.
   
   Cite this work as:
   * C. Bannwarth, E. Caldeweyher, S. Ehlert, A. Hansen, P. Pracht,
     J. Seibert, S. Spicher, S. Grimme, WIREs Comput. Mol. Sci., 2020, 11,
     e01493. DOI: 10.1002/wcms.1493
   
   for GFN2-xTB:
   * C. Bannwarth, S. Ehlert and S. Grimme., J. Chem. Theory Comput., 2019,
     15, 1652-1671. DOI: 10.1021/acs.jctc.8b01176
   for GFN1-xTB:
   * S. Grimme, C. Bannwarth, P. Shushkov, J. Chem. Theory Comput., 2017,
     13, 1989-2009. DOI: 10.1021/acs.jctc.7b00118
   for GFN0-xTB:
   * P. Pracht, E. Caldeweyher, S. Ehlert, S. Grimme, ChemRxiv, 2019, preprint.
     DOI: 10.26434/chemrxiv.8326202.v1
   for GFN-FF:
   * S. Spicher and S. Grimme, Angew. Chem. Int. Ed., 2020, 59, 15665-15673.
     DOI: 10.1002/anie.202004239
   
   for DFT-D4:
   * E. Caldeweyher, C. Bannwarth and S. Grimme, J. Chem. Phys., 2017,
     147, 034112. DOI: 10.1063/1.4993215
   * E. Caldeweyher, S. Ehlert, A. Hansen, H. Neugebauer, S. Spicher,
     C. Bannwarth and S. Grimme, J. Chem. Phys., 2019, 150, 154122.
     DOI: 10.1063/1.5090222
   * E. Caldeweyher, J.-M. Mewes, S. Ehlert and S. Grimme, Phys. Chem. Chem. Phys.
     2020, 22, 8499-8512. DOI: 10.1039/D0CP00502A
   
   for sTDA-xTB:
   * S. Grimme and C. Bannwarth, J. Chem. Phys., 2016, 145, 054103.
     DOI: 10.1063/1.4959605
   
   in the mass-spec context:
   * V. Asgeirsson, C. Bauer and S. Grimme, Chem. Sci., 2017, 8, 4879.
     DOI: 10.1039/c7sc00601b
   * J. Koopman and S. Grimme, ACS Omega 2019, 4, 12, 15120-15133.
     DOI: 10.1021/acsomega.9b02011
   
   for metadynamics refer to:
   * S. Grimme, J. Chem. Theory Comput., 2019, 155, 2847-2862
     DOI: 10.1021/acs.jctc.9b00143
   
   for SPH calculations refer to:
   * S. Spicher and S. Grimme, J. Chem. Theory Comput., 2021, 17, 1701-1714
     DOI: 10.1021/acs.jctc.0c01306
   
   with help from (in alphabetical order)
   P. Atkinson, C. Bannwarth, F. Bohle, G. Brandenburg, E. Caldeweyher
   M. Checinski, S. Dohm, S. Ehlert, S. Ehrlich, I. Gerasimov, J. Koopman
   C. Lavigne, S. Lehtola, F. März, M. Müller, F. Musil, H. Neugebauer
   J. Pisarek, C. Plett, P. Pracht, J. Seibert, P. Shushkov, S. Spicher
   M. Stahn, M. Steiner, T. Strunk, J. Stückrath, T. Rose, and J. Unsleber
   
 * started run on 2021/11/20 at 16:02:00.900     

           -------------------------------------------------
          |                Calculation Setup                |
           -------------------------------------------------

          program call               : /home/jeff/miniconda3/bin/xtb /home/jeff/chem/final-year-proejct/Co+2_6_6_outenergy/input_structure.xyz --gfn 2 --parallel 1 --etemp 300 --chrg 0 --uhf 0 -I det_control.in
          coordinate file            : /home/jeff/chem/final-year-proejct/Co+2_6_6_outenergy/input_structure.xyz
          omp threads                :                     1
          number of atoms            :                   242
          number of electrons        :                   836
          charge                     :                     0
          spin                       :                   0.0
          first test random number   :      0.13092955175463

   ID    Z sym.   atoms
    1   27 Co     1, 37, 103, 138, 173, 208
    2    6 C      2-9, 11-15, 17-21, 23, 24, 38-45, 47-51, 53-57, 59, 60,
                  73-102, 104-111, 113-117, 119-123, 125, 126, 139-146,
                  148-152, 154-158, 160, 161, 174-181, 183-187, 189-193, 195,
                  196, 209-216, 218-222, 224-228, 230, 231
    3    7 N      10, 16, 22, 25, 46, 52, 58, 61, 112, 118, 124, 127, 147,
                  153, 159, 162, 182, 188, 194, 197, 217, 223, 229, 232
    4    1 H      26-36, 62-72, 128-137, 163-172, 198-207, 233-242

           -------------------------------------------------
          |                 G F N 2 - x T B                 |
           -------------------------------------------------

        Reference                      10.1021/acs.jctc.8b01176
      * Hamiltonian:
        H0-scaling (s, p, d)           1.850000    2.230000    2.230000
        zeta-weighting                 0.500000
      * Dispersion:
        s8                             2.700000
        a1                             0.520000
        a2                             5.000000
        s9                             5.000000
      * Repulsion:
        kExp                           1.500000    1.000000
        rExp                           1.000000
      * Coulomb:
        alpha                          2.000000
        third order                    shell-resolved
        anisotropic                    true
        a3                             3.000000
        a5                             4.000000
        cn-shift                       1.200000
        cn-exp                         4.000000
        max-rad                        5.000000


          ...................................................
          :                      SETUP                      :
          :.................................................:
          :  # basis functions                 818          :
          :  # atomic orbitals                 812          :
          :  # shells                          428          :
          :  # electrons                       836          :
          :  max. iterations                   250          :
          :  Hamiltonian                  GFN2-xTB          :
          :  restarted?                      false          :
          :  GBSA solvation                  false          :
          :  PC potential                    false          :
          :  electronic temp.          300.0000000     K    :
          :  accuracy                    1.0000000          :
          :  -> integral cutoff          0.2500000E+02      :
          :  -> integral neglect         0.1000000E-07      :
          :  -> SCF convergence          0.1000000E-05 Eh   :
          :  -> wf. convergence          0.1000000E-03 e    :
          :  Broyden damping             0.4000000          :
          ...................................................

 iter      E             dE          RMSdq      gap      omega  full diag
   1   -451.3695905 -0.451370E+03  0.804E+00    0.14       0.0  T
   2   -413.3724300  0.379972E+02  0.111E+01    0.03       1.0  T
   3   -434.6686460 -0.212962E+02  0.765E+00    0.04       1.0  T
   4   -421.5536817  0.131150E+02  0.600E+00    0.02       1.0  T
   5   -251.5929537  0.169961E+03  0.106E+01    0.01       1.0  T
   6   -414.1184439 -0.162525E+03  0.654E+00    0.01       1.0  T
   7   -433.9576185 -0.198392E+02  0.547E+00    0.12       1.0  T
   8   -441.7548587 -0.779724E+01  0.404E+00    0.00       1.0  T
   9   -450.1090587 -0.835420E+01  0.337E+00    0.04       1.0  T
  10   -450.0914502  0.176085E-01  0.326E+00    0.11       1.0  T
  11   -450.3223130 -0.230863E+00  0.318E+00    0.26       1.0  T
  12   -451.2891726 -0.966860E+00  0.300E+00    0.10       1.0  T
  13   -451.5216976 -0.232525E+00  0.292E+00    0.16       1.0  T
  14   -451.5156064  0.609119E-02  0.289E+00    0.15       1.0  T
  15   -451.6325582 -0.116952E+00  0.275E+00    0.13       1.0  T
  16   -451.7554972 -0.122939E+00  0.222E+00    0.02       1.0  T
  17   -451.8115875 -0.560902E-01  0.222E+00    0.02       1.0  T
  18   -448.0306676  0.378092E+01  0.359E+00    0.02       1.0  T
  19   -450.1132971 -0.208263E+01  0.273E+00    0.01       1.0  T
  20   -450.9393135 -0.826016E+00  0.245E+00    0.01       1.0  T
  21   -449.4402052  0.149911E+01  0.283E+00    0.01       1.0  T
  22   -444.0379385  0.540227E+01  0.473E+00    0.09       1.0  T
  23   -444.0429488 -0.501034E-02  0.472E+00    0.09       1.0  T
  24   -443.9536178  0.893310E-01  0.476E+00    0.09       1.0  T
  25   -445.9772108 -0.202359E+01  0.419E+00    0.02       1.0  T
  26   -445.7178886  0.259322E+00  0.428E+00    0.03       1.0  T
  27   -447.4432131 -0.172532E+01  0.375E+00    0.00       1.0  T
  28   -447.6873955 -0.244182E+00  0.360E+00    0.00       1.0  T
  29   -440.2253039  0.746209E+01  0.569E+00    0.08       1.0  T
  30   -440.2829559 -0.576521E-01  0.567E+00    0.07       1.0  T
  31   -440.2533869  0.295690E-01  0.568E+00    0.07       1.0  T
  32   -440.6255176 -0.372131E+00  0.556E+00    0.05       1.0  T
  33   -440.7579139 -0.132396E+00  0.557E+00    0.03       1.0  T
  34   -439.8676004  0.890313E+00  0.579E+00    0.07       1.0  T
  35   -441.6950740 -0.182747E+01  0.536E+00    0.01       1.0  T
  36   -441.6962331 -0.115905E-02  0.537E+00    0.01       1.0  T
  37   -441.6989111 -0.267804E-02  0.538E+00    0.01       1.0  T
  38   -436.4306717  0.526824E+01  0.679E+00    0.00       1.0  T
  39   -435.8272330  0.603439E+00  0.689E+00    0.00       1.0  T
  40   -435.3479272  0.479306E+00  0.697E+00    0.01       1.0  T
  41   -435.0330928  0.314834E+00  0.700E+00    0.02       1.0  T
  42   -435.8343637 -0.801271E+00  0.688E+00    0.00       1.0  T
  43   -433.9826552  0.185171E+01  0.718E+00    0.01       1.0  T
  44   -434.3679765 -0.385321E+00  0.716E+00    0.07       1.0  T
  45   -435.5705059 -0.120253E+01  0.692E+00    0.03       1.0  T
  46   -432.5925369  0.297797E+01  0.733E+00    0.19       1.0  T
  47   -435.0590886 -0.246655E+01  0.692E+00    0.04       1.0  T
  48   -440.4044602 -0.534537E+01  0.574E+00    0.02       1.0  T
  49   -440.8220611 -0.417601E+00  0.568E+00    0.01       1.0  T
  50   -435.6523493  0.516971E+01  0.693E+00    0.02       1.0  T
  51   -441.9024890 -0.625014E+01  0.547E+00    0.04       1.0  T
  52   -441.9040664 -0.157743E-02  0.543E+00    0.04       1.0  T
  53   -442.3807080 -0.476642E+00  0.523E+00    0.03       1.0  T
  54   -441.3957921  0.984916E+00  0.545E+00    0.01       1.0  T
  55   -444.5529751 -0.315718E+01  0.458E+00    0.01       1.0  T
  56   -450.1196144 -0.556664E+01  0.314E+00    0.00       1.0  T
  57   -448.7577270  0.136189E+01  0.344E+00    0.04       1.0  T
  58   -449.0143671 -0.256640E+00  0.340E+00    0.00       1.0  T
  59   -450.7917199 -0.177735E+01  0.279E+00    0.01       1.0  T
  60   -449.6196604  0.117206E+01  0.348E+00    0.05       1.0  T
  61   -449.3923925  0.227268E+00  0.358E+00    0.05       1.0  T
  62   -449.3973069 -0.491438E-02  0.357E+00    0.05       1.0  T
  63   -448.8103526  0.586954E+00  0.378E+00    0.00       1.0  T
  64   -448.8404574 -0.301049E-01  0.375E+00    0.02       1.0  T
  65   -448.7798553  0.606021E-01  0.372E+00    0.02       1.0  T
  66   -443.1842067  0.559565E+01  0.477E+00    0.03       1.0  T
  67   -443.8175789 -0.633372E+00  0.460E+00    0.01       1.0  T
  68   -443.0699472  0.747632E+00  0.491E+00    0.02       1.0  T
  69   -442.6147036  0.455244E+00  0.506E+00    0.02       1.0  T
  70   -448.7236757 -0.610897E+01  0.322E+00    0.01       1.0  T
  71   -444.6167376  0.410694E+01  0.447E+00    0.00       1.0  T
  72   -445.8552423 -0.123850E+01  0.411E+00    0.00       1.0  T
  73   -440.0447652  0.581048E+01  0.535E+00    0.03       1.0  T
  74   -441.3925293 -0.134776E+01  0.530E+00    0.01       1.0  T
  75   -441.9899857 -0.597456E+00  0.512E+00    0.02       1.0  T
  76   -444.2167999 -0.222681E+01  0.440E+00    0.01       1.0  T
  77   -444.8550351 -0.638235E+00  0.413E+00    0.01       1.0  T
  78   -444.7543383  0.100697E+00  0.412E+00    0.02       1.0  T
  79   -445.6753861 -0.921048E+00  0.375E+00    0.01       1.0  T
  80   -444.6294128  0.104597E+01  0.405E+00    0.01       1.0  T
  81   -444.8689239 -0.239511E+00  0.402E+00    0.01       1.0  T
  82   -446.4535677 -0.158464E+01  0.363E+00    0.01       1.0  T
  83   -446.6987203 -0.245153E+00  0.348E+00    0.01       1.0  T
  84   -446.8751959 -0.176476E+00  0.344E+00    0.01       1.0  T
  85   -446.9377401 -0.625441E-01  0.337E+00    0.01       1.0  T
  86   -444.0024291  0.293531E+01  0.437E+00    0.04       1.0  T
  87   -445.7009676 -0.169854E+01  0.399E+00    0.00       1.0  T
  88   -448.9465606 -0.324559E+01  0.286E+00    0.01       1.0  T
  89   -442.6180071  0.632855E+01  0.493E+00    0.05       1.0  T
  90   -447.1767149 -0.455871E+01  0.344E+00    0.02       1.0  T
  91   -444.9470942  0.222962E+01  0.417E+00    0.04       1.0  T
  92   -446.4551276 -0.150803E+01  0.377E+00    0.01       1.0  T
  93   -451.0035423 -0.454841E+01  0.232E+00    0.02       1.0  T
  94   -451.5816548 -0.578112E+00  0.184E+00    0.00       1.0  T
  95   -448.5534592  0.302820E+01  0.327E+00    0.01       1.0  T
  96   -451.7002085 -0.314675E+01  0.194E+00    0.00       1.0  T
  97   -451.1901884  0.510020E+00  0.230E+00    0.00       1.0  T
  98   -447.0285695  0.416162E+01  0.424E+00    0.04       1.0  T
  99   -450.4675639 -0.343899E+01  0.257E+00    0.01       1.0  T
 100   -450.6966968 -0.229133E+00  0.279E+00    0.05       1.0  T
 101   -449.3752112  0.132149E+01  0.313E+00    0.00       1.0  T
 102   -448.5395719  0.835639E+00  0.372E+00    0.03       1.0  T
 103   -450.8182769 -0.227871E+01  0.254E+00    0.01       1.0  T
 104   -450.0557636  0.762513E+00  0.268E+00    0.00       1.0  T
 105   -448.7279509  0.132781E+01  0.366E+00    0.01       1.0  T
 106   -451.1326499 -0.240470E+01  0.240E+00    0.02       1.0  T
 107   -450.8419951  0.290655E+00  0.274E+00    0.01       1.0  T
 108   -450.7540965  0.878986E-01  0.276E+00    0.02       1.0  T
 109   -450.9131814 -0.159085E+00  0.267E+00    0.02       1.0  T
 110   -450.5020537  0.411128E+00  0.288E+00    0.02       1.0  T
 111   -450.6913289 -0.189275E+00  0.267E+00    0.01       1.0  T
 112   -451.2271032 -0.535774E+00  0.239E+00    0.02       1.0  T
 113   -451.6644498 -0.437347E+00  0.222E+00    0.01       1.0  T
 114   -451.5028118  0.161638E+00  0.236E+00    0.01       1.0  T
 115   -451.1772783  0.325534E+00  0.257E+00    0.01       1.0  T
 116   -451.1626765  0.146017E-01  0.258E+00    0.01       1.0  T
 117   -451.3643641 -0.201688E+00  0.244E+00    0.01       1.0  T
 118   -451.5975136 -0.233149E+00  0.227E+00    0.00       1.0  T
 119   -451.7252696 -0.127756E+00  0.216E+00    0.01       1.0  T
 120   -451.8614562 -0.136187E+00  0.204E+00    0.01       1.0  T
 121   -452.1728917 -0.311435E+00  0.183E+00    0.01       1.0  T
 122   -452.0936990  0.791927E-01  0.188E+00    0.01       1.0  T
 123   -452.2049641 -0.111265E+00  0.180E+00    0.01       1.0  T
 124   -452.2640412 -0.590771E-01  0.175E+00    0.00       1.0  T
 125   -452.2506855  0.133556E-01  0.175E+00    0.01       1.0  T
 126   -452.1660506  0.846350E-01  0.180E+00    0.00       1.0  T
 127   -452.1140738  0.519768E-01  0.172E+00    0.00       1.0  T
 128   -452.0228884  0.911854E-01  0.179E+00    0.00       1.0  T
 129   -451.5502631  0.472625E+00  0.206E+00    0.02       1.0  T
 130   -451.6413613 -0.910982E-01  0.201E+00    0.01       1.0  T
 131   -451.8432785 -0.201917E+00  0.188E+00    0.00       1.0  T
 132   -451.8889990 -0.457205E-01  0.187E+00    0.00       1.0  T
 133   -451.9592980 -0.702990E-01  0.181E+00    0.01       1.0  T
 134   -451.9296482  0.296498E-01  0.184E+00    0.01       1.0  T
 135   -451.9815165 -0.518683E-01  0.179E+00    0.01       1.0  T
 136   -452.0440576 -0.625411E-01  0.174E+00    0.01       1.0  T
 137   -451.9481860  0.958716E-01  0.181E+00    0.00       1.0  T
 138   -452.4731601 -0.524974E+00  0.141E+00    0.01       1.0  T
 139   -452.1790568  0.294103E+00  0.161E+00    0.01       1.0  T
 140   -452.6063410 -0.427284E+00  0.127E+00    0.00       1.0  T
 141   -452.4245685  0.181772E+00  0.140E+00    0.00       1.0  T
 142   -452.7381679 -0.313599E+00  0.108E+00    0.00       1.0  T
 143   -452.6021639  0.136004E+00  0.121E+00    0.00       1.0  T
 144   -452.4645441  0.137620E+00  0.135E+00    0.00       1.0  T
 145   -452.5012029 -0.366589E-01  0.128E+00    0.01       1.0  T
 146   -452.7359846 -0.234782E+00  0.103E+00    0.00       1.0  T
 147   -452.7103644  0.256202E-01  0.107E+00    0.00       1.0  T
 148   -452.6862950  0.240694E-01  0.111E+00    0.01       1.0  T
 149   -452.7127745 -0.264795E-01  0.109E+00    0.01       1.0  T
 150   -452.6754317  0.373428E-01  0.112E+00    0.02       1.0  T
 151   -452.6449769  0.304548E-01  0.116E+00    0.02       1.0  T
 152   -452.6443502  0.626682E-03  0.116E+00    0.02       1.0  T
 153   -452.6652535 -0.209033E-01  0.114E+00    0.02       1.0  T
 154   -452.6240916  0.411619E-01  0.121E+00    0.01       1.0  T
 155   -452.2624297  0.361662E+00  0.156E+00    0.02       1.0  T
 156   -450.9497586  0.131267E+01  0.241E+00    0.00       1.0  T
 157   -450.0005614  0.949197E+00  0.286E+00    0.01       1.0  T
 158   -450.4811695 -0.480608E+00  0.265E+00    0.01       1.0  T
 159   -450.7350891 -0.253920E+00  0.253E+00    0.00       1.0  T
 160   -450.3881296  0.346960E+00  0.272E+00    0.01       1.0  T
 161   -451.1843057 -0.796176E+00  0.228E+00    0.01       1.0  T
 162   -451.3516414 -0.167336E+00  0.217E+00    0.01       1.0  T
 163   -451.1728451  0.178796E+00  0.226E+00    0.01       1.0  T
 164   -451.2393286 -0.664836E-01  0.222E+00    0.01       1.0  T
 165   -451.5810887 -0.341760E+00  0.201E+00    0.02       1.0  T
 166   -452.1506500 -0.569561E+00  0.161E+00    0.02       1.0  T
 167   -452.3245426 -0.173893E+00  0.148E+00    0.00       1.0  T
 168   -452.5670218 -0.242479E+00  0.125E+00    0.01       1.0  T
 169   -452.5112916  0.557302E-01  0.130E+00    0.01       1.0  T
 170   -452.5900742 -0.787826E-01  0.123E+00    0.01       1.0  T
 171   -452.6065914 -0.165172E-01  0.121E+00    0.01       1.0  T
 172   -452.6011634  0.542808E-02  0.121E+00    0.01       1.0  T
 173   -452.6009640  0.199322E-03  0.121E+00    0.01       1.0  T
 174   -452.6260358 -0.250717E-01  0.118E+00    0.01       1.0  T
 175   -452.7021415 -0.761057E-01  0.109E+00    0.01       1.0  T
 176   -452.8465435 -0.144402E+00  0.898E-01    0.00       1.0  T
 177   -452.8045337  0.420098E-01  0.949E-01    0.00       1.0  T
 178   -452.8916846 -0.871509E-01  0.822E-01    0.00       1.0  T
 179   -452.8261918  0.654928E-01  0.912E-01    0.00       1.0  T
 180   -452.7281056  0.980862E-01  0.103E+00    0.00       1.0  T
 181   -452.7437307 -0.156250E-01  0.100E+00    0.00       1.0  T
 182   -452.7872715 -0.435408E-01  0.926E-01    0.00       1.0  T
 183   -452.8153505 -0.280790E-01  0.864E-01    0.00       1.0  T
 184   -452.9020166 -0.866661E-01  0.724E-01    0.00       1.0  T
 185   -453.0335901 -0.131573E+00  0.453E-01    0.00       1.0  T
 186   -453.0401807 -0.659066E-02  0.439E-01    0.00       1.0  T
 187   -452.9617779  0.784028E-01  0.610E-01    0.01       1.0  T
 188   -453.0428822 -0.811043E-01  0.424E-01    0.01       1.0  T
 189   -453.0857783 -0.428961E-01  0.286E-01    0.01       1.0  T
 190   -453.0734096  0.123687E-01  0.319E-01    0.00       1.0  T
 191   -453.0771212 -0.371158E-02  0.307E-01    0.01       1.0  T
 192   -453.0963510 -0.192298E-01  0.216E-01    0.00       1.0  T
 193   -453.0994508 -0.309976E-02  0.194E-01    0.00       1.0  T
 194   -453.0894159  0.100349E-01  0.236E-01    0.00       1.0  T
 195   -453.0930661 -0.365026E-02  0.215E-01    0.00       1.0  T
 196   -453.0974036 -0.433749E-02  0.183E-01    0.00       1.0  T
 197   -453.0937630  0.364065E-02  0.198E-01    0.00       1.0  T
 198   -453.0924051  0.135788E-02  0.202E-01    0.00       1.0  T
 199   -453.0942627 -0.185760E-02  0.193E-01    0.00       1.0  T
 200   -453.0967857 -0.252298E-02  0.182E-01    0.00       1.0  T
 201   -453.0989771 -0.219137E-02  0.170E-01    0.00       1.0  T
 202   -453.1020878 -0.311076E-02  0.152E-01    0.00       1.0  T
 203   -453.1046796 -0.259181E-02  0.132E-01    0.00       1.0  T
 204   -453.1064648 -0.178520E-02  0.118E-01    0.00       1.0  T
 205   -453.1074709 -0.100605E-02  0.107E-01    0.00       1.0  T
 206   -453.1075019 -0.310325E-04  0.103E-01    0.00       1.0  T
 207   -453.1073037  0.198218E-03  0.105E-01    0.00       1.0  T
 208   -453.1077224 -0.418750E-03  0.101E-01    0.00       1.0  T
 209   -453.1081093 -0.386829E-03  0.967E-02    0.00       1.0  T
 210   -453.1082504 -0.141115E-03  0.949E-02    0.00       1.0  T
 211   -453.1093072 -0.105686E-02  0.832E-02    0.00       1.0  T
 212   -453.1103358 -0.102859E-02  0.699E-02    0.00       1.0  T
 213   -453.1105914 -0.255576E-03  0.653E-02    0.00       1.0  T
 214   -453.1108206 -0.229158E-03  0.601E-02    0.00       1.0  T
 215   -453.1110498 -0.229241E-03  0.547E-02    0.00       1.0  T
 216   -453.1112873 -0.237470E-03  0.488E-02    0.00       1.0  T
 217   -453.1115341 -0.246785E-03  0.418E-02    0.00       1.0  T
 218   -453.1117487 -0.214619E-03  0.348E-02    0.00       1.0  T
 219   -453.1118785 -0.129850E-03  0.296E-02    0.00       1.0  T
 220   -453.1119847 -0.106136E-03  0.243E-02    0.00       1.0  T
 221   -453.1119924 -0.770372E-05  0.235E-02    0.00       1.0  T
 222   -453.1120482 -0.558285E-04  0.195E-02    0.00       1.0  T
 223   -453.1120432  0.496754E-05  0.190E-02    0.00       1.0  T
 224   -453.1120694 -0.261955E-04  0.159E-02    0.00       1.0  T
 225   -453.1120910 -0.215423E-04  0.128E-02    0.00       1.0  T
 226   -453.1121065 -0.155591E-04  0.104E-02    0.00       1.0  T
 227   -453.1121097 -0.314751E-05  0.966E-03    0.00       1.0  T
 228   -453.1121225 -0.128153E-04  0.749E-03    0.00       1.0  T
 229   -453.1121303 -0.783597E-05  0.576E-03    0.00       1.1  T
 230   -453.1121351 -0.473377E-05  0.426E-03    0.00       1.5  T
 231   -453.1121357 -0.635482E-06  0.398E-03    0.00       1.6  T
 232   -453.1121375 -0.176718E-05  0.303E-03    0.00       2.1  T
 233   -453.1121372  0.289159E-06  0.299E-03    0.00       2.2  T
 234   -453.1121385 -0.131992E-05  0.258E-03    0.00       2.5  T
 235   -453.1121383  0.199723E-06  0.257E-03    0.00       2.5  T
 236   -453.1121385 -0.204676E-06  0.233E-03    0.00       2.8  T
 237   -453.1121385  0.114878E-07  0.222E-03    0.00       2.9  T
 238   -453.1121395 -0.106320E-05  0.131E-03    0.00       4.9  T
 239   -453.1121394  0.173557E-06  0.128E-03    0.00       5.0  T
 240   -453.1121398 -0.456824E-06  0.954E-04    0.00       6.7  T
 241   -453.1121398 -0.379220E-08  0.918E-04    0.00       7.0  T

   *** convergence criteria satisfied after 241 iterations ***

         #    Occupation            Energy/Eh            Energy/eV
      -------------------------------------------------------------
         1        2.0000           -0.6707100             -18.2509
       ...           ...                  ...                  ...
       412        1.8259           -0.3490577              -9.4983
       413        1.8258           -0.3490567              -9.4983
       414        1.8195           -0.3490197              -9.4973
       415        1.8192           -0.3490182              -9.4973
       416        1.4338           -0.3477075              -9.4616
       417        1.4321           -0.3477035              -9.4615
       418        1.4305           -0.3476997              -9.4614 (HOMO)
       419        1.4296           -0.3476976              -9.4613 (LUMO)
       420        1.4215           -0.3476788              -9.4608
       421        1.4210           -0.3476776              -9.4608
       422                         -0.3153181              -8.5802
       423                         -0.3120525              -8.4914
       ...                                ...                  ...
       812                          1.7150827              46.6698
      -------------------------------------------------------------
                  HL-Gap            0.0000021 Eh            0.0001 eV
             Fermi-level           -0.3468247 Eh           -9.4376 eV

 SCC (total)                   0 d,  0 h,  0 min, 48.792 sec
 SCC setup                      ...        0 min,  0.010 sec (  0.021%)
 Dispersion                     ...        0 min,  0.021 sec (  0.043%)
 classical contributions        ...        0 min,  0.002 sec (  0.004%)
 integral evaluation            ...        0 min,  0.171 sec (  0.350%)
 iterations                     ...        0 min, 48.145 sec ( 98.675%)
 molecular gradient             ...        0 min,  0.417 sec (  0.855%)
 printout                       ...        0 min,  0.025 sec (  0.052%)

         :::::::::::::::::::::::::::::::::::::::::::::::::::::
         ::                     SUMMARY                     ::
         :::::::::::::::::::::::::::::::::::::::::::::::::::::
         :: total energy            -444.711828104507 Eh    ::
         :: gradient norm              0.000661583322 Eh/a0 ::
         :: HOMO-LUMO gap              0.000056982369 eV    ::
         ::.................................................::
         :: SCC energy              -453.112139832276 Eh    ::
         :: -> isotropic ES            0.097209098496 Eh    ::
         :: -> anisotropic ES          0.047641414104 Eh    ::
         :: -> anisotropic XC          0.273254427283 Eh    ::
         :: -> dispersion             -0.387819654215 Eh    ::
         :: repulsion energy           8.406721618575 Eh    ::
         :: add. restraining           0.000000000000 Eh    ::
         :: total charge               0.000000001211 e     ::
         :::::::::::::::::::::::::::::::::::::::::::::::::::::

           -------------------------------------------------
          |                Property Printout                |
           -------------------------------------------------

    * Orbital Energies and Occupations

         #    Occupation            Energy/Eh            Energy/eV
      -------------------------------------------------------------
         1        2.0000           -0.6707100             -18.2509
       ...           ...                  ...                  ...
       406        1.8598           -0.3492809              -9.5044
       407        1.8562           -0.3492545              -9.5037
       408        1.8546           -0.3492432              -9.5034
       409        1.8542           -0.3492404              -9.5033
       410        1.8262           -0.3490592              -9.4984
       411        1.8260           -0.3490580              -9.4984
       412        1.8259           -0.3490577              -9.4983
       413        1.8258           -0.3490567              -9.4983
       414        1.8195           -0.3490197              -9.4973
       415        1.8192           -0.3490182              -9.4973
       416        1.4338           -0.3477075              -9.4616
       417        1.4321           -0.3477035              -9.4615
       418        1.4305           -0.3476997              -9.4614 (HOMO)
       419        1.4296           -0.3476976              -9.4613 (LUMO)
       420        1.4215           -0.3476788              -9.4608
       421        1.4210           -0.3476776              -9.4608
       422                         -0.3153181              -8.5802
       423                         -0.3120525              -8.4914
       424                         -0.3075809              -8.3697
       425                         -0.3026503              -8.2355
       426                         -0.2981826              -8.1140
       427                         -0.2981820              -8.1139
       428                         -0.2981456              -8.1130
       429                         -0.2981333              -8.1126
       ...                                ...                  ...
       812                          1.7150827              46.6698
      -------------------------------------------------------------
                  HL-Gap            0.0000021 Eh            0.0001 eV
             Fermi-level           -0.3468247 Eh           -9.4376 eV

     #   Z          covCN         q      C6AA      α(0)
     1  27 Co       3.054     0.104   140.868    24.317
     2   6 C        3.025    -0.053    29.287     8.877
     3   6 C        3.022    -0.051    29.251     8.872
     4   6 C        3.195     0.073    25.877     8.294
     5   6 C        2.956     0.017    27.630     8.622
     6   6 C        3.195     0.073    25.877     8.294
     7   6 C        3.022    -0.051    29.250     8.871
     8   6 C        3.025    -0.053    29.287     8.877
     9   6 C        3.181     0.072    25.984     8.321
    10   7 N        2.630    -0.131    23.859     7.254
    11   6 C        2.905    -0.050    29.238     8.866
    12   6 C        3.177     0.073    25.979     8.323
    13   6 C        3.021    -0.052    29.267     8.874
    14   6 C        3.022    -0.052    29.269     8.874
    15   6 C        3.177     0.073    25.972     8.322
    16   7 N        2.631    -0.130    23.824     7.249
    17   6 C        2.905    -0.052    29.282     8.873
    18   6 C        3.177     0.073    25.972     8.322
    19   6 C        3.022    -0.052    29.269     8.874
    20   6 C        3.021    -0.052    29.267     8.874
    21   6 C        3.177     0.073    25.979     8.323
    22   7 N        2.631    -0.130    23.824     7.249
    23   6 C        2.905    -0.050    29.238     8.866
    24   6 C        3.181     0.072    25.984     8.321
    25   7 N        2.630    -0.131    23.859     7.254
    26   1 H        0.926     0.034     2.525     2.485
    27   1 H        0.926     0.037     2.494     2.470
    28   1 H        0.926     0.037     2.494     2.470
    29   1 H        0.926     0.034     2.525     2.485
    30   1 H        0.926     0.050     2.320     2.382
    31   1 H        0.926     0.035     2.518     2.481
    32   1 H        0.926     0.035     2.519     2.482
    33   1 H        0.926     0.049     2.328     2.386
    34   1 H        0.926     0.035     2.519     2.482
    35   1 H        0.926     0.035     2.518     2.481
    36   1 H        0.926     0.050     2.320     2.382
    37  27 Co       3.054     0.104   140.869    24.317
    38   6 C        3.025    -0.053    29.287     8.877
    39   6 C        3.022    -0.051    29.251     8.872
    40   6 C        3.195     0.073    25.879     8.294
    41   6 C        2.956     0.017    27.629     8.622
    42   6 C        3.195     0.073    25.879     8.294
    43   6 C        3.022    -0.051    29.250     8.871
    44   6 C        3.025    -0.053    29.287     8.877
    45   6 C        3.180     0.072    25.985     8.321
    46   7 N        2.630    -0.131    23.858     7.254
    47   6 C        2.905    -0.050    29.239     8.866
    48   6 C        3.177     0.073    25.979     8.323
    49   6 C        3.021    -0.052    29.267     8.874
    50   6 C        3.022    -0.052    29.269     8.874
    51   6 C        3.177     0.073    25.973     8.322
    52   7 N        2.631    -0.130    23.824     7.249
    53   6 C        2.905    -0.052    29.282     8.873
    54   6 C        3.177     0.073    25.973     8.322
    55   6 C        3.022    -0.052    29.269     8.874
    56   6 C        3.021    -0.052    29.267     8.874
    57   6 C        3.177     0.073    25.979     8.323
    58   7 N        2.631    -0.130    23.824     7.249
    59   6 C        2.905    -0.050    29.238     8.866
    60   6 C        3.180     0.072    25.985     8.321
    61   7 N        2.630    -0.131    23.858     7.254
    62   1 H        0.926     0.034     2.524     2.485
    63   1 H        0.926     0.037     2.494     2.470
    64   1 H        0.926     0.037     2.494     2.470
    65   1 H        0.926     0.034     2.525     2.485
    66   1 H        0.926     0.050     2.320     2.382
    67   1 H        0.926     0.035     2.518     2.481
    68   1 H        0.926     0.035     2.519     2.482
    69   1 H        0.926     0.049     2.328     2.386
    70   1 H        0.926     0.035     2.519     2.482
    71   1 H        0.926     0.035     2.518     2.481
    72   1 H        0.926     0.050     2.320     2.382
    73   6 C        1.993    -0.020    31.571     9.074
    74   6 C        1.963    -0.010    31.341     9.041
    75   6 C        1.964    -0.002    31.127     9.010
    76   6 C        1.964    -0.002    31.133     9.011
    77   6 C        1.963    -0.010    31.335     9.040
    78   6 C        1.993    -0.020    31.576     9.075
    79   6 C        1.993    -0.020    31.570     9.074
    80   6 C        1.963    -0.010    31.336     9.040
    81   6 C        1.964    -0.002    31.127     9.010
    82   6 C        1.964    -0.002    31.128     9.010
    83   6 C        1.963    -0.010    31.334     9.040
    84   6 C        1.993    -0.020    31.571     9.074
    85   6 C        1.993    -0.020    31.570     9.074
    86   6 C        1.963    -0.010    31.334     9.040
    87   6 C        1.964    -0.002    31.126     9.010
    88   6 C        1.964    -0.002    31.126     9.010
    89   6 C        1.963    -0.010    31.334     9.040
    90   6 C        1.993    -0.020    31.570     9.074
    91   6 C        1.993    -0.020    31.571     9.074
    92   6 C        1.963    -0.010    31.334     9.040
    93   6 C        1.964    -0.002    31.128     9.010
    94   6 C        1.964    -0.002    31.127     9.010
    95   6 C        1.963    -0.010    31.335     9.040
    96   6 C        1.993    -0.020    31.570     9.074
    97   6 C        1.993    -0.020    31.575     9.075
    98   6 C        1.963    -0.010    31.334     9.040
    99   6 C        1.964    -0.002    31.132     9.011
   100   6 C        1.964    -0.002    31.127     9.010
   101   6 C        1.963    -0.010    31.340     9.041
   102   6 C        1.993    -0.020    31.570     9.074
   103  27 Co       3.048     0.103   140.882    24.318
   104   6 C        3.025    -0.053    29.285     8.877
   105   6 C        3.023    -0.052    29.253     8.872
   106   6 C        3.197     0.073    25.858     8.289
   107   6 C        2.956     0.017    27.628     8.621
   108   6 C        3.197     0.073    25.860     8.290
   109   6 C        3.023    -0.051    29.252     8.872
   110   6 C        3.025    -0.053    29.285     8.877
   111   6 C        3.182     0.072    25.977     8.319
   112   7 N        2.629    -0.132    23.875     7.257
   113   6 C        2.905    -0.048    29.187     8.858
   114   6 C        3.182     0.072    25.977     8.319
   115   6 C        3.025    -0.053    29.284     8.877
   116   6 C        3.023    -0.052    29.253     8.872
   117   6 C        3.197     0.073    25.858     8.289
   118   7 N        2.629    -0.132    23.875     7.257
   119   6 C        2.956     0.017    27.630     8.622
   120   6 C        3.197     0.073    25.858     8.289
   121   6 C        3.023    -0.052    29.253     8.872
   122   6 C        3.025    -0.053    29.284     8.877
   123   6 C        3.182     0.072    25.977     8.319
   124   7 N        2.629    -0.132    23.875     7.257
   125   6 C        2.905    -0.048    29.187     8.858
   126   6 C        3.182     0.072    25.977     8.319
   127   7 N        2.629    -0.132    23.874     7.257
   128   1 H        0.926     0.034     2.527     2.486
   129   1 H        0.926     0.036     2.498     2.472
   130   1 H        0.926     0.036     2.498     2.472
   131   1 H        0.926     0.034     2.527     2.486
   132   1 H        0.926     0.050     2.315     2.379
   133   1 H        0.926     0.034     2.527     2.486
   134   1 H        0.926     0.036     2.498     2.472
   135   1 H        0.926     0.036     2.498     2.472
   136   1 H        0.926     0.034     2.527     2.486
   137   1 H        0.926     0.050     2.315     2.379
   138  27 Co       3.048     0.103   140.885    24.318
   139   6 C        3.025    -0.053    29.284     8.877
   140   6 C        3.023    -0.052    29.253     8.872
   141   6 C        3.197     0.073    25.858     8.289
   142   6 C        2.956     0.017    27.628     8.621
   143   6 C        3.197     0.073    25.857     8.289
   144   6 C        3.023    -0.051    29.252     8.872
   145   6 C        3.025    -0.053    29.284     8.877
   146   6 C        3.182     0.072    25.977     8.319
   147   7 N        2.629    -0.132    23.873     7.257
   148   6 C        2.905    -0.048    29.185     8.858
   149   6 C        3.182     0.072    25.977     8.319
   150   6 C        3.025    -0.053    29.284     8.877
   151   6 C        3.023    -0.052    29.253     8.872
   152   6 C        3.197     0.073    25.857     8.289
   153   7 N        2.629    -0.132    23.873     7.257
   154   6 C        2.956     0.017    27.628     8.621
   155   6 C        3.197     0.073    25.858     8.289
   156   6 C        3.023    -0.052    29.253     8.872
   157   6 C        3.025    -0.053    29.284     8.877
   158   6 C        3.182     0.072    25.977     8.319
   159   7 N        2.629    -0.132    23.874     7.257
   160   6 C        2.905    -0.048    29.185     8.858
   161   6 C        3.182     0.072    25.977     8.319
   162   7 N        2.629    -0.132    23.874     7.257
   163   1 H        0.926     0.034     2.526     2.485
   164   1 H        0.926     0.036     2.498     2.471
   165   1 H        0.926     0.036     2.498     2.472
   166   1 H        0.926     0.034     2.526     2.486
   167   1 H        0.926     0.050     2.314     2.379
   168   1 H        0.926     0.034     2.526     2.485
   169   1 H        0.926     0.036     2.498     2.472
   170   1 H        0.926     0.036     2.498     2.472
   171   1 H        0.926     0.034     2.526     2.485
   172   1 H        0.926     0.050     2.314     2.379
   173  27 Co       3.048     0.103   140.885    24.318
   174   6 C        3.025    -0.053    29.284     8.877
   175   6 C        3.023    -0.052    29.253     8.872
   176   6 C        3.197     0.073    25.858     8.289
   177   6 C        2.956     0.017    27.628     8.621
   178   6 C        3.197     0.073    25.857     8.289
   179   6 C        3.023    -0.051    29.252     8.872
   180   6 C        3.025    -0.053    29.284     8.877
   181   6 C        3.182     0.072    25.977     8.319
   182   7 N        2.629    -0.132    23.874     7.257
   183   6 C        2.905    -0.048    29.185     8.858
   184   6 C        3.182     0.072    25.978     8.319
   185   6 C        3.025    -0.053    29.284     8.877
   186   6 C        3.023    -0.051    29.252     8.872
   187   6 C        3.197     0.073    25.859     8.290
   188   7 N        2.629    -0.132    23.873     7.257
   189   6 C        2.956     0.017    27.628     8.621
   190   6 C        3.197     0.073    25.859     8.289
   191   6 C        3.023    -0.052    29.253     8.872
   192   6 C        3.025    -0.053    29.284     8.877
   193   6 C        3.182     0.072    25.977     8.319
   194   7 N        2.629    -0.132    23.873     7.257
   195   6 C        2.905    -0.048    29.185     8.858
   196   6 C        3.182     0.072    25.977     8.319
   197   7 N        2.629    -0.132    23.874     7.257
   198   1 H        0.926     0.034     2.526     2.485
   199   1 H        0.926     0.036     2.498     2.471
   200   1 H        0.926     0.036     2.498     2.472
   201   1 H        0.926     0.034     2.526     2.486
   202   1 H        0.926     0.050     2.314     2.379
   203   1 H        0.926     0.034     2.526     2.486
   204   1 H        0.926     0.036     2.498     2.472
   205   1 H        0.926     0.036     2.498     2.472
   206   1 H        0.926     0.034     2.526     2.485
   207   1 H        0.926     0.050     2.314     2.379
   208  27 Co       3.048     0.103   140.883    24.318
   209   6 C        3.025    -0.053    29.284     8.877
   210   6 C        3.023    -0.052    29.253     8.872
   211   6 C        3.197     0.073    25.859     8.290
   212   6 C        2.956     0.017    27.630     8.622
   213   6 C        3.197     0.073    25.859     8.290
   214   6 C        3.023    -0.052    29.252     8.872
   215   6 C        3.025    -0.053    29.284     8.877
   216   6 C        3.182     0.072    25.978     8.319
   217   7 N        2.629    -0.132    23.875     7.257
   218   6 C        2.905    -0.048    29.187     8.859
   219   6 C        3.182     0.072    25.977     8.319
   220   6 C        3.025    -0.053    29.285     8.877
   221   6 C        3.023    -0.051    29.252     8.872
   222   6 C        3.197     0.073    25.860     8.290
   223   7 N        2.629    -0.132    23.874     7.257
   224   6 C        2.956     0.017    27.628     8.621
   225   6 C        3.197     0.073    25.861     8.290
   226   6 C        3.023    -0.051    29.252     8.872
   227   6 C        3.025    -0.053    29.285     8.877
   228   6 C        3.182     0.072    25.978     8.319
   229   7 N        2.629    -0.132    23.875     7.257
   230   6 C        2.905    -0.048    29.187     8.859
   231   6 C        3.182     0.072    25.978     8.319
   232   7 N        2.629    -0.132    23.875     7.257
   233   1 H        0.926     0.034     2.527     2.486
   234   1 H        0.926     0.036     2.498     2.472
   235   1 H        0.926     0.036     2.498     2.472
   236   1 H        0.926     0.034     2.527     2.486
   237   1 H        0.926     0.050     2.315     2.379
   238   1 H        0.926     0.034     2.527     2.486
   239   1 H        0.926     0.036     2.498     2.472
   240   1 H        0.926     0.036     2.498     2.472
   241   1 H        0.926     0.034     2.527     2.486
   242   1 H        0.926     0.050     2.315     2.379

 Mol. C6AA /au·bohr⁶  :    1175871.408674
 Mol. C8AA /au·bohr⁸  :   34198649.757230
 Mol. α(0) /au        :       1778.606819


Wiberg/Mayer (AO) data.
largest (>0.10) Wiberg bond orders for each atom

 ---------------------------------------------------------------------------
     #   Z sym  total        # sym  WBO       # sym  WBO       # sym  WBO
 ---------------------------------------------------------------------------
     1  27 Co   3.326 --    16 N    0.724    22 N    0.724    10 N    0.722
                            25 N    0.722
     2   6 C    3.952 --     3 C    1.641    24 C    1.174    26 H    0.972
     3   6 C    3.956 --     2 C    1.641     4 C    1.184    27 H    0.970
     4   6 C    3.915 --    25 N    1.261     5 C    1.256     3 C    1.184
     5   6 C    3.947 --     6 C    1.256     4 C    1.256    73 C    1.181
     6   6 C    3.915 --    10 N    1.261     5 C    1.256     7 C    1.184
     7   6 C    3.956 --     8 C    1.641     6 C    1.184    28 H    0.970
     8   6 C    3.952 --     7 C    1.641     9 C    1.174    29 H    0.972
     9   6 C    3.929 --    11 C    1.359    10 N    1.227     8 C    1.174
    10   7 N    3.514 --     6 C    1.261     9 C    1.227     1 Co   0.722
    11   6 C    3.938 --     9 C    1.359    12 C    1.359    30 H    0.963
    12   6 C    3.934 --    11 C    1.359    16 N    1.239    13 C    1.166
    13   6 C    3.957 --    14 C    1.657    12 C    1.166    31 H    0.972
    14   6 C    3.954 --    13 C    1.657    15 C    1.165    32 H    0.972
    15   6 C    3.936 --    17 C    1.358    16 N    1.242    14 C    1.165
    16   7 N    3.509 --    15 C    1.242    12 C    1.239     1 Co   0.724
    17   6 C    3.934 --    15 C    1.358    18 C    1.358    33 H    0.964
    18   6 C    3.936 --    17 C    1.358    22 N    1.242    19 C    1.165
    19   6 C    3.954 --    20 C    1.657    18 C    1.165    34 H    0.972
    20   6 C    3.957 --    19 C    1.657    21 C    1.166    35 H    0.972
    21   6 C    3.934 --    23 C    1.359    22 N    1.239    20 C    1.166
    22   7 N    3.509 --    18 C    1.242    21 C    1.239     1 Co   0.724
    23   6 C    3.938 --    24 C    1.359    21 C    1.359    36 H    0.963
    24   6 C    3.929 --    23 C    1.359    25 N    1.227     2 C    1.174
    25   7 N    3.514 --     4 C    1.261    24 C    1.227     1 Co   0.722
    26   1 H    0.998 --     2 C    0.972
    27   1 H    0.998 --     3 C    0.970
    28   1 H    0.998 --     7 C    0.970
    29   1 H    0.998 --     8 C    0.972
    30   1 H    0.996 --    11 C    0.963
    31   1 H    0.998 --    13 C    0.972
    32   1 H    0.998 --    14 C    0.972
    33   1 H    0.996 --    17 C    0.964
    34   1 H    0.998 --    19 C    0.972
    35   1 H    0.998 --    20 C    0.972
    36   1 H    0.996 --    23 C    0.963
    37  27 Co   3.326 --    52 N    0.724    58 N    0.724    61 N    0.722
                            46 N    0.722
    38   6 C    3.952 --    39 C    1.641    60 C    1.174    62 H    0.972
    39   6 C    3.956 --    38 C    1.641    40 C    1.183    63 H    0.970
    40   6 C    3.915 --    61 N    1.261    41 C    1.256    39 C    1.183
    41   6 C    3.947 --    42 C    1.256    40 C    1.256   102 C    1.181
    42   6 C    3.915 --    46 N    1.261    41 C    1.256    43 C    1.183
    43   6 C    3.956 --    44 C    1.641    42 C    1.183    64 H    0.970
    44   6 C    3.952 --    43 C    1.641    45 C    1.174    65 H    0.972
    45   6 C    3.929 --    47 C    1.359    46 N    1.227    44 C    1.174
    46   7 N    3.514 --    42 C    1.261    45 C    1.227    37 Co   0.722
    47   6 C    3.938 --    45 C    1.359    48 C    1.359    66 H    0.963
    48   6 C    3.934 --    47 C    1.359    52 N    1.239    49 C    1.166
    49   6 C    3.957 --    50 C    1.657    48 C    1.166    67 H    0.972
    50   6 C    3.954 --    49 C    1.657    51 C    1.165    68 H    0.972
    51   6 C    3.936 --    53 C    1.358    52 N    1.242    50 C    1.165
    52   7 N    3.509 --    51 C    1.242    48 C    1.239    37 Co   0.724
    53   6 C    3.935 --    51 C    1.358    54 C    1.358    69 H    0.964
    54   6 C    3.936 --    53 C    1.358    58 N    1.242    55 C    1.165
    55   6 C    3.954 --    56 C    1.657    54 C    1.165    70 H    0.972
    56   6 C    3.957 --    55 C    1.657    57 C    1.166    71 H    0.972
    57   6 C    3.934 --    59 C    1.359    58 N    1.239    56 C    1.166
    58   7 N    3.509 --    54 C    1.242    57 C    1.239    37 Co   0.724
    59   6 C    3.938 --    60 C    1.359    57 C    1.359    72 H    0.963
    60   6 C    3.929 --    59 C    1.359    61 N    1.227    38 C    1.174
    61   7 N    3.514 --    40 C    1.261    60 C    1.227    37 Co   0.722
    62   1 H    0.998 --    38 C    0.972
    63   1 H    0.998 --    39 C    0.970
    64   1 H    0.998 --    43 C    0.970
    65   1 H    0.998 --    44 C    0.972
    66   1 H    0.996 --    47 C    0.963
    67   1 H    0.998 --    49 C    0.972
    68   1 H    0.998 --    50 C    0.972
    69   1 H    0.996 --    53 C    0.964
    70   1 H    0.998 --    55 C    0.972
    71   1 H    0.998 --    56 C    0.972
    72   1 H    0.996 --    59 C    0.963
    73   6 C    3.884 --    74 C    2.449     5 C    1.181    76 C    0.194
    74   6 C    3.931 --    73 C    2.449    75 C    1.328
    75   6 C    3.920 --    76 C    2.362    74 C    1.328    78 C    0.193
    76   6 C    3.922 --    75 C    2.362    77 C    1.329    73 C    0.194
    77   6 C    3.928 --    78 C    2.447    76 C    1.329
    78   6 C    3.884 --    77 C    2.447   107 C    1.184    75 C    0.193
    79   6 C    3.883 --    80 C    2.445   119 C    1.185    82 C    0.193
    80   6 C    3.928 --    79 C    2.445    81 C    1.331
    81   6 C    3.920 --    82 C    2.360    80 C    1.331    84 C    0.193
    82   6 C    3.920 --    81 C    2.360    83 C    1.331    79 C    0.193
    83   6 C    3.928 --    84 C    2.445    82 C    1.331
    84   6 C    3.883 --    83 C    2.445   142 C    1.185    81 C    0.193
    85   6 C    3.883 --    86 C    2.445   154 C    1.185    88 C    0.193
    86   6 C    3.928 --    85 C    2.445    87 C    1.331
    87   6 C    3.920 --    88 C    2.359    86 C    1.331    90 C    0.193
    88   6 C    3.920 --    87 C    2.359    89 C    1.331    85 C    0.193
    89   6 C    3.928 --    90 C    2.445    88 C    1.331
    90   6 C    3.883 --    89 C    2.445   177 C    1.185    87 C    0.193
    91   6 C    3.883 --    92 C    2.445   189 C    1.185    94 C    0.193
    92   6 C    3.928 --    91 C    2.445    93 C    1.331
    93   6 C    3.920 --    94 C    2.360    92 C    1.331    96 C    0.193
    94   6 C    3.920 --    93 C    2.360    95 C    1.330    91 C    0.193
    95   6 C    3.928 --    96 C    2.445    94 C    1.330
    96   6 C    3.883 --    95 C    2.445   212 C    1.184    93 C    0.193
    97   6 C    3.884 --    98 C    2.447   224 C    1.183   100 C    0.193
    98   6 C    3.928 --    97 C    2.447    99 C    1.329
    99   6 C    3.921 --   100 C    2.363    98 C    1.329   102 C    0.194
   100   6 C    3.920 --    99 C    2.363   101 C    1.328    97 C    0.193
   101   6 C    3.931 --   102 C    2.450   100 C    1.328
   102   6 C    3.884 --   101 C    2.450    41 C    1.181    99 C    0.194
   103  27 Co   3.302 --   127 N    0.718   112 N    0.718   118 N    0.718
                           124 N    0.718
   104   6 C    3.953 --   105 C    1.641   126 C    1.175   128 H    0.972
   105   6 C    3.955 --   104 C    1.641   106 C    1.184   129 H    0.970
   106   6 C    3.915 --   127 N    1.264   107 C    1.254   105 C    1.184
   107   6 C    3.937 --   108 C    1.254   106 C    1.254    78 C    1.184
   108   6 C    3.915 --   112 N    1.264   107 C    1.254   109 C    1.184
   109   6 C    3.955 --   110 C    1.641   108 C    1.184   130 H    0.970
   110   6 C    3.953 --   109 C    1.641   111 C    1.175   131 H    0.972
   111   6 C    3.928 --   113 C    1.359   112 N    1.226   110 C    1.175
   112   7 N    3.505 --   108 C    1.264   111 C    1.226   103 Co   0.718
   113   6 C    3.932 --   114 C    1.359   111 C    1.359   132 H    0.963
   114   6 C    3.928 --   113 C    1.359   118 N    1.226   115 C    1.175
   115   6 C    3.953 --   116 C    1.641   114 C    1.175   133 H    0.972
   116   6 C    3.955 --   115 C    1.641   117 C    1.184   134 H    0.970
   117   6 C    3.915 --   118 N    1.264   119 C    1.253   116 C    1.184
   118   7 N    3.505 --   117 C    1.264   114 C    1.226   103 Co   0.718
   119   6 C    3.937 --   117 C    1.253   120 C    1.253    79 C    1.185
   120   6 C    3.915 --   124 N    1.264   119 C    1.253   121 C    1.184
   121   6 C    3.955 --   122 C    1.641   120 C    1.184   135 H    0.970
   122   6 C    3.953 --   121 C    1.641   123 C    1.175   136 H    0.972
   123   6 C    3.928 --   125 C    1.359   124 N    1.226   122 C    1.175
   124   7 N    3.505 --   120 C    1.264   123 C    1.226   103 Co   0.718
   125   6 C    3.932 --   123 C    1.359   126 C    1.359   137 H    0.963
   126   6 C    3.928 --   125 C    1.359   127 N    1.226   104 C    1.175
   127   7 N    3.505 --   106 C    1.264   126 C    1.226   103 Co   0.718
   128   1 H    0.998 --   104 C    0.972
   129   1 H    0.998 --   105 C    0.970
   130   1 H    0.998 --   109 C    0.970
   131   1 H    0.998 --   110 C    0.972
   132   1 H    0.996 --   113 C    0.963
   133   1 H    0.998 --   115 C    0.972
   134   1 H    0.998 --   116 C    0.970
   135   1 H    0.998 --   121 C    0.970
   136   1 H    0.998 --   122 C    0.972
   137   1 H    0.996 --   125 C    0.963
   138  27 Co   3.302 --   147 N    0.718   153 N    0.718   162 N    0.718
                           159 N    0.718
   139   6 C    3.953 --   140 C    1.640   161 C    1.175   163 H    0.972
   140   6 C    3.955 --   139 C    1.640   141 C    1.184   164 H    0.970
   141   6 C    3.915 --   162 N    1.265   142 C    1.253   140 C    1.184
   142   6 C    3.937 --   143 C    1.253   141 C    1.253    84 C    1.185
   143   6 C    3.915 --   147 N    1.265   142 C    1.253   144 C    1.184
   144   6 C    3.955 --   145 C    1.641   143 C    1.184   165 H    0.970
   145   6 C    3.953 --   144 C    1.641   146 C    1.175   166 H    0.972
   146   6 C    3.928 --   148 C    1.359   147 N    1.226   145 C    1.175
   147   7 N    3.505 --   143 C    1.265   146 C    1.226   138 Co   0.718
   148   6 C    3.932 --   149 C    1.359   146 C    1.359   167 H    0.963
   149   6 C    3.928 --   148 C    1.359   153 N    1.226   150 C    1.175
   150   6 C    3.953 --   151 C    1.641   149 C    1.175   168 H    0.972
   151   6 C    3.955 --   150 C    1.641   152 C    1.184   169 H    0.970
   152   6 C    3.915 --   153 N    1.265   154 C    1.253   151 C    1.184
   153   7 N    3.505 --   152 C    1.265   149 C    1.226   138 Co   0.718
   154   6 C    3.937 --   152 C    1.253   155 C    1.253    85 C    1.185
   155   6 C    3.915 --   159 N    1.265   154 C    1.253   156 C    1.184
   156   6 C    3.955 --   157 C    1.640   155 C    1.184   170 H    0.970
   157   6 C    3.953 --   156 C    1.640   158 C    1.175   171 H    0.972
   158   6 C    3.928 --   160 C    1.359   159 N    1.226   157 C    1.175
   159   7 N    3.505 --   155 C    1.265   158 C    1.226   138 Co   0.718
   160   6 C    3.932 --   158 C    1.359   161 C    1.359   172 H    0.963
   161   6 C    3.928 --   160 C    1.359   162 N    1.226   139 C    1.175
   162   7 N    3.505 --   141 C    1.265   161 C    1.226   138 Co   0.718
   163   1 H    0.998 --   139 C    0.972
   164   1 H    0.998 --   140 C    0.970
   165   1 H    0.998 --   144 C    0.970
   166   1 H    0.998 --   145 C    0.972
   167   1 H    0.996 --   148 C    0.963
   168   1 H    0.998 --   150 C    0.972
   169   1 H    0.998 --   151 C    0.970
   170   1 H    0.998 --   156 C    0.970
   171   1 H    0.998 --   157 C    0.972
   172   1 H    0.996 --   160 C    0.963
   173  27 Co   3.302 --   188 N    0.718   194 N    0.718   182 N    0.718
                           197 N    0.718
   174   6 C    3.953 --   175 C    1.641   196 C    1.175   198 H    0.972
   175   6 C    3.955 --   174 C    1.641   176 C    1.184   199 H    0.970
   176   6 C    3.915 --   197 N    1.265   177 C    1.253   175 C    1.184
   177   6 C    3.937 --   178 C    1.253   176 C    1.253    90 C    1.185
   178   6 C    3.915 --   182 N    1.265   177 C    1.253   179 C    1.184
   179   6 C    3.955 --   180 C    1.641   178 C    1.184   200 H    0.970
   180   6 C    3.953 --   179 C    1.641   181 C    1.175   201 H    0.972
   181   6 C    3.928 --   183 C    1.359   182 N    1.226   180 C    1.175
   182   7 N    3.505 --   178 C    1.265   181 C    1.226   173 Co   0.718
   183   6 C    3.932 --   181 C    1.359   184 C    1.359   202 H    0.963
   184   6 C    3.928 --   183 C    1.359   188 N    1.226   185 C    1.175
   185   6 C    3.953 --   186 C    1.640   184 C    1.175   203 H    0.972
   186   6 C    3.955 --   185 C    1.640   187 C    1.184   204 H    0.970
   187   6 C    3.915 --   188 N    1.264   189 C    1.253   186 C    1.184
   188   7 N    3.505 --   187 C    1.264   184 C    1.226   173 Co   0.718
   189   6 C    3.937 --   187 C    1.253   190 C    1.253    91 C    1.185
   190   6 C    3.915 --   194 N    1.264   189 C    1.253   191 C    1.184
   191   6 C    3.955 --   192 C    1.640   190 C    1.184   205 H    0.970
   192   6 C    3.953 --   191 C    1.640   193 C    1.175   206 H    0.972
   193   6 C    3.928 --   195 C    1.359   194 N    1.226   192 C    1.175
   194   7 N    3.505 --   190 C    1.264   193 C    1.226   173 Co   0.718
   195   6 C    3.932 --   196 C    1.359   193 C    1.359   207 H    0.963
   196   6 C    3.928 --   195 C    1.359   197 N    1.226   174 C    1.175
   197   7 N    3.505 --   176 C    1.265   196 C    1.226   173 Co   0.718
   198   1 H    0.998 --   174 C    0.972
   199   1 H    0.998 --   175 C    0.970
   200   1 H    0.998 --   179 C    0.970
   201   1 H    0.998 --   180 C    0.972
   202   1 H    0.996 --   183 C    0.963
   203   1 H    0.998 --   185 C    0.972
   204   1 H    0.998 --   186 C    0.970
   205   1 H    0.998 --   191 C    0.970
   206   1 H    0.998 --   192 C    0.972
   207   1 H    0.996 --   195 C    0.963
   208  27 Co   3.302 --   223 N    0.718   229 N    0.718   232 N    0.718
                           217 N    0.718
   209   6 C    3.953 --   210 C    1.641   231 C    1.175   233 H    0.972
   210   6 C    3.955 --   209 C    1.641   211 C    1.184   234 H    0.970
   211   6 C    3.915 --   232 N    1.264   212 C    1.253   210 C    1.184
   212   6 C    3.937 --   213 C    1.253   211 C    1.253    96 C    1.184
   213   6 C    3.915 --   217 N    1.264   212 C    1.253   214 C    1.184
   214   6 C    3.955 --   215 C    1.641   213 C    1.184   235 H    0.970
   215   6 C    3.953 --   214 C    1.641   216 C    1.175   236 H    0.972
   216   6 C    3.928 --   218 C    1.359   217 N    1.226   215 C    1.175
   217   7 N    3.505 --   213 C    1.264   216 C    1.226   208 Co   0.718
   218   6 C    3.932 --   216 C    1.359   219 C    1.359   237 H    0.963
   219   6 C    3.928 --   218 C    1.359   223 N    1.226   220 C    1.175
   220   6 C    3.953 --   221 C    1.641   219 C    1.175   238 H    0.972
   221   6 C    3.955 --   220 C    1.641   222 C    1.184   239 H    0.970
   222   6 C    3.915 --   223 N    1.264   224 C    1.254   221 C    1.184
   223   7 N    3.505 --   222 C    1.264   219 C    1.226   208 Co   0.718
   224   6 C    3.937 --   225 C    1.254   222 C    1.254    97 C    1.183
   225   6 C    3.915 --   229 N    1.264   224 C    1.254   226 C    1.184
   226   6 C    3.955 --   227 C    1.641   225 C    1.184   240 H    0.970
   227   6 C    3.953 --   226 C    1.641   228 C    1.175   241 H    0.972
   228   6 C    3.928 --   230 C    1.359   229 N    1.226   227 C    1.175
   229   7 N    3.505 --   225 C    1.264   228 C    1.226   208 Co   0.718
   230   6 C    3.932 --   231 C    1.359   228 C    1.359   242 H    0.963
   231   6 C    3.928 --   230 C    1.359   232 N    1.226   209 C    1.175
   232   7 N    3.505 --   211 C    1.264   231 C    1.226   208 Co   0.718
   233   1 H    0.998 --   209 C    0.972
   234   1 H    0.998 --   210 C    0.970
   235   1 H    0.998 --   214 C    0.970
   236   1 H    0.998 --   215 C    0.972
   237   1 H    0.996 --   218 C    0.963
   238   1 H    0.998 --   220 C    0.972
   239   1 H    0.998 --   221 C    0.970
   240   1 H    0.998 --   226 C    0.970
   241   1 H    0.998 --   227 C    0.972
   242   1 H    0.996 --   230 C    0.963
 ---------------------------------------------------------------------------

Topologies differ in total number of bonds
Writing topology from bond orders to xtbtopo.mol

molecular dipole:
                 x           y           z       tot (Debye)
 q only:        0.018      -0.002       0.005
   full:        0.018      -0.002       0.005       0.047
molecular quadrupole (traceless):
                xx          xy          yy          xz          yz          zz
 q only:      178.889       0.363     -50.600       1.283      -3.789    -128.289
  q+dip:      276.577       0.556     -43.558       1.526      -9.243    -233.019
   full:      219.554       0.486     -52.420       1.562      -5.630    -167.133


           -------------------------------------------------
          | TOTAL ENERGY             -444.711828104507 Eh   |
          | GRADIENT NORM               0.000661583322 Eh/α |
          | HOMO-LUMO GAP               0.000056982369 eV   |
           -------------------------------------------------

------------------------------------------------------------------------
 * finished run on 2021/11/20 at 16:02:49.828     
------------------------------------------------------------------------
 total:
 * wall-time:     0 d,  0 h,  0 min, 48.928 sec
 *  cpu-time:     0 d,  0 h,  0 min, 48.929 sec
 * ratio c/w:     1.000 speedup
 SCF:
 * wall-time:     0 d,  0 h,  0 min, 48.795 sec
 *  cpu-time:     0 d,  0 h,  0 min, 48.796 sec
 * ratio c/w:     1.000 speedup

