 Entering Gaussian System
 *********************************************
 Gaussian 98:
 frequency output generated by the xtb code
 *********************************************
                         Standard orientation:
 --------------------------------------------------------------------
  Center     Atomic     Atomic              Coordinates (Angstroms)
  Number     Number      Type              X           Y           Z
 --------------------------------------------------------------------
    1          6             0       34.077072    3.428410    0.185698
    2          6             0       35.033310    2.480165    0.146823
    3          6             0       34.333302    1.211715    0.048412
    4          6             0       34.995842   -0.030845   -0.012849
    5          6             0       34.345748   -1.272186   -0.111793
    6          6             0       34.950036   -2.555675   -0.185278
    7          6             0       33.946700   -3.476956   -0.277113
    8          6             0       32.708282   -2.775793   -0.261232
    9          7             0       33.002103   -1.449654   -0.160242
   10          6             0       31.440609   -3.334114   -0.334401
   11          6             0       30.223890   -2.666335   -0.318668
   12          6             0       28.945881   -3.359057   -0.400035
   13          6             0       27.997759   -2.405043   -0.355017
   14          6             0       28.703785   -1.137595   -0.247177
   15          7             0       30.039207   -1.332990   -0.228437
   16          6             0       28.058496    0.090504   -0.175355
   17          6             0       28.683880    1.323804   -0.075594
   18          6             0       28.078099    2.610698   -0.000864
   19          6             0       29.078129    3.533768    0.083515
   20          6             0       30.320370    2.835277    0.062845
   21          7             0       30.030020    1.511148   -0.033232
   22          6             0       31.588497    3.393372    0.127929
   23          6             0       32.805602    2.728877    0.110842
   24          7             0       33.002445    1.390919    0.028230
   25          1             0       34.184555    4.493697    0.257209
   26          1             0       36.100032    2.589427    0.178909
   27          1             0       36.007518   -2.734540   -0.170297
   28          1             0       34.044607   -4.542625   -0.349716
   29          1             0       32.328173   -0.693571   -0.126240
   30          1             0       31.398717   -4.411804   -0.411716
   31          1             0       28.832767   -4.423414   -0.479018
   32          1             0       26.930036   -2.507904   -0.388941
   33          1             0       26.978354    0.084729   -0.200279
   34          1             0       27.020619    2.790407   -0.011405
   35          1             0       28.978991    4.599682    0.153840
   36          1             0       30.701899    0.754156   -0.070651
   37          1             0       31.632222    4.471385    0.200947
   38          6             0       83.271796   -3.398378    0.484308
   39          6             0       82.315807   -2.450473    0.432571
   40          6             0       83.013966   -1.188994    0.259533
   41          6             0       82.351034    0.050955    0.161196
   42          6             0       82.999918    1.288369    0.015283
   43          6             0       82.395135    2.570881   -0.070140
   44          6             0       83.396843    3.488888   -0.203211
   45          6             0       84.634474    2.786249   -0.205248
   46          7             0       84.342151    1.463005   -0.068215
   47          6             0       85.899972    3.339652   -0.332727
   48          6             0       87.114211    2.667555   -0.354755
   49          6             0       88.389354    3.352705   -0.510496
   50          6             0       89.334839    2.395128   -0.494871
   51          6             0       88.630261    1.133413   -0.326928
   52          7             0       87.298101    1.335404   -0.246841
   53          6             0       89.274079   -0.095687   -0.259324
   54          6             0       88.651211   -1.323055   -0.092793
   55          6             0       89.257131   -2.609346   -0.009362
   56          6             0       88.261020   -3.525142    0.159010
   57          6             0       87.021000   -2.822799    0.181056
   58          7             0       87.308752   -1.503674    0.026169
   59          6             0       85.756524   -3.373551    0.328444
   60          6             0       84.540963   -2.706119    0.337693
   61          7             0       84.343375   -1.371980    0.207662
   62          1             0       83.165333   -4.459303    0.605263
   63          1             0       81.250476   -2.555515    0.502587
   64          1             0       81.338518    2.751377   -0.032102
   65          1             0       83.298130    4.553113   -0.293688
   66          1             0       85.016143    0.706939   -0.035680
   67          1             0       85.941638    4.415469   -0.432634
   68          1             0       88.502410    4.414819   -0.615483
   69          1             0       90.399957    2.492253   -0.583585
   70          1             0       90.351459   -0.095504   -0.340677
   71          1             0       90.312079   -2.793633   -0.070936
   72          1             0       88.361274   -4.588621    0.258580
   73          1             0       86.637263   -0.745901   -0.000230
   74          1             0       85.714357   -4.447970    0.443347
   75          6             0       36.391693   -0.032889    0.023916
   76          6             0       37.610097   -0.021587    0.054509
   77          6             0       38.950585   -0.009899    0.077343
   78          6             0       40.169300    0.009374    0.092683
   79          6             0       49.984704   -0.023587   -0.026991
   80          6             0       51.203881   -0.001616   -0.025936
   81          6             0       52.543734    0.017592   -0.024089
   82          6             0       53.762814    0.037541   -0.015000
   83          6             0       63.586262   -0.014390   -0.043101
   84          6             0       64.805412   -0.000392   -0.029341
   85          6             0       66.145170    0.016172   -0.011548
   86          6             0       67.364121    0.033465    0.011898
   87          6             0       77.177305    0.019865    0.210927
   88          6             0       78.396154    0.035736    0.220452
   89          6             0       79.736701    0.046513    0.216602
   90          6             0       80.955423    0.055143    0.201398
   91          6             0       42.547958   -3.408028    0.450140
   92          6             0       41.572247   -2.482765    0.363849
   93          6             0       42.246240   -1.206535    0.212695
   94          6             0       41.564335    0.021067    0.090584
   95          6             0       42.209628    1.262373   -0.043300
   96          6             0       41.610131    2.543018   -0.164007
   97          6             0       42.619083    3.456807   -0.277724
   98          6             0       43.854133    2.752369   -0.229834
   99          7             0       43.554503    1.432220   -0.084976
  100          6             0       45.121270    3.312698   -0.320298
  101          6             0       46.348807    2.671869   -0.280523
  102          6             0       47.606213    3.392354   -0.389035
  103          6             0       48.581768    2.466830   -0.304104
  104          6             0       47.907716    1.191334   -0.146244
  105          7             0       46.573549    1.342984   -0.137130
  106          6             0       48.590287   -0.035740   -0.018456
  107          6             0       47.945222   -1.276466    0.123193
  108          6             0       48.544650   -2.556693    0.248063
  109          6             0       47.535547   -3.470398    0.361274
  110          6             0       46.300454   -2.766297    0.308835
  111          7             0       46.600418   -1.446168    0.162990
  112          6             0       45.033274   -3.326914    0.393921
  113          6             0       43.805399   -2.686604    0.348939
  114          7             0       43.580829   -1.357705    0.208037
  115          1             0       42.462147   -4.470975    0.569610
  116          1             0       40.507782   -2.611987    0.397125
  117          1             0       40.553376    2.726265   -0.162547
  118          1             0       42.526283    4.519968   -0.385359
  119          1             0       44.212157    0.663072   -0.019598
  120          1             0       45.150572    4.387656   -0.437185
  121          1             0       47.691926    4.454928   -0.511883
  122          1             0       49.646116    2.595720   -0.341706
  123          1             0       49.601421   -2.739889    0.248697
  124          1             0       47.628277   -4.533369    0.470990
  125          1             0       45.943162   -0.676999    0.093812
  126          1             0       45.003870   -4.401953    0.510208
  127          6             0       56.135370   -3.377938    0.396797
  128          6             0       55.160975   -2.453483    0.289132
  129          6             0       55.837063   -1.179368    0.130438
  130          6             0       55.157137    0.047333   -0.014378
  131          6             0       55.806721    1.285358   -0.159733
  132          6             0       55.213183    2.566204   -0.303419
  133          6             0       56.226919    3.475198   -0.413959
  134          6             0       57.458892    2.767432   -0.340540
  135          7             0       57.152585    1.449909   -0.185786
  136          6             0       58.728426    3.324441   -0.416796
  137          6             0       59.955073    2.683650   -0.353525
  138          6             0       61.213845    3.403374   -0.450352
  139          6             0       62.188268    2.478382   -0.347385
  140          6             0       61.512260    1.204166   -0.189501
  141          7             0       60.177944    1.355939   -0.197713
  142          6             0       62.191929   -0.022741   -0.045549
  143          6             0       61.542195   -1.260383    0.102300
  144          6             0       62.135810   -2.541010    0.247601
  145          6             0       61.122141   -3.449529    0.362178
  146          6             0       59.890178   -2.741715    0.289343
  147          7             0       60.196367   -1.424604    0.131104
  148          6             0       58.620747   -3.298551    0.367797
  149          6             0       57.394141   -2.658110    0.301266
  150          7             0       57.171341   -1.330780    0.142009
  151          1             0       56.047878   -4.439460    0.527175
  152          1             0       54.096222   -2.582596    0.311031
  153          1             0       54.157176    2.753190   -0.318108
  154          1             0       56.139403    4.537361   -0.535146
  155          1             0       57.804216    0.677219   -0.101467
  156          1             0       58.760720    4.398346   -0.542693
  157          1             0       61.301280    4.465173   -0.578547
  158          1             0       63.253031    2.607101   -0.371951
  159          1             0       63.191784   -2.728134    0.260581
  160          1             0       61.209634   -4.511440    0.485493
  161          1             0       59.545056   -0.651651    0.046506
  162          1             0       58.588474   -4.372035    0.497141
  163          6             0       69.735482   -3.374884    0.485807
  164          6             0       68.761751   -2.453536    0.349745
  165          6             0       69.438289   -1.177632    0.206307
  166          6             0       68.758249    0.046193    0.040069
  167          6             0       69.405399    1.286384   -0.097283
  168          6             0       68.807773    2.562418   -0.265999
  169          6             0       69.817996    3.477551   -0.355026
  170          6             0       71.051983    2.778605   -0.242666
  171          7             0       70.750240    1.459811   -0.088433
  172          6             0       72.319958    3.342259   -0.284378
  173          6             0       73.546662    2.706449   -0.181402
  174          6             0       74.805399    3.429692   -0.246553
  175          6             0       75.779285    2.507880   -0.114649
  176          6             0       75.102896    1.232180    0.030050
  177          7             0       73.768691    1.380236   -0.013420
  178          6             0       75.782530    0.007907    0.192386
  179          6             0       75.135425   -1.231825    0.331784
  180          6             0       75.733279   -2.508196    0.497385
  181          6             0       74.723109   -3.422994    0.590376
  182          6             0       73.488955   -2.723628    0.482896
  183          7             0       73.790358   -1.404969    0.328382
  184          6             0       72.220757   -3.287091    0.527239
  185          6             0       70.994292   -2.651394    0.423429
  186          7             0       70.772097   -1.325121    0.254093
  187          1             0       69.647752   -4.436434    0.615909
  188          1             0       67.697139   -2.585594    0.342642
  189          1             0       67.751355    2.742009   -0.311196
  190          1             0       69.726683    4.538209   -0.486190
  191          1             0       71.406631    0.694300    0.018802
  192          1             0       72.351159    4.415580   -0.415132
  193          1             0       74.893216    4.491291   -0.376188
  194          1             0       76.843992    2.639274   -0.111312
  195          1             0       76.789841   -2.688078    0.537836
  196          1             0       74.814639   -4.483741    0.720499
  197          1             0       73.133769   -0.639355    0.223186
  198          1             0       72.189539   -4.360318    0.658649
 --------------------------------------------------------------------
     1 basis functions        1 primitive gaussians
     1 alpha electrons        1 beta electrons

 Harmonic frequencies (cm**-1), IR intensities (km*mol⁻¹),
 Raman scattering activities (A**4/amu), Raman depolarization ratios,
 reduced masses (AMU), force constants (mDyne/A) and normal coordinates:
                      1                      2                      3
                        a                      a                      a 
 Frequencies --    -2.6933                -1.3394                 1.6091
 Red. masses --    11.8972                11.8331                11.8659
 Frc consts  --     0.0000                 0.0000                 0.0000
 IR Inten    --     6.0772                 4.3477                15.0850
 Raman Activ --     0.0000                 0.0000                 0.0000
 Depolar     --     0.0000                 0.0000                 0.0000
 Atom AN      X      Y      Z        X      Y      Z        X      Y      Z
   1   6     0.01   0.01   0.06    -0.04  -0.06   0.02     0.02   0.01   0.02
   2   6     0.01   0.01   0.05    -0.03  -0.05   0.01     0.01   0.01   0.00
   3   6     0.00   0.01   0.06    -0.01  -0.06   0.02     0.01   0.01   0.02
   4   6    -0.00   0.01   0.06     0.00  -0.05   0.01    -0.00   0.01   0.00
   5   6    -0.00   0.01   0.07     0.01  -0.06   0.01    -0.01   0.01   0.02
   6   6    -0.01   0.01   0.07     0.03  -0.05   0.01    -0.01   0.01   0.01
   7   6    -0.01   0.01   0.08     0.04  -0.07   0.01    -0.02   0.01   0.03
   8   6    -0.01   0.02   0.09     0.03  -0.08   0.02    -0.02   0.02   0.05
   9   7    -0.00   0.02   0.09     0.02  -0.08   0.02    -0.01   0.02   0.05
  10   6    -0.01   0.02   0.10     0.04  -0.10   0.03    -0.02   0.02   0.07
  11   6    -0.01   0.02   0.11     0.03  -0.11   0.03    -0.02   0.03   0.09
  12   6    -0.01   0.02   0.12     0.04  -0.12   0.04    -0.02   0.03   0.12
  13   6    -0.01   0.02   0.13     0.03  -0.13   0.05    -0.02   0.04   0.13
  14   6    -0.00   0.02   0.12     0.01  -0.13   0.04    -0.01   0.03   0.12
  15   7    -0.00   0.02   0.12     0.02  -0.12   0.04    -0.01   0.03   0.10
  16   6    -0.00   0.02   0.12    -0.00  -0.13   0.05    -0.00   0.04   0.13
  17   6     0.00   0.02   0.11    -0.01  -0.13   0.05     0.00   0.04   0.12
  18   6     0.00   0.02   0.11    -0.03  -0.13   0.05     0.01   0.04   0.12
  19   6     0.01   0.02   0.10    -0.04  -0.12   0.04     0.02   0.03   0.11
  20   6     0.01   0.02   0.09    -0.03  -0.11   0.04     0.01   0.03   0.08
  21   7     0.00   0.02   0.11    -0.02  -0.12   0.04     0.01   0.03   0.10
  22   6     0.01   0.02   0.08    -0.04  -0.09   0.03     0.02   0.02   0.06
  23   6     0.01   0.02   0.07    -0.03  -0.08   0.03     0.01   0.02   0.04
  24   7     0.00   0.02   0.08    -0.02  -0.08   0.03     0.01   0.02   0.04
  25   1     0.00   0.00   0.02    -0.01  -0.02   0.01     0.01   0.00   0.00
  26   1     0.00   0.00   0.01    -0.01  -0.01   0.00     0.00   0.00  -0.01
  27   1    -0.00   0.00   0.02     0.01  -0.01   0.00    -0.00   0.00  -0.00
  28   1    -0.00   0.00   0.02     0.01  -0.02   0.00    -0.01   0.00   0.01
  29   1    -0.00   0.00   0.03     0.00  -0.02   0.01    -0.00   0.01   0.02
  30   1    -0.00   0.00   0.03     0.01  -0.03   0.01    -0.01   0.01   0.02
  31   1    -0.00   0.01   0.04     0.01  -0.04   0.01    -0.01   0.01   0.04
  32   1    -0.00   0.01   0.04     0.01  -0.04   0.02    -0.01   0.01   0.04
  33   1    -0.00   0.01   0.04    -0.00  -0.04   0.02    -0.00   0.01   0.04
  34   1     0.00   0.01   0.03    -0.01  -0.04   0.02     0.00   0.01   0.04
  35   1     0.00   0.01   0.03    -0.01  -0.04   0.01     0.01   0.01   0.03
  36   1     0.00   0.01   0.03    -0.00  -0.03   0.01     0.00   0.01   0.02
  37   1     0.00   0.01   0.02    -0.01  -0.03   0.01     0.01   0.01   0.02
  38   6     0.00   0.01   0.06    -0.04  -0.07   0.01     0.00   0.01   0.00
  39   6     0.00   0.01   0.05    -0.03  -0.05   0.01     0.00   0.01   0.01
  40   6     0.00   0.01   0.07    -0.01  -0.06   0.01     0.00   0.01  -0.00
  41   6    -0.00   0.01   0.07     0.00  -0.05   0.01     0.00   0.01   0.00
  42   6    -0.00   0.01   0.08     0.01  -0.06   0.01    -0.00   0.01  -0.01
  43   6    -0.01   0.01   0.07     0.03  -0.05   0.01    -0.00   0.01  -0.01
  44   6    -0.01   0.02   0.09     0.04  -0.07   0.01    -0.00   0.01  -0.03
  45   6    -0.00   0.02   0.10     0.03  -0.08   0.02    -0.00   0.01  -0.05
  46   7    -0.00   0.02   0.10     0.02  -0.08   0.02    -0.00   0.01  -0.04
  47   6    -0.00   0.02   0.12     0.04  -0.10   0.02    -0.00   0.00  -0.07
  48   6    -0.00   0.03   0.13     0.03  -0.11   0.02    -0.00   0.00  -0.08
  49   6    -0.00   0.03   0.15     0.04  -0.12   0.02    -0.01   0.00  -0.11
  50   6     0.00   0.03   0.15     0.03  -0.13   0.02    -0.01   0.00  -0.11
  51   6     0.00   0.03   0.14     0.01  -0.13   0.02    -0.01   0.00  -0.10
  52   7     0.00   0.03   0.14     0.02  -0.12   0.02    -0.00   0.00  -0.09
  53   6     0.00   0.03   0.14    -0.00  -0.13   0.01    -0.01   0.00  -0.10
  54   6     0.00   0.03   0.13    -0.01  -0.13   0.01    -0.00   0.00  -0.08
  55   6     0.01   0.03   0.12    -0.03  -0.13   0.01    -0.00   0.00  -0.08
  56   6     0.01   0.03   0.11    -0.04  -0.12   0.01    -0.00   0.00  -0.06
  57   6     0.00   0.02   0.10    -0.03  -0.11   0.01    -0.00   0.01  -0.05
  58   7     0.00   0.03   0.12    -0.02  -0.12   0.01    -0.00   0.00  -0.07
  59   6     0.00   0.02   0.09    -0.04  -0.09   0.01     0.00   0.01  -0.03
  60   6     0.00   0.02   0.08    -0.03  -0.08   0.01     0.00   0.01  -0.02
  61   7     0.00   0.02   0.09    -0.02  -0.08   0.01     0.00   0.01  -0.02
  62   1     0.00   0.00   0.02    -0.02  -0.02   0.00     0.00   0.00   0.00
  63   1     0.00   0.00   0.01    -0.01  -0.01   0.00     0.00   0.00   0.01
  64   1    -0.00   0.00   0.02     0.01  -0.01   0.00     0.00   0.00   0.00
  65   1    -0.00   0.00   0.03     0.02  -0.02   0.00    -0.00   0.00  -0.01
  66   1    -0.00   0.01   0.03     0.00  -0.02   0.00    -0.00   0.00  -0.01
  67   1    -0.00   0.01   0.04     0.01  -0.03   0.00    -0.00   0.00  -0.02
  68   1    -0.00   0.01   0.04     0.01  -0.04   0.00    -0.00   0.00  -0.03
  69   1     0.00   0.01   0.05     0.01  -0.04   0.00    -0.00  -0.00  -0.04
  70   1     0.00   0.01   0.04    -0.00  -0.04   0.00    -0.00   0.00  -0.03
  71   1     0.00   0.01   0.04    -0.01  -0.04   0.00    -0.00   0.00  -0.03
  72   1     0.00   0.01   0.03    -0.02  -0.04   0.00    -0.00   0.00  -0.02
  73   1     0.00   0.01   0.03    -0.00  -0.03   0.00    -0.00   0.00  -0.02
  74   1     0.00   0.01   0.02    -0.01  -0.03   0.00     0.00   0.00  -0.01
  75   6    -0.00   0.01   0.05     0.00  -0.04   0.01    -0.00   0.00  -0.02
  76   6     0.00   0.01   0.04     0.00  -0.03  -0.00     0.00  -0.00  -0.04
  77   6     0.00   0.01   0.02     0.00  -0.01  -0.01     0.00  -0.01  -0.06
  78   6     0.00   0.00   0.01     0.00  -0.00  -0.01     0.00  -0.01  -0.08
  79   6    -0.00  -0.01  -0.06     0.00   0.08  -0.03     0.00  -0.03  -0.10
  80   6    -0.00  -0.01  -0.07    -0.00   0.08  -0.03     0.00  -0.03  -0.09
  81   6    -0.00  -0.02  -0.08    -0.00   0.09  -0.03     0.00  -0.03  -0.08
  82   6    -0.00  -0.02  -0.09    -0.00   0.09  -0.03     0.00  -0.02  -0.07
  83   6     0.00  -0.02  -0.10    -0.00   0.09  -0.01     0.00  -0.00   0.06
  84   6    -0.00  -0.02  -0.10    -0.00   0.09  -0.01     0.00  -0.00   0.07
  85   6    -0.00  -0.02  -0.09    -0.00   0.08  -0.01     0.00   0.00   0.08
  86   6    -0.00  -0.02  -0.09    -0.00   0.08  -0.00     0.00   0.00   0.09
  87   6    -0.00  -0.00  -0.00     0.00  -0.00   0.01     0.00   0.01   0.07
  88   6    -0.00   0.00   0.01     0.00  -0.01   0.01     0.00   0.01   0.06
  89   6    -0.00   0.00   0.03     0.00  -0.03   0.01     0.00   0.01   0.04
  90   6    -0.00   0.01   0.05     0.00  -0.04   0.01     0.00   0.01   0.02
  91   6    -0.00   0.00   0.00     0.03   0.02  -0.02    -0.00  -0.02  -0.11
  92   6    -0.00   0.00   0.01     0.02   0.01  -0.02    -0.00  -0.02  -0.10
  93   6    -0.00   0.00  -0.00     0.01   0.02  -0.02    -0.00  -0.02  -0.10
  94   6     0.00   0.00   0.00     0.00   0.01  -0.02     0.00  -0.02  -0.09
  95   6     0.00   0.00  -0.01    -0.01   0.02  -0.02     0.00  -0.02  -0.10
  96   6     0.00   0.00  -0.01    -0.02   0.01  -0.02     0.01  -0.02  -0.09
  97   6     0.00  -0.00  -0.02    -0.03   0.02  -0.02     0.01  -0.02  -0.10
  98   6     0.00  -0.00  -0.02    -0.02   0.03  -0.02     0.01  -0.02  -0.11
  99   7     0.00  -0.00  -0.02    -0.01   0.03  -0.02     0.00  -0.02  -0.12
 100   6     0.00  -0.01  -0.04    -0.03   0.04  -0.03     0.01  -0.02  -0.11
 101   6     0.00  -0.01  -0.04    -0.02   0.05  -0.03     0.01  -0.03  -0.12
 102   6     0.00  -0.01  -0.06    -0.03   0.06  -0.03     0.01  -0.03  -0.12
 103   6     0.00  -0.01  -0.06    -0.02   0.06  -0.03     0.00  -0.03  -0.12
 104   6     0.00  -0.01  -0.05    -0.01   0.06  -0.03     0.00  -0.03  -0.12
 105   7     0.00  -0.01  -0.05    -0.01   0.05  -0.03     0.00  -0.03  -0.13
 106   6    -0.00  -0.01  -0.05     0.00   0.06  -0.03     0.00  -0.03  -0.11
 107   6    -0.00  -0.01  -0.04     0.01   0.06  -0.03    -0.00  -0.03  -0.11
 108   6    -0.00  -0.01  -0.04     0.02   0.06  -0.03    -0.00  -0.03  -0.11
 109   6    -0.00  -0.01  -0.03     0.03   0.06  -0.03    -0.00  -0.03  -0.12
 110   6    -0.00  -0.01  -0.03     0.02   0.05  -0.03    -0.00  -0.03  -0.12
 111   7    -0.00  -0.01  -0.04     0.01   0.05  -0.03    -0.00  -0.03  -0.13
 112   6    -0.00  -0.00  -0.02     0.03   0.04  -0.02    -0.00  -0.02  -0.12
 113   6    -0.00  -0.00  -0.01     0.02   0.03  -0.02    -0.00  -0.02  -0.11
 114   7    -0.00  -0.00  -0.01     0.01   0.03  -0.02    -0.00  -0.02  -0.12
 115   1    -0.00   0.00   0.00     0.01   0.01  -0.01    -0.00  -0.01  -0.03
 116   1    -0.00   0.00   0.01     0.01   0.00  -0.00    -0.00  -0.00  -0.03
 117   1     0.00   0.00   0.00    -0.01   0.00  -0.00     0.00  -0.00  -0.02
 118   1     0.00  -0.00  -0.01    -0.01   0.01  -0.01     0.00  -0.01  -0.03
 119   1     0.00  -0.00  -0.01    -0.00   0.01  -0.01     0.00  -0.01  -0.03
 120   1     0.00  -0.00  -0.01    -0.01   0.01  -0.01     0.00  -0.01  -0.03
 121   1     0.00  -0.00  -0.02    -0.01   0.02  -0.01     0.00  -0.01  -0.03
 122   1     0.00  -0.00  -0.02    -0.01   0.02  -0.01     0.00  -0.01  -0.03
 123   1    -0.00  -0.00  -0.01     0.01   0.02  -0.01    -0.00  -0.01  -0.03
 124   1    -0.00  -0.00  -0.01     0.01   0.02  -0.01    -0.00  -0.01  -0.03
 125   1    -0.00  -0.00  -0.01     0.00   0.01  -0.01     0.00  -0.01  -0.03
 126   1    -0.00  -0.00  -0.00     0.01   0.01  -0.01    -0.00  -0.01  -0.03
 127   6    -0.00  -0.02  -0.09    -0.00   0.09  -0.03     0.00  -0.02  -0.05
 128   6    -0.00  -0.02  -0.09    -0.00   0.09  -0.03     0.00  -0.02  -0.06
 129   6    -0.00  -0.02  -0.10    -0.00   0.09  -0.03     0.00  -0.02  -0.05
 130   6     0.00  -0.02  -0.09    -0.00   0.09  -0.03     0.00  -0.02  -0.05
 131   6     0.00  -0.02  -0.10    -0.00   0.09  -0.02     0.00  -0.02  -0.04
 132   6     0.00  -0.02  -0.09    -0.00   0.09  -0.02    -0.00  -0.02  -0.04
 133   6     0.00  -0.02  -0.10    -0.00   0.09  -0.02    -0.00  -0.02  -0.02
 134   6     0.00  -0.02  -0.10     0.00   0.09  -0.02    -0.00  -0.02  -0.01
 135   7     0.00  -0.02  -0.11    -0.00   0.10  -0.02     0.00  -0.02  -0.02
 136   6     0.00  -0.02  -0.11     0.00   0.09  -0.02    -0.00  -0.01   0.01
 137   6     0.00  -0.02  -0.11     0.00   0.09  -0.02     0.00  -0.01   0.02
 138   6     0.00  -0.02  -0.11     0.00   0.09  -0.01    -0.00  -0.01   0.04
 139   6     0.00  -0.02  -0.11     0.00   0.09  -0.01     0.00  -0.01   0.05
 140   6     0.00  -0.02  -0.11     0.00   0.09  -0.01     0.00  -0.01   0.04
 141   7     0.00  -0.02  -0.12     0.00   0.10  -0.02     0.00  -0.01   0.02
 142   6     0.00  -0.02  -0.10     0.00   0.09  -0.01     0.00  -0.01   0.04
 143   6     0.00  -0.02  -0.10    -0.00   0.09  -0.02     0.00  -0.01   0.03
 144   6     0.00  -0.02  -0.10    -0.00   0.09  -0.01     0.00  -0.01   0.03
 145   6     0.00  -0.02  -0.10    -0.00   0.09  -0.02     0.00  -0.01   0.01
 146   6     0.00  -0.02  -0.10    -0.00   0.09  -0.02     0.00  -0.01  -0.00
 147   7     0.00  -0.02  -0.11    -0.00   0.10  -0.02     0.00  -0.01   0.01
 148   6     0.00  -0.02  -0.10    -0.00   0.09  -0.02     0.00  -0.02  -0.02
 149   6    -0.00  -0.02  -0.10    -0.00   0.09  -0.02     0.00  -0.02  -0.03
 150   7     0.00  -0.02  -0.11    -0.00   0.10  -0.03     0.00  -0.02  -0.03
 151   1    -0.00  -0.01  -0.03    -0.00   0.03  -0.01     0.00  -0.01  -0.02
 152   1     0.00  -0.01  -0.03    -0.00   0.03  -0.01     0.00  -0.01  -0.02
 153   1     0.00  -0.01  -0.03    -0.00   0.03  -0.01    -0.00  -0.01  -0.02
 154   1     0.00  -0.01  -0.03     0.00   0.03  -0.01    -0.00  -0.01  -0.01
 155   1     0.00  -0.01  -0.03    -0.00   0.03  -0.01     0.00  -0.00  -0.00
 156   1     0.00  -0.01  -0.03     0.00   0.03  -0.00    -0.00  -0.00   0.00
 157   1     0.00  -0.01  -0.03     0.00   0.03  -0.00    -0.00  -0.00   0.01
 158   1     0.00  -0.01  -0.03     0.00   0.03  -0.00     0.00  -0.00   0.02
 159   1     0.00  -0.01  -0.03    -0.00   0.03  -0.00     0.00  -0.00   0.01
 160   1     0.00  -0.01  -0.03    -0.00   0.03  -0.00     0.00  -0.00   0.00
 161   1     0.00  -0.01  -0.03    -0.00   0.03  -0.01     0.00  -0.00   0.00
 162   1    -0.00  -0.01  -0.03    -0.00   0.03  -0.01     0.00  -0.00  -0.01
 163   6     0.00  -0.02  -0.08    -0.03   0.06  -0.00     0.00   0.01   0.11
 164   6     0.00  -0.02  -0.08    -0.02   0.07  -0.00     0.00   0.01   0.10
 165   6     0.00  -0.02  -0.08    -0.01   0.06  -0.00     0.00   0.01   0.10
 166   6    -0.00  -0.02  -0.08     0.00   0.07  -0.00     0.00   0.01   0.10
 167   6    -0.00  -0.02  -0.07     0.01   0.06   0.00    -0.00   0.01   0.10
 168   6    -0.00  -0.02  -0.07     0.02   0.07   0.00    -0.00   0.01   0.10
 169   6    -0.00  -0.01  -0.06     0.03   0.06   0.01    -0.00   0.01   0.10
 170   6    -0.00  -0.01  -0.06     0.02   0.05   0.01    -0.00   0.01   0.11
 171   7    -0.00  -0.01  -0.07     0.01   0.06   0.00    -0.00   0.01   0.11
 172   6    -0.00  -0.01  -0.05     0.03   0.04   0.01    -0.00   0.01   0.11
 173   6    -0.00  -0.01  -0.04     0.02   0.03   0.01    -0.00   0.01   0.10
 174   6    -0.00  -0.01  -0.02     0.03   0.02   0.01    -0.00   0.01   0.10
 175   6    -0.00  -0.01  -0.01     0.02   0.01   0.01    -0.00   0.01   0.09
 176   6    -0.00  -0.01  -0.02     0.01   0.02   0.01    -0.00   0.01   0.09
 177   7    -0.00  -0.01  -0.04     0.01   0.03   0.01    -0.00   0.01   0.11
 178   6    -0.00  -0.01  -0.02     0.00   0.01   0.01     0.00   0.01   0.09
 179   6    -0.00  -0.01  -0.03    -0.01   0.02   0.01     0.00   0.01   0.09
 180   6     0.00  -0.01  -0.02    -0.02   0.01   0.01     0.00   0.01   0.09
 181   6     0.00  -0.01  -0.03    -0.03   0.02   0.00     0.00   0.01   0.09
 182   6     0.00  -0.01  -0.05    -0.02   0.03   0.00     0.00   0.01   0.10
 183   7    -0.00  -0.01  -0.04    -0.01   0.03   0.01     0.00   0.01   0.11
 184   6     0.00  -0.01  -0.06    -0.03   0.04   0.00     0.00   0.01   0.11
 185   6     0.00  -0.01  -0.07    -0.02   0.05  -0.00     0.00   0.01   0.11
 186   7     0.00  -0.02  -0.07    -0.01   0.06   0.00     0.00   0.01   0.11
 187   1     0.00  -0.00  -0.02    -0.01   0.02  -0.00     0.00   0.00   0.03
 188   1     0.00  -0.01  -0.03    -0.01   0.02  -0.00     0.00   0.00   0.03
 189   1    -0.00  -0.00  -0.02     0.01   0.02   0.00    -0.00   0.00   0.03
 190   1    -0.00  -0.00  -0.02     0.01   0.02   0.00    -0.00   0.00   0.03
 191   1    -0.00  -0.00  -0.02     0.00   0.01   0.00    -0.00   0.00   0.03
 192   1    -0.00  -0.00  -0.01     0.01   0.01   0.00    -0.00   0.00   0.03
 193   1    -0.00  -0.00  -0.01     0.01   0.01   0.00    -0.00   0.00   0.03
 194   1    -0.00  -0.00  -0.00     0.01   0.00   0.00    -0.00   0.00   0.03
 195   1     0.00  -0.00  -0.00    -0.01   0.00   0.00     0.00   0.00   0.02
 196   1     0.00  -0.00  -0.01    -0.01   0.01   0.00     0.00   0.00   0.03
 197   1    -0.00  -0.00  -0.01    -0.00   0.01   0.00     0.00   0.00   0.03
 198   1     0.00  -0.00  -0.02    -0.01   0.01  -0.00     0.00   0.00   0.03
                      4                      5                      6
                        a                      a                      a 
 Frequencies --     3.1886                 5.0126                 6.0195
 Red. masses --    11.7406                11.8285                11.2681
 Frc consts  --     0.0000                 0.0000                 0.0000
 IR Inten    --     0.3059                 0.2864                 0.1317
 Raman Activ --     0.0000                 0.0000                 0.0000
 Depolar     --     0.0000                 0.0000                 0.0000
 Atom AN      X      Y      Z        X      Y      Z        X      Y      Z
   1   6     0.06   0.00  -0.01     0.01  -0.00  -0.05    -0.03   0.00   0.22
   2   6     0.05  -0.02  -0.00     0.01  -0.00  -0.06    -0.02   0.01   0.16
   3   6     0.02  -0.00  -0.00     0.00  -0.00  -0.04    -0.01   0.01   0.08
   4   6    -0.00  -0.02   0.00    -0.00  -0.01  -0.04    -0.00   0.02  -0.00
   5   6    -0.02  -0.00   0.00    -0.01  -0.00  -0.02     0.01   0.02  -0.08
   6   6    -0.05  -0.02   0.01    -0.01  -0.01  -0.02     0.02   0.03  -0.16
   7   6    -0.07   0.00   0.01    -0.02  -0.00   0.01     0.02   0.03  -0.22
   8   6    -0.05   0.03   0.00    -0.02  -0.00   0.02     0.02   0.02  -0.17
   9   7    -0.03   0.02  -0.00    -0.01  -0.00   0.01     0.01   0.02  -0.09
  10   6    -0.06   0.05  -0.00    -0.02   0.00   0.05     0.02   0.01  -0.21
  11   6    -0.05   0.07  -0.01    -0.02   0.01   0.07     0.02   0.00  -0.16
  12   6    -0.06   0.10  -0.01    -0.02   0.01   0.11     0.02   0.00  -0.21
  13   6    -0.04   0.12  -0.02    -0.02   0.01   0.12     0.02  -0.01  -0.14
  14   6    -0.02   0.10  -0.02    -0.01   0.01   0.09     0.01  -0.01  -0.06
  15   7    -0.03   0.08  -0.01    -0.01   0.01   0.07     0.01  -0.00  -0.08
  16   6     0.00   0.12  -0.02    -0.01   0.01   0.10    -0.00  -0.02   0.02
  17   6     0.02   0.10  -0.02    -0.00   0.01   0.07    -0.01  -0.02   0.10
  18   6     0.05   0.12  -0.02     0.00   0.01   0.07    -0.02  -0.03   0.18
  19   6     0.07   0.10  -0.02     0.01   0.01   0.05    -0.03  -0.03   0.24
  20   6     0.05   0.07  -0.02     0.01   0.01   0.03    -0.02  -0.02   0.19
  21   7     0.03   0.08  -0.02    -0.00   0.01   0.05    -0.01  -0.02   0.12
  22   6     0.06   0.05  -0.01     0.01   0.01  -0.00    -0.03  -0.01   0.23
  23   6     0.05   0.03  -0.01     0.01   0.00  -0.02    -0.02  -0.00   0.18
  24   7     0.03   0.02  -0.01     0.00   0.00  -0.02    -0.01   0.00   0.10
  25   1     0.02   0.00  -0.00     0.00  -0.00  -0.02    -0.01  -0.00   0.08
  26   1     0.01  -0.01   0.00     0.00  -0.00  -0.02    -0.01   0.00   0.05
  27   1    -0.01  -0.01   0.00    -0.00  -0.00  -0.01     0.01   0.01  -0.05
  28   1    -0.02   0.00   0.00    -0.01  -0.00   0.00     0.01   0.01  -0.08
  29   1    -0.00   0.01  -0.00    -0.00   0.00   0.00     0.00   0.00  -0.01
  30   1    -0.02   0.02  -0.00    -0.01   0.00   0.02     0.01   0.01  -0.08
  31   1    -0.02   0.03  -0.00    -0.01   0.00   0.03     0.01   0.00  -0.08
  32   1    -0.01   0.04  -0.01    -0.01   0.00   0.04     0.00  -0.00  -0.04
  33   1     0.00   0.04  -0.01    -0.00   0.00   0.03    -0.00  -0.01   0.01
  34   1     0.02   0.04  -0.01     0.00   0.00   0.03    -0.01  -0.01   0.06
  35   1     0.02   0.03  -0.01     0.00   0.00   0.01    -0.01  -0.01   0.09
  36   1     0.00   0.02  -0.00    -0.00   0.00   0.01    -0.00  -0.00   0.02
  37   1     0.02   0.01  -0.00     0.00   0.00  -0.00    -0.01  -0.01   0.09
  38   6    -0.07  -0.00  -0.01     0.01  -0.01  -0.06    -0.02   0.02   0.09
  39   6    -0.05   0.01  -0.01     0.00  -0.01  -0.06    -0.01   0.03   0.06
  40   6    -0.02   0.00  -0.00     0.00  -0.00  -0.04    -0.01   0.02   0.03
  41   6     0.00   0.01   0.00     0.00  -0.01  -0.04     0.00   0.02   0.00
  42   6     0.02   0.00   0.01     0.00  -0.00  -0.01     0.01   0.01  -0.03
  43   6     0.05   0.01   0.01     0.00  -0.00  -0.01     0.02   0.01  -0.06
  44   6     0.07  -0.01   0.01     0.00   0.00   0.02     0.02   0.00  -0.08
  45   6     0.05  -0.03   0.01     0.00   0.00   0.03     0.02  -0.00  -0.06
  46   7     0.03  -0.03   0.01     0.00   0.00   0.02     0.01   0.00  -0.03
  47   6     0.07  -0.05   0.02     0.00   0.01   0.06     0.02  -0.01  -0.07
  48   6     0.05  -0.08   0.02     0.01   0.01   0.08     0.02  -0.02  -0.05
  49   6     0.07  -0.10   0.03     0.01   0.02   0.12     0.02  -0.03  -0.07
  50   6     0.05  -0.12   0.03     0.01   0.02   0.13     0.01  -0.03  -0.04
  51   6     0.02  -0.11   0.02     0.01   0.02   0.10     0.01  -0.03  -0.01
  52   7     0.03  -0.09   0.02     0.01   0.01   0.08     0.01  -0.02  -0.02
  53   6    -0.00  -0.12   0.02     0.01   0.02   0.10     0.00  -0.03   0.02
  54   6    -0.02  -0.11   0.02     0.01   0.01   0.07    -0.01  -0.02   0.05
  55   6    -0.05  -0.12   0.01     0.01   0.01   0.07    -0.01  -0.02   0.08
  56   6    -0.07  -0.10   0.01     0.01   0.01   0.04    -0.02  -0.01   0.10
  57   6    -0.05  -0.08   0.01     0.01   0.01   0.02    -0.01  -0.01   0.08
  58   7    -0.03  -0.09   0.01     0.01   0.01   0.05    -0.01  -0.01   0.05
  59   6    -0.07  -0.05   0.00     0.01   0.00  -0.01    -0.02   0.01   0.09
  60   6    -0.05  -0.03   0.00     0.01  -0.00  -0.02    -0.01   0.01   0.07
  61   7    -0.03  -0.03   0.00     0.01  -0.00  -0.02    -0.01   0.01   0.04
  62   1    -0.03  -0.00  -0.00     0.00  -0.00  -0.02    -0.01   0.01   0.03
  63   1    -0.01   0.01  -0.00     0.00  -0.00  -0.02    -0.00   0.01   0.02
  64   1     0.02   0.01   0.00     0.00  -0.00  -0.01     0.00   0.01  -0.02
  65   1     0.03  -0.00   0.00     0.00   0.00   0.01     0.01   0.00  -0.03
  66   1     0.00  -0.01   0.00     0.00   0.00   0.01     0.00  -0.00  -0.00
  67   1     0.02  -0.02   0.01     0.00   0.00   0.02     0.01  -0.00  -0.03
  68   1     0.02  -0.03   0.01     0.00   0.01   0.04     0.01  -0.01  -0.03
  69   1     0.01  -0.04   0.01     0.00   0.01   0.04     0.00  -0.01  -0.01
  70   1     0.00  -0.04   0.01     0.00   0.01   0.03     0.00  -0.01   0.01
  71   1    -0.02  -0.04   0.00     0.00   0.00   0.03    -0.00  -0.01   0.02
  72   1    -0.03  -0.03   0.00     0.00   0.00   0.01    -0.01  -0.00   0.04
  73   1    -0.00  -0.02   0.00     0.00   0.00   0.01    -0.00  -0.00   0.01
  74   1    -0.02  -0.01  -0.00     0.00   0.00  -0.01    -0.01   0.00   0.03
  75   6    -0.00  -0.04   0.01    -0.00  -0.01  -0.06    -0.00   0.03  -0.01
  76   6    -0.00  -0.06   0.01    -0.00  -0.01  -0.08    -0.00   0.03  -0.01
  77   6    -0.00  -0.07   0.01    -0.00  -0.01  -0.09    -0.00   0.03  -0.01
  78   6    -0.00  -0.08   0.01    -0.00  -0.01  -0.10    -0.00   0.03  -0.02
  79   6    -0.00  -0.10   0.02    -0.00   0.00   0.00    -0.00  -0.02  -0.00
  80   6    -0.00  -0.09   0.01    -0.00   0.00   0.03    -0.00  -0.02   0.00
  81   6    -0.00  -0.08   0.01    -0.00   0.01   0.06    -0.00  -0.02   0.01
  82   6    -0.00  -0.07   0.01    -0.00   0.01   0.08    -0.00  -0.02   0.01
  83   6     0.00   0.07  -0.01    -0.00   0.01   0.08     0.00  -0.02   0.01
  84   6    -0.00   0.08  -0.02    -0.00   0.01   0.05     0.00  -0.01   0.00
  85   6    -0.00   0.09  -0.02    -0.00   0.00   0.02     0.00  -0.01  -0.00
  86   6    -0.00   0.10  -0.02     0.00  -0.00  -0.00     0.00  -0.00  -0.01
  87   6     0.00   0.08  -0.01     0.00  -0.02  -0.10     0.00   0.03  -0.01
  88   6     0.00   0.07  -0.01     0.00  -0.01  -0.09     0.00   0.03  -0.01
  89   6     0.00   0.06  -0.01     0.00  -0.01  -0.08     0.00   0.03  -0.01
  90   6     0.00   0.04  -0.00     0.00  -0.01  -0.06     0.00   0.03  -0.00
  91   6    -0.01  -0.09   0.02    -0.00  -0.02  -0.12    -0.02   0.01  -0.05
  92   6    -0.00  -0.09   0.02    -0.00  -0.02  -0.12    -0.01   0.02  -0.04
  93   6    -0.00  -0.09   0.02    -0.00  -0.01  -0.11    -0.01   0.02  -0.03
  94   6    -0.00  -0.09   0.02    -0.00  -0.01  -0.10    -0.00   0.02  -0.02
  95   6     0.00  -0.09   0.02    -0.00  -0.01  -0.10     0.01   0.02  -0.01
  96   6     0.00  -0.09   0.02    -0.00  -0.01  -0.10     0.01   0.02   0.00
  97   6     0.01  -0.09   0.02    -0.00  -0.01  -0.10     0.02   0.02   0.01
  98   6     0.00  -0.09   0.02    -0.00  -0.01  -0.09     0.01   0.01   0.01
  99   7     0.00  -0.10   0.02    -0.00  -0.01  -0.10     0.01   0.02  -0.01
 100   6     0.00  -0.09   0.02    -0.00  -0.01  -0.08     0.02   0.01   0.01
 101   6     0.00  -0.10   0.02    -0.00  -0.01  -0.07     0.01   0.00   0.01
 102   6     0.00  -0.10   0.02    -0.00  -0.01  -0.05     0.02  -0.00   0.01
 103   6     0.00  -0.10   0.02    -0.00  -0.00  -0.03     0.01  -0.01   0.01
 104   6     0.00  -0.10   0.02    -0.00  -0.01  -0.04     0.01  -0.01  -0.00
 105   7     0.00  -0.10   0.02    -0.00  -0.01  -0.07     0.01   0.00  -0.00
 106   6    -0.00  -0.10   0.02    -0.00  -0.00  -0.03    -0.00  -0.01  -0.01
 107   6    -0.00  -0.10   0.02    -0.00  -0.01  -0.04    -0.01  -0.01  -0.02
 108   6    -0.00  -0.10   0.02     0.00  -0.00  -0.03    -0.01  -0.01  -0.02
 109   6    -0.01  -0.10   0.02     0.00  -0.01  -0.06    -0.02  -0.01  -0.03
 110   6    -0.00  -0.09   0.02    -0.00  -0.01  -0.07    -0.01  -0.00  -0.03
 111   7    -0.00  -0.10   0.02    -0.00  -0.01  -0.07    -0.01  -0.00  -0.02
 112   6    -0.01  -0.09   0.02    -0.00  -0.01  -0.09    -0.02   0.00  -0.04
 113   6    -0.00  -0.09   0.02    -0.00  -0.01  -0.10    -0.01   0.01  -0.04
 114   7    -0.00  -0.10   0.02    -0.00  -0.01  -0.11    -0.01   0.01  -0.03
 115   1    -0.00  -0.03   0.00    -0.00  -0.00  -0.04    -0.01   0.00  -0.02
 116   1    -0.00  -0.03   0.00    -0.00  -0.01  -0.04    -0.00   0.01  -0.01
 117   1     0.00  -0.03   0.00    -0.00  -0.00  -0.03     0.00   0.01   0.00
 118   1     0.00  -0.03   0.00    -0.00  -0.00  -0.03     0.01   0.01   0.01
 119   1     0.00  -0.03   0.01    -0.00  -0.00  -0.03     0.00   0.00  -0.00
 120   1     0.00  -0.03   0.01    -0.00  -0.00  -0.02     0.01   0.00   0.00
 121   1     0.00  -0.03   0.01    -0.00  -0.00  -0.01     0.01  -0.00   0.01
 122   1     0.00  -0.03   0.01    -0.00  -0.00  -0.00     0.00  -0.00   0.00
 123   1    -0.00  -0.03   0.00     0.00  -0.00  -0.01    -0.00  -0.00  -0.01
 124   1    -0.00  -0.03   0.00     0.00  -0.00  -0.02    -0.01  -0.00  -0.01
 125   1    -0.00  -0.03   0.01    -0.00  -0.00  -0.02    -0.00   0.00  -0.01
 126   1    -0.00  -0.03   0.00     0.00  -0.00  -0.03    -0.01   0.00  -0.01
 127   6     0.05  -0.04   0.01    -0.00   0.02   0.13     0.00  -0.02   0.07
 128   6     0.04  -0.05   0.01    -0.00   0.02   0.11     0.00  -0.02   0.06
 129   6     0.02  -0.04   0.01    -0.00   0.02   0.11     0.00  -0.02   0.03
 130   6    -0.00  -0.05   0.01    -0.00   0.01   0.10    -0.00  -0.02   0.01
 131   6    -0.02  -0.04   0.00    -0.00   0.02   0.11    -0.00  -0.03  -0.01
 132   6    -0.04  -0.05   0.00    -0.00   0.01   0.10    -0.00  -0.03  -0.03
 133   6    -0.05  -0.03   0.00    -0.00   0.02   0.11    -0.00  -0.03  -0.05
 134   6    -0.04  -0.02  -0.00    -0.00   0.02   0.12    -0.00  -0.03  -0.03
 135   7    -0.02  -0.02   0.00    -0.00   0.02   0.13    -0.00  -0.03  -0.01
 136   6    -0.05   0.00  -0.00    -0.00   0.02   0.13    -0.00  -0.03  -0.05
 137   6    -0.04   0.02  -0.01    -0.00   0.02   0.12    -0.00  -0.02  -0.04
 138   6    -0.05   0.04  -0.01    -0.00   0.02   0.12    -0.00  -0.03  -0.05
 139   6    -0.04   0.05  -0.01    -0.00   0.01   0.11    -0.00  -0.02  -0.04
 140   6    -0.02   0.04  -0.01    -0.00   0.02   0.11    -0.00  -0.02  -0.01
 141   7    -0.02   0.02  -0.01    -0.00   0.02   0.13    -0.00  -0.02  -0.01
 142   6     0.00   0.05  -0.01    -0.00   0.01   0.10     0.00  -0.02   0.01
 143   6     0.02   0.04  -0.01    -0.00   0.01   0.11     0.00  -0.02   0.03
 144   6     0.04   0.05  -0.01    -0.00   0.01   0.10     0.00  -0.01   0.05
 145   6     0.05   0.04  -0.01    -0.00   0.02   0.12     0.00  -0.01   0.07
 146   6     0.04   0.02  -0.00    -0.00   0.02   0.12     0.00  -0.01   0.06
 147   7     0.02   0.02  -0.01    -0.00   0.02   0.13     0.00  -0.02   0.04
 148   6     0.05   0.00  -0.00    -0.00   0.02   0.13     0.00  -0.01   0.07
 149   6     0.04  -0.02   0.00    -0.00   0.02   0.13     0.00  -0.02   0.06
 150   7     0.02  -0.02   0.00    -0.00   0.02   0.13     0.00  -0.02   0.04
 151   1     0.02  -0.01   0.00    -0.00   0.01   0.04     0.00  -0.00   0.03
 152   1     0.01  -0.02   0.00    -0.00   0.00   0.03     0.00  -0.01   0.02
 153   1    -0.01  -0.02   0.00    -0.00   0.00   0.03    -0.00  -0.01  -0.01
 154   1    -0.02  -0.01   0.00    -0.00   0.00   0.03    -0.00  -0.01  -0.02
 155   1    -0.00  -0.00  -0.00    -0.00   0.00   0.04    -0.00  -0.01   0.00
 156   1    -0.02   0.00  -0.00    -0.00   0.01   0.04    -0.00  -0.01  -0.02
 157   1    -0.02   0.01  -0.00    -0.00   0.00   0.04    -0.00  -0.01  -0.02
 158   1    -0.01   0.02  -0.00    -0.00   0.00   0.03    -0.00  -0.01  -0.01
 159   1     0.01   0.02  -0.00    -0.00   0.00   0.03     0.00  -0.00   0.02
 160   1     0.02   0.01  -0.00    -0.00   0.00   0.03     0.00  -0.00   0.03
 161   1     0.00   0.00  -0.00    -0.00   0.01   0.04     0.00  -0.01   0.01
 162   1     0.02   0.00   0.00    -0.00   0.01   0.04     0.00  -0.00   0.03
 163   6    -0.01   0.10  -0.02     0.00  -0.01  -0.05     0.01   0.02   0.09
 164   6    -0.00   0.10  -0.02     0.00  -0.01  -0.03     0.01   0.01   0.06
 165   6    -0.00   0.10  -0.02     0.00  -0.01  -0.04     0.00   0.01   0.02
 166   6    -0.00   0.10  -0.02     0.00  -0.01  -0.03     0.00   0.00  -0.01
 167   6     0.00   0.10  -0.02     0.00  -0.01  -0.05    -0.00  -0.00  -0.05
 168   6     0.00   0.10  -0.01     0.00  -0.01  -0.04    -0.01  -0.01  -0.08
 169   6     0.01   0.10  -0.01     0.00  -0.01  -0.07    -0.01  -0.01  -0.11
 170   6     0.00   0.10  -0.01     0.00  -0.01  -0.08    -0.01  -0.00  -0.09
 171   7     0.00   0.10  -0.02     0.00  -0.01  -0.08    -0.00   0.00  -0.06
 172   6     0.01   0.09  -0.01     0.00  -0.02  -0.10    -0.01   0.00  -0.11
 173   6     0.01   0.09  -0.01     0.00  -0.02  -0.11    -0.01   0.01  -0.10
 174   6     0.01   0.09  -0.01     0.00  -0.02  -0.13    -0.01   0.01  -0.12
 175   6     0.00   0.09  -0.01     0.00  -0.02  -0.12    -0.01   0.02  -0.09
 176   6     0.00   0.09  -0.01     0.00  -0.02  -0.11    -0.00   0.02  -0.05
 177   7     0.00   0.10  -0.02     0.00  -0.02  -0.11    -0.00   0.02  -0.06
 178   6     0.00   0.09  -0.01     0.00  -0.02  -0.11     0.00   0.03  -0.02
 179   6    -0.00   0.09  -0.02     0.00  -0.02  -0.10     0.00   0.03   0.02
 180   6    -0.00   0.09  -0.02     0.00  -0.02  -0.10     0.01   0.04   0.06
 181   6    -0.01   0.09  -0.02     0.00  -0.01  -0.10     0.01   0.04   0.08
 182   6    -0.00   0.09  -0.02     0.00  -0.01  -0.09     0.01   0.03   0.06
 183   7    -0.00   0.10  -0.02     0.00  -0.02  -0.10     0.01   0.03   0.03
 184   6    -0.01   0.09  -0.02     0.00  -0.01  -0.08     0.01   0.03   0.08
 185   6    -0.00   0.10  -0.02     0.00  -0.01  -0.07     0.01   0.02   0.06
 186   7    -0.00   0.10  -0.02     0.00  -0.01  -0.07     0.01   0.01   0.03
 187   1    -0.00   0.03  -0.01     0.00  -0.00  -0.01     0.00   0.01   0.03
 188   1    -0.00   0.03  -0.01     0.00  -0.00  -0.00     0.00   0.00   0.02
 189   1     0.00   0.03  -0.00     0.00  -0.00  -0.01    -0.00  -0.00  -0.02
 190   1     0.00   0.03  -0.00     0.00  -0.00  -0.02    -0.00  -0.00  -0.04
 191   1     0.00   0.03  -0.00     0.00  -0.00  -0.02    -0.00   0.00  -0.01
 192   1     0.00   0.03  -0.00     0.00  -0.00  -0.03    -0.00  -0.00  -0.04
 193   1     0.00   0.03  -0.00     0.00  -0.01  -0.04    -0.00   0.00  -0.04
 194   1     0.00   0.03  -0.00     0.00  -0.01  -0.04    -0.00   0.01  -0.03
 195   1    -0.00   0.02  -0.00     0.00  -0.00  -0.03     0.00   0.01   0.02
 196   1    -0.00   0.03  -0.01     0.00  -0.00  -0.03     0.00   0.01   0.03
 197   1    -0.00   0.03  -0.01     0.00  -0.00  -0.03     0.00   0.01   0.00
 198   1    -0.00   0.03  -0.01     0.00  -0.00  -0.02     0.00   0.01   0.03
                      7                      8                      9
                        a                      a                      a 
 Frequencies --     6.6050                 7.6686                 8.5192
 Red. masses --    11.5732                11.2418                11.2425
 Frc consts  --     0.0000                 0.0000                 0.0000
 IR Inten    --     1.6474                 0.2303                 0.0428
 Raman Activ --     0.0000                 0.0000                 0.0000
 Depolar     --     0.0000                 0.0000                 0.0000
 Atom AN      X      Y      Z        X      Y      Z        X      Y      Z
   1   6    -0.08   0.05  -0.06     0.00   0.00  -0.07    -0.01   0.00   0.05
   2   6    -0.06   0.07  -0.05     0.00   0.00  -0.05    -0.01   0.01   0.03
   3   6    -0.03   0.06  -0.03     0.00   0.00  -0.03    -0.00   0.01   0.01
   4   6     0.00   0.07  -0.01     0.00   0.00  -0.01    -0.00   0.01  -0.01
   5   6     0.03   0.05   0.01    -0.00  -0.00   0.02     0.00   0.01  -0.02
   6   6     0.06   0.07   0.03    -0.00  -0.00   0.04     0.00   0.01  -0.04
   7   6     0.08   0.04   0.05    -0.00  -0.00   0.06     0.01   0.01  -0.05
   8   6     0.06   0.01   0.04    -0.00  -0.00   0.05     0.00   0.01  -0.04
   9   7     0.04   0.02   0.02    -0.00  -0.00   0.03     0.00   0.01  -0.03
  10   6     0.08  -0.02   0.05    -0.00  -0.01   0.07     0.01   0.01  -0.05
  11   6     0.06  -0.05   0.05    -0.00  -0.01   0.06     0.00   0.00  -0.04
  12   6     0.08  -0.08   0.06    -0.00  -0.01   0.08     0.01   0.00  -0.05
  13   6     0.06  -0.10   0.05    -0.00  -0.01   0.06     0.00  -0.00  -0.03
  14   6     0.03  -0.08   0.03    -0.00  -0.00   0.03     0.00  -0.00  -0.01
  15   7     0.03  -0.06   0.03    -0.00  -0.00   0.04     0.00   0.00  -0.02
  16   6    -0.00  -0.10   0.01    -0.00  -0.00   0.01    -0.00  -0.00   0.01
  17   6    -0.03  -0.08  -0.01     0.00  -0.00  -0.01    -0.00  -0.00   0.03
  18   6    -0.06  -0.09  -0.03     0.00   0.00  -0.04    -0.01  -0.01   0.05
  19   6    -0.08  -0.07  -0.05     0.00   0.00  -0.06    -0.01  -0.01   0.06
  20   6    -0.07  -0.04  -0.04     0.00   0.00  -0.05    -0.01  -0.00   0.05
  21   7    -0.04  -0.05  -0.02     0.00   0.00  -0.02    -0.00  -0.00   0.03
  22   6    -0.08  -0.01  -0.06     0.00   0.00  -0.06    -0.01  -0.00   0.05
  23   6    -0.06   0.02  -0.05     0.00   0.00  -0.05    -0.01   0.00   0.04
  24   7    -0.04   0.03  -0.03     0.00   0.00  -0.03    -0.00   0.00   0.02
  25   1    -0.03   0.02  -0.02     0.00   0.00  -0.03    -0.00   0.00   0.02
  26   1    -0.02   0.03  -0.02     0.00   0.00  -0.02    -0.00   0.00   0.01
  27   1     0.02   0.03   0.01    -0.00  -0.00   0.01     0.00   0.00  -0.01
  28   1     0.03   0.01   0.02    -0.00  -0.00   0.02     0.00   0.00  -0.02
  29   1     0.00   0.00   0.00    -0.00  -0.00   0.00     0.00   0.00  -0.00
  30   1     0.03  -0.01   0.02    -0.00  -0.00   0.02     0.00   0.00  -0.02
  31   1     0.03  -0.02   0.02    -0.00  -0.00   0.03     0.00   0.00  -0.02
  32   1     0.02  -0.04   0.02    -0.00  -0.00   0.02     0.00  -0.00  -0.01
  33   1    -0.00  -0.04   0.01    -0.00  -0.00   0.00    -0.00  -0.00   0.00
  34   1    -0.02  -0.03  -0.01     0.00   0.00  -0.01    -0.00  -0.00   0.02
  35   1    -0.03  -0.02  -0.02     0.00   0.00  -0.02    -0.00  -0.00   0.02
  36   1    -0.00  -0.01  -0.00     0.00  -0.00  -0.00    -0.00  -0.00   0.00
  37   1    -0.03  -0.00  -0.02     0.00   0.00  -0.02    -0.00  -0.00   0.02
  38   6    -0.08   0.04  -0.05     0.00   0.02   0.20     0.01   0.02   0.14
  39   6    -0.06   0.07  -0.04     0.00   0.02   0.15     0.00   0.01   0.10
  40   6    -0.03   0.05  -0.02     0.00   0.01   0.08     0.00   0.01   0.06
  41   6     0.00   0.07  -0.01     0.00   0.01   0.02     0.00   0.00   0.01
  42   6     0.03   0.06   0.00    -0.00  -0.00  -0.05    -0.00  -0.00  -0.03
  43   6     0.06   0.07   0.02    -0.00  -0.00  -0.11    -0.00  -0.01  -0.07
  44   6     0.09   0.05   0.03    -0.00  -0.01  -0.16    -0.00  -0.01  -0.11
  45   6     0.07   0.02   0.03    -0.00  -0.01  -0.13    -0.00  -0.01  -0.09
  46   7     0.04   0.03   0.01    -0.00  -0.00  -0.06    -0.00  -0.00  -0.04
  47   6     0.08  -0.01   0.04    -0.00  -0.02  -0.16    -0.01  -0.01  -0.11
  48   6     0.07  -0.04   0.03    -0.00  -0.02  -0.13    -0.00  -0.01  -0.10
  49   6     0.08  -0.07   0.05    -0.00  -0.03  -0.17    -0.01  -0.01  -0.13
  50   6     0.06  -0.09   0.04    -0.00  -0.03  -0.12    -0.01  -0.01  -0.10
  51   6     0.03  -0.08   0.02    -0.00  -0.02  -0.06    -0.00  -0.01  -0.05
  52   7     0.04  -0.05   0.02    -0.00  -0.01  -0.07    -0.00  -0.01  -0.05
  53   6    -0.00  -0.09   0.01    -0.00  -0.01   0.00    -0.00  -0.00  -0.00
  54   6    -0.03  -0.08  -0.01     0.00  -0.00   0.07     0.00   0.00   0.04
  55   6    -0.06  -0.10  -0.02     0.00  -0.00   0.13     0.00   0.00   0.09
  56   6    -0.09  -0.07  -0.03     0.00   0.01   0.19     0.00   0.01   0.13
  57   6    -0.07  -0.04  -0.03     0.00   0.01   0.16     0.00   0.01   0.11
  58   7    -0.04  -0.05  -0.01     0.00   0.00   0.09     0.00   0.00   0.06
  59   6    -0.08  -0.01  -0.04     0.00   0.02   0.19     0.01   0.01   0.13
  60   6    -0.07   0.01  -0.04     0.00   0.02   0.16     0.00   0.01   0.11
  61   7    -0.04   0.02  -0.02     0.00   0.01   0.10     0.00   0.01   0.07
  62   1    -0.03   0.01  -0.02     0.00   0.01   0.07     0.00   0.01   0.05
  63   1    -0.02   0.03  -0.01     0.00   0.01   0.05     0.00   0.00   0.03
  64   1     0.02   0.03   0.00    -0.00  -0.00  -0.03    -0.00  -0.00  -0.02
  65   1     0.03   0.02   0.01    -0.00  -0.00  -0.06    -0.00  -0.00  -0.04
  66   1     0.00   0.00   0.00    -0.00  -0.00  -0.01    -0.00  -0.00  -0.00
  67   1     0.03  -0.00   0.01    -0.00  -0.01  -0.06    -0.00  -0.00  -0.04
  68   1     0.03  -0.02   0.02    -0.00  -0.01  -0.07    -0.00  -0.01  -0.05
  69   1     0.02  -0.03   0.01    -0.00  -0.01  -0.04    -0.00  -0.00  -0.03
  70   1     0.00  -0.03   0.00    -0.00  -0.01  -0.00    -0.00  -0.00  -0.00
  71   1    -0.02  -0.04  -0.00    -0.00  -0.00   0.04     0.00   0.00   0.03
  72   1    -0.03  -0.02  -0.01     0.00   0.00   0.07     0.00   0.00   0.05
  73   1    -0.00  -0.01  -0.00     0.00   0.00   0.02     0.00   0.00   0.01
  74   1    -0.03  -0.00  -0.02     0.00   0.01   0.07     0.00   0.01   0.05
  75   6     0.00   0.10  -0.01    -0.00   0.00  -0.01    -0.00   0.01  -0.01
  76   6     0.00   0.12  -0.01    -0.00   0.00  -0.01    -0.00   0.01  -0.01
  77   6     0.00   0.12  -0.01    -0.00   0.00  -0.01    -0.00   0.01  -0.01
  78   6     0.00   0.12  -0.01    -0.00   0.00  -0.01    -0.00   0.01  -0.01
  79   6    -0.00  -0.03   0.00     0.00   0.00   0.01     0.00  -0.01   0.01
  80   6     0.00  -0.05   0.01     0.00   0.00   0.01     0.00  -0.01   0.01
  81   6     0.00  -0.06   0.01     0.00   0.00   0.01     0.00  -0.01   0.02
  82   6     0.00  -0.08   0.01     0.00   0.00   0.01     0.00  -0.01   0.02
  83   6     0.00  -0.08   0.01    -0.00  -0.00  -0.01     0.00   0.00  -0.00
  84   6     0.00  -0.07   0.01    -0.00  -0.00  -0.01     0.00   0.00  -0.01
  85   6     0.00  -0.05   0.01    -0.00  -0.00  -0.02     0.00   0.00  -0.01
  86   6    -0.00  -0.03   0.01     0.00  -0.00  -0.02     0.00   0.00  -0.02
  87   6     0.00   0.12  -0.02     0.00   0.01  -0.00     0.00  -0.00  -0.00
  88   6     0.00   0.12  -0.02    -0.00   0.01   0.00     0.00   0.00   0.00
  89   6     0.00   0.12  -0.02    -0.00   0.01   0.01     0.00   0.00   0.01
  90   6     0.00   0.10  -0.01     0.00   0.01   0.01     0.00   0.00   0.01
  91   6    -0.05   0.09  -0.00    -0.00  -0.01  -0.14    -0.01   0.02   0.13
  92   6    -0.04   0.10  -0.01    -0.00  -0.01  -0.10    -0.00   0.02   0.09
  93   6    -0.02   0.09  -0.01    -0.00  -0.00  -0.05    -0.00   0.01   0.04
  94   6     0.00   0.10  -0.01    -0.00   0.00  -0.00     0.00   0.01  -0.01
  95   6     0.02   0.09  -0.01     0.00   0.01   0.05     0.00  -0.00  -0.06
  96   6     0.04   0.10  -0.01     0.00   0.01   0.10     0.00  -0.00  -0.12
  97   6     0.05   0.08  -0.01     0.00   0.02   0.14     0.01  -0.01  -0.16
  98   6     0.04   0.06  -0.01     0.00   0.01   0.11     0.00  -0.01  -0.13
  99   7     0.02   0.07  -0.01     0.00   0.01   0.06     0.00  -0.01  -0.08
 100   6     0.05   0.04  -0.01     0.00   0.02   0.14     0.01  -0.02  -0.15
 101   6     0.04   0.03  -0.01     0.00   0.01   0.12     0.00  -0.02  -0.12
 102   6     0.05   0.01  -0.00     0.00   0.02   0.15     0.01  -0.02  -0.15
 103   6     0.04  -0.01  -0.00     0.00   0.01   0.12     0.00  -0.02  -0.11
 104   6     0.02   0.00  -0.00     0.00   0.01   0.06     0.00  -0.01  -0.05
 105   7     0.02   0.02  -0.00     0.00   0.01   0.07     0.00  -0.01  -0.07
 106   6    -0.00  -0.01   0.00     0.00   0.00   0.01     0.00  -0.01   0.00
 107   6    -0.02   0.00   0.00    -0.00  -0.00  -0.04    -0.00  -0.00   0.05
 108   6    -0.04  -0.01   0.00    -0.00  -0.01  -0.09    -0.00   0.00   0.11
 109   6    -0.05   0.01   0.00    -0.00  -0.01  -0.13    -0.01   0.01   0.14
 110   6    -0.04   0.03   0.00    -0.00  -0.01  -0.11    -0.00   0.01   0.11
 111   7    -0.02   0.02  -0.00    -0.00  -0.00  -0.06    -0.00   0.00   0.06
 112   6    -0.05   0.05  -0.00    -0.00  -0.01  -0.13    -0.01   0.01   0.13
 113   6    -0.04   0.07  -0.00    -0.00  -0.01  -0.11    -0.00   0.01   0.10
 114   7    -0.02   0.07  -0.01    -0.00  -0.00  -0.06    -0.00   0.01   0.05
 115   1    -0.02   0.03  -0.00    -0.00  -0.01  -0.05    -0.00   0.01   0.05
 116   1    -0.01   0.03  -0.00    -0.00  -0.00  -0.03    -0.00   0.01   0.03
 117   1     0.01   0.03  -0.00     0.00   0.00   0.03     0.00  -0.00  -0.04
 118   1     0.02   0.02  -0.00     0.00   0.01   0.05     0.00  -0.00  -0.06
 119   1     0.00   0.02  -0.00     0.00   0.00   0.01     0.00  -0.00  -0.01
 120   1     0.02   0.01  -0.00     0.00   0.01   0.05     0.00  -0.01  -0.06
 121   1     0.02   0.00  -0.00     0.00   0.01   0.06     0.00  -0.01  -0.06
 122   1     0.01  -0.01   0.00     0.00   0.00   0.04     0.00  -0.01  -0.03
 123   1    -0.01  -0.01   0.00    -0.00  -0.00  -0.03    -0.00   0.00   0.03
 124   1    -0.02   0.00   0.00    -0.00  -0.01  -0.05    -0.00   0.00   0.05
 125   1    -0.00   0.01  -0.00    -0.00  -0.00  -0.01    -0.00  -0.00   0.01
 126   1    -0.02   0.01   0.00    -0.00  -0.01  -0.05    -0.00   0.01   0.05
 127   6    -0.00  -0.08  -0.01    -0.00  -0.02  -0.13     0.01  -0.01  -0.01
 128   6    -0.00  -0.08  -0.00    -0.00  -0.01  -0.09     0.00  -0.01   0.00
 129   6    -0.00  -0.08   0.00    -0.00  -0.01  -0.04     0.00  -0.01   0.01
 130   6     0.00  -0.08   0.01     0.00  -0.00   0.01     0.00  -0.01   0.02
 131   6     0.00  -0.08   0.02     0.00   0.01   0.06    -0.00  -0.00   0.04
 132   6     0.00  -0.08   0.02     0.00   0.01   0.11    -0.00  -0.00   0.05
 133   6     0.00  -0.08   0.03     0.00   0.01   0.14    -0.01  -0.00   0.06
 134   6     0.00  -0.08   0.02     0.00   0.01   0.11    -0.00   0.00   0.05
 135   7     0.00  -0.08   0.02     0.00   0.01   0.07    -0.00  -0.00   0.04
 136   6     0.00  -0.08   0.03     0.00   0.01   0.13    -0.01   0.00   0.06
 137   6     0.00  -0.08   0.02     0.00   0.01   0.10    -0.00   0.00   0.05
 138   6     0.00  -0.08   0.03     0.00   0.01   0.13    -0.01   0.01   0.06
 139   6     0.00  -0.08   0.02     0.00   0.01   0.09    -0.00   0.01   0.04
 140   6     0.00  -0.08   0.02     0.00   0.00   0.04    -0.00   0.00   0.03
 141   7     0.00  -0.09   0.02     0.00   0.00   0.06    -0.00   0.00   0.04
 142   6     0.00  -0.08   0.01    -0.00  -0.00  -0.01     0.00   0.00   0.01
 143   6     0.00  -0.08   0.01    -0.00  -0.01  -0.05     0.00   0.00  -0.01
 144   6    -0.00  -0.08  -0.00    -0.00  -0.01  -0.10     0.00  -0.00  -0.02
 145   6    -0.00  -0.08  -0.01    -0.00  -0.02  -0.14     0.01  -0.00  -0.03
 146   6    -0.00  -0.08  -0.00    -0.00  -0.01  -0.11     0.00  -0.00  -0.01
 147   7     0.00  -0.09   0.00    -0.00  -0.01  -0.06     0.00  -0.00  -0.00
 148   6    -0.00  -0.08  -0.01    -0.00  -0.02  -0.13     0.01  -0.01  -0.01
 149   6    -0.00  -0.08  -0.00    -0.00  -0.01  -0.10     0.00  -0.01  -0.00
 150   7    -0.00  -0.09   0.00    -0.00  -0.01  -0.05     0.00  -0.01   0.01
 151   1    -0.00  -0.02  -0.00    -0.00  -0.01  -0.05     0.00  -0.00  -0.01
 152   1    -0.00  -0.02  -0.00    -0.00  -0.00  -0.03     0.00  -0.00   0.00
 153   1     0.00  -0.02   0.01     0.00   0.00   0.03    -0.00  -0.00   0.01
 154   1     0.00  -0.02   0.01     0.00   0.01   0.05    -0.00  -0.00   0.02
 155   1     0.00  -0.02   0.00     0.00   0.00   0.01    -0.00  -0.00   0.01
 156   1     0.00  -0.02   0.01     0.00   0.01   0.05    -0.00   0.00   0.02
 157   1     0.00  -0.02   0.01     0.00   0.01   0.05    -0.00   0.00   0.02
 158   1     0.00  -0.02   0.01     0.00   0.00   0.03    -0.00   0.00   0.01
 159   1    -0.00  -0.02  -0.00    -0.00  -0.00  -0.03     0.00   0.00  -0.01
 160   1    -0.00  -0.02  -0.00    -0.00  -0.01  -0.05     0.00  -0.00  -0.01
 161   1     0.00  -0.02   0.00    -0.00  -0.00  -0.01     0.00  -0.00   0.00
 162   1    -0.00  -0.02  -0.00    -0.00  -0.01  -0.05     0.00  -0.00  -0.01
 163   6     0.06  -0.00  -0.02     0.00   0.00  -0.00     0.00  -0.02  -0.21
 164   6     0.04  -0.01  -0.01     0.00  -0.00  -0.01     0.00  -0.01  -0.16
 165   6     0.02  -0.00  -0.00     0.00  -0.00  -0.02     0.00  -0.01  -0.09
 166   6    -0.00  -0.01   0.00     0.00  -0.00  -0.02     0.00   0.00  -0.02
 167   6    -0.02  -0.00   0.01    -0.00  -0.00  -0.03     0.00   0.01   0.04
 168   6    -0.04  -0.01   0.02    -0.00  -0.00  -0.04    -0.00   0.02   0.11
 169   6    -0.06   0.01   0.02    -0.00  -0.00  -0.05    -0.00   0.02   0.16
 170   6    -0.04   0.03   0.02    -0.00  -0.00  -0.04    -0.00   0.02   0.12
 171   7    -0.02   0.02   0.01    -0.00  -0.00  -0.04     0.00   0.01   0.06
 172   6    -0.05   0.05   0.02    -0.00  -0.00  -0.05    -0.00   0.02   0.15
 173   6    -0.04   0.07   0.01    -0.00  -0.00  -0.04    -0.00   0.02   0.12
 174   6    -0.05   0.09   0.01    -0.00   0.00  -0.05    -0.00   0.02   0.16
 175   6    -0.04   0.10   0.00    -0.00   0.00  -0.04    -0.00   0.02   0.12
 176   6    -0.02   0.09  -0.00    -0.00   0.00  -0.03    -0.00   0.01   0.05
 177   7    -0.02   0.07   0.00    -0.00   0.00  -0.03     0.00   0.01   0.06
 178   6     0.00   0.10  -0.01     0.00   0.01  -0.01     0.00  -0.00  -0.01
 179   6     0.02   0.09  -0.02     0.00   0.01  -0.00     0.00  -0.01  -0.08
 180   6     0.04   0.10  -0.03     0.00   0.01   0.01     0.00  -0.02  -0.14
 181   6     0.06   0.08  -0.03     0.00   0.01   0.02     0.00  -0.02  -0.19
 182   6     0.05   0.06  -0.02     0.00   0.01   0.00     0.00  -0.02  -0.16
 183   7     0.03   0.07  -0.02     0.00   0.01  -0.01     0.00  -0.01  -0.10
 184   6     0.05   0.04  -0.02     0.00   0.00   0.00     0.00  -0.02  -0.20
 185   6     0.04   0.02  -0.02     0.00   0.00  -0.00     0.00  -0.02  -0.17
 186   7     0.02   0.02  -0.01     0.00   0.00  -0.01     0.00  -0.01  -0.10
 187   1     0.02  -0.00  -0.01     0.00   0.00   0.00     0.00  -0.01  -0.08
 188   1     0.01  -0.01  -0.00     0.00  -0.00  -0.00     0.00  -0.00  -0.05
 189   1    -0.01  -0.01   0.01    -0.00  -0.00  -0.01    -0.00   0.01   0.03
 190   1    -0.02   0.00   0.01    -0.00  -0.00  -0.02    -0.00   0.01   0.06
 191   1    -0.00   0.01   0.00    -0.00  -0.00  -0.01     0.00   0.00   0.00
 192   1    -0.02   0.01   0.01    -0.00  -0.00  -0.02    -0.00   0.01   0.06
 193   1    -0.02   0.03   0.01    -0.00  -0.00  -0.02    -0.00   0.01   0.06
 194   1    -0.01   0.03   0.00    -0.00   0.00  -0.01    -0.00   0.00   0.04
 195   1     0.01   0.03  -0.01     0.00   0.00   0.01     0.00  -0.01  -0.04
 196   1     0.02   0.02  -0.01     0.00   0.00   0.01     0.00  -0.01  -0.07
 197   1     0.00   0.02  -0.00     0.00   0.00  -0.00     0.00  -0.00  -0.02
 198   1     0.02   0.01  -0.01     0.00   0.00   0.00     0.00  -0.01  -0.07
                     10                     11                     12
                        a                      a                      a 
 Frequencies --     9.1868                 9.4170                11.1583
 Red. masses --    11.2718                11.4588                11.5459
 Frc consts  --     0.0000                 0.0000                 0.0000
 IR Inten    --     0.0664                 0.0117                 0.3013
 Raman Activ --     0.0000                 0.0000                 0.0000
 Depolar     --     0.0000                 0.0000                 0.0000
 Atom AN      X      Y      Z        X      Y      Z        X      Y      Z
   1   6     0.02  -0.02   0.05     0.07  -0.06   0.00     0.01  -0.00  -0.10
   2   6     0.02  -0.03   0.05     0.05  -0.07  -0.00     0.01  -0.01  -0.12
   3   6     0.01  -0.02   0.03     0.02  -0.06  -0.00     0.01  -0.01  -0.10
   4   6    -0.00  -0.03   0.03    -0.00  -0.07  -0.00     0.00  -0.01  -0.12
   5   6    -0.01  -0.02   0.01    -0.02  -0.06  -0.00    -0.00  -0.00  -0.11
   6   6    -0.02  -0.03   0.01    -0.05  -0.07  -0.00    -0.01  -0.01  -0.13
   7   6    -0.02  -0.02  -0.01    -0.07  -0.05  -0.00    -0.01  -0.00  -0.11
   8   6    -0.02  -0.01  -0.01    -0.05  -0.03  -0.00    -0.01  -0.00  -0.07
   9   7    -0.01  -0.01   0.00    -0.03  -0.04  -0.00    -0.00  -0.00  -0.07
  10   6    -0.02   0.00  -0.03    -0.07  -0.00   0.00    -0.01   0.00  -0.03
  11   6    -0.02   0.01  -0.04    -0.05   0.02   0.00    -0.01   0.00   0.03
  12   6    -0.02   0.02  -0.06    -0.07   0.05   0.00    -0.02   0.00   0.08
  13   6    -0.02   0.03  -0.06    -0.05   0.06   0.00    -0.01   0.00   0.12
  14   6    -0.01   0.02  -0.04    -0.02   0.05   0.00    -0.01   0.00   0.10
  15   7    -0.01   0.01  -0.03    -0.03   0.03   0.00    -0.01   0.00   0.05
  16   6     0.00   0.03  -0.04     0.00   0.06   0.00    -0.00   0.00   0.13
  17   6     0.01   0.02  -0.02     0.03   0.05   0.00     0.00   0.00   0.11
  18   6     0.02   0.02  -0.01     0.05   0.06   0.00     0.01   0.00   0.14
  19   6     0.02   0.02   0.01     0.07   0.04   0.00     0.01   0.00   0.09
  20   6     0.02   0.01   0.01     0.06   0.02   0.00     0.01   0.00   0.04
  21   7     0.01   0.01  -0.00     0.03   0.03   0.00     0.00   0.00   0.06
  22   6     0.02  -0.00   0.03     0.07  -0.01   0.00     0.01  -0.00  -0.01
  23   6     0.02  -0.01   0.04     0.05  -0.03   0.00     0.01  -0.00  -0.06
  24   7     0.01  -0.01   0.03     0.03  -0.04   0.00     0.01  -0.00  -0.07
  25   1     0.01  -0.01   0.02     0.03  -0.02   0.00     0.01  -0.00  -0.03
  26   1     0.00  -0.01   0.02     0.01  -0.03  -0.00     0.00  -0.00  -0.05
  27   1    -0.01  -0.01   0.00    -0.02  -0.03  -0.00    -0.00  -0.00  -0.05
  28   1    -0.01  -0.01  -0.00    -0.03  -0.02  -0.00    -0.00  -0.00  -0.03
  29   1    -0.00  -0.00   0.00    -0.00  -0.01  -0.00    -0.00  -0.00  -0.01
  30   1    -0.01   0.00  -0.01    -0.03  -0.00  -0.00    -0.00   0.00  -0.01
  31   1    -0.01   0.01  -0.02    -0.03   0.01   0.00    -0.01   0.00   0.02
  32   1    -0.00   0.01  -0.02    -0.01   0.02   0.00    -0.00   0.00   0.05
  33   1     0.00   0.01  -0.01     0.00   0.02   0.00    -0.00   0.00   0.05
  34   1     0.01   0.01  -0.01     0.02   0.02   0.00     0.00   0.00   0.05
  35   1     0.01   0.00   0.01     0.03   0.01   0.00     0.00   0.00   0.03
  36   1     0.00   0.00  -0.00     0.00   0.00   0.00     0.00  -0.00   0.01
  37   1     0.01  -0.00   0.01     0.03  -0.00   0.00     0.00  -0.00  -0.00
  38   6    -0.02   0.01  -0.05    -0.07   0.06   0.03    -0.00   0.00   0.05
  39   6    -0.02   0.02  -0.05    -0.05   0.08   0.02    -0.00   0.01   0.08
  40   6    -0.01   0.02  -0.03    -0.02   0.06   0.01    -0.00   0.01   0.07
  41   6     0.00   0.02  -0.03    -0.00   0.07   0.01    -0.00   0.01   0.10
  42   6     0.01   0.02  -0.01     0.02   0.06  -0.00    -0.00   0.01   0.09
  43   6     0.02   0.03  -0.01     0.05   0.07  -0.01    -0.00   0.01   0.13
  44   6     0.03   0.02   0.01     0.07   0.05  -0.01    -0.00   0.01   0.11
  45   6     0.02   0.01   0.01     0.05   0.03  -0.01    -0.01   0.01   0.07
  46   7     0.01   0.01   0.00     0.03   0.04  -0.00    -0.01   0.01   0.07
  47   6     0.03   0.00   0.03     0.06   0.00  -0.02    -0.01   0.00   0.04
  48   6     0.02  -0.00   0.04     0.05  -0.02  -0.02    -0.01   0.00  -0.01
  49   6     0.03  -0.01   0.06     0.06  -0.05  -0.02    -0.01  -0.00  -0.04
  50   6     0.02  -0.02   0.06     0.05  -0.07  -0.02    -0.02  -0.01  -0.09
  51   6     0.01  -0.01   0.04     0.02  -0.05  -0.01    -0.02  -0.01  -0.08
  52   7     0.01  -0.01   0.03     0.03  -0.03  -0.01    -0.01  -0.00  -0.04
  53   6     0.00  -0.02   0.03    -0.00  -0.06  -0.01    -0.02  -0.01  -0.12
  54   6    -0.01  -0.02   0.01    -0.03  -0.05  -0.00    -0.02  -0.01  -0.11
  55   6    -0.02  -0.02   0.01    -0.05  -0.06   0.01    -0.02  -0.01  -0.14
  56   6    -0.02  -0.02  -0.01    -0.07  -0.04   0.01    -0.01  -0.01  -0.11
  57   6    -0.02  -0.01  -0.02    -0.06  -0.02   0.01    -0.01  -0.01  -0.06
  58   7    -0.01  -0.01  -0.00    -0.03  -0.03   0.01    -0.01  -0.01  -0.07
  59   6    -0.02  -0.00  -0.03    -0.07   0.01   0.02    -0.01  -0.00  -0.03
  60   6    -0.02   0.01  -0.04    -0.05   0.03   0.02    -0.01   0.00   0.02
  61   7    -0.01   0.01  -0.03    -0.03   0.04   0.01    -0.01   0.00   0.04
  62   1    -0.01   0.00  -0.02    -0.03   0.02   0.01    -0.00   0.00   0.01
  63   1    -0.01   0.01  -0.02    -0.01   0.03   0.01    -0.00   0.00   0.03
  64   1     0.01   0.01  -0.00     0.02   0.03  -0.00    -0.00   0.00   0.04
  65   1     0.01   0.01   0.01     0.03   0.02  -0.01    -0.00   0.00   0.04
  66   1     0.00   0.00  -0.00     0.00   0.01  -0.00    -0.00   0.00   0.01
  67   1     0.01   0.00   0.01     0.02  -0.00  -0.01    -0.00   0.00   0.01
  68   1     0.01  -0.00   0.02     0.02  -0.01  -0.01    -0.00  -0.00  -0.01
  69   1     0.01  -0.01   0.02     0.01  -0.03  -0.01    -0.01  -0.00  -0.04
  70   1     0.00  -0.01   0.01    -0.00  -0.03  -0.00    -0.01  -0.00  -0.05
  71   1    -0.00  -0.01   0.00    -0.02  -0.02   0.00    -0.01  -0.00  -0.05
  72   1    -0.01  -0.01  -0.01    -0.03  -0.01   0.01    -0.00  -0.00  -0.04
  73   1    -0.00  -0.00   0.00    -0.00  -0.00   0.00    -0.00  -0.00  -0.01
  74   1    -0.01  -0.00  -0.01    -0.03   0.00   0.01    -0.00  -0.00  -0.01
  75   6    -0.00  -0.04   0.03    -0.00  -0.10  -0.00     0.00  -0.01  -0.14
  76   6    -0.00  -0.04   0.04    -0.00  -0.10  -0.00     0.00  -0.01  -0.14
  77   6    -0.00  -0.04   0.04    -0.00  -0.10  -0.01     0.00  -0.01  -0.13
  78   6    -0.00  -0.03   0.03    -0.00  -0.09  -0.01     0.00  -0.01  -0.11
  79   6    -0.00   0.04  -0.03     0.00   0.11   0.00     0.01   0.01   0.12
  80   6    -0.00   0.04  -0.04     0.00   0.12   0.00     0.01   0.01   0.12
  81   6    -0.00   0.04  -0.04     0.00   0.12   0.00     0.01   0.01   0.12
  82   6    -0.00   0.04  -0.03     0.00   0.11   0.00     0.01   0.01   0.11
  83   6    -0.00  -0.04   0.03    -0.00  -0.11  -0.00     0.00  -0.01  -0.11
  84   6    -0.00  -0.04   0.04    -0.00  -0.12  -0.00     0.00  -0.01  -0.11
  85   6    -0.00  -0.04   0.04     0.00  -0.12  -0.00     0.00  -0.01  -0.11
  86   6    -0.00  -0.04   0.03    -0.00  -0.11  -0.00     0.00  -0.01  -0.11
  87   6     0.00   0.03  -0.03     0.00   0.09   0.01    -0.00   0.01   0.10
  88   6     0.00   0.03  -0.03     0.00   0.10   0.01    -0.00   0.01   0.12
  89   6     0.00   0.03  -0.04     0.00   0.10   0.01    -0.00   0.01   0.12
  90   6     0.00   0.03  -0.03     0.00   0.10   0.01    -0.00   0.01   0.12
  91   6     0.03  -0.00   0.15     0.07  -0.04  -0.04     0.00   0.00  -0.00
  92   6     0.02  -0.01   0.12     0.05  -0.06  -0.03     0.00  -0.00  -0.04
  93   6     0.01  -0.01   0.07     0.03  -0.05  -0.02     0.00  -0.00  -0.04
  94   6    -0.00  -0.02   0.03    -0.00  -0.06  -0.00     0.00  -0.01  -0.08
  95   6    -0.01  -0.02  -0.02    -0.03  -0.05   0.01     0.00  -0.01  -0.08
  96   6    -0.02  -0.03  -0.07    -0.05  -0.06   0.02     0.00  -0.01  -0.11
  97   6    -0.03  -0.03  -0.11    -0.07  -0.03   0.03     0.00  -0.01  -0.09
  98   6    -0.02  -0.02  -0.09    -0.06  -0.01   0.03     0.00  -0.00  -0.04
  99   7    -0.01  -0.01  -0.04    -0.03  -0.02   0.01     0.00  -0.00  -0.04
 100   6    -0.03  -0.01  -0.12    -0.07   0.02   0.04     0.00  -0.00  -0.01
 101   6    -0.02   0.00  -0.11    -0.06   0.04   0.03     0.01   0.00   0.03
 102   6    -0.03   0.01  -0.15    -0.07   0.07   0.04     0.01   0.00   0.05
 103   6    -0.02   0.02  -0.12    -0.05   0.09   0.03     0.01   0.01   0.08
 104   6    -0.01   0.02  -0.07    -0.02   0.08   0.02     0.01   0.01   0.08
 105   7    -0.01   0.01  -0.07    -0.03   0.05   0.02     0.01   0.00   0.05
 106   6    -0.00   0.03  -0.03     0.00   0.09   0.00     0.01   0.01   0.10
 107   6     0.01   0.03   0.02     0.03   0.07  -0.01     0.00   0.01   0.11
 108   6     0.02   0.04   0.07     0.05   0.09  -0.02     0.00   0.01   0.14
 109   6     0.03   0.03   0.11     0.07   0.06  -0.04     0.00   0.01   0.13
 110   6     0.02   0.02   0.09     0.06   0.04  -0.03     0.00   0.01   0.09
 111   7     0.01   0.02   0.04     0.03   0.05  -0.02     0.00   0.01   0.09
 112   6     0.03   0.02   0.13     0.07   0.01  -0.04     0.00   0.01   0.06
 113   6     0.02   0.00   0.11     0.06  -0.02  -0.03     0.00   0.00   0.02
 114   7     0.01  -0.00   0.07     0.03  -0.02  -0.02     0.00   0.00  -0.01
 115   1     0.01   0.00   0.06     0.03  -0.01  -0.02     0.00   0.00   0.00
 116   1     0.01  -0.01   0.04     0.02  -0.03  -0.01     0.00  -0.00  -0.02
 117   1    -0.01  -0.01  -0.02    -0.02  -0.02   0.01     0.00  -0.00  -0.04
 118   1    -0.01  -0.01  -0.04    -0.03  -0.01   0.01     0.00  -0.00  -0.03
 119   1    -0.00  -0.00  -0.01    -0.00  -0.00   0.00     0.00  -0.00  -0.00
 120   1    -0.01  -0.00  -0.05    -0.03   0.01   0.01     0.00  -0.00  -0.01
 121   1    -0.01   0.00  -0.05    -0.03   0.02   0.02     0.00   0.00   0.01
 122   1    -0.01   0.01  -0.04    -0.02   0.03   0.01     0.00   0.00   0.03
 123   1     0.01   0.01   0.02     0.02   0.03  -0.01     0.00   0.00   0.05
 124   1     0.01   0.01   0.04     0.03   0.02  -0.01     0.00   0.00   0.04
 125   1     0.00   0.00   0.01     0.00   0.01  -0.00     0.00   0.00   0.02
 126   1     0.01   0.01   0.05     0.03   0.00  -0.01     0.00   0.00   0.02
 127   6    -0.03  -0.00  -0.20    -0.08   0.07   0.07     0.01  -0.00   0.02
 128   6    -0.02   0.01  -0.16    -0.06   0.09   0.05     0.01   0.00   0.05
 129   6    -0.01   0.02  -0.09    -0.03   0.07   0.03     0.01   0.00   0.05
 130   6    -0.00   0.03  -0.03     0.00   0.08   0.00     0.01   0.01   0.08
 131   6     0.01   0.03   0.04     0.03   0.06  -0.02     0.00   0.01   0.08
 132   6     0.02   0.04   0.10     0.06   0.07  -0.04     0.00   0.01   0.11
 133   6     0.03   0.04   0.16     0.08   0.05  -0.06     0.00   0.01   0.10
 134   6     0.02   0.03   0.13     0.06   0.02  -0.05     0.00   0.01   0.06
 135   7     0.01   0.02   0.06     0.03   0.03  -0.03     0.00   0.01   0.06
 136   6     0.03   0.02   0.17     0.08  -0.01  -0.06     0.00   0.00   0.03
 137   6     0.02   0.01   0.15     0.06  -0.04  -0.05     0.00   0.00  -0.01
 138   6     0.03   0.00   0.20     0.08  -0.07  -0.07     0.00  -0.00  -0.03
 139   6     0.02  -0.01   0.16     0.06  -0.09  -0.05     0.00  -0.00  -0.06
 140   6     0.01  -0.01   0.08     0.03  -0.07  -0.03     0.00  -0.00  -0.06
 141   7     0.01  -0.00   0.09     0.03  -0.04  -0.03     0.00  -0.00  -0.03
 142   6    -0.00  -0.03   0.03    -0.00  -0.08  -0.00     0.00  -0.01  -0.09
 143   6    -0.01  -0.03  -0.04    -0.03  -0.06   0.02     0.00  -0.01  -0.09
 144   6    -0.02  -0.04  -0.10    -0.06  -0.07   0.04     0.01  -0.01  -0.12
 145   6    -0.03  -0.04  -0.16    -0.08  -0.05   0.06     0.01  -0.01  -0.10
 146   6    -0.02  -0.02  -0.13    -0.06  -0.02   0.05     0.01  -0.01  -0.07
 147   7    -0.01  -0.02  -0.07    -0.03  -0.03   0.03     0.01  -0.01  -0.06
 148   6    -0.03  -0.02  -0.17    -0.07   0.01   0.07     0.01  -0.01  -0.04
 149   6    -0.02  -0.01  -0.15    -0.06   0.04   0.05     0.01  -0.00  -0.00
 150   7    -0.01   0.00  -0.09    -0.03   0.04   0.03     0.01   0.00   0.02
 151   1    -0.01  -0.00  -0.07    -0.03   0.02   0.03     0.00  -0.00   0.00
 152   1    -0.01   0.01  -0.05    -0.02   0.03   0.02     0.00   0.00   0.02
 153   1     0.01   0.01   0.03     0.02   0.03  -0.01     0.00   0.00   0.04
 154   1     0.01   0.01   0.06     0.03   0.01  -0.02     0.00   0.00   0.03
 155   1     0.00   0.00   0.01     0.00   0.01  -0.00     0.00   0.00   0.01
 156   1     0.01   0.01   0.07     0.03  -0.00  -0.02     0.00   0.00   0.01
 157   1     0.01   0.00   0.07     0.03  -0.02  -0.03     0.00   0.00  -0.01
 158   1     0.01  -0.00   0.05     0.02  -0.03  -0.02     0.00  -0.00  -0.02
 159   1    -0.01  -0.01  -0.03    -0.02  -0.03   0.01     0.00  -0.00  -0.04
 160   1    -0.01  -0.01  -0.06    -0.03  -0.01   0.02     0.00  -0.00  -0.03
 161   1    -0.00  -0.00  -0.01    -0.00  -0.01   0.00     0.00  -0.00  -0.01
 162   1    -0.01  -0.01  -0.07    -0.03   0.00   0.02     0.00  -0.00  -0.02
 163   6     0.02  -0.01   0.13     0.07  -0.07  -0.05    -0.00  -0.00  -0.03
 164   6     0.02  -0.02   0.11     0.05  -0.09  -0.04    -0.00  -0.00  -0.06
 165   6     0.01  -0.02   0.06     0.03  -0.08  -0.02     0.00  -0.00  -0.06
 166   6    -0.00  -0.03   0.03    -0.00  -0.09  -0.00     0.00  -0.01  -0.09
 167   6    -0.01  -0.03  -0.02    -0.03  -0.07   0.01     0.00  -0.01  -0.09
 168   6    -0.02  -0.04  -0.05    -0.05  -0.08   0.03     0.01  -0.01  -0.12
 169   6    -0.03  -0.04  -0.09    -0.07  -0.06   0.05     0.01  -0.01  -0.11
 170   6    -0.02  -0.02  -0.08    -0.06  -0.04   0.04     0.00  -0.01  -0.08
 171   7    -0.01  -0.02  -0.03    -0.03  -0.05   0.02     0.00  -0.01  -0.07
 172   6    -0.02  -0.02  -0.11    -0.07  -0.01   0.05     0.00  -0.01  -0.05
 173   6    -0.02  -0.01  -0.10    -0.06   0.02   0.04     0.00  -0.00  -0.01
 174   6    -0.02  -0.00  -0.13    -0.07   0.05   0.05     0.00  -0.00   0.01
 175   6    -0.02   0.01  -0.11    -0.05   0.07   0.04     0.00   0.00   0.05
 176   6    -0.01   0.01  -0.06    -0.03   0.05   0.02     0.00   0.00   0.05
 177   7    -0.01   0.00  -0.06    -0.03   0.02   0.02     0.00   0.00   0.01
 178   6     0.00   0.02  -0.02     0.00   0.06   0.00    -0.00   0.01   0.08
 179   6     0.01   0.02   0.02     0.03   0.05  -0.01    -0.00   0.01   0.08
 180   6     0.02   0.03   0.06     0.05   0.06  -0.03    -0.00   0.01   0.11
 181   6     0.02   0.03   0.09     0.07   0.03  -0.05    -0.00   0.01   0.10
 182   6     0.02   0.02   0.08     0.06   0.01  -0.04    -0.00   0.01   0.06
 183   7     0.01   0.01   0.04     0.03   0.02  -0.02    -0.00   0.00   0.06
 184   6     0.02   0.01   0.11     0.07  -0.02  -0.05    -0.00   0.00   0.03
 185   6     0.02  -0.00   0.10     0.06  -0.05  -0.04    -0.00   0.00  -0.00
 186   7     0.01  -0.01   0.06     0.03  -0.05  -0.02     0.00  -0.00  -0.03
 187   1     0.01  -0.00   0.05     0.03  -0.02  -0.02    -0.00   0.00  -0.00
 188   1     0.01  -0.01   0.03     0.02  -0.03  -0.01    -0.00  -0.00  -0.02
 189   1    -0.01  -0.01  -0.01    -0.02  -0.03   0.01     0.00  -0.00  -0.04
 190   1    -0.01  -0.01  -0.04    -0.03  -0.02   0.02     0.00  -0.00  -0.04
 191   1    -0.00  -0.00  -0.00    -0.00  -0.01   0.00     0.00  -0.00  -0.01
 192   1    -0.01  -0.01  -0.04    -0.03  -0.00   0.02     0.00  -0.00  -0.02
 193   1    -0.01  -0.00  -0.05    -0.03   0.01   0.02     0.00  -0.00  -0.00
 194   1    -0.01   0.00  -0.04    -0.02   0.03   0.01     0.00   0.00   0.02
 195   1     0.01   0.01   0.02     0.02   0.02  -0.01    -0.00   0.00   0.04
 196   1     0.01   0.01   0.04     0.03   0.01  -0.02    -0.00   0.00   0.03
 197   1     0.00   0.00   0.00     0.00   0.00  -0.00    -0.00   0.00   0.01
 198   1     0.01   0.00   0.04     0.03  -0.01  -0.02    -0.00   0.00   0.01
                     13                     14                     15
                        a                      a                      a 
 Frequencies --    13.3696                17.8769                18.5376
 Red. masses --    11.5693                11.9071                11.5618
 Frc consts  --     0.0000                 0.0000                 0.0000
 IR Inten    --     1.4660                 0.0342                 1.2058
 Raman Activ --     0.0000                 0.0000                 0.0000
 Depolar     --     0.0000                 0.0000                 0.0000
 Atom AN      X      Y      Z        X      Y      Z        X      Y      Z
[...]
 150   7    -0.00   0.00  -0.00    -0.00  -0.00  -0.00    -0.00   0.00  -0.00
 151   1    -0.00  -0.00   0.00    -0.00  -0.00   0.00    -0.00   0.00  -0.00
 152   1    -0.00  -0.00   0.00    -0.00  -0.00   0.00    -0.00   0.00   0.00
 153   1    -0.00   0.00  -0.00    -0.00   0.00   0.00    -0.00   0.00   0.00
 154   1    -0.00   0.00  -0.00    -0.00   0.00  -0.00    -0.00   0.00  -0.00
 155   1    -0.00   0.00  -0.00    -0.00   0.00  -0.00    -0.00   0.00  -0.00
 156   1     0.00   0.00  -0.00     0.00   0.00  -0.00     0.00   0.00  -0.00
 157   1     0.00   0.00  -0.00     0.00   0.00  -0.00     0.00   0.00  -0.00
 158   1     0.00   0.00  -0.00     0.00   0.00  -0.00     0.00   0.00   0.00
 159   1     0.00  -0.00  -0.00     0.00  -0.00   0.00    -0.00   0.00   0.00
 160   1     0.00  -0.00   0.00     0.00  -0.00   0.00    -0.00   0.00   0.00
 161   1     0.00  -0.00   0.00     0.00  -0.00   0.00    -0.00   0.00  -0.00
 162   1    -0.00  -0.00   0.00    -0.00  -0.00   0.00    -0.00   0.00  -0.00
 163   6    -0.00   0.00  -0.00     0.00   0.00   0.00     0.00  -0.00   0.00
 164   6    -0.00  -0.00   0.00     0.00   0.00  -0.00     0.00   0.00  -0.00
 165   6     0.00  -0.00   0.00    -0.00   0.00  -0.00    -0.00  -0.00   0.00
 166   6    -0.00   0.00  -0.00    -0.00  -0.00   0.00    -0.00   0.00   0.00
 167   6    -0.00   0.00  -0.00     0.00  -0.00   0.00     0.00   0.00   0.00
 168   6     0.00  -0.00   0.00    -0.00   0.00  -0.00     0.00   0.00   0.00
 169   6     0.00  -0.00   0.00    -0.00   0.00  -0.00    -0.00  -0.00   0.00
 170   6    -0.00  -0.00   0.00     0.00   0.00  -0.00     0.00   0.00   0.00
 171   7    -0.00   0.00  -0.00     0.12  -0.13   0.02     0.00  -0.00   0.00
 172   6     0.00  -0.00   0.00     0.00  -0.00   0.00    -0.00  -0.00   0.00
 173   6     0.00  -0.00   0.00    -0.00   0.00  -0.00    -0.00  -0.00   0.00
 174   6     0.00  -0.00   0.00    -0.00  -0.00  -0.00     0.00  -0.00   0.00
 175   6    -0.00   0.00  -0.00    -0.00  -0.00   0.00    -0.00   0.00  -0.00
 176   6    -0.00   0.00  -0.00     0.00  -0.00   0.00    -0.00  -0.00   0.00
 177   7     0.00   0.00  -0.00    -0.00  -0.00   0.00     0.00   0.00  -0.00
 178   6    -0.00  -0.00   0.00     0.00   0.00  -0.00     0.00  -0.00   0.00
 179   6     0.00  -0.00   0.00    -0.00   0.00  -0.00     0.00  -0.00   0.00
 180   6    -0.00   0.00  -0.00     0.00  -0.00   0.00     0.00   0.00  -0.00
 181   6    -0.00   0.00  -0.00     0.00  -0.00   0.00    -0.00   0.00  -0.00
 182   6     0.00  -0.00  -0.00    -0.00  -0.00   0.00     0.00   0.00  -0.00
 183   7     0.00  -0.00   0.00    -0.12   0.14  -0.02     0.00  -0.00   0.00
 184   6     0.00   0.00  -0.00    -0.00   0.00  -0.00    -0.00  -0.00   0.00
 185   6    -0.00   0.00  -0.00     0.00  -0.00   0.00    -0.00  -0.00   0.00
 186   7    -0.00  -0.00   0.00     0.00   0.00  -0.00     0.00   0.00  -0.00
 187   1    -0.00  -0.00   0.00     0.00   0.00  -0.00    -0.00   0.00  -0.00
 188   1    -0.00  -0.00  -0.00     0.00   0.00  -0.00    -0.00   0.00  -0.00
 189   1    -0.00  -0.00   0.00     0.00  -0.00   0.00    -0.00   0.00   0.00
 190   1     0.00   0.00  -0.00    -0.00   0.00  -0.00    -0.00   0.00   0.00
 191   1     0.01  -0.01   0.00    -0.44   0.49  -0.07    -0.00   0.00  -0.00
 192   1     0.00   0.00   0.00     0.00   0.00  -0.00    -0.00   0.00  -0.00
 193   1     0.00   0.00  -0.00    -0.00  -0.00   0.00    -0.00   0.00  -0.00
 194   1     0.00   0.00   0.00    -0.00  -0.00   0.00    -0.00  -0.00  -0.00
 195   1     0.00  -0.00  -0.00    -0.00   0.00  -0.00    -0.00  -0.00  -0.00
 196   1     0.00  -0.00   0.00     0.00  -0.00   0.00    -0.00  -0.00   0.00
 197   1    -0.01   0.01  -0.00     0.47  -0.52   0.07    -0.00   0.00  -0.00
 198   1    -0.00  -0.00  -0.00    -0.00  -0.00   0.00    -0.00   0.00  -0.00
                    586                    587                    588
                        a                      a                      a 
 Frequencies --  3346.9057              3352.1281              3352.5462
 Red. masses --     1.8918                 1.8889                 1.8888
 Frc consts  --     0.0000                 0.0000                 0.0000
 IR Inten    --  2081.3593               839.5095               882.6877
 Raman Activ --     0.0000                 0.0000                 0.0000
 Depolar     --     0.0000                 0.0000                 0.0000
 Atom AN      X      Y      Z        X      Y      Z        X      Y      Z
   1   6     0.00  -0.00  -0.00    -0.00   0.00  -0.00     0.00  -0.00  -0.00
   2   6    -0.00   0.00   0.00     0.00  -0.00  -0.00    -0.00   0.00  -0.00
   3   6    -0.00   0.00   0.00     0.00   0.00   0.00    -0.00   0.00  -0.00
   4   6    -0.00  -0.00  -0.00     0.00  -0.00  -0.00     0.00   0.00  -0.00
   5   6     0.00  -0.00  -0.00     0.00   0.00   0.00    -0.00  -0.00  -0.00
   6   6    -0.00   0.00   0.00     0.00  -0.00  -0.00    -0.00   0.00  -0.00
   7   6    -0.00   0.00  -0.00     0.00  -0.00  -0.00    -0.00   0.00  -0.00
   8   6     0.00  -0.00   0.00    -0.00  -0.00  -0.00     0.00   0.00   0.00
   9   7     0.00  -0.01  -0.00    -0.06   0.06   0.00     0.00  -0.00  -0.00
  10   6     0.00  -0.00  -0.00     0.00  -0.00  -0.00    -0.00   0.00  -0.00
  11   6    -0.00   0.00   0.00     0.00  -0.00  -0.00     0.00   0.00   0.00
  12   6    -0.00  -0.00  -0.00     0.00   0.00   0.00    -0.00  -0.00  -0.00
  13   6    -0.00   0.00  -0.00     0.00   0.00   0.00    -0.00  -0.00  -0.00
  14   6    -0.00   0.00   0.00    -0.00   0.00   0.00     0.00  -0.00  -0.00
  15   7    -0.00  -0.00  -0.00     0.00   0.00   0.00    -0.00  -0.00  -0.00
  16   6     0.00  -0.00  -0.00     0.00  -0.00  -0.00    -0.00   0.00   0.00
  17   6     0.00  -0.00  -0.00     0.00  -0.00  -0.00    -0.00   0.00   0.00
  18   6     0.00   0.00   0.00    -0.00   0.00   0.00    -0.00  -0.00  -0.00
  19   6    -0.00  -0.00  -0.00    -0.00   0.00  -0.00     0.00  -0.00  -0.00
  20   6     0.00  -0.00  -0.00     0.00  -0.00  -0.00    -0.00   0.00   0.00
  21   7     0.00  -0.00  -0.00     0.16  -0.18  -0.01    -0.00   0.00   0.00
  22   6     0.00  -0.00  -0.00     0.00  -0.00  -0.00    -0.00   0.00  -0.00
  23   6    -0.00  -0.00  -0.00    -0.00   0.00   0.00     0.00  -0.00  -0.00
  24   7     0.00   0.00   0.00    -0.00  -0.00  -0.00     0.00   0.00   0.00
  25   1     0.00   0.00   0.00    -0.00  -0.00  -0.00     0.00   0.00   0.00
  26   1     0.00   0.00   0.00    -0.00  -0.00  -0.00     0.00   0.00   0.00
  27   1    -0.00   0.00  -0.00    -0.00   0.00  -0.00     0.00  -0.00  -0.00
  28   1    -0.00   0.00   0.00    -0.00   0.00   0.00     0.00   0.00  -0.00
  29   1    -0.02   0.02   0.00     0.21  -0.23  -0.01    -0.00   0.00   0.00
  30   1     0.00   0.00   0.00     0.00   0.00   0.00     0.00   0.00  -0.00
  31   1     0.00   0.00   0.00     0.00  -0.00   0.00     0.00   0.00  -0.00
  32   1     0.00   0.00  -0.00     0.00   0.00   0.00     0.00   0.00  -0.00
  33   1    -0.00   0.00  -0.00    -0.00  -0.00  -0.00     0.00   0.00   0.00
  34   1    -0.00   0.00  -0.00    -0.00   0.00  -0.00     0.00  -0.00   0.00
  35   1    -0.00   0.00   0.00    -0.00   0.00   0.00     0.00   0.00  -0.00
  36   1    -0.01   0.01   0.00    -0.61   0.67   0.03     0.00  -0.00  -0.00
  37   1     0.00   0.00   0.00     0.00   0.00   0.00     0.00  -0.00  -0.00
  38   6    -0.00   0.00  -0.00     0.00   0.00  -0.00     0.00  -0.00  -0.00
  39   6     0.00  -0.00   0.00     0.00   0.00  -0.00    -0.00   0.00  -0.00
  40   6     0.00  -0.00  -0.00    -0.00  -0.00   0.00    -0.00  -0.00   0.00
  41   6     0.00   0.00  -0.00    -0.00  -0.00  -0.00    -0.00   0.00  -0.00
  42   6    -0.00   0.00  -0.00    -0.00  -0.00   0.00    -0.00  -0.00   0.00
  43   6     0.00  -0.00   0.00    -0.00   0.00  -0.00    -0.00   0.00  -0.00
  44   6     0.00  -0.00  -0.00    -0.00   0.00  -0.00    -0.00   0.00  -0.00
  45   6    -0.00   0.00   0.00     0.00   0.00  -0.00     0.00   0.00  -0.00
  46   7    -0.16   0.18  -0.01     0.00  -0.00   0.00     0.06  -0.06   0.00
  47   6    -0.00   0.00  -0.00     0.00   0.00  -0.00    -0.00   0.00  -0.00
  48   6     0.00  -0.00   0.00    -0.00   0.00  -0.00    -0.00   0.00  -0.00
  49   6     0.00   0.00  -0.00    -0.00  -0.00  -0.00    -0.00  -0.00   0.00
  50   6     0.00  -0.00  -0.00     0.00  -0.00  -0.00    -0.00  -0.00   0.00
  51   6     0.00  -0.00   0.00     0.00  -0.00  -0.00     0.00  -0.00  -0.00
  52   7     0.00   0.00  -0.00    -0.00  -0.00   0.00    -0.00  -0.00   0.00
  53   6    -0.00   0.00  -0.00    -0.00   0.00  -0.00    -0.00   0.00  -0.00
  54   6    -0.00   0.00   0.00    -0.00   0.00  -0.00    -0.00   0.00  -0.00
  55   6    -0.00  -0.00   0.00     0.00  -0.00   0.00     0.00  -0.00   0.00
  56   6     0.00   0.00  -0.00     0.00  -0.00  -0.00     0.00  -0.00  -0.00
  57   6    -0.00   0.00  -0.00    -0.00   0.00   0.00    -0.00   0.00   0.00
  58   7    -0.06   0.06  -0.00    -0.00   0.00  -0.00    -0.16   0.18  -0.01
  59   6    -0.00   0.00  -0.00    -0.00   0.00  -0.00    -0.00   0.00   0.00
  60   6     0.00   0.00  -0.00     0.00  -0.00   0.00     0.00  -0.00   0.00
  61   7    -0.00  -0.00   0.00     0.00   0.00  -0.00     0.00   0.00  -0.00
  62   1    -0.00  -0.00   0.00    -0.00  -0.00   0.00     0.00   0.00  -0.00
  63   1    -0.00  -0.00   0.00    -0.00  -0.00   0.00     0.00   0.00  -0.00
  64   1     0.00  -0.00  -0.00    -0.00  -0.00  -0.00     0.00  -0.00  -0.00
  65   1     0.00  -0.00   0.00    -0.00  -0.00   0.00     0.00  -0.00   0.00
  66   1     0.62  -0.67   0.03    -0.00   0.00  -0.00    -0.21   0.23  -0.01
  67   1    -0.00  -0.01   0.00    -0.00  -0.00   0.00    -0.00  -0.00   0.00
  68   1    -0.00  -0.00   0.00    -0.00  -0.00  -0.00    -0.00   0.00   0.00
  69   1    -0.00   0.00   0.00    -0.00  -0.00   0.00    -0.00   0.00   0.00
  70   1     0.00   0.00  -0.00    -0.00  -0.00  -0.00     0.00   0.00  -0.00
  71   1     0.00  -0.00  -0.00    -0.00  -0.00   0.00     0.00  -0.00  -0.00
  72   1     0.00  -0.00   0.00    -0.00  -0.00   0.00     0.00  -0.00   0.00
  73   1     0.21  -0.23   0.01     0.00  -0.00   0.00     0.61  -0.68   0.02
  74   1    -0.00  -0.01   0.00    -0.00  -0.00   0.00    -0.00  -0.00   0.00
  75   6     0.00  -0.00   0.00     0.00  -0.00   0.00     0.00   0.00  -0.00
  76   6    -0.00   0.00  -0.00     0.00  -0.00  -0.00    -0.00   0.00  -0.00
  77   6     0.00   0.00  -0.00    -0.00  -0.00   0.00     0.00   0.00  -0.00
  78   6    -0.00   0.00  -0.00     0.00  -0.00  -0.00     0.00   0.00  -0.00
  79   6     0.00  -0.00   0.00    -0.00  -0.00   0.00     0.00  -0.00   0.00
  80   6    -0.00  -0.00   0.00     0.00   0.00   0.00     0.00  -0.00   0.00
  81   6     0.00  -0.00   0.00    -0.00   0.00   0.00    -0.00  -0.00   0.00
  82   6     0.00  -0.00   0.00     0.00   0.00   0.00     0.00  -0.00   0.00
  83   6     0.00  -0.00   0.00    -0.00   0.00   0.00    -0.00  -0.00   0.00
  84   6    -0.00  -0.00   0.00     0.00   0.00   0.00     0.00  -0.00   0.00
  85   6     0.00  -0.00   0.00    -0.00   0.00   0.00    -0.00  -0.00  -0.00
  86   6    -0.00  -0.00  -0.00    -0.00   0.00   0.00     0.00   0.00   0.00
  87   6     0.00  -0.00   0.00    -0.00  -0.00  -0.00    -0.00   0.00  -0.00
  88   6    -0.00  -0.00  -0.00    -0.00  -0.00  -0.00     0.00   0.00   0.00
  89   6     0.00  -0.00  -0.00     0.00  -0.00  -0.00    -0.00   0.00  -0.00
  90   6    -0.00   0.00   0.00    -0.00  -0.00   0.00    -0.00   0.00   0.00
  91   6    -0.00   0.00  -0.00     0.00   0.00  -0.00    -0.00   0.00  -0.00
  92   6     0.00  -0.00   0.00     0.00   0.00  -0.00    -0.00  -0.00   0.00
  93   6     0.00   0.00  -0.00    -0.00  -0.00   0.00     0.00   0.00  -0.00
  94   6     0.00   0.00  -0.00    -0.00  -0.00   0.00     0.00   0.00  -0.00
  95   6     0.00  -0.00  -0.00     0.00   0.00  -0.00    -0.00  -0.00   0.00
  96   6    -0.00  -0.00  -0.00     0.00  -0.00   0.00    -0.00  -0.00   0.00
  97   6    -0.00  -0.00   0.00     0.00  -0.00   0.00     0.00  -0.00   0.00
  98   6     0.00  -0.00  -0.00     0.00   0.00  -0.00     0.00   0.00  -0.00
  99   7    -0.00   0.00  -0.00     0.00  -0.00   0.00    -0.00   0.00  -0.00
 100   6     0.00   0.00  -0.00    -0.00  -0.00   0.00    -0.00   0.00   0.00
 101   6     0.00   0.00  -0.00    -0.00  -0.00   0.00     0.00  -0.00   0.00
 102   6    -0.00   0.00  -0.00     0.00  -0.00   0.00    -0.00  -0.00   0.00
 103   6    -0.00  -0.00   0.00    -0.00   0.00  -0.00    -0.00  -0.00   0.00
 104   6     0.00   0.00  -0.00    -0.00  -0.00   0.00     0.00   0.00  -0.00
 105   7    -0.00  -0.00  -0.00     0.00   0.00  -0.00    -0.00   0.00   0.00
 106   6     0.00  -0.00   0.00    -0.00  -0.00   0.00     0.00   0.00  -0.00
 107   6    -0.00  -0.00   0.00     0.00   0.00  -0.00     0.00  -0.00  -0.00
 108   6    -0.00  -0.00   0.00    -0.00   0.00   0.00    -0.00   0.00  -0.00
 109   6     0.00  -0.00   0.00     0.00   0.00  -0.00     0.00   0.00  -0.00
 110   6    -0.00  -0.00   0.00     0.00   0.00  -0.00     0.00   0.00  -0.00
 111   7    -0.00   0.00  -0.00     0.00  -0.00   0.00    -0.00   0.00  -0.00
 112   6     0.00   0.00  -0.00    -0.00  -0.00   0.00    -0.00   0.00  -0.00
 113   6     0.00   0.00  -0.00     0.00  -0.00   0.00     0.00  -0.00  -0.00
 114   7    -0.00  -0.00   0.00    -0.00   0.00  -0.00    -0.00   0.00  -0.00
 115   1     0.00  -0.00   0.00    -0.00   0.00  -0.00     0.00  -0.00  -0.00
 116   1     0.00   0.00   0.00    -0.00  -0.00   0.00     0.00   0.00  -0.00
 117   1     0.00   0.00  -0.00    -0.00   0.00   0.00     0.00  -0.00   0.00
 118   1     0.00   0.00  -0.00    -0.00   0.00  -0.00     0.00   0.00  -0.00
 119   1     0.00  -0.00   0.00    -0.00   0.00  -0.00     0.00  -0.00   0.00
 120   1     0.00  -0.00  -0.00    -0.00   0.00  -0.00     0.00  -0.00   0.00
 121   1     0.00  -0.00   0.00     0.00   0.00  -0.00     0.00  -0.00   0.00
 122   1     0.00  -0.00  -0.00     0.00   0.00  -0.00     0.00   0.00   0.00
 123   1     0.00  -0.00   0.00     0.00  -0.00   0.00     0.00  -0.00  -0.00
 124   1     0.00  -0.00   0.00     0.00  -0.00   0.00     0.00  -0.00  -0.00
 125   1     0.00  -0.00   0.00    -0.00   0.00  -0.00     0.00  -0.00   0.00
 126   1     0.00  -0.00   0.00    -0.00  -0.00   0.00     0.00  -0.00  -0.00
 127   6    -0.00   0.00  -0.00     0.00   0.00  -0.00    -0.00   0.00  -0.00
 128   6     0.00  -0.00   0.00     0.00   0.00  -0.00     0.00  -0.00   0.00
 129   6     0.00  -0.00   0.00    -0.00   0.00   0.00     0.00   0.00  -0.00
 130   6     0.00   0.00   0.00    -0.00  -0.00   0.00     0.00   0.00  -0.00
 131   6    -0.00  -0.00   0.00     0.00   0.00   0.00    -0.00  -0.00   0.00
 132   6    -0.00  -0.00   0.00     0.00  -0.00   0.00    -0.00  -0.00   0.00
 133   6     0.00  -0.00   0.00    -0.00  -0.00   0.00     0.00  -0.00   0.00
 134   6    -0.00  -0.00   0.00     0.00  -0.00  -0.00     0.00  -0.00   0.00
 135   7    -0.00   0.00  -0.00     0.00  -0.00   0.00    -0.00   0.00  -0.00
 136   6     0.00   0.00  -0.00     0.00  -0.00   0.00    -0.00  -0.00   0.00
 137   6     0.00   0.00  -0.00    -0.00  -0.00   0.00     0.00  -0.00   0.00
 138   6    -0.00   0.00  -0.00     0.00  -0.00   0.00    -0.00  -0.00   0.00
 139   6    -0.00  -0.00   0.00    -0.00   0.00   0.00    -0.00  -0.00   0.00
 140   6     0.00  -0.00   0.00    -0.00  -0.00   0.00     0.00  -0.00   0.00
 141   7     0.00  -0.00   0.00     0.00   0.00  -0.00    -0.00   0.00   0.00
 142   6    -0.00  -0.00   0.00    -0.00  -0.00   0.00     0.00   0.00  -0.00
 143   6    -0.00  -0.00   0.00     0.00   0.00  -0.00    -0.00  -0.00   0.00
 144   6    -0.00  -0.00   0.00     0.00   0.00   0.00    -0.00   0.00  -0.00
 145   6     0.00   0.00  -0.00    -0.00   0.00  -0.00     0.00   0.00  -0.00
 146   6    -0.00  -0.00   0.00    -0.00   0.00  -0.00    -0.00   0.00   0.00
 147   7    -0.00   0.00  -0.00     0.00  -0.00   0.00    -0.00   0.00  -0.00
 148   6     0.00   0.00  -0.00     0.00   0.00   0.00    -0.00   0.00  -0.00
 149   6    -0.00   0.00  -0.00    -0.00   0.00   0.00     0.00   0.00  -0.00
 150   7    -0.00  -0.00   0.00     0.00  -0.00   0.00    -0.00  -0.00   0.00
 151   1    -0.00  -0.00   0.00    -0.00  -0.00   0.00     0.00  -0.00   0.00
 152   1    -0.00  -0.00   0.00    -0.00   0.00   0.00    -0.00  -0.00   0.00
 153   1     0.00  -0.00   0.00    -0.00   0.00   0.00     0.00  -0.00   0.00
 154   1     0.00  -0.00   0.00    -0.00   0.00  -0.00     0.00   0.00  -0.00
 155   1     0.00  -0.00   0.00    -0.00   0.00  -0.00     0.00  -0.00   0.00
 156   1     0.00  -0.00   0.00    -0.00   0.00  -0.00     0.00  -0.00   0.00
 157   1     0.00  -0.00   0.00    -0.00   0.00  -0.00     0.00   0.00  -0.00
 158   1     0.00  -0.00   0.00     0.00   0.00  -0.00     0.00  -0.00   0.00
 159   1     0.00  -0.00   0.00    -0.00   0.00   0.00     0.00  -0.00   0.00
 160   1     0.00  -0.00   0.00    -0.00  -0.00   0.00     0.00  -0.00   0.00
 161   1     0.00  -0.00   0.00    -0.00   0.00  -0.00     0.00  -0.00   0.00
 162   1    -0.00  -0.00   0.00    -0.00  -0.00   0.00     0.00  -0.00   0.00
 163   6    -0.00   0.00  -0.00     0.00   0.00   0.00    -0.00   0.00  -0.00
 164   6     0.00  -0.00   0.00     0.00   0.00  -0.00     0.00  -0.00   0.00
 165   6     0.00  -0.00   0.00    -0.00  -0.00   0.00     0.00   0.00  -0.00
 166   6     0.00   0.00   0.00    -0.00  -0.00   0.00     0.00   0.00  -0.00
 167   6    -0.00   0.00   0.00    -0.00  -0.00   0.00    -0.00  -0.00   0.00
 168   6    -0.00  -0.00  -0.00     0.00  -0.00   0.00     0.00  -0.00   0.00
 169   6     0.00   0.00  -0.00    -0.00  -0.00   0.00    -0.00  -0.00   0.00
 170   6    -0.00   0.00   0.00    -0.00  -0.00   0.00    -0.00  -0.00   0.00
 171   7    -0.00   0.00  -0.00     0.00  -0.00   0.00    -0.00   0.00  -0.00
 172   6    -0.00   0.00  -0.00     0.00  -0.00   0.00     0.00   0.00   0.00
 173   6     0.00  -0.00   0.00    -0.00   0.00  -0.00     0.00   0.00  -0.00
 174   6    -0.00   0.00  -0.00    -0.00  -0.00   0.00    -0.00  -0.00  -0.00
 175   6     0.00  -0.00   0.00     0.00   0.00  -0.00    -0.00  -0.00   0.00
 176   6     0.00  -0.00   0.00    -0.00  -0.00   0.00     0.00   0.00  -0.00
 177   7    -0.00   0.00   0.00     0.00  -0.00   0.00     0.00  -0.00   0.00
 178   6    -0.00  -0.00   0.00    -0.00  -0.00   0.00     0.00   0.00   0.00
 179   6    -0.00   0.00  -0.00    -0.00   0.00  -0.00    -0.00  -0.00   0.00
 180   6     0.00  -0.00   0.00     0.00   0.00   0.00    -0.00   0.00  -0.00
 181   6     0.00   0.00  -0.00    -0.00   0.00  -0.00    -0.00   0.00  -0.00
 182   6    -0.00   0.00   0.00    -0.00  -0.00   0.00    -0.00  -0.00   0.00
 183   7    -0.00   0.00  -0.00     0.00  -0.00   0.00    -0.00   0.00  -0.00
 184   6     0.00   0.00  -0.00     0.00  -0.00   0.00     0.00   0.00  -0.00
 185   6     0.00   0.00   0.00    -0.00   0.00  -0.00     0.00   0.00  -0.00
 186   7    -0.00  -0.00   0.00     0.00  -0.00   0.00    -0.00  -0.00   0.00
 187   1    -0.00  -0.00   0.00    -0.00  -0.00   0.00    -0.00  -0.00   0.00
 188   1    -0.00  -0.00   0.00    -0.00  -0.00   0.00    -0.00  -0.00   0.00
 189   1     0.00  -0.00   0.00    -0.00   0.00  -0.00    -0.00   0.00  -0.00
 190   1     0.00  -0.00   0.00    -0.00   0.00  -0.00    -0.00   0.00  -0.00
 191   1     0.00  -0.00   0.00    -0.00   0.00  -0.00     0.00  -0.00   0.00
 192   1     0.00  -0.00   0.00    -0.00   0.00  -0.00     0.00  -0.00   0.00
 193   1     0.00  -0.00   0.00    -0.00   0.00  -0.00     0.00  -0.00   0.00
 194   1     0.00  -0.00   0.00    -0.00  -0.00  -0.00     0.00   0.00   0.00
 195   1    -0.00  -0.00   0.00    -0.00   0.00  -0.00     0.00  -0.00   0.00
 196   1     0.00  -0.00   0.00    -0.00  -0.00   0.00     0.00  -0.00   0.00
 197   1     0.00  -0.00   0.00    -0.00   0.00  -0.00     0.00  -0.00   0.00
 198   1     0.00  -0.00   0.00    -0.00   0.00   0.00     0.00  -0.00   0.00
