198
 energy: -335.235564783373 gnorm: 3.857380375546 xtb: 6.4.1 (bd6e46d)
C        34.82252100000000    3.51108200000000    0.78939500000000
C        35.71249900000000    2.57082300000000    0.59119900000000
C        35.05099800000000    1.31074800000000    0.29039200000000
C        35.40943600000001    0.00508600000000    0.00171100000000
C        34.58425800000000   -1.12598600000000   -0.08350600000000
C        35.03982300000000   -2.33471000000000    0.49780100000000
C        34.06712900000000   -3.26725700000000    0.29764600000000
C        33.03603500000000   -2.59955600000000   -0.40534100000000
N        33.37276000000000   -1.31869600000000   -0.62225500000000
C        31.87807400000000   -3.32567100000000   -0.73705800000000
C        30.55997300000000   -2.88297500000000   -0.62352300000000
C        29.24762700000000   -3.48510900000000   -0.72050300000000
C        28.32599900000000   -2.53846200000000   -0.51441800000000
C        29.02288500000000   -1.29263100000000   -0.27768700000000
N        30.34395800000000   -1.57238300000000   -0.35737200000000
C        28.62364300000000    0.00936600000000   -0.00968400000000
C        29.45625500000000    1.14604200000000    0.06622500000000
C        29.02211200000000    2.34803200000000   -0.54391500000000
C        30.01762500000000    3.26442000000000   -0.35196000000000
C        31.03177600000000    2.59117700000000    0.37197200000000
N        30.66657900000000    1.32335500000000    0.61079600000000
C        32.20141800000000    3.29813300000000    0.69347100000000
C        33.51667100000000    2.89460900000000    0.62345500000000
N        33.70629300000000    1.58350500000000    0.32705300000000
H        34.98978600000000    4.53962600000000    1.02798400000000
H        36.78275800000000    2.69416000000000    0.64021800000000
H        36.00034400000000   -2.52041300000000    1.01637800000000
H        34.10401100000000   -4.32386600000000    0.62297400000000
H        32.76947500000000   -0.55128600000000   -1.16977500000000
H        31.96646500000000   -4.36109800000000   -1.11540500000000
H        29.04895200000000   -4.54581000000000   -0.92924700000000
H        27.25659000000000   -2.73039600000000   -0.53365100000000
H        27.54870000000000    0.09863500000000    0.12806100000000
H        28.06845800000000    2.53958900000000   -1.07271300000000
H        30.00320400000000    4.31464900000000   -0.69840100000000
H        31.25990400000000    0.56591100000000    1.18279200000000
H        32.13291000000000    4.35553800000000    1.05018700000000
C        82.53001700000000   -3.49254000000000    0.82576500000000
C        81.64004000000001   -2.55439000000000    0.61781500000000
C        82.30154100000000   -1.29750800000000    0.30393700000000
C        81.94310299999999    0.00508600000000    0.00171100000000
C        82.76828100000002    1.13521200000000   -0.09524800000000
C        82.31271599999999    2.34990800000000    0.47347400000000
C        83.28541000000001    3.28032600000000    0.26364400000000
C        84.31650400000001    2.60535900000000   -0.43237000000000
N        83.97977900000001    1.32231600000000   -0.63597000000000
C        85.47446500000000    3.32799100000000   -0.77161100000000
C        86.79256500000000    2.88649800000000   -0.65348400000000
C        88.10491200000000    3.48759200000000   -0.75671200000000
C        89.02653900000000    2.54313600000000   -0.54080700000000
C        88.32965400000000    1.29983200000000   -0.29114900000000
N        87.00857999999999    1.57874100000000   -0.37373600000000
C        88.72889600000001    0.00068800000000   -0.00963800000000
C        87.89628399999999   -1.13513900000000    0.07807100000000
C        88.33042700000000   -2.34340000000000   -0.51955300000000
C        87.33491400000000   -3.25774500000000   -0.31809000000000
C        86.32076300000000   -2.57702000000000    0.39881000000000
N        86.68595999999999   -1.30678600000000    0.62445400000000
C        85.15112100000000   -3.28059900000000    0.72763500000000
C        83.83586800000000   -2.87782300000000    0.65343200000000
N        83.64624499999999   -1.56986900000000    0.34342900000000
H        82.36275300000000   -4.51855100000000    1.07502400000000
H        80.56978100000001   -2.67721200000000    0.66811100000000
H        81.35219400000000    2.54098700000000    0.99009400000000
H        83.24852799999999    4.34025700000000    0.57798000000000
H        84.58306399999999    0.54926100000000   -1.17549000000000
H        85.38607399999999    4.35943300000000   -1.16069100000000
H        88.30358699999999    4.54606800000000   -0.97646200000000
H        90.09594900000000    2.73486000000000   -0.56203200000000
H        89.80383900000000   -0.08714600000000    0.12902600000000
H        89.28408100000000   -2.54043900000000   -1.04633200000000
H        87.34933500000000   -4.31151600000000   -0.65360500000000
H        86.09263500000000   -0.54344300000000    1.18855300000000
H        85.21962900000000   -4.33424200000000    1.09531400000000
C        37.81104900000000    0.00286400000000    0.00049700000000
C        39.01902600000000    0.01031900000000    0.00219200000000
C        40.43779400000000    0.01101600000000    0.00732900000000
C        41.65331100000000    0.00286400000000    0.00049700000000
C        50.44115800000000    0.00286400000000    0.00049700000000
C        51.64913500000000    0.01031900000000    0.00219200000000
C        53.06790300000000    0.01101600000000    0.00732900000000
C        54.28341900000000    0.00286400000000    0.00049700000000
C        63.07126700000000    0.00286400000000    0.00049700000000
C        64.27924299999999    0.01031900000000    0.00219200000000
C        65.69801099999999    0.01101600000000    0.00732900000000
C        66.91352800000000    0.00286400000000    0.00049700000000
C        75.70137500000000    0.00286400000000    0.00049700000000
C        76.90935200000000    0.01031900000000    0.00219200000000
C        78.32812000000000    0.01101600000000    0.00732900000000
C        79.54363600000001    0.00286400000000    0.00049700000000
C        43.25301300000000   -3.59318200000000    0.00064500000000
C        42.37846300000000   -2.59827800000000   -0.00965700000000
C        43.04992700000000   -1.31949500000000    0.00353300000000
C        42.65289600000000   -0.00390900000000   -0.00124600000000
C        43.46408800000000    1.14041400000000   -0.15537200000000
C        42.98506200000000    2.19293100000000   -0.96743700000000
C        43.97214700000001    3.13568300000000   -0.95890600000000
C        45.01941900000001    2.63388900000000   -0.14610300000000
N        44.68056600000000    1.42752100000000    0.32664300000000
C        46.17979600000000    3.41187100000000    0.00824700000000
C        47.50078500000000    2.95399800000000   -0.02114700000000
C        48.81335500000000    3.58213100000000   -0.08227400000000
C        49.72746700000000    2.62706700000000   -0.08485800000000
C        49.05392100000000    1.34019400000000   -0.02566800000000
N        47.74186200000000    1.62879300000000    0.00912100000000
C        49.45620400000001   -0.00390900000000   -0.00124600000000
C        48.62405000000000   -1.11769800000000    0.18103500000000
C        49.06400800000000   -2.14935500000000    1.04434600000000
C        48.06582600000000   -3.07269600000000    1.04896700000000
C        47.04291000000001   -2.59275800000000    0.19553800000000
N        47.41008800000001   -1.41151100000000   -0.31497000000000
C        45.88600100000000   -3.36816600000000    0.03846900000000
C        44.56522600000000   -2.94868700000000    0.02178400000000
N        44.38883500000000   -1.61048400000000    0.02268500000000
H        43.08449300000000   -4.65534900000000   -0.00475700000000
H        41.29063500000000   -2.78431400000000   -0.02668300000000
H        42.02098400000000    2.26830200000000   -1.50175400000000
H        43.93400100000000    4.10679800000000   -1.49134900000000
H        45.28824400000001    0.79042100000000    1.01527200000000
H        46.12469600000000    4.49813300000000    0.15236200000000
H        49.03178200000000    4.65012400000000   -0.12060500000000
H        50.80378200000000    2.77311100000000   -0.12448500000000
H        50.01801800000000   -2.21376700000000    1.60189400000000
H        48.09124500000000   -4.01801300000000    1.62428700000000
H        46.82301100000000   -0.79205400000000   -1.03862000000000
H        45.94671900000000   -4.47990500000000   -0.07566000000000
C        55.88312100000000   -3.59318200000000    0.00064500000000
C        55.00857100000000   -2.59827800000000   -0.00965700000000
C        55.68003500000000   -1.31949500000000    0.00353300000000
C        55.28300400000000   -0.00390900000000   -0.00124600000000
C        56.09419600000000    1.14041400000000   -0.15537200000000
C        55.61517100000000    2.19293100000000   -0.96743700000000
C        56.60225600000000    3.13568300000000   -0.95890600000000
C        57.64952700000000    2.63388900000000   -0.14610300000000
N        57.31067400000000    1.42752100000000    0.32664300000000
C        58.80990500000000    3.41187100000000    0.00824700000000
C        60.13089400000000    2.95399800000000   -0.02114700000000
C        61.44346300000000    3.58213100000000   -0.08227400000000
C        62.35757600000000    2.62706700000000   -0.08485800000000
C        61.68402900000000    1.34019400000000   -0.02566800000000
N        60.37197100000000    1.62879300000000    0.00912100000000
C        62.08631300000000   -0.00390900000000   -0.00124600000000
C        61.25415900000000   -1.11769800000000    0.18103500000000
C        61.69411700000000   -2.14935500000000    1.04434600000000
C        60.69593500000000   -3.07269600000000    1.04896700000000
C        59.67301900000000   -2.59275800000000    0.19553800000000
N        60.04019600000000   -1.41151100000000   -0.31497000000000
C        58.51611000000000   -3.36816600000000    0.03846900000000
C        57.19533500000000   -2.94868700000000    0.02178400000000
N        57.01894400000000   -1.61048400000000    0.02268500000000
H        55.71460200000000   -4.65534900000000   -0.00475700000000
H        53.92074300000000   -2.78431400000000   -0.02668300000000
H        54.65109300000000    2.26830200000000   -1.50175400000000
H        56.56410900000001    4.10679800000000   -1.49134900000000
H        57.91835300000001    0.79042100000000    1.01527200000000
H        58.75480500000000    4.49813300000000    0.15236200000000
H        61.66189000000000    4.65012400000000   -0.12060500000000
H        63.43389100000000    2.77311100000000   -0.12448500000000
H        62.64812600000000   -2.21376700000000    1.60189400000000
H        60.72135300000001   -4.01801300000000    1.62428700000000
H        59.45312000000000   -0.79205400000000   -1.03862000000000
H        58.57682800000001   -4.47990500000000   -0.07566000000000
C        68.51323000000001   -3.59318200000000    0.00064500000000
C        67.63867999999999   -2.59827800000000   -0.00965700000000
C        68.31014399999999   -1.31949500000000    0.00353300000000
C        67.91311300000000   -0.00390900000000   -0.00124600000000
C        68.72430500000000    1.14041400000000   -0.15537200000000
C        68.24527900000001    2.19293100000000   -0.96743700000000
C        69.23236400000000    3.13568300000000   -0.95890600000000
C        70.27963600000000    2.63388900000000   -0.14610300000000
N        69.94078300000000    1.42752100000000    0.32664300000000
C        71.44001299999999    3.41187100000000    0.00824700000000
C        72.76100200000000    2.95399800000000   -0.02114700000000
C        74.07357200000000    3.58213100000000   -0.08227400000000
C        74.98768400000000    2.62706700000000   -0.08485800000000
C        74.31413800000000    1.34019400000000   -0.02566800000000
N        73.00207899999999    1.62879300000000    0.00912100000000
C        74.71642100000001   -0.00390900000000   -0.00124600000000
C        73.88426699999999   -1.11769800000000    0.18103500000000
C        74.32422500000000   -2.14935500000000    1.04434600000000
C        73.32604300000000   -3.07269600000000    1.04896700000000
C        72.30312800000000   -2.59275800000000    0.19553800000000
N        72.67030500000000   -1.41151100000000   -0.31497000000000
C        71.14621800000002   -3.36816600000000    0.03846900000000
C        69.82544300000001   -2.94868700000000    0.02178400000000
N        69.64905200000000   -1.61048400000000    0.02268500000000
H        68.34471000000001   -4.65534900000000   -0.00475700000000
H        66.55085200000001   -2.78431400000000   -0.02668300000000
H        67.28120199999999    2.26830200000000   -1.50175400000000
H        69.19421800000001    4.10679800000000   -1.49134900000000
H        70.54846100000002    0.79042100000000    1.01527200000000
H        71.38491300000000    4.49813300000000    0.15236200000000
H        74.29199900000000    4.65012400000000   -0.12060500000000
H        76.06399900000000    2.77311100000000   -0.12448500000000
H        75.27823500000000   -2.21376700000000    1.60189400000000
H        73.35146200000000   -4.01801300000000    1.62428700000000
H        72.08322800000001   -0.79205400000000   -1.03862000000000
H        71.20693600000000   -4.47990500000000   -0.07566000000000
198
 energy: -336.662518993155 gnorm: 0.991883045232 xtb: 6.4.1 (bd6e46d)
C        34.81853383465857    3.51394612503196    0.79030497716585
C        35.71869218490659    2.56742643578453    0.59005473173097
C        35.04870048738591    1.31096371679450    0.28898266006695
C        35.41521998611935    0.00982453430049    0.00259645660275
C        34.59292202597961   -1.12258646601137   -0.08162225910581
C        35.04301599049965   -2.33658998789661    0.49878710275546
C        34.06871818603192   -3.26910117010888    0.29671253786221
C        33.03311358492696   -2.60403325844928   -0.40660426986265
N        33.36922480166995   -1.31398406083946   -0.62476850352323
C        31.87312140409834   -3.32778901179443   -0.73903356880171
C        30.55954600332386   -2.87761373831059   -0.62462122002770
C        29.24791409530491   -3.48973122139784   -0.72199050997703
C        28.32303226446101   -2.53937917793979   -0.51418298163128
C        29.02746029908825   -1.29389214606614   -0.27592477862366
N        30.34767187358758   -1.56915051144177   -0.35652611049229
C        28.62209152450686    0.00519493286747   -0.00907077445653
C        29.45097084510507    1.14367358383278    0.06520667947891
C        29.01970130230956    2.34941168527916   -0.54359139284720
C        30.01621316042637    3.26624737218391   -0.35126359568562
C        31.03454107006121    2.59620285661081    0.37259185933672
N        30.67093188980700    1.31875222383929    0.61192350460952
C        32.20466082839904    3.30319421194086    0.69648900973187
C        33.51667027011068    2.88821741288904    0.62374187425504
N        33.70615395367182    1.58019144603038    0.32659014593079
H        34.98948415285730    4.54067080187437    1.02827750760256
H        36.78365147763073    2.69344885424179    0.64004194356192
H        35.99766696333342   -2.51878602704626    1.01490293660016
H        34.10297204097219   -4.32045683896457    0.62169400895773
H        32.77443458608091   -0.55818545665968   -1.16393819361191
H        31.96739030947318   -4.35992034470064   -1.11233667192988
H        29.04962995496595   -4.54415390051935   -0.92895187509375
H        27.25713736682715   -2.72907762839034   -0.53333707082947
H        27.54886737300690    0.10048027758525    0.12615903021504
H        28.07137996942762    2.53795829864809   -1.07109203370946
H        30.00423662355987    4.31127012204926   -0.69711402219945
H        31.25479866751834    0.57256917550576    1.17659178977355
H        32.13121530402228    4.35397509578077    1.04730703722565
C        82.53400361782147   -3.49539594510230    0.82670600707915
C        81.63385214364483   -2.55100482495102    0.61664299042921
C        82.30383692131223   -1.29774245511244    0.30253046284213
C        81.93740140062063    0.00034646344465    0.00274780510715
C        82.75961187732725    1.13182060107480   -0.09331573830300
C        82.30953130508476    2.35179866268991    0.47445381658428
C        83.28381537502150    3.28216164704732    0.26269001072665
C        84.31942340620846    2.60981689027137   -0.43368412390353
N        83.98330805052646    1.31758568863522   -0.63845757951839
C        85.47941747423812    3.33008983963479   -0.77360631225776
C        86.79299249970373    2.88112154447704   -0.65452617682827
C        88.10462586369178    3.49219748429327   -0.75824691735384
C        89.02950625270978    2.54405593038505   -0.54058145458016
C        88.32508338671707    1.30110593959453   -0.28940150201609
N        87.00486203420687    1.57552093802528   -0.37285644820308
C        88.73045026909470    0.00487367532192   -0.00906833540483
C        87.90156663132986   -1.13278762892218    0.07702582454520
C        88.33283816278276   -2.34476866719882   -0.51921537887708
C        87.33631779523711   -3.25956492557564   -0.31737408264290
C        86.31800420219396   -2.58203888177519    0.39947804439717
N        86.68160942427890   -1.30217471449338    0.62553637828469
C        85.14786851117194   -3.28562913954746    0.73070998580023
C        83.83587257692787   -2.87143682653096    0.65365074449777
N        83.64637871668694   -1.56655367372137    0.34292544365784
H        82.36305523772674   -4.51959415581549    1.07532801517444
H        80.56888983533128   -2.67650204779360    0.66791991442514
H        81.35487200590866    2.53934691773075    0.98863612066925
H        83.24956561145147    4.33683589710687    0.57673358886768
H        84.57810364011345    0.55622113602209   -1.16972580805536
H        85.38514784237475    4.35828758952029   -1.15760818429486
H        88.30290918156017    4.54441527143600   -0.97614986971743
H        90.09540206673830    2.73354519257257   -0.56170454565384
H        89.80367201369999   -0.08901020957236    0.12714488625546
H        89.28115945838226   -2.53879133428379   -1.04472762744257
H        87.34830209700721   -4.30812422566622   -0.65235289660144
H        86.09774066823138   -0.55016539539055    1.18242134318773
H        85.22132322224439   -4.33270878857417    1.09241941898489
C        37.80074434429319    0.00181065587765    0.00055211818974
C        39.01960562445122    0.00978881271341    0.00266987073309
C        40.39987776042326    0.01194361711845    0.00755404688098
C        41.55852577700448    0.00853009919096    0.00062809733618
C        50.53822247760396   -0.00030727458861    0.00100272133248
C        51.69319651369329    0.00869603128116    0.00181742635147
C        53.02835988983892    0.01245819036084    0.00747029858779
C        54.19148989402417    0.00882399896856    0.00102914717188
C        63.16818042749810   -0.00030048885597    0.00094868871613
C        64.32338719157492    0.00869997477892    0.00182980139667
C        65.65853684154477    0.01245985675658    0.00747791990925
C        66.82145523885141    0.00883325715817    0.00098520264982
C        75.80084058253327    0.00003173447775    0.00102765408117
C        76.95184747328230    0.00910314752299    0.00193176045779
C        78.32930098895125    0.01158770284271    0.00752553023474
C        79.55237216572910    0.00397373384210    0.00036970530155
C        43.25761149533467   -3.59501633969816    0.00033477629422
C        42.37183310996845   -2.59750095795650   -0.00953548851011
C        43.07131123216324   -1.33275736286138    0.00465609934333
C        42.74196840551321   -0.00635497846117   -0.00130022367479
C        43.47400420762965    1.14356350202216   -0.15741042729910
C        42.98408407732537    2.19256394936244   -0.96702502970805
C        43.97231079708954    3.13923523552372   -0.95858921200480
C        45.02120169365330    2.63977113400132   -0.14679068603233
N        44.68662111947055    1.42547017255929    0.32926713983401
C        46.18706006469651    3.41401186468148    0.00974599591692
C        47.50038133042575    2.95351634837777   -0.01955320262755
C        48.81099210584625    3.58781603403333   -0.08167561002811
C        49.73203739701706    2.62434522803832   -0.08509088446750
C        49.03305705239922    1.35255279959750   -0.02677714984066
N        47.73640454051637    1.62479657371420    0.00862764183504
C        49.35973417264655   -0.00046398392303   -0.00232225781727
C        48.61163185001077   -1.12263426579951    0.18346370411723
C        49.06542866702188   -2.14808571922307    1.04391326509746
C        48.06557216812917   -3.07681350909235    1.04899245741983
C        47.04127742911367   -2.59885428051605    0.19665718065692
N        47.40430263434386   -1.40932106982294   -0.31780326822647
C        45.88065669863041   -3.37406217053774    0.03652210095878
C        44.56662899628073   -2.94657679964643    0.02022477491119
N        44.39010885478303   -1.60882568393289    0.02309571598504
H        43.08470974995704   -4.65513030654670   -0.00476349685223
H        41.29202511041697   -2.78223759948613   -0.02659909161006
H        42.02393827285326    2.26674256896306   -1.49979813678721
H        43.93507410590322    4.10386045651122   -1.48942519517380
H        45.28325599441926    0.79581384016525    1.00819053887439
H        46.12329928902815    4.49712413227194    0.15003471318534
H        49.03067047443045    4.64939770569317   -0.12056767449253
H        50.80333117831291    2.77215051430744   -0.12454049172438
H        50.01500949438647   -2.21221533150261    1.59973435731909
H        48.09000708615025   -4.01546505875228    1.62222205867961
H        46.82793570531187   -0.79734144488972   -1.03121797148556
H        45.94855731187015   -4.47754955736621   -0.07335662499364
C        55.88780638713560   -3.59523643860506    0.00030594367830
C        55.00208368755198   -2.59755427959546   -0.00956209341722
C        55.70282615002642   -1.33404098790457    0.00443492516060
C        55.37071037243829   -0.00610070510217   -0.00111366175517
C        56.10461966087018    1.14448920943754   -0.15770747120214
C        55.61438266409363    2.19213847159896   -0.96709930328078
C        56.60271941355003    3.13940684399553   -0.95841991169847
C        57.65118282737721    2.63995592755522   -0.14686381909276
N        57.31641071522691    1.42545811743351    0.32921653144836
C        58.81732059380179    3.41397031766956    0.00968991230109
C        60.13041886172208    2.95367862815109   -0.01961444288755
C        61.44107171812549    3.58781877260463   -0.08164222411425
C        62.36212201961913    2.62433011252642   -0.08509896187417
C        61.66311663017923    1.35265684507216   -0.02669853984860
N        60.36662447834020    1.62469866197204    0.00865251767059
C        61.98995223430490   -0.00046206583054   -0.00236881267655
C        61.24166944718642   -1.12278092966267    0.18349259210056
C        61.69552981894399   -2.14794350067835    1.04389615050463
C        60.69547541448794   -3.07681644572754    1.04893685283845
C        59.67158359269311   -2.59877303936456    0.19670272009558
N        60.03450928173481   -1.40934684783505   -0.31778958446294
C        58.51013132487126   -3.37396816946205    0.03651548389294
C        57.19722963375057   -2.94742211399969    0.02035976250147
N        57.01924328961221   -1.60812334879961    0.02312284083141
H        55.71481268644895   -4.65516795363965   -0.00475351944112
H        53.92216632490387   -2.78217469317287   -0.02659013193853
H        54.65408080314225    2.26669714807835   -1.49976833550039
H        56.56518909555601    4.10390943740791   -1.48939346132084
H        57.91330333040901    0.79582694044034    1.00819558755756
H        58.75343148261862    4.49713273940696    0.15003938602958
H        61.66078166923923    4.64939775513162   -0.12056740212710
H        63.43343887516148    2.77214880833540   -0.12454665501131
H        62.64511371391442   -2.21221719565454    1.59972830115247
H        60.72010923489751   -4.01547138933814    1.62221400503707
H        59.45803908723482   -0.79733702654529   -1.03122076116426
H        58.57864505894015   -4.47754452782301   -0.07341639707216
C        68.51787773770118   -3.59523796967664    0.00033270433654
C        67.63216934252696   -2.59757558878928   -0.00956761565438
C        68.33289403216141   -1.33394124977961    0.00451153464289
C        68.00092186982856   -0.00609899893388   -0.00116011388018
C        68.73466479954908    1.14435602531103   -0.15768655278972
C        68.24447978381335    2.19226624745220   -0.96710796624086
C        69.23264004396721    3.13940210730589   -0.95847244252706
C        70.28147630704510    2.64002773230252   -0.14684414701681
N        69.94661296948853    1.42543697655895    0.32922615518834
C        71.44684566308824    3.41406981487943    0.00971169518809
C        72.76102337816215    2.95289436319760   -0.01951190889262
C        74.07123056225687    3.58761027547927   -0.08168774116183
C        74.99236293535205    2.62424156271344   -0.08509317495141
C        74.29451745936728    1.35151987742273   -0.02701033829152
N        72.99586060666603    1.62532737676096    0.00871578043095
C        74.61873420440619   -0.00027101650503   -0.00219953116390
C        73.87229039264605   -1.12186085842635    0.18328905826794
C        74.32582034313771   -2.14842572896123    1.04384185768733
C        73.32590154823245   -3.07665211438958    1.04911070644926
C        72.30156721563417   -2.59860115994044    0.19659358202938
N        72.66430399821728   -1.40933772010947   -0.31781824377353
C        71.14040169269433   -3.37399943077325    0.03645837220475
C        69.82727948211294   -2.94725393416151    0.02028981093313
N        69.64945144006057   -1.60822318085734    0.02315266867006
H        68.34492319718122   -4.65516799453888   -0.00475285042188
H        66.55227555011992   -2.78217698141146   -0.02659652599071
H        67.28418583668081    2.26669578459353   -1.49977312365431
H        69.19529262540776    4.10390327731179   -1.48940041235091
H        70.54340446616897    0.79583327390814    1.00819287835739
H        71.38351715882459    4.49713807317620    0.15000910493941
H        74.29088448372569    4.64936184634643   -0.12055871575907
H        76.06357867621641    2.77221243141624   -0.12455563954570
H        75.27524792547061   -2.21226061252418    1.59976109451137
H        73.35022221159075   -4.01542196362048    1.62224794273953
H        72.08809041761553   -0.79732097818946   -1.03121617518375
H        71.20877556300070   -4.47753401766931   -0.07339591755991
198
 energy: -336.995612787772 gnorm: 0.557822679349 xtb: 6.4.1 (bd6e46d)
C        34.81260970688549    3.51385253170458    0.79218591520977
C        35.72971103244858    2.56300928563342    0.58652767851164
C        35.04716245685290    1.31350013531757    0.28266635599799
C        35.44206824288686    0.02324687836642    0.00464810484173
C        34.61964049186945   -1.11470127615996   -0.07915055028344
C        35.05200387903479   -2.34018804273407    0.49715387839520
C        34.07392031722364   -3.27110005780907    0.28886386381664
C        33.02854529963402   -2.61243806792285   -0.41146018529955
N        33.37247549044865   -1.30865544977266   -0.62205524864187
C        31.86039428684029   -3.32988083788862   -0.74568298637525
C        30.55733958895731   -2.86162460116019   -0.63188900479594
C        29.24885707053356   -3.49614181924348   -0.72659921545838
C        28.32070926677860   -2.54309907094056   -0.51254686562758
C        29.04066274847745   -1.29972838021360   -0.26710654687214
N        30.36083533137196   -1.55715391667391   -0.35310030325332
C        28.61839453913714   -0.00703499822117   -0.00543429453734
C        29.43925358438124    1.13821235500596    0.06401704495483
C        29.01399004442138    2.35197761705865   -0.53730052476050
C        30.01173842288670    3.26935504433015   -0.34420517584398
C        31.04055543605011    2.60850420737580    0.37584554537490
N        30.67666437257069    1.31537584090079    0.60462375557483
C        32.21369695860201    3.31265992032311    0.70570196892335
C        33.51761694396558    2.86836895839052    0.62814233286703
N        33.70541583259457    1.56516880045171    0.32485920898286
H        34.98617350474822    4.54315058847874    1.02930426902754
H        36.79035804051068    2.69035462470112    0.63901470136784
H        35.99180107784143   -2.51364706869750    1.01180284938491
H        34.09847864898292   -4.30955283069489    0.61695709360711
H        32.79210873278690   -0.58101334061965   -1.14121309316446
H        31.96901976492375   -4.35896692394819   -1.09818605999271
H        29.05309395241085   -4.54134834771047   -0.92890941653653
H        27.25776437299265   -2.72311151974816   -0.53160720934590
H        27.54761860706907    0.10645007431180    0.11572221528136
H        28.07967672345530    2.53167361008200   -1.06618441472300
H        30.00839922617882    4.30086328736645   -0.69269355346981
H        31.23837459363907    0.59493101077527    1.15258923006195
H        32.12588041288674    4.35397921113237    1.03499356707559
C        82.53993429952415   -3.49529607857167    0.82860069902773
C        81.62285449760751   -2.54662832316701    0.61311795401785
C        82.30542402192634   -1.30039801141868    0.29629641743403
C        81.91062528225760   -0.01309266162838    0.00529897275092
C        82.73289480531855    1.12394445715644   -0.09068951902865
C        82.30055719738634    2.35538899391346    0.47282178499876
C        83.27860368965818    3.28408585397732    0.25482030193384
C        84.32398027043446    2.61816541304149   -0.43864011734427
N        83.98003018666772    1.31228409276860   -0.63571686056215
C        85.49213702851318    3.33210979967653   -0.78026725959196
C        86.79519947262114    2.86505088705315   -0.66162465668941