      -----------------------------------------------------------      
     |                   =====================                   |     
     |                           x T B                           |     
     |                   =====================                   |     
     |                         S. Grimme                         |     
     |          Mulliken Center for Theoretical Chemistry        |     
     |                    University of Bonn                     |     
      -----------------------------------------------------------      

   * xtb version 6.4.1 (bd6e46d) compiled by 'conda@4901f00b25ba' on 2021-06-10

   xtb is free software: you can redistribute it and/or modify it under
   the terms of the GNU Lesser General Public License as published by
   the Free Software Foundation, either version 3 of the License, or
   (at your option) any later version.
   
   xtb is distributed in the hope that it will be useful,
   but WITHOUT ANY WARRANTY; without even the implied warranty of
   MERCHANTABILITY or FITNESS FOR A PARTICULAR PURPOSE.  See the
   GNU Lesser General Public License for more details.
   
   Cite this work as:
   * C. Bannwarth, E. Caldeweyher, S. Ehlert, A. Hansen, P. Pracht,
     J. Seibert, S. Spicher, S. Grimme, WIREs Comput. Mol. Sci., 2020, 11,
     e01493. DOI: 10.1002/wcms.1493
   
   for GFN2-xTB:
   * C. Bannwarth, S. Ehlert and S. Grimme., J. Chem. Theory Comput., 2019,
     15, 1652-1671. DOI: 10.1021/acs.jctc.8b01176
   for GFN1-xTB:
   * S. Grimme, C. Bannwarth, P. Shushkov, J. Chem. Theory Comput., 2017,
     13, 1989-2009. DOI: 10.1021/acs.jctc.7b00118
   for GFN0-xTB:
   * P. Pracht, E. Caldeweyher, S. Ehlert, S. Grimme, ChemRxiv, 2019, preprint.
     DOI: 10.26434/chemrxiv.8326202.v1
   for GFN-FF:
   * S. Spicher and S. Grimme, Angew. Chem. Int. Ed., 2020, 59, 15665-15673.
     DOI: 10.1002/anie.202004239
   
   for DFT-D4:
   * E. Caldeweyher, C. Bannwarth and S. Grimme, J. Chem. Phys., 2017,
     147, 034112. DOI: 10.1063/1.4993215
   * E. Caldeweyher, S. Ehlert, A. Hansen, H. Neugebauer, S. Spicher,
     C. Bannwarth and S. Grimme, J. Chem. Phys., 2019, 150, 154122.
     DOI: 10.1063/1.5090222
   * E. Caldeweyher, J.-M. Mewes, S. Ehlert and S. Grimme, Phys. Chem. Chem. Phys.
     2020, 22, 8499-8512. DOI: 10.1039/D0CP00502A
   
   for sTDA-xTB:
   * S. Grimme and C. Bannwarth, J. Chem. Phys., 2016, 145, 054103.
     DOI: 10.1063/1.4959605
   
   in the mass-spec context:
   * V. Asgeirsson, C. Bauer and S. Grimme, Chem. Sci., 2017, 8, 4879.
     DOI: 10.1039/c7sc00601b
   * J. Koopman and S. Grimme, ACS Omega 2019, 4, 12, 15120-15133.
     DOI: 10.1021/acsomega.9b02011
   
   for metadynamics refer to:
   * S. Grimme, J. Chem. Theory Comput., 2019, 155, 2847-2862
     DOI: 10.1021/acs.jctc.9b00143
   
   for SPH calculations refer to:
   * S. Spicher and S. Grimme, J. Chem. Theory Comput., 2021, 17, 1701-1714
     DOI: 10.1021/acs.jctc.0c01306
   
   with help from (in alphabetical order)
   P. Atkinson, C. Bannwarth, F. Bohle, G. Brandenburg, E. Caldeweyher
   M. Checinski, S. Dohm, S. Ehlert, S. Ehrlich, I. Gerasimov, J. Koopman
   C. Lavigne, S. Lehtola, F. März, M. Müller, F. Musil, H. Neugebauer
   J. Pisarek, C. Plett, P. Pracht, J. Seibert, P. Shushkov, S. Spicher
   M. Stahn, M. Steiner, T. Strunk, J. Stückrath, T. Rose, and J. Unsleber
   
 * started run on 2021/11/21 at 01:39:57.855     

           -------------------------------------------------
          |                Calculation Setup                |
           -------------------------------------------------

          program call               : /home/jeff/miniconda3/bin/xtb /home/jeff/chem/final-year-proejct/Cu+2_4_2_outenergy/input_structure.xyz --gfn 2 --parallel 1 --etemp 300 --chrg 0 --uhf 0 -I det_control.in
          coordinate file            : /home/jeff/chem/final-year-proejct/Cu+2_4_2_outenergy/input_structure.xyz
          omp threads                :                     1
          number of atoms            :                    76
          number of electrons        :                   260
          charge                     :                     0
          spin                       :                   0.0
          first test random number   :      0.13512301430804

   ID    Z sym.   atoms
    1   29 Cu     1, 41
    2    6 C      2-9, 11-15, 17-21, 23, 24, 37-40, 42-49, 51-55, 57-61, 63,
                  64
    3    7 N      10, 16, 22, 25, 50, 56, 62, 65
    4    1 H      26-36, 66-76

           -------------------------------------------------
          |                 G F N 2 - x T B                 |
           -------------------------------------------------

        Reference                      10.1021/acs.jctc.8b01176
      * Hamiltonian:
        H0-scaling (s, p, d)           1.850000    2.230000    2.230000
        zeta-weighting                 0.500000
      * Dispersion:
        s8                             2.700000
        a1                             0.520000
        a2                             5.000000
        s9                             5.000000
      * Repulsion:
        kExp                           1.500000    1.000000
        rExp                           1.000000
      * Coulomb:
        alpha                          2.000000
        third order                    shell-resolved
        anisotropic                    true
        a3                             3.000000
        a5                             4.000000
        cn-shift                       1.200000
        cn-exp                         4.000000
        max-rad                        5.000000


          ...................................................
          :                      SETUP                      :
          :.................................................:
          :  # basis functions                 250          :
          :  # atomic orbitals                 248          :
          :  # shells                          132          :
          :  # electrons                       260          :
          :  max. iterations                   250          :
          :  Hamiltonian                  GFN2-xTB          :
          :  restarted?                      false          :
          :  GBSA solvation                  false          :
          :  PC potential                    false          :
          :  electronic temp.          300.0000000     K    :
          :  accuracy                    1.0000000          :
          :  -> integral cutoff          0.2500000E+02      :
          :  -> integral neglect         0.1000000E-07      :
          :  -> SCF convergence          0.1000000E-05 Eh   :
          :  -> wf. convergence          0.1000000E-03 e    :
          :  Broyden damping             0.4000000          :
          ...................................................

 iter      E             dE          RMSdq      gap      omega  full diag
   1   -138.9743876 -0.138974E+03  0.544E+00    0.00       0.0  T
   2   -138.7780331  0.196355E+00  0.348E+00    0.21       1.0  T
   3    -95.7795012  0.429985E+02  0.126E+01    0.13       1.0  T
   4   -138.3709126 -0.425914E+02  0.195E+00    0.40       1.0  T
   5   -138.7718539 -0.400941E+00  0.121E+00    0.52       1.0  T
   6   -138.9602670 -0.188413E+00  0.656E-01    0.05       1.0  T
   7   -138.9871496 -0.268826E-01  0.432E-01    0.04       1.0  T
   8   -138.7632526  0.223897E+00  0.101E+00    0.22       1.0  T
   9   -139.0032978 -0.240045E+00  0.305E-01    0.03       1.0  T
  10   -138.8485244  0.154773E+00  0.820E-01    0.11       1.0  T
  11   -138.9528487 -0.104324E+00  0.455E-01    0.06       1.0  T
  12   -138.8803880  0.724607E-01  0.696E-01    0.10       1.0  T
  13   -138.9579099 -0.775218E-01  0.459E-01    0.06       1.0  T
  14   -138.9461591  0.117507E-01  0.507E-01    0.06       1.0  T
  15   -138.9856298 -0.394707E-01  0.353E-01    0.04       1.0  T
  16   -139.0131962 -0.275664E-01  0.173E-01    0.02       1.0  T
  17   -139.0130169  0.179318E-03  0.172E-01    0.02       1.0  T
  18   -139.0200248 -0.700788E-02  0.704E-02    0.01       1.0  T
  19   -139.0207109 -0.686126E-03  0.407E-02    0.00       1.0  T
  20   -139.0206242  0.867409E-04  0.457E-02    0.01       1.0  T
  21   -139.0211177 -0.493576E-03  0.205E-02    0.00       1.0  T
  22   -139.0212101 -0.923541E-04  0.820E-03    0.00       1.4  T
  23   -139.0212282 -0.181593E-04  0.114E-03    0.00      10.1  T
  24   -139.0212247  0.356573E-05  0.348E-03    0.00       3.3  T
  25   -139.0212281 -0.346333E-05  0.951E-04    0.00      12.1  T
  26   -139.0212280  0.122056E-06  0.107E-03    0.00      10.7  T
  27   -139.0212283 -0.312966E-06  0.165E-04    0.00      69.6  T
  28   -139.0212283  0.418914E-07  0.367E-04    0.00      31.2  T

   *** convergence criteria satisfied after 28 iterations ***

         #    Occupation            Energy/Eh            Energy/eV
      -------------------------------------------------------------
         1        2.0000           -0.6780199             -18.4499
       ...           ...                  ...                  ...
       124        2.0000           -0.3699919             -10.0680
       125        2.0000           -0.3698946             -10.0653
       126        2.0000           -0.3684864             -10.0270
       127        2.0000           -0.3683607             -10.0236
       128        2.0000           -0.3682874             -10.0216
       129        2.0000           -0.3538388              -9.6284
       130        1.0005           -0.3202177              -8.7136 (HOMO)
       131        0.9995           -0.3202159              -8.7135 (LUMO)
       132        0.0000           -0.3093766              -8.4186
       133                         -0.2987358              -8.1290
       134                         -0.2986442              -8.1265
       135                         -0.2945144              -8.0141
       ...                                ...                  ...
       248                          1.6328514              44.4321
      -------------------------------------------------------------
                  HL-Gap            0.0000018 Eh            0.0000 eV
             Fermi-level           -0.3202168 Eh           -8.7135 eV

 SCC (total)                   0 d,  0 h,  0 min,  0.407 sec
 SCC setup                      ...        0 min,  0.001 sec (  0.253%)
 Dispersion                     ...        0 min,  0.002 sec (  0.507%)
 classical contributions        ...        0 min,  0.000 sec (  0.097%)
 integral evaluation            ...        0 min,  0.023 sec (  5.681%)
 iterations                     ...        0 min,  0.302 sec ( 74.091%)
 molecular gradient             ...        0 min,  0.078 sec ( 19.131%)
 printout                       ...        0 min,  0.001 sec (  0.236%)

         :::::::::::::::::::::::::::::::::::::::::::::::::::::
         ::                     SUMMARY                     ::
         :::::::::::::::::::::::::::::::::::::::::::::::::::::
         :: total energy            -136.647306033136 Eh    ::
         :: gradient norm              0.000939830080 Eh/a0 ::
         :: HOMO-LUMO gap              0.000048090821 eV    ::
         ::.................................................::
         :: SCC energy              -139.021228296413 Eh    ::
         :: -> isotropic ES            0.055390678512 Eh    ::
         :: -> anisotropic ES          0.020048609610 Eh    ::
         :: -> anisotropic XC          0.057557463597 Eh    ::
         :: -> dispersion             -0.117981115611 Eh    ::
         :: repulsion energy           2.375205408267 Eh    ::
         :: add. restraining           0.000000000000 Eh    ::
         :: total charge               0.000000000000 e     ::
         :::::::::::::::::::::::::::::::::::::::::::::::::::::

           -------------------------------------------------
          |                Property Printout                |
           -------------------------------------------------

    * Orbital Energies and Occupations

         #    Occupation            Energy/Eh            Energy/eV
      -------------------------------------------------------------
         1        2.0000           -0.6780199             -18.4499
       ...           ...                  ...                  ...
       118        2.0000           -0.3898864             -10.6094
       119        2.0000           -0.3897256             -10.6050
       120        2.0000           -0.3760857             -10.2338
       121        2.0000           -0.3759185             -10.2293
       122        2.0000           -0.3756776             -10.2227
       123        2.0000           -0.3754938             -10.2177
       124        2.0000           -0.3699919             -10.0680
       125        2.0000           -0.3698946             -10.0653
       126        2.0000           -0.3684864             -10.0270
       127        2.0000           -0.3683607             -10.0236
       128        2.0000           -0.3682874             -10.0216
       129        2.0000           -0.3538388              -9.6284
       130        1.0005           -0.3202177              -8.7136 (HOMO)
       131        0.9995           -0.3202159              -8.7135 (LUMO)
       132        0.0000           -0.3093766              -8.4186
       133                         -0.2987358              -8.1290
       134                         -0.2986442              -8.1265
       135                         -0.2945144              -8.0141
       136                         -0.2649373              -7.2093
       137                         -0.2562347              -6.9725
       138                         -0.2265843              -6.1657
       139                         -0.2058674              -5.6019
       140                         -0.1904709              -5.1830
       141                         -0.1904028              -5.1811
       ...                                ...                  ...
       248                          1.6328514              44.4321
      -------------------------------------------------------------
                  HL-Gap            0.0000018 Eh            0.0000 eV
             Fermi-level           -0.3202168 Eh           -8.7135 eV

     #   Z          covCN         q      C6AA      α(0)
     1  29 Cu       2.954     0.196   146.210    27.533
     2   6 C        3.023    -0.051    29.235     8.869
     3   6 C        3.020    -0.049    29.192     8.863
     4   6 C        3.164     0.079    25.922     8.321
     5   6 C        2.953     0.017    27.630     8.621
     6   6 C        3.164     0.079    25.924     8.321
     7   6 C        3.020    -0.049    29.195     8.863
     8   6 C        3.022    -0.051    29.236     8.869
     9   6 C        3.148     0.077    26.026     8.345
    10   7 N        2.619    -0.172    24.731     7.386
    11   6 C        2.901    -0.050    29.232     8.865
    12   6 C        3.144     0.078    26.013     8.345
    13   6 C        3.019    -0.050    29.213     8.866
    14   6 C        3.019    -0.050    29.217     8.866
    15   6 C        3.144     0.079    25.998     8.343
    16   7 N        2.622    -0.170    24.693     7.380
    17   6 C        2.901    -0.051    29.274     8.871
    18   6 C        3.144     0.079    25.998     8.343
    19   6 C        3.019    -0.050    29.217     8.866
    20   6 C        3.019    -0.050    29.213     8.866
    21   6 C        3.144     0.078    26.013     8.345
    22   7 N        2.622    -0.170    24.694     7.380
    23   6 C        2.901    -0.050    29.232     8.865
    24   6 C        3.148     0.077    26.026     8.345
    25   7 N        2.620    -0.172    24.732     7.386
    26   1 H        0.926     0.034     2.532     2.488
    27   1 H        0.926     0.036     2.506     2.476
    28   1 H        0.926     0.036     2.506     2.475
    29   1 H        0.926     0.034     2.530     2.488
    30   1 H        0.926     0.049     2.327     2.385
    31   1 H        0.926     0.035     2.522     2.483
    32   1 H        0.926     0.035     2.523     2.484
    33   1 H        0.926     0.049     2.335     2.390
    34   1 H        0.926     0.035     2.523     2.484
    35   1 H        0.926     0.035     2.522     2.483
    36   1 H        0.926     0.049     2.327     2.385
    37   6 C        1.995    -0.021    31.589     9.077
    38   6 C        1.963    -0.009    31.321     9.038
    39   6 C        1.963    -0.009    31.319     9.038
    40   6 C        1.995    -0.021    31.592     9.077
    41  29 Cu       2.956     0.196   146.209    27.533
    42   6 C        3.022    -0.051    29.236     8.869
    43   6 C        3.020    -0.049    29.192     8.863
    44   6 C        3.164     0.079    25.922     8.321
    45   6 C        2.953     0.017    27.628     8.621
    46   6 C        3.164     0.079    25.923     8.321
    47   6 C        3.020    -0.049    29.194     8.863
    48   6 C        3.023    -0.051    29.236     8.869
    49   6 C        3.148     0.077    26.025     8.345
    50   7 N        2.620    -0.172    24.731     7.386
    51   6 C        2.901    -0.050    29.231     8.865
    52   6 C        3.144     0.078    26.013     8.345
    53   6 C        3.019    -0.050    29.213     8.866
    54   6 C        3.020    -0.050    29.217     8.866
    55   6 C        3.144     0.079    25.999     8.343
    56   7 N        2.623    -0.170    24.693     7.380
    57   6 C        2.901    -0.051    29.275     8.871
    58   6 C        3.144     0.079    25.998     8.343
    59   6 C        3.020    -0.050    29.217     8.866
    60   6 C        3.019    -0.050    29.212     8.866
    61   6 C        3.144     0.078    26.013     8.345
    62   7 N        2.623    -0.170    24.693     7.380
    63   6 C        2.901    -0.050    29.231     8.865
    64   6 C        3.148     0.077    26.025     8.345
    65   7 N        2.620    -0.172    24.731     7.386
    66   1 H        0.926     0.034     2.530     2.488
    67   1 H        0.926     0.036     2.506     2.476
    68   1 H        0.926     0.036     2.505     2.475
    69   1 H        0.926     0.034     2.530     2.488
    70   1 H        0.926     0.049     2.326     2.385
    71   1 H        0.926     0.035     2.522     2.483
    72   1 H        0.926     0.035     2.522     2.484
    73   1 H        0.926     0.049     2.335     2.390
    74   1 H        0.926     0.035     2.522     2.484
    75   1 H        0.926     0.035     2.522     2.483
    76   1 H        0.926     0.049     2.326     2.385

 Mol. C6AA /au·bohr⁶  :     109417.556229
 Mol. C8AA /au·bohr⁸  :    3140465.050014
 Mol. α(0) /au        :        550.120552


Wiberg/Mayer (AO) data.
largest (>0.10) Wiberg bond orders for each atom

 ---------------------------------------------------------------------------
     #   Z sym  total        # sym  WBO       # sym  WBO       # sym  WBO
 ---------------------------------------------------------------------------
     1  29 Cu   2.321 --    16 N    0.533    22 N    0.532    25 N    0.531
                            10 N    0.531
     2   6 C    3.946 --     3 C    1.651    24 C    1.166    26 H    0.972
     3   6 C    3.950 --     2 C    1.651     4 C    1.174    27 H    0.971
     4   6 C    3.909 --    25 N    1.289     5 C    1.250     3 C    1.174
     5   6 C    3.942 --     4 C    1.250     6 C    1.250    37 C    1.184
     6   6 C    3.909 --    10 N    1.289     5 C    1.250     7 C    1.174
     7   6 C    3.950 --     8 C    1.651     6 C    1.174    28 H    0.971
     8   6 C    3.946 --     7 C    1.651     9 C    1.166    29 H    0.972
     9   6 C    3.922 --    11 C    1.355    10 N    1.249     8 C    1.166
    10   7 N    3.381 --     6 C    1.289     9 C    1.249     1 Cu   0.531
    11   6 C    3.932 --     9 C    1.355    12 C    1.351    30 H    0.964
    12   6 C    3.927 --    11 C    1.351    16 N    1.264    13 C    1.158
    13   6 C    3.950 --    14 C    1.666    12 C    1.158    31 H    0.972
    14   6 C    3.948 --    13 C    1.666    15 C    1.157    32 H    0.972
    15   6 C    3.930 --    17 C    1.351    16 N    1.266    14 C    1.157
    16   7 N    3.377 --    15 C    1.266    12 C    1.264     1 Cu   0.533
    17   6 C    3.927 --    15 C    1.351    18 C    1.351    33 H    0.964
    18   6 C    3.930 --    17 C    1.351    22 N    1.266    19 C    1.157
    19   6 C    3.948 --    20 C    1.666    18 C    1.157    34 H    0.972
    20   6 C    3.950 --    19 C    1.666    21 C    1.158    35 H    0.972
    21   6 C    3.927 --    23 C    1.352    22 N    1.264    20 C    1.158
    22   7 N    3.377 --    18 C    1.266    21 C    1.264     1 Cu   0.532
    23   6 C    3.932 --    24 C    1.355    21 C    1.352    36 H    0.964
    24   6 C    3.922 --    23 C    1.355    25 N    1.250     2 C    1.166
    25   7 N    3.381 --     4 C    1.289    24 C    1.250     1 Cu   0.531
    26   1 H    0.998 --     2 C    0.972
    27   1 H    0.998 --     3 C    0.971
    28   1 H    0.998 --     7 C    0.971
    29   1 H    0.998 --     8 C    0.972
    30   1 H    0.996 --    11 C    0.964
    31   1 H    0.998 --    13 C    0.972
    32   1 H    0.998 --    14 C    0.972
    33   1 H    0.997 --    17 C    0.964
    34   1 H    0.998 --    19 C    0.972
    35   1 H    0.998 --    20 C    0.972
    36   1 H    0.996 --    23 C    0.964
    37   6 C    3.919 --    38 C    2.471     5 C    1.184    40 C    0.203
    38   6 C    3.928 --    37 C    2.471    39 C    1.304
    39   6 C    3.928 --    40 C    2.471    38 C    1.304
    40   6 C    3.920 --    39 C    2.471    45 C    1.185    37 C    0.203
    41  29 Cu   2.322 --    62 N    0.533    56 N    0.533    65 N    0.531
                            50 N    0.531
    42   6 C    3.946 --    43 C    1.651    64 C    1.167    66 H    0.972
    43   6 C    3.950 --    42 C    1.651    44 C    1.175    67 H    0.971
    44   6 C    3.909 --    65 N    1.289    45 C    1.250    43 C    1.175
    45   6 C    3.942 --    44 C    1.250    46 C    1.250    40 C    1.185
    46   6 C    3.909 --    50 N    1.289    45 C    1.250    47 C    1.175
    47   6 C    3.950 --    48 C    1.651    46 C    1.175    68 H    0.971
    48   6 C    3.946 --    47 C    1.651    49 C    1.167    69 H    0.972
    49   6 C    3.922 --    51 C    1.355    50 N    1.249    48 C    1.167
    50   7 N    3.381 --    46 C    1.289    49 C    1.249    41 Cu   0.531
    51   6 C    3.932 --    49 C    1.355    52 C    1.352    70 H    0.964
    52   6 C    3.927 --    51 C    1.352    56 N    1.264    53 C    1.158
    53   6 C    3.950 --    54 C    1.666    52 C    1.158    71 H    0.972
    54   6 C    3.948 --    53 C    1.666    55 C    1.157    72 H    0.972
    55   6 C    3.930 --    57 C    1.351    56 N    1.266    54 C    1.157
    56   7 N    3.377 --    55 C    1.266    52 C    1.264    41 Cu   0.533
    57   6 C    3.927 --    55 C    1.351    58 C    1.351    73 H    0.964
    58   6 C    3.930 --    57 C    1.351    62 N    1.266    59 C    1.158
    59   6 C    3.948 --    60 C    1.666    58 C    1.158    74 H    0.972
    60   6 C    3.950 --    59 C    1.666    61 C    1.158    75 H    0.972
    61   6 C    3.927 --    63 C    1.352    62 N    1.264    60 C    1.158
    62   7 N    3.377 --    58 C    1.266    61 C    1.264    41 Cu   0.533
    63   6 C    3.932 --    64 C    1.355    61 C    1.352    76 H    0.964
    64   6 C    3.922 --    63 C    1.355    65 N    1.249    42 C    1.167
    65   7 N    3.381 --    44 C    1.289    64 C    1.249    41 Cu   0.531
    66   1 H    0.998 --    42 C    0.972
    67   1 H    0.998 --    43 C    0.971
    68   1 H    0.998 --    47 C    0.971
    69   1 H    0.998 --    48 C    0.972
    70   1 H    0.996 --    51 C    0.964
    71   1 H    0.998 --    53 C    0.972
    72   1 H    0.998 --    54 C    0.972
    73   1 H    0.997 --    57 C    0.964
    74   1 H    0.998 --    59 C    0.972
    75   1 H    0.998 --    60 C    0.972
    76   1 H    0.996 --    63 C    0.964
 ---------------------------------------------------------------------------

Topologies differ in total number of bonds
Writing topology from bond orders to xtbtopo.mol

molecular dipole:
                 x           y           z       tot (Debye)
 q only:        0.010       0.004      -0.023
   full:        0.010       0.005      -0.037       0.099
molecular quadrupole (traceless):
                xx          xy          yy          xz          yz          zz
 q only:       15.904       0.239       5.050      -1.719       0.106     -20.954
  q+dip:       36.365       0.427      14.023      -3.393       0.263     -50.388
   full:       22.944       0.353       6.917      -2.663       0.154     -29.861


           -------------------------------------------------
          | TOTAL ENERGY             -136.647306033136 Eh   |
          | GRADIENT NORM               0.000939830080 Eh/α |
          | HOMO-LUMO GAP               0.000048090821 eV   |
           -------------------------------------------------

------------------------------------------------------------------------
 * finished run on 2021/11/21 at 01:39:58.294     
------------------------------------------------------------------------
 total:
 * wall-time:     0 d,  0 h,  0 min,  0.439 sec
 *  cpu-time:     0 d,  0 h,  0 min,  0.439 sec
 * ratio c/w:     1.000 speedup
 SCF:
 * wall-time:     0 d,  0 h,  0 min,  0.408 sec
 *  cpu-time:     0 d,  0 h,  0 min,  0.408 sec
 * ratio c/w:     1.000 speedup

