      -----------------------------------------------------------      
     |                   =====================                   |     
     |                           x T B                           |     
     |                   =====================                   |     
     |                         S. Grimme                         |     
     |          Mulliken Center for Theoretical Chemistry        |     
     |                    University of Bonn                     |     
      -----------------------------------------------------------      

   * xtb version 6.4.1 (bd6e46d) compiled by 'conda@4901f00b25ba' on 2021-06-10

   xtb is free software: you can redistribute it and/or modify it under
   the terms of the GNU Lesser General Public License as published by
   the Free Software Foundation, either version 3 of the License, or
   (at your option) any later version.
   
   xtb is distributed in the hope that it will be useful,
   but WITHOUT ANY WARRANTY; without even the implied warranty of
   MERCHANTABILITY or FITNESS FOR A PARTICULAR PURPOSE.  See the
   GNU Lesser General Public License for more details.
   
   Cite this work as:
   * C. Bannwarth, E. Caldeweyher, S. Ehlert, A. Hansen, P. Pracht,
     J. Seibert, S. Spicher, S. Grimme, WIREs Comput. Mol. Sci., 2020, 11,
     e01493. DOI: 10.1002/wcms.1493
   
   for GFN2-xTB:
   * C. Bannwarth, S. Ehlert and S. Grimme., J. Chem. Theory Comput., 2019,
     15, 1652-1671. DOI: 10.1021/acs.jctc.8b01176
   for GFN1-xTB:
   * S. Grimme, C. Bannwarth, P. Shushkov, J. Chem. Theory Comput., 2017,
     13, 1989-2009. DOI: 10.1021/acs.jctc.7b00118
   for GFN0-xTB:
   * P. Pracht, E. Caldeweyher, S. Ehlert, S. Grimme, ChemRxiv, 2019, preprint.
     DOI: 10.26434/chemrxiv.8326202.v1
   for GFN-FF:
   * S. Spicher and S. Grimme, Angew. Chem. Int. Ed., 2020, 59, 15665-15673.
     DOI: 10.1002/anie.202004239
   
   for DFT-D4:
   * E. Caldeweyher, C. Bannwarth and S. Grimme, J. Chem. Phys., 2017,
     147, 034112. DOI: 10.1063/1.4993215
   * E. Caldeweyher, S. Ehlert, A. Hansen, H. Neugebauer, S. Spicher,
     C. Bannwarth and S. Grimme, J. Chem. Phys., 2019, 150, 154122.
     DOI: 10.1063/1.5090222
   * E. Caldeweyher, J.-M. Mewes, S. Ehlert and S. Grimme, Phys. Chem. Chem. Phys.
     2020, 22, 8499-8512. DOI: 10.1039/D0CP00502A
   
   for sTDA-xTB:
   * S. Grimme and C. Bannwarth, J. Chem. Phys., 2016, 145, 054103.
     DOI: 10.1063/1.4959605
   
   in the mass-spec context:
   * V. Asgeirsson, C. Bauer and S. Grimme, Chem. Sci., 2017, 8, 4879.
     DOI: 10.1039/c7sc00601b
   * J. Koopman and S. Grimme, ACS Omega 2019, 4, 12, 15120-15133.
     DOI: 10.1021/acsomega.9b02011
   
   for metadynamics refer to:
   * S. Grimme, J. Chem. Theory Comput., 2019, 155, 2847-2862
     DOI: 10.1021/acs.jctc.9b00143
   
   for SPH calculations refer to:
   * S. Spicher and S. Grimme, J. Chem. Theory Comput., 2021, 17, 1701-1714
     DOI: 10.1021/acs.jctc.0c01306
   
   with help from (in alphabetical order)
   P. Atkinson, C. Bannwarth, F. Bohle, G. Brandenburg, E. Caldeweyher
   M. Checinski, S. Dohm, S. Ehlert, S. Ehrlich, I. Gerasimov, J. Koopman
   C. Lavigne, S. Lehtola, F. März, M. Müller, F. Musil, H. Neugebauer
   J. Pisarek, C. Plett, P. Pracht, J. Seibert, P. Shushkov, S. Spicher
   M. Stahn, M. Steiner, T. Strunk, J. Stückrath, T. Rose, and J. Unsleber
   
 * started run on 2021/11/21 at 05:28:05.947     

           -------------------------------------------------
          |                Calculation Setup                |
           -------------------------------------------------

          program call               : /home/jeff/miniconda3/bin/xtb input_structure_1.xyz --gfn 2 --ohess normal --parallel 1 --etemp 300 --chrg 0 --uhf 0 -I det_control.in
          hostname                   : jelfscompute1
          coordinate file            : input_structure_1.xyz
          omp threads                :                     1
          number of atoms            :                   296
          number of electrons        :                  1002
          charge                     :                     0
          spin                       :                   0.0
          first test random number   :      0.01520751590112

   ID    Z sym.   atoms
    1   26 Fe     1, 37, 87, 122, 157, 192, 227, 262
    2    6 C      2-9, 11-15, 17-21, 23, 24, 38-45, 47-51, 53-57, 59, 60,
                  73-86, 88-95, 97-101, 103-107, 109, 110, 123-130, 132-136,
                  138-142, 144, 145, 158-165, 167-171, 173-177, 179, 180,
                  193-200, 202-206, 208-212, 214, 215, 228-235, 237-241,
                  243-247, 249, 250, 263-270, 272-276, 278-282, 284, 285
    3    7 N      10, 16, 22, 25, 46, 52, 58, 61, 96, 102, 108, 111, 131,
                  137, 143, 146, 166, 172, 178, 181, 201, 207, 213, 216, 236,
                  242, 248, 251, 271, 277, 283, 286
    4    1 H      26-36, 62-72, 112-121, 147-156, 182-191, 217-226, 252-261,
                  287-296

molecular fragmentation (1/2 indicates fragments):
111111111111111111111111111111111111222222222222222222222222222222222222
222222222222222222222222222222222222222222222222222222222222222222222222
222222222222222222222222222222222222222222222222222222222222222222222222
222222222222222222222222222222222222222222222222222222222222222222222222
22222222
# atoms in fragment 1/2:    36   260
 fragment masses (1/2) :      363.17     2704.32
CMA distance (Bohr)    :  83.872
constraining FC (au)   :  0.0500

           -------------------------------------------------
          |                 G F N 2 - x T B                 |
           -------------------------------------------------

        Reference                      10.1021/acs.jctc.8b01176
      * Hamiltonian:
        H0-scaling (s, p, d)           1.850000    2.230000    2.230000
        zeta-weighting                 0.500000
      * Dispersion:
        s8                             2.700000
        a1                             0.520000
        a2                             5.000000
        s9                             5.000000
      * Repulsion:
        kExp                           1.500000    1.000000
        rExp                           1.000000
      * Coulomb:
        alpha                          2.000000
        third order                    shell-resolved
        anisotropic                    true
        a3                             3.000000
        a5                             4.000000
        cn-shift                       1.200000
        cn-exp                         4.000000
        max-rad                        5.000000


          ...................................................
          :                      SETUP                      :
          :.................................................:
          :  # basis functions                 986          :
          :  # atomic orbitals                 978          :
          :  # shells                          518          :
          :  # electrons                      1002          :
          :  max. iterations                   250          :
          :  Hamiltonian                  GFN2-xTB          :
          :  restarted?                      false          :
          :  GBSA solvation                  false          :
          :  PC potential                    false          :
          :  electronic temp.          300.0000000     K    :
          :  accuracy                    1.0000000          :
          :  -> integral cutoff          0.2500000E+02      :
          :  -> integral neglect         0.1000000E-07      :
          :  -> SCF convergence          0.1000000E-05 Eh   :
          :  -> wf. convergence          0.1000000E-03 e    :
          :  Broyden damping             0.4000000          :
          ...................................................

 iter      E             dE          RMSdq      gap      omega  full diag
   1   -533.7488961 -0.533749E+03  0.826E+00    0.12       0.0  T
   2   -499.1720987  0.345768E+02  0.120E+01    0.08       1.0  T
   3   -507.4585925 -0.828649E+01  0.775E+00    0.01       1.0  T
   4   -231.2150090  0.276244E+03  0.112E+01    0.01       1.0  T
   5   -432.3396225 -0.201125E+03  0.986E+00    0.02       1.0  T
   6   -398.2583597  0.340813E+02  0.829E+00    0.11       1.0  T
   7   -354.0149911  0.442434E+02  0.905E+00    0.07       1.0  T
   8   -457.3130123 -0.103298E+03  0.747E+00    0.02       1.0  T
   9   -503.5956217 -0.462826E+02  0.640E+00    0.03       1.0  T
  10   -533.4328968 -0.298373E+02  0.514E+00    0.05       1.0  T
  11   -534.1432417 -0.710345E+00  0.490E+00    0.06       1.0  T
  12   -534.6990499 -0.555808E+00  0.482E+00    0.03       1.0  T
  13   -534.7307245 -0.316746E-01  0.482E+00    0.03       1.0  T
  14   -535.0947602 -0.364036E+00  0.500E+00    0.02       1.0  T
  15   -535.7134180 -0.618658E+00  0.494E+00    0.01       1.0  T
  16   -529.6529256  0.606049E+01  0.562E+00    0.02       1.0  T
  17   -527.3440575  0.230887E+01  0.572E+00    0.02       1.0  T
  18   -521.8165535  0.552750E+01  0.585E+00    0.05       1.0  T
  19   -509.1022160  0.127143E+02  0.571E+00    0.00       1.0  T
  20   -514.6253429 -0.552313E+01  0.539E+00    0.04       1.0  T
  21   -521.9501433 -0.732480E+01  0.518E+00    0.01       1.0  T
  22   -527.1093804 -0.515924E+01  0.605E+00    0.04       1.0  T
  23   -521.4186057  0.569077E+01  0.666E+00    0.11       1.0  T
  24   -522.5360097 -0.111740E+01  0.579E+00    0.02       1.0  T
  25   -525.0274603 -0.249145E+01  0.560E+00    0.01       1.0  T
  26   -526.0391760 -0.101172E+01  0.558E+00    0.05       1.0  T
  27   -527.0745911 -0.103542E+01  0.557E+00    0.02       1.0  T
  28   -526.4440688  0.630522E+00  0.566E+00    0.01       1.0  T
  29   -527.0619991 -0.617930E+00  0.571E+00    0.00       1.0  T
  30   -524.0921537  0.296985E+01  0.594E+00    0.02       1.0  T
  31   -519.2986529  0.479350E+01  0.578E+00    0.03       1.0  T
  32   -510.8335810  0.846507E+01  0.609E+00    0.01       1.0  T
  33   -518.3574475 -0.752387E+01  0.584E+00    0.06       1.0  T
  34   -514.8371964  0.352025E+01  0.584E+00    0.03       1.0  T
  35   -519.9198896 -0.508269E+01  0.561E+00    0.05       1.0  T
  36   -517.3285323  0.259136E+01  0.578E+00    0.00       1.0  T
  37   -516.3243523  0.100418E+01  0.574E+00    0.01       1.0  T
  38   -516.1900488  0.134304E+00  0.631E+00    0.00       1.0  T
  39   -524.8537532 -0.866370E+01  0.575E+00    0.01       1.0  T
  40   -524.8216535  0.320997E-01  0.665E+00    0.00       1.0  T
  41   -521.0401572  0.378150E+01  0.712E+00    0.03       1.0  T
  42   -521.0600135 -0.198563E-01  0.714E+00    0.03       1.0  T
  43   -521.0658447 -0.583118E-02  0.715E+00    0.05       1.0  T
  44   -521.1362649 -0.704202E-01  0.715E+00    0.07       1.0  T
  45   -521.3175109 -0.181246E+00  0.711E+00    0.02       1.0  T
  46   -521.3894391 -0.719282E-01  0.710E+00    0.12       1.0  T
  47   -521.9798215 -0.590382E+00  0.705E+00    0.07       1.0  T
  48   -522.3438377 -0.364016E+00  0.702E+00    0.02       1.0  T
  49   -522.5668546 -0.223017E+00  0.697E+00    0.03       1.0  T
  50   -522.9880017 -0.421147E+00  0.713E+00    0.06       1.0  T
  51   -522.4786302  0.509372E+00  0.719E+00    0.05       1.0  T
  52   -522.2476648  0.230965E+00  0.715E+00    0.02       1.0  T
  53   -522.5020704 -0.254406E+00  0.714E+00    0.03       1.0  T
  54   -521.6728927  0.829178E+00  0.714E+00    0.02       1.0  T
  55   -522.3895213 -0.716629E+00  0.711E+00    0.01       1.0  T
  56   -521.1824988  0.120702E+01  0.712E+00    0.01       1.0  T
  57   -521.2352158 -0.527170E-01  0.711E+00    0.01       1.0  T
  58   -521.8017695 -0.566554E+00  0.705E+00    0.01       1.0  T
  59   -521.4099368  0.391833E+00  0.714E+00    0.00       1.0  T
  60   -521.5972749 -0.187338E+00  0.716E+00    0.01       1.0  T
  61   -522.8615527 -0.126428E+01  0.725E+00    0.01       1.0  T
  62   -520.8864604  0.197509E+01  0.738E+00    0.03       1.0  T
  63   -521.7921632 -0.905703E+00  0.747E+00    0.02       1.0  T
  64   -518.8948316  0.289733E+01  0.802E+00    0.01       1.0  T
  65   -519.7427993 -0.847968E+00  0.799E+00    0.01       1.0  T
  66   -521.8440304 -0.210123E+01  0.764E+00    0.02       1.0  T
  67   -522.1371944 -0.293164E+00  0.752E+00    0.02       1.0  T
  68   -523.3208295 -0.118364E+01  0.727E+00    0.03       1.0  T
  69   -526.8477506 -0.352692E+01  0.698E+00    0.00       1.0  T
  70   -525.4086369  0.143911E+01  0.728E+00    0.00       1.0  T
  71   -525.8221590 -0.413522E+00  0.720E+00    0.02       1.0  T
  72   -525.3952941  0.426865E+00  0.715E+00    0.01       1.0  T
  73   -524.9036617  0.491632E+00  0.728E+00    0.00       1.0  T
  74   -525.6855385 -0.781877E+00  0.686E+00    0.03       1.0  T
  75   -526.3099380 -0.624399E+00  0.669E+00    0.00       1.0  T
  76   -526.5575687 -0.247631E+00  0.684E+00    0.01       1.0  T
  77   -527.5912295 -0.103366E+01  0.664E+00    0.03       1.0  T
  78   -526.8591939  0.732036E+00  0.735E+00    0.01       1.0  T
  79   -526.5427079  0.316486E+00  0.701E+00    0.03       1.0  T
  80   -527.0049002 -0.462192E+00  0.717E+00    0.01       1.0  T
  81   -527.1888315 -0.183931E+00  0.715E+00    0.01       1.0  T
  82   -527.3474893 -0.158658E+00  0.649E+00    0.01       1.0  T
  83   -529.1166927 -0.176920E+01  0.657E+00    0.01       1.0  T
  84   -525.4231700  0.369352E+01  0.669E+00    0.02       1.0  T
  85   -528.6505554 -0.322739E+01  0.718E+00    0.01       1.0  T
  86   -528.4693647  0.181191E+00  0.729E+00    0.03       1.0  T
  87   -528.8936121 -0.424247E+00  0.710E+00    0.00       1.0  T
  88   -528.7503798  0.143232E+00  0.723E+00    0.02       1.0  T
  89   -529.1323553 -0.381976E+00  0.712E+00    0.00       1.0  T
  90   -528.1488921  0.983463E+00  0.674E+00    0.00       1.0  T
  91   -527.5278735  0.621019E+00  0.711E+00    0.00       1.0  T
  92   -529.1736644 -0.164579E+01  0.677E+00    0.01       1.0  T
  93   -529.2032662 -0.296018E-01  0.697E+00    0.01       1.0  T
  94   -528.8466202  0.356646E+00  0.703E+00    0.03       1.0  T
  95   -528.9751976 -0.128577E+00  0.706E+00    0.03       1.0  T
  96   -528.9775355 -0.233789E-02  0.705E+00    0.03       1.0  T
  97   -529.0810176 -0.103482E+00  0.702E+00    0.03       1.0  T
  98   -529.0898013 -0.878369E-02  0.693E+00    0.01       1.0  T
  99   -528.8988342  0.190967E+00  0.709E+00    0.04       1.0  T
 100   -528.8506771  0.481570E-01  0.707E+00    0.04       1.0  T
 101   -528.8428475  0.782962E-02  0.706E+00    0.04       1.0  T
 102   -528.8027261  0.401214E-01  0.702E+00    0.03       1.0  T
 103   -528.6663811  0.136345E+00  0.691E+00    0.00       1.0  T
 104   -528.8540468 -0.187666E+00  0.701E+00    0.02       1.0  T
 105   -528.7821510  0.718959E-01  0.702E+00    0.03       1.0  T
 106   -529.1085281 -0.326377E+00  0.657E+00    0.04       1.0  T
 107   -524.9009410  0.420759E+01  0.739E+00    0.06       1.0  T
 108   -524.8749373  0.260036E-01  0.742E+00    0.06       1.0  T
 109   -524.8553681  0.195692E-01  0.742E+00    0.06       1.0  T
 110   -524.8384120  0.169561E-01  0.743E+00    0.06       1.0  T
 111   -524.2746103  0.563802E+00  0.735E+00    0.03       1.0  T
 112   -528.0916963 -0.381709E+01  0.680E+00    0.01       1.0  T
 113   -529.4649542 -0.137326E+01  0.647E+00    0.01       1.0  T
 114   -529.9989880 -0.534034E+00  0.602E+00    0.01       1.0  T
 115   -527.6751108  0.232388E+01  0.620E+00    0.00       1.0  T
 116   -531.5700070 -0.389490E+01  0.553E+00    0.01       1.0  T
 117   -531.7442472 -0.174240E+00  0.539E+00    0.00       1.0  T
 118   -531.8265641 -0.823169E-01  0.576E+00    0.00       1.0  T
 119   -531.3680707  0.458493E+00  0.573E+00    0.00       1.0  T
 120   -531.6450596 -0.276989E+00  0.577E+00    0.00       1.0  T
 121   -530.7313415  0.913718E+00  0.610E+00    0.02       1.0  T
 122   -531.5984408 -0.867099E+00  0.631E+00    0.01       1.0  T
 123   -531.0711479  0.527293E+00  0.650E+00    0.00       1.0  T
 124   -530.3575932  0.713555E+00  0.622E+00    0.01       1.0  T
 125   -530.7193681 -0.361775E+00  0.620E+00    0.00       1.0  T
 126   -530.7615437 -0.421756E-01  0.604E+00    0.01       1.0  T
 127   -531.1459520 -0.384408E+00  0.597E+00    0.02       1.0  T
 128   -531.5789383 -0.432986E+00  0.636E+00    0.01       1.0  T
 129   -531.1656876  0.413251E+00  0.665E+00    0.01       1.0  T
 130   -531.2232222 -0.575346E-01  0.671E+00    0.03       1.0  T
 131   -531.1859353  0.372869E-01  0.669E+00    0.02       1.0  T
 132   -531.1438555  0.420798E-01  0.672E+00    0.02       1.0  T
 133   -531.4940580 -0.350203E+00  0.643E+00    0.00       1.0  T
 134   -532.2608065 -0.766749E+00  0.613E+00    0.02       1.0  T
 135   -531.2295520  0.103125E+01  0.668E+00    0.02       1.0  T
 136   -531.5214730 -0.291921E+00  0.668E+00    0.03       1.0  T
 137   -531.5343674 -0.128944E-01  0.665E+00    0.03       1.0  T
 138   -531.1230775  0.411290E+00  0.686E+00    0.03       1.0  T
 139   -534.2207771 -0.309770E+01  0.634E+00    0.01       1.0  T
 140   -534.1064763  0.114301E+00  0.629E+00    0.01       1.0  T
 141   -534.1114411 -0.496477E-02  0.625E+00    0.01       1.0  T
 142   -533.8953124  0.216129E+00  0.634E+00    0.02       1.0  T
 143   -533.9254691 -0.301567E-01  0.592E+00    0.01       1.0  T
 144   -532.7418683  0.118360E+01  0.615E+00    0.01       1.0  T
 145   -533.6131959 -0.871328E+00  0.525E+00    0.03       1.0  T
 146   -532.5315539  0.108164E+01  0.533E+00    0.02       1.0  T
 147   -532.3443276  0.187226E+00  0.503E+00    0.01       1.0  T
 148   -533.3212566 -0.976929E+00  0.524E+00    0.01       1.0  T
 149   -534.1038199 -0.782563E+00  0.484E+00    0.01       1.0  T
 150   -533.4172426  0.686577E+00  0.402E+00    0.00       1.0  T
 151   -534.3938387 -0.976596E+00  0.439E+00    0.02       1.0  T
 152   -533.5085210  0.885318E+00  0.422E+00    0.02       1.0  T
 153   -534.1811743 -0.672653E+00  0.402E+00    0.00       1.0  T
 154   -534.9511815 -0.770007E+00  0.405E+00    0.01       1.0  T
 155   -533.5420735  0.140911E+01  0.438E+00    0.03       1.0  T
 156   -535.6255493 -0.208348E+01  0.385E+00    0.01       1.0  T
 157   -532.9887651  0.263678E+01  0.447E+00    0.00       1.0  T
 158   -536.2447267 -0.325596E+01  0.361E+00    0.01       1.0  T
 159   -536.7590216 -0.514295E+00  0.338E+00    0.01       1.0  T
 160   -535.1916689  0.156735E+01  0.385E+00    0.00       1.0  T
 161   -535.6655952 -0.473926E+00  0.374E+00    0.02       1.0  T
 162   -536.3142506 -0.648655E+00  0.350E+00    0.00       1.0  T
 163   -536.3920918 -0.778412E-01  0.344E+00    0.00       1.0  T
 164   -536.4130513 -0.209595E-01  0.345E+00    0.00       1.0  T
 165   -536.3782341  0.348172E-01  0.346E+00    0.00       1.0  T
 166   -536.5901187 -0.211885E+00  0.342E+00    0.00       1.0  T
 167   -536.2274022  0.362717E+00  0.350E+00    0.00       1.0  T
 168   -536.1264812  0.100921E+00  0.348E+00    0.00       1.0  T
 169   -537.1721996 -0.104572E+01  0.310E+00    0.00       1.0  T
 170   -536.4895429  0.682657E+00  0.325E+00    0.00       1.0  T
 171   -537.1916591 -0.702116E+00  0.305E+00    0.00       1.0  T
 172   -536.4776193  0.714040E+00  0.321E+00    0.00       1.0  T
 173   -536.9939282 -0.516309E+00  0.308E+00    0.00       1.0  T
 174   -536.9791778  0.147504E-01  0.304E+00    0.00       1.0  T
 175   -536.5950346  0.384143E+00  0.311E+00    0.00       1.0  T
 176   -537.1697694 -0.574735E+00  0.293E+00    0.02       1.0  T
 177   -534.8007122  0.236906E+01  0.372E+00    0.01       1.0  T
 178   -535.2158089 -0.415097E+00  0.366E+00    0.02       1.0  T
 179   -537.3476249 -0.213182E+01  0.288E+00    0.04       1.0  T
 180   -537.5799990 -0.232374E+00  0.275E+00    0.02       1.0  T
 181   -536.4885121  0.109149E+01  0.322E+00    0.02       1.0  T
 182   -537.0958191 -0.607307E+00  0.301E+00    0.01       1.0  T
 183   -536.9261864  0.169633E+00  0.304E+00    0.00       1.0  T
 184   -535.2258763  0.170031E+01  0.364E+00    0.02       1.0  T
 185   -539.5186566 -0.429278E+01  0.218E+00    0.01       1.0  T
 186   -538.2095478  0.130911E+01  0.248E+00    0.01       1.0  T
 187   -538.8961446 -0.686597E+00  0.212E+00    0.00       1.0  T
 188   -539.5728369 -0.676692E+00  0.190E+00    0.00       1.0  T
 189   -539.2975870  0.275250E+00  0.192E+00    0.00       1.0  T
 190   -539.8833269 -0.585740E+00  0.169E+00    0.00       1.0  T
 191   -538.7241192  0.115921E+01  0.248E+00    0.00       1.0  T
 192   -539.2741808 -0.550062E+00  0.224E+00    0.00       1.0  T
 193   -539.4914224 -0.217242E+00  0.219E+00    0.01       1.0  T
 194   -539.1169067  0.374516E+00  0.236E+00    0.00       1.0  T
 195   -539.8990083 -0.782102E+00  0.192E+00    0.00       1.0  T
 196   -539.4345251  0.464483E+00  0.213E+00    0.01       1.0  T
 197   -539.6272695 -0.192744E+00  0.204E+00    0.00       1.0  T
 198   -539.8091460 -0.181877E+00  0.189E+00    0.00       1.0  T
 199   -540.4918172 -0.682671E+00  0.140E+00    0.00       1.0  T
 200   -540.2012263  0.290591E+00  0.147E+00    0.00       1.0  T
 201   -537.6767689  0.252446E+01  0.289E+00    0.00       1.0  T
 202   -540.1361452 -0.245938E+01  0.142E+00    0.01       1.0  T
 203   -540.3988966 -0.262751E+00  0.125E+00    0.01       1.0  T
 204   -540.1374514  0.261445E+00  0.122E+00    0.00       1.0  T
 205   -540.3212352 -0.183784E+00  0.116E+00    0.00       1.0  T
 206   -539.7548783  0.566357E+00  0.156E+00    0.01       1.0  T
 207   -540.6560247 -0.901146E+00  0.924E-01    0.00       1.0  T
 208   -540.5128844  0.143140E+00  0.101E+00    0.00       1.0  T
 209   -540.6855880 -0.172704E+00  0.843E-01    0.01       1.0  T
 210   -540.7291635 -0.435754E-01  0.867E-01    0.00       1.0  T
 211   -540.5182682  0.210895E+00  0.932E-01    0.01       1.0  T
 212   -540.7774488 -0.259181E+00  0.776E-01    0.00       1.0  T
 213   -540.2620500  0.515399E+00  0.110E+00    0.00       1.0  T
 214   -540.8569500 -0.594900E+00  0.519E-01    0.00       1.0  T
 215   -540.7917706  0.651794E-01  0.589E-01    0.00       1.0  T
 216   -540.6967690  0.950015E-01  0.774E-01    0.00       1.0  T
 217   -540.7877344 -0.909654E-01  0.643E-01    0.00       1.0  T
 218   -540.7805756  0.715883E-02  0.639E-01    0.00       1.0  T
 219   -540.7879872 -0.741162E-02  0.608E-01    0.00       1.0  T
 220   -540.9135876 -0.125600E+00  0.332E-01    0.00       1.0  T
 221   -540.8757605  0.378271E-01  0.448E-01    0.00       1.0  T
 222   -540.8772070 -0.144656E-02  0.450E-01    0.00       1.0  T
 223   -540.8591642  0.180429E-01  0.493E-01    0.00       1.0  T
 224   -540.9371310 -0.779669E-01  0.266E-01    0.00       1.0  T
 225   -540.9113219  0.258091E-01  0.318E-01    0.00       1.0  T
 226   -540.8879001  0.234218E-01  0.373E-01    0.00       1.0  T
 227   -540.9232665 -0.353663E-01  0.267E-01    0.00       1.0  T
 228   -540.9332993 -0.100329E-01  0.227E-01    0.00       1.0  T
 229   -540.9378714 -0.457203E-02  0.197E-01    0.00       1.0  T
 230   -540.9428004 -0.492902E-02  0.163E-01    0.00       1.0  T
 231   -540.9411294  0.167104E-02  0.178E-01    0.00       1.0  T
 232   -540.9326001  0.852927E-02  0.213E-01    0.00       1.0  T
 233   -540.9417453 -0.914518E-02  0.154E-01    0.00       1.0  T
 234   -540.9463503 -0.460507E-02  0.117E-01    0.00       1.0  T
 235   -540.9489780 -0.262769E-02  0.859E-02    0.00       1.0  T
 236   -540.9473938  0.158420E-02  0.101E-01    0.00       1.0  T
 237   -540.9483598 -0.966037E-03  0.893E-02    0.00       1.0  T
 238   -540.9491650 -0.805203E-03  0.756E-02    0.00       1.0  T
 239   -540.9497843 -0.619224E-03  0.686E-02    0.00       1.0  T
 240   -540.9503063 -0.522045E-03  0.576E-02    0.00       1.0  T
 241   -540.9503677 -0.613887E-04  0.524E-02    0.00       1.0  T
 242   -540.9504430 -0.753091E-04  0.463E-02    0.00       1.0  T
 243   -540.9507738 -0.330821E-03  0.356E-02    0.00       1.0  T
 244   -540.9508424 -0.685887E-04  0.347E-02    0.00       1.0  T
 245   -540.9501983  0.644157E-03  0.504E-02    0.00       1.0  T
 246   -540.9505391 -0.340813E-03  0.424E-02    0.00       1.0  T
 247   -540.9509282 -0.389074E-03  0.338E-02    0.00       1.0  T
 248   -540.9508629  0.652115E-04  0.356E-02    0.00       1.0  T
 249   -540.9508089  0.540813E-04  0.372E-02    0.00       1.0  T
 250   -540.9510523 -0.243424E-03  0.274E-02    0.00       1.0  T

   *** convergence criteria cannot be satisfied within 250 iterations ***

         #    Occupation            Energy/Eh            Energy/eV
      -------------------------------------------------------------
         1        2.0000           -0.6781668             -18.4539
       ...           ...                  ...                  ...
       495        1.4783           -0.3306705              -8.9980
       496        1.1509           -0.3299700              -8.9789
       497        1.1474           -0.3299631              -8.9788
       498        1.1407           -0.3299502              -8.9784
       499        1.1292           -0.3299278              -8.9778
       500        1.0923           -0.3298569              -8.9759
       501        1.0381           -0.3297536              -8.9731 (HOMO)
       502        1.0029           -0.3296866              -8.9712 (LUMO)
       503        0.9911           -0.3296642              -8.9706
       504        0.9799           -0.3296429              -8.9700
       505        0.9598           -0.3296046              -8.9690
       506        0.9326           -0.3295527              -8.9676
       ...           ...                  ...                  ...
       978                          1.4375518              39.1178
      -------------------------------------------------------------
                  HL-Gap            0.0000670 Eh            0.0018 eV
             Fermi-level           -0.3296811 Eh           -8.9711 eV

 SCC (total)                   0 d,  0 h,  1 min, 27.140 sec
 SCC setup                      ...        0 min,  0.017 sec (  0.019%)
 Dispersion                     ...        0 min,  0.034 sec (  0.039%)
 classical contributions        ...        0 min,  0.003 sec (  0.003%)
 integral evaluation            ...        0 min,  0.275 sec (  0.316%)
 iterations                     ...        1 min, 26.055 sec ( 98.755%)
 molecular gradient             ...        0 min,  0.710 sec (  0.815%)
 printout                       ...        0 min,  0.046 sec (  0.053%)

########################################################################
[ERROR] Program stopped due to fatal error
-3- Single point calculation terminated
-2- xtb_calculator_singlepoint: Electronic structure method terminated
-1- scf: Self consistent charge iterator did not converge
########################################################################
