      -----------------------------------------------------------      
     |                   =====================                   |     
     |                           x T B                           |     
     |                   =====================                   |     
     |                         S. Grimme                         |     
     |          Mulliken Center for Theoretical Chemistry        |     
     |                    University of Bonn                     |     
      -----------------------------------------------------------      

   * xtb version 6.4.1 (bd6e46d) compiled by 'conda@4901f00b25ba' on 2021-06-10

   xtb is free software: you can redistribute it and/or modify it under
   the terms of the GNU Lesser General Public License as published by
   the Free Software Foundation, either version 3 of the License, or
   (at your option) any later version.
   
   xtb is distributed in the hope that it will be useful,
   but WITHOUT ANY WARRANTY; without even the implied warranty of
   MERCHANTABILITY or FITNESS FOR A PARTICULAR PURPOSE.  See the
   GNU Lesser General Public License for more details.
   
   Cite this work as:
   * C. Bannwarth, E. Caldeweyher, S. Ehlert, A. Hansen, P. Pracht,
     J. Seibert, S. Spicher, S. Grimme, WIREs Comput. Mol. Sci., 2020, 11,
     e01493. DOI: 10.1002/wcms.1493
   
   for GFN2-xTB:
   * C. Bannwarth, S. Ehlert and S. Grimme., J. Chem. Theory Comput., 2019,
     15, 1652-1671. DOI: 10.1021/acs.jctc.8b01176
   for GFN1-xTB:
   * S. Grimme, C. Bannwarth, P. Shushkov, J. Chem. Theory Comput., 2017,
     13, 1989-2009. DOI: 10.1021/acs.jctc.7b00118
   for GFN0-xTB:
   * P. Pracht, E. Caldeweyher, S. Ehlert, S. Grimme, ChemRxiv, 2019, preprint.
     DOI: 10.26434/chemrxiv.8326202.v1
   for GFN-FF:
   * S. Spicher and S. Grimme, Angew. Chem. Int. Ed., 2020, 59, 15665-15673.
     DOI: 10.1002/anie.202004239
   
   for DFT-D4:
   * E. Caldeweyher, C. Bannwarth and S. Grimme, J. Chem. Phys., 2017,
     147, 034112. DOI: 10.1063/1.4993215
   * E. Caldeweyher, S. Ehlert, A. Hansen, H. Neugebauer, S. Spicher,
     C. Bannwarth and S. Grimme, J. Chem. Phys., 2019, 150, 154122.
     DOI: 10.1063/1.5090222
   * E. Caldeweyher, J.-M. Mewes, S. Ehlert and S. Grimme, Phys. Chem. Chem. Phys.
     2020, 22, 8499-8512. DOI: 10.1039/D0CP00502A
   
   for sTDA-xTB:
   * S. Grimme and C. Bannwarth, J. Chem. Phys., 2016, 145, 054103.
     DOI: 10.1063/1.4959605
   
   in the mass-spec context:
   * V. Asgeirsson, C. Bauer and S. Grimme, Chem. Sci., 2017, 8, 4879.
     DOI: 10.1039/c7sc00601b
   * J. Koopman and S. Grimme, ACS Omega 2019, 4, 12, 15120-15133.
     DOI: 10.1021/acsomega.9b02011
   
   for metadynamics refer to:
   * S. Grimme, J. Chem. Theory Comput., 2019, 155, 2847-2862
     DOI: 10.1021/acs.jctc.9b00143
   
   for SPH calculations refer to:
   * S. Spicher and S. Grimme, J. Chem. Theory Comput., 2021, 17, 1701-1714
     DOI: 10.1021/acs.jctc.0c01306
   
   with help from (in alphabetical order)
   P. Atkinson, C. Bannwarth, F. Bohle, G. Brandenburg, E. Caldeweyher
   M. Checinski, S. Dohm, S. Ehlert, S. Ehrlich, I. Gerasimov, J. Koopman
   C. Lavigne, S. Lehtola, F. März, M. Müller, F. Musil, H. Neugebauer
   J. Pisarek, C. Plett, P. Pracht, J. Seibert, P. Shushkov, S. Spicher
   M. Stahn, M. Steiner, T. Strunk, J. Stückrath, T. Rose, and J. Unsleber
   
 * started run on 2021/11/21 at 21:09:21.943     

           -------------------------------------------------
          |                Calculation Setup                |
           -------------------------------------------------

          program call               : /home/jeff/miniconda3/bin/xtb /home/jeff/chem/final-year-proejct/Ni+2_4_2_outenergy/input_structure.xyz --gfn 2 --parallel 1 --etemp 300 --chrg 0 --uhf 0 -I det_control.in
          coordinate file            : /home/jeff/chem/final-year-proejct/Ni+2_4_2_outenergy/input_structure.xyz
          omp threads                :                     1
          number of atoms            :                    76
          number of electrons        :                   258
          charge                     :                     0
          spin                       :                   0.0
          first test random number   :      0.41345807191274

   ID    Z sym.   atoms
    1   28 Ni     1, 41
    2    6 C      2-9, 11-15, 17-21, 23, 24, 37-40, 42-49, 51-55, 57-61, 63,
                  64
    3    7 N      10, 16, 22, 25, 50, 56, 62, 65
    4    1 H      26-36, 66-76

           -------------------------------------------------
          |                 G F N 2 - x T B                 |
           -------------------------------------------------

        Reference                      10.1021/acs.jctc.8b01176
      * Hamiltonian:
        H0-scaling (s, p, d)           1.850000    2.230000    2.230000
        zeta-weighting                 0.500000
      * Dispersion:
        s8                             2.700000
        a1                             0.520000
        a2                             5.000000
        s9                             5.000000
      * Repulsion:
        kExp                           1.500000    1.000000
        rExp                           1.000000
      * Coulomb:
        alpha                          2.000000
        third order                    shell-resolved
        anisotropic                    true
        a3                             3.000000
        a5                             4.000000
        cn-shift                       1.200000
        cn-exp                         4.000000
        max-rad                        5.000000


          ...................................................
          :                      SETUP                      :
          :.................................................:
          :  # basis functions                 250          :
          :  # atomic orbitals                 248          :
          :  # shells                          132          :
          :  # electrons                       258          :
          :  max. iterations                   250          :
          :  Hamiltonian                  GFN2-xTB          :
          :  restarted?                      false          :
          :  GBSA solvation                  false          :
          :  PC potential                    false          :
          :  electronic temp.          300.0000000     K    :
          :  accuracy                    1.0000000          :
          :  -> integral cutoff          0.2500000E+02      :
          :  -> integral neglect         0.1000000E-07      :
          :  -> SCF convergence          0.1000000E-05 Eh   :
          :  -> wf. convergence          0.1000000E-03 e    :
          :  Broyden damping             0.4000000          :
          ...................................................

 iter      E             dE          RMSdq      gap      omega  full diag
   1   -140.7245699 -0.140725E+03  0.759E+00    0.87       0.0  T
   2   -140.9006191 -0.176049E+00  0.407E+00    1.24       1.0  T
   3   -140.8823021  0.183170E-01  0.118E+00    1.04       1.0  T
   4   -140.8742809  0.802120E-02  0.646E-01    1.31       1.0  T
   5   -140.9030285 -0.287476E-01  0.328E-01    1.30       1.0  T
   6   -140.9108269 -0.779841E-02  0.186E-01    1.30       1.0  T
   7   -140.9108572 -0.302994E-04  0.862E-02    1.31       1.0  T
   8   -140.9114173 -0.560064E-03  0.222E-02    1.30       1.0  T
   9   -140.9114407 -0.234558E-04  0.105E-02    1.30       1.1  T
  10   -140.9114436 -0.288890E-05  0.501E-03    1.30       2.3  T
  11   -140.9114447 -0.104866E-05  0.305E-03    1.30       3.8  T
  12   -140.9114449 -0.235035E-06  0.171E-03    1.30       6.7  T
  13   -140.9114449  0.181768E-08  0.119E-03    1.30       9.6  T
  14   -140.9114450 -0.710273E-07  0.724E-04    1.30      15.8  T
  15   -140.9114450 -0.171390E-07  0.441E-04    1.30      26.0  T

   *** convergence criteria satisfied after 15 iterations ***

         #    Occupation            Energy/Eh            Energy/eV
      -------------------------------------------------------------
         1        2.0000           -0.6750927             -18.3702
       ...           ...                  ...                  ...
       123        2.0000           -0.3664204              -9.9708
       124        2.0000           -0.3664112              -9.9706
       125        2.0000           -0.3663449              -9.9688
       126        2.0000           -0.3663312              -9.9684
       127        2.0000           -0.3605054              -9.8099
       128        2.0000           -0.3604124              -9.8073
       129        2.0000           -0.3574756              -9.7274 (HOMO)
       130                         -0.3095763              -8.4240 (LUMO)
       131                         -0.2986551              -8.1268
       132                         -0.2986331              -8.1262
       133                         -0.2977527              -8.1023
       134                         -0.2962762              -8.0621
       ...                                ...                  ...
       248                          1.6339418              44.4618
      -------------------------------------------------------------
                  HL-Gap            0.0478993 Eh            1.3034 eV
             Fermi-level           -0.3334857 Eh           -9.0746 eV

 SCC (total)                   0 d,  0 h,  0 min,  0.290 sec
 SCC setup                      ...        0 min,  0.001 sec (  0.414%)
 Dispersion                     ...        0 min,  0.003 sec (  0.866%)
 classical contributions        ...        0 min,  0.000 sec (  0.157%)
 integral evaluation            ...        0 min,  0.025 sec (  8.480%)
 iterations                     ...        0 min,  0.177 sec ( 61.089%)
 molecular gradient             ...        0 min,  0.083 sec ( 28.584%)
 printout                       ...        0 min,  0.001 sec (  0.405%)

         :::::::::::::::::::::::::::::::::::::::::::::::::::::
         ::                     SUMMARY                     ::
         :::::::::::::::::::::::::::::::::::::::::::::::::::::
         :: total energy            -138.531431817083 Eh    ::
         :: gradient norm              0.000446060568 Eh/a0 ::
         :: HOMO-LUMO gap              1.303407075359 eV    ::
         ::.................................................::
         :: SCC energy              -140.911444998864 Eh    ::
         :: -> isotropic ES            0.041566942312 Eh    ::
         :: -> anisotropic ES          0.011786958336 Eh    ::
         :: -> anisotropic XC          0.056591747020 Eh    ::
         :: -> dispersion             -0.119762857395 Eh    ::
         :: repulsion energy           2.381293192878 Eh    ::
         :: add. restraining           0.000000000000 Eh    ::
         :: total charge               0.000000000002 e     ::
         :::::::::::::::::::::::::::::::::::::::::::::::::::::

           -------------------------------------------------
          |                Property Printout                |
           -------------------------------------------------

    * Orbital Energies and Occupations

         #    Occupation            Energy/Eh            Energy/eV
      -------------------------------------------------------------
         1        2.0000           -0.6750927             -18.3702
       ...           ...                  ...                  ...
       117        2.0000           -0.3908351             -10.6352
       118        2.0000           -0.3738591             -10.1732
       119        2.0000           -0.3735433             -10.1646
       120        2.0000           -0.3718688             -10.1191
       121        2.0000           -0.3707592             -10.0889
       122        2.0000           -0.3706853             -10.0869
       123        2.0000           -0.3664204              -9.9708
       124        2.0000           -0.3664112              -9.9706
       125        2.0000           -0.3663449              -9.9688
       126        2.0000           -0.3663312              -9.9684
       127        2.0000           -0.3605054              -9.8099
       128        2.0000           -0.3604124              -9.8073
       129        2.0000           -0.3574756              -9.7274 (HOMO)
       130                         -0.3095763              -8.4240 (LUMO)
       131                         -0.2986551              -8.1268
       132                         -0.2986331              -8.1262
       133                         -0.2977527              -8.1023
       134                         -0.2962762              -8.0621
       135                         -0.2946459              -8.0177
       136                         -0.2650322              -7.2119
       137                         -0.2561790              -6.9710
       138                         -0.2279179              -6.2020
       139                         -0.2076960              -5.6517
       140                         -0.1930657              -5.2536
       ...                                ...                  ...
       248                          1.6339418              44.4618
      -------------------------------------------------------------
                  HL-Gap            0.0478993 Eh            1.3034 eV
             Fermi-level           -0.3334857 Eh           -9.0746 eV

     #   Z          covCN         q      C6AA      α(0)
     1  28 Ni       3.021    -0.292   189.393    28.396
     2   6 C        3.024    -0.052    29.270     8.874
     3   6 C        3.021    -0.050    29.227     8.868
     4   6 C        3.185     0.073    25.922     8.308
     5   6 C        2.956     0.026    27.430     8.590
     6   6 C        3.186     0.074    25.920     8.308
     7   6 C        3.021    -0.050    29.227     8.868
     8   6 C        3.024    -0.052    29.270     8.874
     9   6 C        3.172     0.073    26.007     8.331
    10   7 N        2.625    -0.048    22.176     6.994
    11   6 C        2.904    -0.042    29.031     8.835
    12   6 C        3.168     0.074    26.000     8.331
    13   6 C        3.020    -0.051    29.249     8.871
    14   6 C        3.021    -0.051    29.251     8.872
    15   6 C        3.168     0.075    25.993     8.330
    16   7 N        2.625    -0.047    22.159     6.991
    17   6 C        2.904    -0.043    29.075     8.841
    18   6 C        3.168     0.075    25.993     8.330
    19   6 C        3.021    -0.051    29.251     8.872
    20   6 C        3.020    -0.051    29.249     8.871
    21   6 C        3.168     0.074    26.000     8.331
    22   7 N        2.625    -0.047    22.161     6.992
    23   6 C        2.904    -0.042    29.031     8.835
    24   6 C        3.171     0.073    26.007     8.331
    25   7 N        2.625    -0.048    22.177     6.994
    26   1 H        0.926     0.035     2.514     2.480
    27   1 H        0.926     0.037     2.486     2.466
    28   1 H        0.926     0.037     2.487     2.466
    29   1 H        0.926     0.035     2.514     2.480
    30   1 H        0.926     0.049     2.333     2.388
    31   1 H        0.926     0.036     2.507     2.476
    32   1 H        0.926     0.036     2.509     2.477
    33   1 H        0.926     0.048     2.341     2.393
    34   1 H        0.926     0.036     2.509     2.477
    35   1 H        0.926     0.036     2.508     2.476
    36   1 H        0.926     0.049     2.333     2.388
    37   6 C        1.992    -0.022    31.618     9.081
    38   6 C        1.963    -0.009    31.309     9.036
    39   6 C        1.963    -0.009    31.308     9.036
    40   6 C        1.992    -0.022    31.621     9.081
    41  28 Ni       3.033    -0.294   189.418    28.398
    42   6 C        3.023    -0.052    29.270     8.874
    43   6 C        3.021    -0.050    29.228     8.868
    44   6 C        3.184     0.073    25.931     8.310
    45   6 C        2.956     0.026    27.427     8.590
    46   6 C        3.184     0.074    25.931     8.310
    47   6 C        3.021    -0.050    29.226     8.868
    48   6 C        3.023    -0.052    29.270     8.874
    49   6 C        3.170     0.073    26.016     8.333
    50   7 N        2.628    -0.047    22.168     6.993
    51   6 C        2.904    -0.041    29.028     8.834
    52   6 C        3.166     0.074    26.009     8.334
    53   6 C        3.020    -0.051    29.249     8.871
    54   6 C        3.021    -0.051    29.250     8.872
    55   6 C        3.166     0.074    26.003     8.333
    56   7 N        2.629    -0.047    22.152     6.990
    57   6 C        2.904    -0.043    29.071     8.841
    58   6 C        3.166     0.074    26.002     8.333
    59   6 C        3.021    -0.051    29.251     8.872
    60   6 C        3.020    -0.051    29.249     8.871
    61   6 C        3.166     0.074    26.009     8.334
    62   7 N        2.628    -0.047    22.153     6.990
    63   6 C        2.904    -0.041    29.027     8.834
    64   6 C        3.170     0.073    26.016     8.333
    65   7 N        2.628    -0.047    22.170     6.993
    66   1 H        0.926     0.035     2.514     2.479
    67   1 H        0.926     0.037     2.488     2.467
    68   1 H        0.926     0.037     2.487     2.466
    69   1 H        0.926     0.035     2.514     2.479
    70   1 H        0.926     0.049     2.334     2.389
    71   1 H        0.926     0.036     2.508     2.476
    72   1 H        0.926     0.036     2.509     2.477
    73   1 H        0.926     0.048     2.342     2.393
    74   1 H        0.926     0.036     2.509     2.477
    75   1 H        0.926     0.036     2.508     2.476
    76   1 H        0.926     0.049     2.334     2.389

 Mol. C6AA /au·bohr⁶  :     110399.349474
 Mol. C8AA /au·bohr⁸  :    3232861.786239
 Mol. α(0) /au        :        548.260216


Wiberg/Mayer (AO) data.
largest (>0.10) Wiberg bond orders for each atom

 ---------------------------------------------------------------------------
     #   Z sym  total        # sym  WBO       # sym  WBO       # sym  WBO
 ---------------------------------------------------------------------------
     1  28 Ni   3.475 --    10 N    0.753    25 N    0.753    16 N    0.751
                            22 N    0.751
     2   6 C    3.953 --     3 C    1.646    24 C    1.170    26 H    0.972
     3   6 C    3.957 --     2 C    1.646     4 C    1.178    27 H    0.970
     4   6 C    3.917 --    25 N    1.261     5 C    1.253     3 C    1.178
     5   6 C    3.945 --     4 C    1.253     6 C    1.253    37 C    1.179
     6   6 C    3.917 --    10 N    1.262     5 C    1.253     7 C    1.178
     7   6 C    3.957 --     8 C    1.646     6 C    1.178    28 H    0.970
     8   6 C    3.953 --     7 C    1.646     9 C    1.170    29 H    0.972
     9   6 C    3.930 --    11 C    1.355    10 N    1.227     8 C    1.170
    10   7 N    3.577 --     6 C    1.262     9 C    1.227     1 Ni   0.753
    11   6 C    3.935 --     9 C    1.355    12 C    1.353    30 H    0.964
    12   6 C    3.935 --    11 C    1.353    16 N    1.239    13 C    1.161
    13   6 C    3.957 --    14 C    1.661    12 C    1.161    31 H    0.972
    14   6 C    3.955 --    13 C    1.661    15 C    1.161    32 H    0.972
    15   6 C    3.937 --    17 C    1.353    16 N    1.242    14 C    1.161
    16   7 N    3.571 --    15 C    1.242    12 C    1.239     1 Ni   0.751
    17   6 C    3.931 --    15 C    1.353    18 C    1.353    33 H    0.964
    18   6 C    3.937 --    17 C    1.353    22 N    1.242    19 C    1.161
    19   6 C    3.955 --    20 C    1.661    18 C    1.161    34 H    0.972
    20   6 C    3.957 --    19 C    1.661    21 C    1.161    35 H    0.972
    21   6 C    3.935 --    23 C    1.353    22 N    1.239    20 C    1.161
    22   7 N    3.571 --    18 C    1.242    21 C    1.239     1 Ni   0.751
    23   6 C    3.935 --    24 C    1.355    21 C    1.353    36 H    0.964
    24   6 C    3.930 --    23 C    1.355    25 N    1.227     2 C    1.170
    25   7 N    3.577 --     4 C    1.261    24 C    1.227     1 Ni   0.753
    26   1 H    0.998 --     2 C    0.972
    27   1 H    0.998 --     3 C    0.970
    28   1 H    0.998 --     7 C    0.970
    29   1 H    0.998 --     8 C    0.972
    30   1 H    0.996 --    11 C    0.964
    31   1 H    0.998 --    13 C    0.972
    32   1 H    0.998 --    14 C    0.972
    33   1 H    0.997 --    17 C    0.964
    34   1 H    0.998 --    19 C    0.972
    35   1 H    0.998 --    20 C    0.972
    36   1 H    0.996 --    23 C    0.964
    37   6 C    3.921 --    38 C    2.478     5 C    1.179    40 C    0.204
    38   6 C    3.931 --    37 C    2.478    39 C    1.300
    39   6 C    3.931 --    40 C    2.478    38 C    1.300
    40   6 C    3.921 --    39 C    2.478    45 C    1.180    37 C    0.204
    41  28 Ni   3.479 --    50 N    0.753    65 N    0.753    56 N    0.751
                            62 N    0.751
    42   6 C    3.953 --    43 C    1.645    64 C    1.170    66 H    0.972
    43   6 C    3.957 --    42 C    1.645    44 C    1.179    67 H    0.970
    44   6 C    3.917 --    65 N    1.262    45 C    1.252    43 C    1.179
    45   6 C    3.945 --    46 C    1.253    44 C    1.252    40 C    1.180
    46   6 C    3.917 --    50 N    1.262    45 C    1.253    47 C    1.179
    47   6 C    3.957 --    48 C    1.645    46 C    1.179    68 H    0.970
    48   6 C    3.953 --    47 C    1.645    49 C    1.170    69 H    0.972
    49   6 C    3.930 --    51 C    1.355    50 N    1.227    48 C    1.170
    50   7 N    3.577 --    46 C    1.262    49 C    1.227    41 Ni   0.753
    51   6 C    3.935 --    49 C    1.355    52 C    1.353    70 H    0.964
    52   6 C    3.935 --    51 C    1.353    56 N    1.239    53 C    1.161
    53   6 C    3.957 --    54 C    1.661    52 C    1.161    71 H    0.972
    54   6 C    3.955 --    53 C    1.661    55 C    1.161    72 H    0.972
    55   6 C    3.937 --    57 C    1.353    56 N    1.242    54 C    1.161
    56   7 N    3.571 --    55 C    1.242    52 C    1.239    41 Ni   0.751
    57   6 C    3.931 --    55 C    1.353    58 C    1.352    73 H    0.964
    58   6 C    3.937 --    57 C    1.352    62 N    1.242    59 C    1.161
    59   6 C    3.955 --    60 C    1.661    58 C    1.161    74 H    0.972
    60   6 C    3.957 --    59 C    1.661    61 C    1.161    75 H    0.972
    61   6 C    3.935 --    63 C    1.353    62 N    1.239    60 C    1.161
    62   7 N    3.571 --    58 C    1.242    61 C    1.239    41 Ni   0.751
    63   6 C    3.935 --    64 C    1.355    61 C    1.353    76 H    0.964
    64   6 C    3.930 --    63 C    1.355    65 N    1.227    42 C    1.170
    65   7 N    3.577 --    44 C    1.262    64 C    1.227    41 Ni   0.753
    66   1 H    0.998 --    42 C    0.972
    67   1 H    0.998 --    43 C    0.970
    68   1 H    0.998 --    47 C    0.970
    69   1 H    0.998 --    48 C    0.972
    70   1 H    0.996 --    51 C    0.964
    71   1 H    0.998 --    53 C    0.972
    72   1 H    0.998 --    54 C    0.972
    73   1 H    0.997 --    57 C    0.964
    74   1 H    0.998 --    59 C    0.972
    75   1 H    0.998 --    60 C    0.972
    76   1 H    0.996 --    63 C    0.964
 ---------------------------------------------------------------------------

Topologies differ in total number of bonds
Writing topology from bond orders to xtbtopo.mol

molecular dipole:
                 x           y           z       tot (Debye)
 q only:       -0.000       0.003      -0.011
   full:       -0.001       0.004      -0.024       0.061
molecular quadrupole (traceless):
                xx          xy          yy          xz          yz          zz
 q only:       18.166       0.164       9.183      -2.168       0.150     -27.348
  q+dip:       38.484       0.305      17.967      -4.479       0.312     -56.451
   full:       24.291       0.265       9.880      -3.090       0.184     -34.170


           -------------------------------------------------
          | TOTAL ENERGY             -138.531431817083 Eh   |
          | GRADIENT NORM               0.000446060568 Eh/α |
          | HOMO-LUMO GAP               1.303407075359 eV   |
           -------------------------------------------------

------------------------------------------------------------------------
 * finished run on 2021/11/21 at 21:09:22.267     
------------------------------------------------------------------------
 total:
 * wall-time:     0 d,  0 h,  0 min,  0.324 sec
 *  cpu-time:     0 d,  0 h,  0 min,  0.324 sec
 * ratio c/w:     1.000 speedup
 SCF:
 * wall-time:     0 d,  0 h,  0 min,  0.291 sec
 *  cpu-time:     0 d,  0 h,  0 min,  0.291 sec
 * ratio c/w:     1.000 speedup

