      -----------------------------------------------------------      
     |                   =====================                   |     
     |                           x T B                           |     
     |                   =====================                   |     
     |                         S. Grimme                         |     
     |          Mulliken Center for Theoretical Chemistry        |     
     |                    University of Bonn                     |     
      -----------------------------------------------------------      

   * xtb version 6.4.1 (bd6e46d) compiled by 'conda@4901f00b25ba' on 2021-06-10

   xtb is free software: you can redistribute it and/or modify it under
   the terms of the GNU Lesser General Public License as published by
   the Free Software Foundation, either version 3 of the License, or
   (at your option) any later version.
   
   xtb is distributed in the hope that it will be useful,
   but WITHOUT ANY WARRANTY; without even the implied warranty of
   MERCHANTABILITY or FITNESS FOR A PARTICULAR PURPOSE.  See the
   GNU Lesser General Public License for more details.
   
   Cite this work as:
   * C. Bannwarth, E. Caldeweyher, S. Ehlert, A. Hansen, P. Pracht,
     J. Seibert, S. Spicher, S. Grimme, WIREs Comput. Mol. Sci., 2020, 11,
     e01493. DOI: 10.1002/wcms.1493
   
   for GFN2-xTB:
   * C. Bannwarth, S. Ehlert and S. Grimme., J. Chem. Theory Comput., 2019,
     15, 1652-1671. DOI: 10.1021/acs.jctc.8b01176
   for GFN1-xTB:
   * S. Grimme, C. Bannwarth, P. Shushkov, J. Chem. Theory Comput., 2017,
     13, 1989-2009. DOI: 10.1021/acs.jctc.7b00118
   for GFN0-xTB:
   * P. Pracht, E. Caldeweyher, S. Ehlert, S. Grimme, ChemRxiv, 2019, preprint.
     DOI: 10.26434/chemrxiv.8326202.v1
   for GFN-FF:
   * S. Spicher and S. Grimme, Angew. Chem. Int. Ed., 2020, 59, 15665-15673.
     DOI: 10.1002/anie.202004239
   
   for DFT-D4:
   * E. Caldeweyher, C. Bannwarth and S. Grimme, J. Chem. Phys., 2017,
     147, 034112. DOI: 10.1063/1.4993215
   * E. Caldeweyher, S. Ehlert, A. Hansen, H. Neugebauer, S. Spicher,
     C. Bannwarth and S. Grimme, J. Chem. Phys., 2019, 150, 154122.
     DOI: 10.1063/1.5090222
   * E. Caldeweyher, J.-M. Mewes, S. Ehlert and S. Grimme, Phys. Chem. Chem. Phys.
     2020, 22, 8499-8512. DOI: 10.1039/D0CP00502A
   
   for sTDA-xTB:
   * S. Grimme and C. Bannwarth, J. Chem. Phys., 2016, 145, 054103.
     DOI: 10.1063/1.4959605
   
   in the mass-spec context:
   * V. Asgeirsson, C. Bauer and S. Grimme, Chem. Sci., 2017, 8, 4879.
     DOI: 10.1039/c7sc00601b
   * J. Koopman and S. Grimme, ACS Omega 2019, 4, 12, 15120-15133.
     DOI: 10.1021/acsomega.9b02011
   
   for metadynamics refer to:
   * S. Grimme, J. Chem. Theory Comput., 2019, 155, 2847-2862
     DOI: 10.1021/acs.jctc.9b00143
   
   for SPH calculations refer to:
   * S. Spicher and S. Grimme, J. Chem. Theory Comput., 2021, 17, 1701-1714
     DOI: 10.1021/acs.jctc.0c01306
   
   with help from (in alphabetical order)
   P. Atkinson, C. Bannwarth, F. Bohle, G. Brandenburg, E. Caldeweyher
   M. Checinski, S. Dohm, S. Ehlert, S. Ehrlich, I. Gerasimov, J. Koopman
   C. Lavigne, S. Lehtola, F. März, M. Müller, F. Musil, H. Neugebauer
   J. Pisarek, C. Plett, P. Pracht, J. Seibert, P. Shushkov, S. Spicher
   M. Stahn, M. Steiner, T. Strunk, J. Stückrath, T. Rose, and J. Unsleber
   
 * started run on 2021/11/20 at 16:58:16.615     

           -------------------------------------------------
          |                Calculation Setup                |
           -------------------------------------------------

          program call               : /home/jeff/miniconda3/bin/xtb input_structure_1.xyz --gfn 2 --ohess normal --parallel 1 --etemp 300 --chrg 0 --uhf 0 -I det_control.in
          hostname                   : jelfscompute1
          coordinate file            : input_structure_1.xyz
          omp threads                :                     1
          number of atoms            :                   271
          number of electrons        :                   945
          charge                     :                     0
          spin                       :                   0.5
          first test random number   :      0.29049547188862

   ID    Z sym.   atoms
    1   29 Cu     1, 37, 97, 132, 167, 202, 237
    2    6 C      2-9, 11-15, 17-21, 23, 24, 38-45, 47-51, 53-57, 59, 60,
                  73-96, 98-105, 107-111, 113-117, 119, 120, 133-140,
                  142-146, 148-152, 154, 155, 168-175, 177-181, 183-187, 189,
                  190, 203-210, 212-216, 218-222, 224, 225, 238-245, 247-251,
                  253-257, 259, 260
    3    7 N      10, 16, 22, 25, 46, 52, 58, 61, 106, 112, 118, 121, 141,
                  147, 153, 156, 176, 182, 188, 191, 211, 217, 223, 226, 246,
                  252, 258, 261
    4    1 H      26-36, 62-72, 122-131, 157-166, 192-201, 227-236, 262-271

molecular fragmentation (1/2 indicates fragments):
111111111111111111111111111111111111222222222222222222222222222222222222
222222222222222222222222222222222222222222222222222222222222222222222222
222222222222222222222222222222222222222222222222222222222222222222222222
2222222222222222222222222222222222222222222222222222222
# atoms in fragment 1/2:    36   235
 fragment masses (1/2) :      370.87     2508.47
CMA distance (Bohr)    :  90.359
constraining FC (au)   :  0.0500

           -------------------------------------------------
          |                 G F N 2 - x T B                 |
           -------------------------------------------------

        Reference                      10.1021/acs.jctc.8b01176
      * Hamiltonian:
        H0-scaling (s, p, d)           1.850000    2.230000    2.230000
        zeta-weighting                 0.500000
      * Dispersion:
        s8                             2.700000
        a1                             0.520000
        a2                             5.000000
        s9                             5.000000
      * Repulsion:
        kExp                           1.500000    1.000000
        rExp                           1.000000
      * Coulomb:
        alpha                          2.000000
        third order                    shell-resolved
        anisotropic                    true
        a3                             3.000000
        a5                             4.000000
        cn-shift                       1.200000
        cn-exp                         4.000000
        max-rad                        5.000000


          ...................................................
          :                      SETUP                      :
          :.................................................:
          :  # basis functions                 910          :
          :  # atomic orbitals                 903          :
          :  # shells                          477          :
          :  # electrons                       945          :
          :  max. iterations                   250          :
          :  Hamiltonian                  GFN2-xTB          :
          :  restarted?                      false          :
          :  GBSA solvation                  false          :
          :  PC potential                    false          :
          :  electronic temp.          300.0000000     K    :
          :  accuracy                    1.0000000          :
          :  -> integral cutoff          0.2500000E+02      :
          :  -> integral neglect         0.1000000E-07      :
          :  -> SCF convergence          0.1000000E-05 Eh   :
          :  -> wf. convergence          0.1000000E-03 e    :
          :  Broyden damping             0.4000000          :
          ...................................................

 iter      E             dE          RMSdq      gap      omega  full diag
   1   -503.7987060 -0.503799E+03  0.606E+00    0.08       0.0  T
   2   -486.8475537  0.169512E+02  0.470E+00    0.00       1.0  T
   3   -127.2258720  0.359622E+03  0.145E+01    0.01       1.0  T
   4   -324.0321049 -0.196806E+03  0.113E+01    0.04       1.0  T
   5   -469.1724960 -0.145140E+03  0.597E+00    0.03       1.0  T
   6   -483.5222884 -0.143498E+02  0.448E+00    0.05       1.0  T
   7   -485.1934136 -0.167113E+01  0.373E+00    0.02       1.0  T
   8   -477.7684184  0.742500E+01  0.445E+00    0.13       1.0  T
   9   -467.8356543  0.993276E+01  0.582E+00    0.01       1.0  T
  10   -497.1169749 -0.292813E+02  0.315E+00    0.03       1.0  T
  11   -502.7885721 -0.567160E+01  0.169E+00    0.10       1.0  T
  12   -499.2447791  0.354379E+01  0.196E+00    0.05       1.0  T
  13   -502.2455469 -0.300077E+01  0.150E+00    0.21       1.0  T
  14   -502.7612063 -0.515659E+00  0.138E+00    0.12       1.0  T
  15   -503.4521076 -0.690901E+00  0.118E+00    0.02       1.0  T
  16   -503.4334665  0.186411E-01  0.115E+00    0.03       1.0  T
  17   -503.7485349 -0.315068E+00  0.937E-01    0.08       1.0  T
  18   -503.7643417 -0.158068E-01  0.897E-01    0.06       1.0  T
  19   -503.6568333  0.107508E+00  0.871E-01    0.09       1.0  T
  20   -503.7618408 -0.105008E+00  0.819E-01    0.02       1.0  T
  21   -503.9252304 -0.163390E+00  0.675E-01    0.05       1.0  T
  22   -503.7553045  0.169926E+00  0.714E-01    0.01       1.0  T
  23   -503.8808966 -0.125592E+00  0.608E-01    0.03       1.0  T
  24   -504.1502889 -0.269392E+00  0.464E-01    0.03       1.0  T
  25   -504.1422014  0.808745E-02  0.399E-01    0.04       1.0  T
  26   -504.2078123 -0.656109E-01  0.348E-01    0.02       1.0  T
  27   -504.1016264  0.106186E+00  0.397E-01    0.01       1.0  T
  28   -504.2147125 -0.113086E+00  0.363E-01    0.02       1.0  T
  29   -504.2579702 -0.432577E-01  0.261E-01    0.02       1.0  T
  30   -504.2586467 -0.676509E-03  0.360E-01    0.01       1.0  T
  31   -504.2889013 -0.302546E-01  0.274E-01    0.02       1.0  T
  32   -504.1943727  0.945286E-01  0.362E-01    0.04       1.0  T
  33   -504.2175539 -0.231812E-01  0.314E-01    0.05       1.0  T
  34   -504.2827757 -0.652218E-01  0.214E-01    0.02       1.0  T
  35   -504.3145644 -0.317887E-01  0.123E-01    0.02       1.0  T
  36   -504.3131179  0.144653E-02  0.144E-01    0.01       1.0  T
  37   -504.3198879 -0.676996E-02  0.112E-01    0.01       1.0  T
  38   -504.3213008 -0.141290E-02  0.113E-01    0.01       1.0  T
  39   -504.3277557 -0.645491E-02  0.606E-02    0.02       1.0  T
  40   -504.3255964  0.215928E-02  0.649E-02    0.01       1.0  T
  41   -504.3261422 -0.545767E-03  0.612E-02    0.02       1.0  T
  42   -504.3269243 -0.782142E-03  0.563E-02    0.02       1.0  T
  43   -504.3269740 -0.497522E-04  0.480E-02    0.02       1.0  T
  44   -504.3277657 -0.791665E-03  0.396E-02    0.02       1.0  T
  45   -504.3282119 -0.446159E-03  0.348E-02    0.02       1.0  T
  46   -504.3284823 -0.270413E-03  0.314E-02    0.02       1.0  T
  47   -504.3286234 -0.141089E-03  0.277E-02    0.02       1.0  T
  48   -504.3287185 -0.951205E-04  0.244E-02    0.02       1.0  T
  49   -504.3286480  0.704791E-04  0.240E-02    0.02       1.0  T
  50   -504.3287293 -0.812963E-04  0.204E-02    0.02       1.0  T
  51   -504.3286480  0.813002E-04  0.204E-02    0.02       1.0  T
  52   -504.3287368 -0.887707E-04  0.177E-02    0.02       1.0  T
  53   -504.3289728 -0.236004E-03  0.971E-03    0.02       1.0  T
  54   -504.3290278 -0.550235E-04  0.676E-03    0.02       1.0  T
  55   -504.3290606 -0.327693E-04  0.539E-03    0.02       1.1  T
  56   -504.3290595  0.111575E-05  0.532E-03    0.02       1.1  T
  57   -504.3290666 -0.715287E-05  0.419E-03    0.02       1.4  T
  58   -504.3290654  0.117291E-05  0.387E-03    0.02       1.6  T
  59   -504.3290668 -0.140610E-05  0.335E-03    0.02       1.8  T
  60   -504.3290699 -0.300675E-05  0.239E-03    0.02       2.5  T
  61   -504.3290694  0.407549E-06  0.220E-03    0.02       2.8  T
  62   -504.3290697 -0.266878E-06  0.194E-03    0.02       3.1  T
  63   -504.3290711 -0.138081E-05  0.132E-03    0.02       4.6  T
  64   -504.3290712 -0.937472E-07  0.115E-03    0.02       5.3  T
  65   -504.3290707  0.485221E-06  0.116E-03    0.02       5.2  T
  66   -504.3290705  0.204145E-06  0.108E-03    0.02       5.6  T
  67   -504.3290711 -0.603067E-06  0.792E-04    0.02       7.7  T
  68   -504.3290717 -0.609823E-06  0.470E-04    0.02      12.9  T

   *** convergence criteria satisfied after 68 iterations ***

         #    Occupation            Energy/Eh            Energy/eV
      -------------------------------------------------------------
         1        2.0000           -0.6855765             -18.6555
       ...           ...                  ...                  ...
       467        2.0000           -0.3562233              -9.6933
       468        2.0000           -0.3560645              -9.6890
       469        2.0000           -0.3558277              -9.6826
       470        1.6977           -0.3381288              -9.2010
       471        1.5085           -0.3375362              -9.1848
       472        1.3430           -0.3371335              -9.1739
       473        1.2947           -0.3370266              -9.1710 (HOMO)
       474        0.9335           -0.3362858              -9.1508 (LUMO)
       475        0.1972           -0.3342366              -9.0950
       476        0.0110           -0.3313882              -9.0175
       477        0.0078           -0.3310511              -9.0084
       478        0.0066           -0.3309012              -9.0043
       ...           ...                  ...                  ...
       903                          1.6120296              43.8656
      -------------------------------------------------------------
                  HL-Gap            0.0007408 Eh            0.0202 eV
             Fermi-level           -0.3364192 Eh           -9.1544 eV

 SCC (total)                   0 d,  0 h,  0 min, 17.462 sec
 SCC setup                      ...        0 min,  0.013 sec (  0.073%)
 Dispersion                     ...        0 min,  0.026 sec (  0.149%)
 classical contributions        ...        0 min,  0.002 sec (  0.013%)
 integral evaluation            ...        0 min,  0.204 sec (  1.168%)
 iterations                     ...        0 min, 16.677 sec ( 95.500%)
 molecular gradient             ...        0 min,  0.508 sec (  2.909%)
 printout                       ...        0 min,  0.033 sec (  0.188%)

         :::::::::::::::::::::::::::::::::::::::::::::::::::::
         ::                     SUMMARY                     ::
         :::::::::::::::::::::::::::::::::::::::::::::::::::::
         :: total energy            -495.182440252538 Eh    ::
         :: gradient norm              1.006004789295 Eh/a0 ::
         :: HOMO-LUMO gap              0.020158790162 eV    ::
         ::.................................................::
         :: SCC energy              -504.329071712919 Eh    ::
         :: -> isotropic ES            0.269229839928 Eh    ::
         :: -> anisotropic ES          0.061865148471 Eh    ::
         :: -> anisotropic XC          0.263880636489 Eh    ::
         :: -> dispersion             -0.430408810922 Eh    ::
         :: repulsion energy           9.147127143452 Eh    ::
         :: add. restraining           0.000000000000 Eh    ::
         :: total charge               0.000000000003 e     ::
         :::::::::::::::::::::::::::::::::::::::::::::::::::::

      ----------------------------------------------------------- 
     |                   =====================                   |
     |                        A N C O P T                        |
     |                   =====================                   |
     |               Approximate Normal Coordinate               |
     |                Rational Function Optimizer                |
      ----------------------------------------------------------- 

          ...................................................
          :                      SETUP                      :
          :.................................................:
          :   optimization level            normal          :
          :   max. optcycles                   813          :
          :   ANC micro-cycles                  20          :
          :   degrees of freedom               807          :
          :.................................................:
          :   RF solver                   davidson          :
          :   write xtbopt.log                true          :
          :   linear?                        false          :
          :   energy convergence         0.5000000E-05 Eh   :
          :   grad. convergence          0.1000000E-02 Eh/α :
          :   maximium RF displ.         1.0000000          :
          :   Hlow (freq-cutoff)         0.1000000E-01      :
          :   Hmax (freq-cutoff)         5.0000000          :
          :   S6 in model hess.         20.0000000          :
          ...................................................

generating ANC from model Hessian ...
Using Lindh-Hessian (1995)
 Shifting diagonal of input Hessian by    1.0124451945995790E-002
 Lowest  eigenvalues of input Hessian
    0.010000    0.010039    0.010094    0.010096    0.010097    0.010097
    0.010097    0.010097    0.010103    0.010107    0.010109    0.010111
    0.010112    0.010115    0.010116    0.010117    0.010119    0.010121
 Highest eigenvalues
    2.785521    2.844620    2.909723    2.909723    2.909725    2.909725


........................................................................
.............................. CYCLE    1 ..............................
........................................................................
   1   -504.3290719 -0.504329E+03  0.223E-04    0.02       0.0  T
   2   -504.3290516  0.202472E-04  0.374E-03    0.02       1.6  T
   3   -504.3290702 -0.185846E-04  0.103E-03    0.02       5.9  T
   4   -504.3290683  0.192921E-05  0.141E-03    0.02       4.3  T
   5   -504.3290713 -0.300299E-05  0.653E-04    0.02       9.3  T
   6   -504.3290711  0.117974E-06  0.695E-04    0.02       8.7  T
   7   -504.3290715 -0.375230E-06  0.522E-04    0.02      11.6  T
     SCC iter.                  ...        0 min,  1.727 sec
     gradient                   ...        0 min,  0.500 sec
 * total energy  :  -495.1824401 Eh     change        0.1899101E-06 Eh
   gradient norm :     1.0060072 Eh/α   predicted     0.0000000E+00 (-100.00%)
   displ. norm   :     0.5939634 α      lambda       -0.5152017E+00
   maximum displ.:     0.1479916 α      in ANC's #787, #278, #652, ...

........................................................................
.............................. CYCLE    2 ..............................
........................................................................
   1   -504.2710644 -0.504271E+03  0.383E-01    0.03       0.0  T
   2   -502.4925208  0.177854E+01  0.126E+00    0.09       1.0  T
   3   -503.0706705 -0.578150E+00  0.905E-01    0.04       1.0  T
   4   -503.8372955 -0.766625E+00  0.737E-01    0.06       1.0  T
   5   -504.2235472 -0.386252E+00  0.286E-01    0.02       1.0  T
   6   -503.9223595  0.301188E+00  0.560E-01    0.02       1.0  T
   7   -503.4094628  0.512897E+00  0.749E-01    0.06       1.0  T
   8   -503.9309334 -0.521471E+00  0.479E-01    0.02       1.0  T
   9   -504.1397999 -0.208866E+00  0.398E-01    0.08       1.0  T
  10   -504.0374957  0.102304E+00  0.408E-01    0.03       1.0  T
  11   -504.2658752 -0.228379E+00  0.208E-01    0.01       1.0  T
  12   -504.2139013  0.519739E-01  0.277E-01    0.00       1.0  T
  13   -504.2267823 -0.128810E-01  0.256E-01    0.04       1.0  T
  14   -504.2769982 -0.502160E-01  0.178E-01    0.01       1.0  T
  15   -504.2995267 -0.225285E-01  0.121E-01    0.02       1.0  T
  16   -504.2987076  0.819084E-03  0.118E-01    0.02       1.0  T
  17   -504.3050046 -0.629702E-02  0.951E-02    0.02       1.0  T
  18   -504.3088092 -0.380456E-02  0.771E-02    0.03       1.0  T
  19   -504.3111791 -0.236986E-02  0.546E-02    0.02       1.0  T
  20   -504.3108018  0.377238E-03  0.560E-02    0.02       1.0  T
  21   -504.3111122 -0.310342E-03  0.464E-02    0.03       1.0  T
  22   -504.3116214 -0.509266E-03  0.370E-02    0.03       1.0  T
  23   -504.3125845 -0.963100E-03  0.250E-02    0.02       1.0  T
  24   -504.3128175 -0.232996E-03  0.216E-02    0.02       1.0  T
  25   -504.3133518 -0.534271E-03  0.958E-03    0.02       1.0  T
  26   -504.3133348  0.170025E-04  0.116E-02    0.02       1.0  T
  27   -504.3133287  0.608224E-05  0.103E-02    0.02       1.0  T
  28   -504.3133829 -0.541987E-04  0.860E-03    0.02       1.0  T
  29   -504.3133738  0.911093E-05  0.789E-03    0.02       1.0  T
  30   -504.3134125 -0.386683E-04  0.384E-03    0.02       1.6  T
  31   -504.3134241 -0.116583E-04  0.252E-03    0.02       2.4  T
  32   -504.3134280 -0.388966E-05  0.192E-03    0.02       3.2  T
  33   -504.3134309 -0.289664E-05  0.102E-03    0.02       5.9  T
  34   -504.3134313 -0.382779E-06  0.801E-04    0.02       7.6  T
  35   -504.3134321 -0.779270E-06  0.352E-04    0.02      17.3  T
     SCC iter.                  ...        0 min,  8.584 sec
     gradient                   ...        0 min,  0.499 sec
 * total energy  :  -495.5944800 Eh     change       -0.4120399E+00 Eh
   gradient norm :     0.5843875 Eh/α   predicted    -0.3485147E+00 ( -15.42%)
   displ. norm   :     0.6647152 α      lambda       -0.3325944E+00
   maximum displ.:     0.1684656 α      in ANC's #278, #787, #277, ...

........................................................................
.............................. CYCLE    3 ..............................
........................................................................
   1   -504.2580900 -0.504258E+03  0.501E-01    0.02       0.0  T
   2   -495.2160212  0.904207E+01  0.268E+00    0.01       1.0  T
   3   -503.8512852 -0.863526E+01  0.712E-01    0.03       1.0  T
   4   -503.1119965  0.739289E+00  0.973E-01    0.08       1.0  T
   5   -503.7817318 -0.669735E+00  0.616E-01    0.05       1.0  T
   6   -503.2695665  0.512165E+00  0.842E-01    0.11       1.0  T
   7   -504.0850279 -0.815461E+00  0.464E-01    0.04       1.0  T
   8   -503.7697202  0.315308E+00  0.617E-01    0.08       1.0  T
   9   -503.9830818 -0.213362E+00  0.510E-01    0.05       1.0  T
  10   -503.9810346  0.204715E-02  0.480E-01    0.03       1.0  T
  11   -504.2218254 -0.240791E+00  0.343E-01    0.01       1.0  T
  12   -504.3338448 -0.112019E+00  0.177E-01    0.02       1.0  T
  13   -504.2784822  0.553626E-01  0.228E-01    0.00       1.0  T
  14   -504.3451971 -0.667149E-01  0.144E-01    0.04       1.0  T
  15   -504.3122980  0.328991E-01  0.201E-01    0.01       1.0  T
  16   -504.3450694 -0.327714E-01  0.129E-01    0.04       1.0  T
  17   -504.1968925  0.148177E+00  0.314E-01    0.02       1.0  T
  18   -504.3542229 -0.157330E+00  0.841E-02    0.03       1.0  T
  19   -504.3476357  0.658724E-02  0.987E-02    0.01       1.0  T
  20   -504.3555390 -0.790334E-02  0.676E-02    0.02       1.0  T
  21   -504.3563556 -0.816545E-03  0.631E-02    0.02       1.0  T
  22   -504.3566725 -0.316962E-03  0.558E-02    0.02       1.0  T
  23   -504.3601278 -0.345522E-02  0.353E-02    0.02       1.0  T
  24   -504.3593298  0.797969E-03  0.409E-02    0.02       1.0  T
  25   -504.3601945 -0.864708E-03  0.321E-02    0.02       1.0  T
  26   -504.3609388 -0.744308E-03  0.204E-02    0.02       1.0  T
  27   -504.3612911 -0.352267E-03  0.123E-02    0.02       1.0  T
  28   -504.3611834  0.107662E-03  0.132E-02    0.02       1.0  T
  29   -504.3611606  0.228222E-04  0.128E-02    0.02       1.0  T
  30   -504.3613176 -0.156962E-03  0.719E-03    0.02       1.0  T
  31   -504.3613454 -0.278504E-04  0.521E-03    0.02       1.2  T
  32   -504.3613144  0.310242E-04  0.601E-03    0.02       1.0  T
  33   -504.3613544 -0.399853E-04  0.308E-03    0.02       2.0  T
  34   -504.3613603 -0.591184E-05  0.213E-03    0.02       2.9  T
  35   -504.3613538  0.651672E-05  0.266E-03    0.02       2.3  T
  36   -504.3613597 -0.596626E-05  0.164E-03    0.02       3.7  T
  37   -504.3613598 -0.827120E-07  0.153E-03    0.02       4.0  T
  38   -504.3613611 -0.132861E-05  0.122E-03    0.02       5.0  T
  39   -504.3613637 -0.251417E-05  0.432E-04    0.02      14.1  T
  40   -504.3613637 -0.367507E-07  0.349E-04    0.02      17.4  T
  41   -504.3613636  0.784369E-07  0.369E-04    0.02      16.5  T
     SCC iter.                  ...        0 min, 10.063 sec
     gradient                   ...        0 min,  0.499 sec
 * total energy  :  -495.8420073 Eh     change       -0.2475274E+00 Eh
   gradient norm :     0.2591110 Eh/α   predicted    -0.2397750E+00 (  -3.13%)
   displ. norm   :     0.7415398 α      lambda       -0.1619560E+00
   maximum displ.:     0.2233714 α      in ANC's #278, #277, #269, ...

........................................................................
.............................. CYCLE    4 ..............................
........................................................................
   1   -504.1937300 -0.504194E+03  0.666E-01    0.01       0.0  T
   2   -484.6825682  0.195112E+02  0.352E+00    0.05       1.0  T
   3   -503.6654562 -0.189829E+02  0.119E+00    0.01       1.0  T
   4   -503.8487831 -0.183327E+00  0.875E-01    0.03       1.0  T
   5   -503.7573176  0.914655E-01  0.704E-01    0.15       1.0  T
   6   -504.1313843 -0.374067E+00  0.498E-01    0.05       1.0  T
   7   -503.5534511  0.577933E+00  0.757E-01    0.08       1.0  T
   8   -503.6517839 -0.983328E-01  0.722E-01    0.10       1.0  T
   9   -504.2188034 -0.567020E+00  0.430E-01    0.05       1.0  T
  10   -504.2298605 -0.110571E-01  0.428E-01    0.06       1.0  T
  11   -504.4324648 -0.202604E+00  0.204E-01    0.02       1.0  T
  12   -504.4435625 -0.110977E-01  0.188E-01    0.02       1.0  T
  13   -504.4313903  0.121721E-01  0.174E-01    0.02       1.0  T
  14   -504.4354400 -0.404970E-02  0.178E-01    0.02       1.0  T
  15   -504.3528323  0.826078E-01  0.246E-01    0.00       1.0  T
  16   -504.4654491 -0.112617E+00  0.119E-01    0.02       1.0  T
  17   -504.4110987  0.543505E-01  0.207E-01    0.03       1.0  T
  18   -504.4564061 -0.453075E-01  0.121E-01    0.02       1.0  T
  19   -504.4722751 -0.158690E-01  0.700E-02    0.02       1.0  T
  20   -504.4731380 -0.862834E-03  0.687E-02    0.02       1.0  T
  21   -504.4770229 -0.388491E-02  0.428E-02    0.02       1.0  T
  22   -504.4769896  0.333360E-04  0.439E-02    0.01       1.0  T
  23   -504.4774699 -0.480397E-03  0.302E-02    0.02       1.0  T
  24   -504.4776671 -0.197113E-03  0.285E-02    0.02       1.0  T
  25   -504.4780986 -0.431567E-03  0.182E-02    0.02       1.0  T
  26   -504.4781272 -0.285646E-04  0.150E-02    0.02       1.0  T
  27   -504.4781068  0.203678E-04  0.137E-02    0.02       1.0  T
  28   -504.4783478 -0.240941E-03  0.106E-02    0.02       1.0  T
  29   -504.4781985  0.149291E-03  0.125E-02    0.02       1.0  T
  30   -504.4783296 -0.131116E-03  0.101E-02    0.02       1.0  T
  31   -504.4783812 -0.515674E-04  0.617E-03    0.02       1.0  T
  32   -504.4783434  0.377787E-04  0.718E-03    0.02       1.0  T
  33   -504.4784061 -0.626794E-04  0.266E-03    0.02       2.3  T
  34   -504.4784122 -0.609391E-05  0.159E-03    0.02       3.8  T
  35   -504.4784111  0.109756E-05  0.169E-03    0.02       3.6  T
  36   -504.4784122 -0.114167E-05  0.120E-03    0.02       5.1  T
  37   -504.4784146 -0.244238E-05  0.407E-04    0.02      14.9  T
  38   -504.4784142  0.415440E-06  0.599E-04    0.02      10.1  T
  39   -504.4784147 -0.476689E-06  0.296E-04    0.02      20.5  T
     SCC iter.                  ...        0 min,  9.557 sec
     gradient                   ...        0 min,  0.499 sec
 * total energy  :  -495.9730829 Eh     change       -0.1310755E+00 Eh
   gradient norm :     0.1443276 Eh/α   predicted    -0.1255064E+00 (  -4.25%)
   displ. norm   :     0.8032619 α      lambda       -0.1085712E+00
   maximum displ.:     0.2539731 α      in ANC's #143, #278, #269, ...

........................................................................
.............................. CYCLE    5 ..............................
........................................................................
   1   -504.2796532 -0.504280E+03  0.707E-01    0.00       0.0  T
   2   -483.9019693  0.203777E+02  0.359E+00    0.07       1.0  T
   3   -503.7172803 -0.198153E+02  0.126E+00    0.00       1.0  T
   4   -504.0693266 -0.352046E+00  0.781E-01    0.01       1.0  T
   5   -503.8818961  0.187430E+00  0.636E-01    0.08       1.0  T
   6   -503.5730860  0.308810E+00  0.791E-01    0.07       1.0  T
   7   -503.7792840 -0.206198E+00  0.729E-01    0.07       1.0  T
   8   -504.0635573 -0.284273E+00  0.549E-01    0.04       1.0  T
   9   -504.3329844 -0.269427E+00  0.461E-01    0.06       1.0  T
  10   -503.8707379  0.462247E+00  0.602E-01    0.09       1.0  T
  11   -504.4763926 -0.605655E+00  0.297E-01    0.01       1.0  T
  12   -504.5376168 -0.612242E-01  0.226E-01    0.03       1.0  T
  13   -504.4674778  0.701389E-01  0.292E-01    0.02       1.0  T
  14   -504.5734716 -0.105994E+00  0.148E-01    0.03       1.0  T
  15   -504.5305819  0.428897E-01  0.193E-01    0.01       1.0  T
  16   -504.5798100 -0.492281E-01  0.122E-01    0.01       1.0  T
  17   -504.5710902  0.871978E-02  0.142E-01    0.03       1.0  T
  18   -504.5648362  0.625404E-02  0.143E-01    0.01       1.0  T
  19   -504.5738373 -0.900113E-02  0.138E-01    0.02       1.0  T
  20   -504.5927197 -0.188824E-01  0.693E-02    0.01       1.0  T
  21   -504.5919682  0.751566E-03  0.766E-02    0.01       1.0  T
  22   -504.5921300 -0.161823E-03  0.709E-02    0.01       1.0  T
  23   -504.5887618  0.336820E-02  0.759E-02    0.01       1.0  T
  24   -504.5924817 -0.371988E-02  0.558E-02    0.01       1.0  T
  25   -504.5961500 -0.366833E-02  0.267E-02    0.01       1.0  T
  26   -504.5963728 -0.222803E-03  0.235E-02    0.01       1.0  T
  27   -504.5966758 -0.302991E-03  0.181E-02    0.02       1.0  T
  28   -504.5968915 -0.215707E-03  0.121E-02    0.02       1.0  T
  29   -504.5969044 -0.129069E-04  0.121E-02    0.02       1.0  T
  30   -504.5969766 -0.722365E-04  0.107E-02    0.02       1.0  T
  31   -504.5970149 -0.382848E-04  0.898E-03    0.02       1.0  T
  32   -504.5970588 -0.438903E-04  0.652E-03    0.02       1.0  T
  33   -504.5971100 -0.511879E-04  0.324E-03    0.02       1.9  T
  34   -504.5971062  0.377791E-05  0.343E-03    0.02       1.8  T
  35   -504.5971180 -0.117281E-04  0.192E-03    0.02       3.2  T
  36   -504.5971200 -0.202503E-05  0.124E-03    0.02       4.9  T
  37   -504.5971157  0.430189E-05  0.187E-03    0.02       3.2  T
  38   -504.5971181 -0.244000E-05  0.148E-03    0.02       4.1  T
  39   -504.5971200 -0.185439E-05  0.105E-03    0.02       5.8  T
  40   -504.5971220 -0.206010E-05  0.223E-04    0.02      27.3  T
  41   -504.5971220 -0.986500E-08  0.189E-04    0.02      32.1  T
  42   -504.5971220  0.132073E-07  0.194E-04    0.02      31.4  T
     SCC iter.                  ...        0 min, 10.288 sec
     gradient                   ...        0 min,  0.507 sec
 * total energy  :  -496.0658748 Eh     change       -0.9279190E-01 Eh
   gradient norm :     0.1083111 Eh/α   predicted    -0.8931343E-01 (  -3.75%)
   displ. norm   :     0.8306928 α      lambda       -0.8186396E-01
   maximum displ.:     0.3190431 α      in ANC's #143, #278, #269, ...

........................................................................
.............................. CYCLE    6 ..............................
........................................................................
   1   -504.4334697 -0.504433E+03  0.685E-01    0.01       0.0  T
   2   -484.5070380  0.199264E+02  0.357E+00    0.06       1.0  T
   3   -503.6840311 -0.191770E+02  0.132E+00    0.20       1.0  T
   4   -503.7094556 -0.254245E-01  0.804E-01    0.10       1.0  T
   5   -503.6598420  0.496136E-01  0.794E-01    0.08       1.0  T
   6   -504.0381300 -0.378288E+00  0.743E-01    0.06       1.0  T
   7   -504.4587941 -0.420664E+00  0.446E-01    0.01       1.0  T
   8   -504.1247065  0.334088E+00  0.665E-01    0.02       1.0  T
   9   -504.2819664 -0.157260E+00  0.529E-01    0.03       1.0  T
  10   -504.1302254  0.151741E+00  0.630E-01    0.06       1.0  T
  11   -504.6125494 -0.482324E+00  0.297E-01    0.03       1.0  T
  12   -504.5527101  0.598393E-01  0.336E-01    0.04       1.0  T
  13   -504.6468098 -0.940997E-01  0.230E-01    0.01       1.0  T
  14   -504.6668201 -0.200103E-01  0.181E-01    0.01       1.0  T
  15   -504.6635935  0.322660E-02  0.168E-01    0.01       1.0  T
  16   -504.5931884  0.704050E-01  0.247E-01    0.01       1.0  T
  17   -504.6815955 -0.884070E-01  0.167E-01    0.02       1.0  T
  18   -504.7004293 -0.188338E-01  0.868E-02    0.02       1.0  T
  19   -504.6957978  0.463146E-02  0.954E-02    0.02       1.0  T
  20   -504.7059856 -0.101878E-01  0.521E-02    0.01       1.0  T
  21   -504.6965748  0.941080E-02  0.989E-02    0.00       1.0  T
  22   -504.7019201 -0.534535E-02  0.767E-02    0.01       1.0  T
  23   -504.7068639 -0.494377E-02  0.561E-02    0.01       1.0  T
  24   -504.7081562 -0.129229E-02  0.381E-02    0.01       1.0  T
  25   -504.7089954 -0.839266E-03  0.203E-02    0.02       1.0  T
  26   -504.7094608 -0.465348E-03  0.127E-02    0.02       1.0  T
  27   -504.7096377 -0.176894E-03  0.812E-03    0.02       1.0  T
  28   -504.7095936  0.441039E-04  0.882E-03    0.02       1.0  T
  29   -504.7095349  0.586860E-04  0.102E-02    0.02       1.0  T
  30   -504.7096213 -0.863611E-04  0.717E-03    0.02       1.0  T
  31   -504.7096596 -0.383460E-04  0.560E-03    0.01       1.1  T
  32   -504.7096940 -0.344017E-04  0.356E-03    0.01       1.7  T
  33   -504.7096961 -0.209422E-05  0.336E-03    0.02       1.8  T
  34   -504.7097076 -0.115158E-04  0.251E-03    0.02       2.4  T
  35   -504.7097052  0.240377E-05  0.266E-03    0.01       2.3  T
  36   -504.7097168 -0.115368E-04  0.103E-03    0.02       5.9  T
  37   -504.7097167  0.686509E-08  0.823E-04    0.02       7.4  T
  38   -504.7097173 -0.589561E-06  0.542E-04    0.02      11.2  T
     SCC iter.                  ...        0 min,  9.307 sec
     gradient                   ...        0 min,  0.504 sec
 * total energy  :  -496.1369587 Eh     change       -0.7108389E-01 Eh
   gradient norm :     0.0856608 Eh/α   predicted    -0.6917712E-01 (  -2.68%)
   displ. norm   :     0.8392665 α      lambda       -0.6249953E-01
   maximum displ.:     0.3650763 α      in ANC's #143, #145, #278, ...

........................................................................
.............................. CYCLE    7 ..............................
........................................................................
   1   -504.5807770 -0.504581E+03  0.634E-01    0.01       0.0  T
   2   -485.3350927  0.192457E+02  0.353E+00    0.01       1.0  T
   3   -503.7563197 -0.184212E+02  0.126E+00    0.06       1.0  T
   4   -503.7710179 -0.146982E-01  0.842E-01    0.10       1.0  T
   5   -503.9753054 -0.204287E+00  0.708E-01    0.03       1.0  T
   6   -504.1595139 -0.184209E+00  0.749E-01    0.05       1.0  T
   7   -504.4443281 -0.284814E+00  0.532E-01    0.02       1.0  T
   8   -503.7579484  0.686380E+00  0.791E-01    0.00       1.0  T
   9   -504.2934286 -0.535480E+00  0.519E-01    0.02       1.0  T
  10   -504.2984530 -0.502438E-02  0.570E-01    0.05       1.0  T
  11   -504.6361408 -0.337688E+00  0.399E-01    0.04       1.0  T
  12   -504.4578458  0.178295E+00  0.509E-01    0.04       1.0  T
  13   -504.5961254 -0.138280E+00  0.366E-01    0.02       1.0  T
  14   -504.6887423 -0.926168E-01  0.323E-01    0.02       1.0  T
  15   -504.7545364 -0.657942E-01  0.257E-01    0.01       1.0  T
  16   -504.7683912 -0.138547E-01  0.221E-01    0.01       1.0  T
  17   -504.7713756 -0.298440E-02  0.216E-01    0.01       1.0  T
  18   -504.7820565 -0.106809E-01  0.193E-01    0.01       1.0  T
  19   -504.7917504 -0.969385E-02  0.136E-01    0.01       1.0  T
  20   -504.7723173  0.194331E-01  0.159E-01    0.00       1.0  T
  21   -504.8060365 -0.337192E-01  0.726E-02    0.02       1.0  T
  22   -504.7792669  0.267697E-01  0.147E-01    0.01       1.0  T
  23   -504.8021893 -0.229225E-01  0.809E-02    0.02       1.0  T
  24   -504.8026932 -0.503896E-03  0.663E-02    0.01       1.0  T
  25   -504.8083196 -0.562636E-02  0.489E-02    0.01       1.0  T
  26   -504.8077450  0.574574E-03  0.521E-02    0.01       1.0  T
  27   -504.8103107 -0.256564E-02  0.241E-02    0.01       1.0  T
  28   -504.8103986 -0.879803E-04  0.209E-02    0.01       1.0  T
  29   -504.8101675  0.231179E-03  0.189E-02    0.01       1.0  T
  30   -504.8104797 -0.312238E-03  0.169E-02    0.01       1.0  T
  31   -504.8106806 -0.200891E-03  0.107E-02    0.01       1.0  T
  32   -504.8107342 -0.536520E-04  0.697E-03    0.01       1.0  T
  33   -504.8107782 -0.439950E-04  0.434E-03    0.01       1.4  T
  34   -504.8108029 -0.246367E-04  0.227E-03    0.01       2.7  T
  35   -504.8108090 -0.612375E-05  0.107E-03    0.01       5.7  T
  36   -504.8108097 -0.712606E-06  0.674E-04    0.01       9.0  T
  37   -504.8108102 -0.500171E-06  0.384E-04    0.01      15.8  T
     SCC iter.                  ...        0 min,  9.048 sec
     gradient                   ...        0 min,  0.500 sec
 * total energy  :  -496.1913901 Eh     change       -0.5443146E-01 Eh
   gradient norm :     0.0647420 Eh/α   predicted    -0.5326114E-01 (  -2.15%)
   displ. norm   :     0.8389415 α      lambda       -0.4710054E-01
   maximum displ.:     0.3874568 α      in ANC's #143, #45, #145, ...

........................................................................
.............................. CYCLE    8 ..............................
........................................................................
   1   -504.7058537 -0.504706E+03  0.568E-01    0.01       0.0  T
   2   -486.1956438  0.185102E+02  0.348E+00    0.04       1.0  T
   3   -503.8736934 -0.176780E+02  0.113E+00    0.00       1.0  T
   4   -503.7670302  0.106663E+00  0.926E-01    0.09       1.0  T
   5   -504.3224139 -0.555384E+00  0.632E-01    0.04       1.0  T
   6   -503.8189246  0.503489E+00  0.823E-01    0.06       1.0  T
   7   -504.2990359 -0.480111E+00  0.651E-01    0.00       1.0  T
   8   -504.3520756 -0.530397E-01  0.607E-01    0.08       1.0  T
   9   -504.3853245 -0.332489E-01  0.582E-01    0.08       1.0  T
  10   -504.2978212  0.875033E-01  0.555E-01    0.03       1.0  T
  11   -504.5498926 -0.252071E+00  0.532E-01    0.03       1.0  T
  12   -504.6734801 -0.123587E+00  0.423E-01    0.01       1.0  T
  13   -504.5535843  0.119896E+00  0.434E-01    0.01       1.0  T
  14   -504.6530095 -0.994252E-01  0.392E-01    0.01       1.0  T
  15   -504.8491097 -0.196100E+00  0.204E-01    0.00       1.0  T
  16   -504.8732549 -0.241452E-01  0.150E-01    0.01       1.0  T
  17   -504.8769956 -0.374070E-02  0.130E-01    0.01       1.0  T
  18   -504.8601235  0.168721E-01  0.166E-01    0.01       1.0  T
  19   -504.8720560 -0.119325E-01  0.127E-01    0.01       1.0  T
  20   -504.8797796 -0.772360E-02  0.114E-01    0.01       1.0  T
  21   -504.8820082 -0.222865E-02  0.918E-02    0.01       1.0  T
  22   -504.8728568  0.915141E-02  0.117E-01    0.01       1.0  T
  23   -504.8807530 -0.789618E-02  0.908E-02    0.01       1.0  T
  24   -504.8899457 -0.919276E-02  0.498E-02    0.01       1.0  T
  25   -504.8915848 -0.163905E-02  0.275E-02    0.01       1.0  T
  26   -504.8904468  0.113797E-02  0.360E-02    0.01       1.0  T
  27   -504.8907463 -0.299514E-03  0.321E-02    0.01       1.0  T
  28   -504.8921233 -0.137699E-02  0.109E-02    0.01       1.0  T
  29   -504.8919752  0.148109E-03  0.140E-02    0.01       1.0  T
  30   -504.8921797 -0.204504E-03  0.720E-03    0.01       1.0  T
  31   -504.8922139 -0.342117E-04  0.498E-03    0.01       1.2  T
  32   -504.8922385 -0.246221E-04  0.290E-03    0.01       2.1  T
  33   -504.8922389 -0.358801E-06  0.231E-03    0.01       2.6  T
  34   -504.8922411 -0.216391E-05  0.179E-03    0.01       3.4  T
  35   -504.8922434 -0.233825E-05  0.145E-03    0.01       4.2  T
  36   -504.8922441 -0.746281E-06  0.120E-03    0.01       5.0  T
  37   -504.8922456 -0.149165E-05  0.749E-04    0.01       8.1  T
  38   -504.8922450  0.644460E-06  0.904E-04    0.01       6.7  T
  39   -504.8922459 -0.862899E-06  0.539E-04    0.01      11.3  T
     SCC iter.                  ...        0 min,  9.538 sec
     gradient                   ...        0 min,  0.500 sec
 * total energy  :  -496.2322170 Eh     change       -0.4082693E-01 Eh
   gradient norm :     0.0469133 Eh/α   predicted    -0.4012553E-01 (  -1.72%)
   displ. norm   :     0.8325349 α      lambda       -0.3457503E-01
   maximum displ.:     0.3779003 α      in ANC's #143, #45, #145, ...

........................................................................
.............................. CYCLE    9 ..............................
........................................................................
   1   -504.8088240 -0.504809E+03  0.494E-01    0.01       0.0  T
   2   -487.3041098  0.175047E+02  0.340E+00    0.05       1.0  T
   3   -503.9633791 -0.166593E+02  0.103E+00    0.01       1.0  T
   4   -503.7748803  0.188499E+00  0.982E-01    0.07       1.0  T
   5   -504.3354615 -0.560581E+00  0.665E-01    0.07       1.0  T
   6   -503.9125872  0.422874E+00  0.884E-01    0.05       1.0  T
   7   -504.0544304 -0.141843E+00  0.757E-01    0.08       1.0  T
   8   -504.3460889 -0.291658E+00  0.617E-01    0.06       1.0  T
   9   -504.5560933 -0.210004E+00  0.503E-01    0.02       1.0  T
  10   -504.4565294  0.995639E-01  0.569E-01    0.09       1.0  T
  11   -504.2571382  0.199391E+00  0.643E-01    0.06       1.0  T
  12   -504.6787290 -0.421591E+00  0.415E-01    0.02       1.0  T
  13   -504.7068289 -0.280998E-01  0.399E-01    0.02       1.0  T
  14   -504.7128346 -0.600569E-02  0.386E-01    0.02       1.0  T
  15   -504.9139635 -0.201129E+00  0.192E-01    0.01       1.0  T
  16   -504.9328668 -0.189033E-01  0.148E-01    0.01       1.0  T
  17   -504.9400363 -0.716946E-02  0.108E-01    0.00       1.0  T
  18   -504.9349678  0.506843E-02  0.131E-01    0.00       1.0  T
  19   -504.9449148 -0.994691E-02  0.813E-02    0.01       1.0  T
  20   -504.9349807  0.993408E-02  0.106E-01    0.00       1.0  T
  21   -504.9465272 -0.115465E-01  0.741E-02    0.00       1.0  T
  22   -504.9418278  0.469936E-02  0.844E-02    0.01       1.0  T
  23   -504.9411708  0.656963E-03  0.943E-02    0.01       1.0  T
  24   -504.9466232 -0.545234E-02  0.675E-02    0.01       1.0  T
  25   -504.9485059 -0.188275E-02  0.529E-02    0.01       1.0  T
  26   -504.9464234  0.208256E-02  0.658E-02    0.00       1.0  T
  27   -504.9511847 -0.476128E-02  0.297E-02    0.00       1.0  T
  28   -504.9516575 -0.472827E-03  0.222E-02    0.00       1.0  T
  29   -504.9519249 -0.267458E-03  0.181E-02    0.00       1.0  T
  30   -504.9518554  0.695043E-04  0.187E-02    0.00       1.0  T
  31   -504.9520704 -0.214980E-03  0.132E-02    0.00       1.0  T
  32   -504.9522939 -0.223502E-03  0.393E-03    0.01       1.5  T
  33   -504.9522719  0.220081E-04  0.466E-03    0.00       1.3  T
  34   -504.9522906 -0.186866E-04  0.306E-03    0.01       2.0  T
  35   -504.9523011 -0.104755E-04  0.108E-03    0.01       5.6  T
  36   -504.9522950  0.605274E-05  0.199E-03    0.01       3.1  T
  37   -504.9523014 -0.639004E-05  0.924E-04    0.01       6.6  T
  38   -504.9523009  0.503418E-06  0.983E-04    0.01       6.2  T
  39   -504.9523013 -0.349970E-06  0.846E-04    0.01       7.2  T
     SCC iter.                  ...        0 min,  9.533 sec
     gradient                   ...        0 min,  0.501 sec
 * total energy  :  -496.2619587 Eh     change       -0.2974166E-01 Eh
   gradient norm :     0.0345559 Eh/α   predicted    -0.2926978E-01 (  -1.59%)
   displ. norm   :     0.8268231 α      lambda       -0.2496336E-01
   maximum displ.:     0.3696951 α      in ANC's #45, #143, #40, ...

........................................................................
.............................. CYCLE   10 ..............................
........................................................................
   1   -504.9004156 -0.504900E+03  0.404E-01    0.01       0.0  T
   2   -489.0811515  0.158193E+02  0.327E+00    0.02       1.0  T
   3   -504.1095145 -0.150284E+02  0.896E-01    0.01       1.0  T
   4   -503.8087497  0.300765E+00  0.101E+00    0.05       1.0  T
   5   -504.4661902 -0.657440E+00  0.611E-01    0.09       1.0  T
   6   -504.4809479 -0.147578E-01  0.686E-01    0.04       1.0  T
   7   -504.3571900  0.123758E+00  0.699E-01    0.01       1.0  T
   8   -504.4773472 -0.120157E+00  0.579E-01    0.02       1.0  T
   9   -504.3012244  0.176123E+00  0.670E-01    0.03       1.0  T
  10   -504.0324568  0.268768E+00  0.757E-01    0.01       1.0  T
  11   -504.6201627 -0.587706E+00  0.464E-01    0.04       1.0  T
  12   -504.7698480 -0.149685E+00  0.450E-01    0.02       1.0  T
  13   -504.7003297  0.695183E-01  0.423E-01    0.06       1.0  T
  14   -504.8781648 -0.177835E+00  0.293E-01    0.01       1.0  T
  15   -504.8512177  0.269471E-01  0.326E-01    0.02       1.0  T
  16   -504.9751572 -0.123940E+00  0.162E-01    0.01       1.0  T
  17   -504.9815336 -0.637639E-02  0.131E-01    0.01       1.0  T
  18   -504.9753665  0.616702E-02  0.153E-01    0.00       1.0  T
  19   -504.9750473  0.319231E-03  0.155E-01    0.00       1.0  T
  20   -504.9813091 -0.626183E-02  0.131E-01    0.00       1.0  T
  21   -504.9922426 -0.109335E-01  0.699E-02    0.01       1.0  T
  22   -504.9946696 -0.242703E-02  0.546E-02    0.00       1.0  T
  23   -504.9931452  0.152447E-02  0.550E-02    0.00       1.0  T
  24   -504.9933852 -0.240043E-03  0.547E-02    0.00       1.0  T
  25   -504.9945441 -0.115892E-02  0.471E-02    0.01       1.0  T
  26   -504.9946338 -0.896323E-04  0.478E-02    0.01       1.0  T
  27   -504.9965919 -0.195809E-02  0.325E-02    0.00       1.0  T
  28   -504.9970098 -0.417927E-03  0.271E-02    0.00       1.0  T
  29   -504.9969906  0.192099E-04  0.257E-02    0.00       1.0  T
  30   -504.9974505 -0.459893E-03  0.183E-02    0.00       1.0  T
  31   -504.9974847 -0.342096E-04  0.162E-02    0.00       1.0  T
  32   -504.9976171 -0.132448E-03  0.128E-02    0.00       1.0  T
  33   -504.9977992 -0.182101E-03  0.652E-03    0.00       1.0  T
  34   -504.9978435 -0.443201E-04  0.290E-03    0.00       2.1  T
  35   -504.9978527 -0.919963E-05  0.108E-03    0.00       5.6  T
  36   -504.9978522  0.580490E-06  0.107E-03    0.00       5.7  T
  37   -504.9978522 -0.390966E-07  0.102E-03    0.00       5.9  T
  38   -504.9978535 -0.129301E-05  0.728E-04    0.00       8.3  T
  39   -504.9978528  0.647400E-06  0.852E-04    0.00       7.1  T
  40   -504.9978534 -0.505904E-06  0.620E-04    0.00       9.8  T
     SCC iter.                  ...        0 min,  9.773 sec
     gradient                   ...        0 min,  0.501 sec
 * total energy  :  -496.2834502 Eh     change       -0.2149145E-01 Eh
   gradient norm :     0.0273989 Eh/α   predicted    -0.2101463E-01 (  -2.22%)
   displ. norm   :     0.8349930 α      lambda       -0.1858268E-01
   maximum displ.:     0.4556550 α      in ANC's #45, #143, #40, ...

........................................................................
.............................. CYCLE   11 ..............................
........................................................................
   1   -504.9933442 -0.504993E+03  0.286E-01    0.00       0.0  T
   2   -494.3302883  0.106631E+02  0.284E+00    0.03       1.0  T
   3   -504.1295996 -0.979931E+01  0.745E-01    0.00       1.0  T
   4   -504.1896954 -0.600958E-01  0.891E-01    0.01       1.0  T
   5   -504.5767140 -0.387019E+00  0.596E-01    0.04       1.0  T
   6   -504.2027064  0.374008E+00  0.753E-01    0.08       1.0  T
   7   -504.3712874 -0.168581E+00  0.697E-01    0.01       1.0  T
   8   -504.9424383 -0.571151E+00  0.268E-01    0.02       1.0  T
   9   -504.6475894  0.294849E+00  0.550E-01    0.01       1.0  T
  10   -504.4459134  0.201676E+00  0.671E-01    0.05       1.0  T
  11   -504.2329243  0.212989E+00  0.661E-01    0.00       1.0  T
  12   -504.7086119 -0.475688E+00  0.466E-01    0.01       1.0  T
  13   -504.3302925  0.378319E+00  0.632E-01    0.02       1.0  T
  14   -504.9219437 -0.591651E+00  0.284E-01    0.01       1.0  T
  15   -504.9868946 -0.649509E-01  0.226E-01    0.01       1.0  T
  16   -505.0245506 -0.376561E-01  0.120E-01    0.01       1.0  T
  17   -505.0179468  0.660380E-02  0.146E-01    0.00       1.0  T
  18   -505.0235360 -0.558921E-02  0.121E-01    0.00       1.0  T
  19   -505.0237904 -0.254338E-03  0.116E-01    0.01       1.0  T
  20   -505.0280894 -0.429900E-02  0.882E-02    0.01       1.0  T
  21   -505.0320757 -0.398631E-02  0.659E-02    0.00       1.0  T
  22   -505.0328413 -0.765661E-03  0.552E-02    0.00       1.0  T
  23   -505.0344529 -0.161160E-02  0.403E-02    0.00       1.0  T
  24   -505.0346439 -0.191006E-03  0.343E-02    0.00       1.0  T
  25   -505.0342229  0.420994E-03  0.344E-02    0.00       1.0  T
  26   -505.0353241 -0.110116E-02  0.273E-02    0.01       1.0  T
  27   -505.0360202 -0.696055E-03  0.179E-02    0.00       1.0  T
  28   -505.0358116  0.208567E-03  0.168E-02    0.00       1.0  T
  29   -505.0358890 -0.773700E-04  0.164E-02    0.00       1.0  T
  30   -505.0360666 -0.177636E-03  0.104E-02    0.00       1.0  T
  31   -505.0361513 -0.847106E-04  0.671E-03    0.00       1.0  T
  32   -505.0361440  0.729602E-05  0.719E-03    0.00       1.0  T
  33   -505.0361419  0.207342E-05  0.647E-03    0.00       1.0  T
  34   -505.0361669 -0.249373E-04  0.534E-03    0.00       1.1  T
  35   -505.0361860 -0.191099E-04  0.337E-03    0.00       1.8  T
  36   -505.0361917 -0.569121E-05  0.203E-03    0.00       3.0  T
  37   -505.0361910  0.709325E-06  0.177E-03    0.00       3.4  T
  38   -505.0361939 -0.293841E-05  0.968E-04    0.00       6.3  T
  39   -505.0361944 -0.473900E-06  0.839E-04    0.00       7.2  T
  40   -505.0361947 -0.327924E-06  0.631E-04    0.00       9.6  T
     SCC iter.                  ...        0 min, 10.006 sec
     gradient                   ...        0 min,  0.501 sec
 * total energy  :  -496.2997910 Eh     change       -0.1634083E-01 Eh
   gradient norm :     0.0241013 Eh/α   predicted    -0.1576940E-01 (  -3.50%)
   displ. norm   :     0.8621776 α      lambda       -0.1519722E-01
   maximum displ.:     0.5288656 α      in ANC's #45, #40, #42, ...

........................................................................
.............................. CYCLE   12 ..............................
........................................................................
   1   -505.0668404 -0.505067E+03  0.161E-01    0.00       0.0  T
   2   -504.0032401  0.106360E+01  0.854E-01    0.00       1.0  T
   3   -504.4687981 -0.465558E+00  0.609E-01    0.01       1.0  T
   4   -504.5412276 -0.724295E-01  0.594E-01    0.06       1.0  T
   5   -504.7753414 -0.234114E+00  0.456E-01    0.05       1.0  T
   6   -504.2329257  0.542416E+00  0.719E-01    0.06       1.0  T
   7   -504.6488102 -0.415884E+00  0.521E-01    0.04       1.0  T
   8   -504.2765985  0.372212E+00  0.691E-01    0.03       1.0  T
   9   -504.7568595 -0.480261E+00  0.423E-01    0.01       1.0  T
  10   -504.9996902 -0.242831E+00  0.232E-01    0.01       1.0  T
  11   -505.0142148 -0.145247E-01  0.221E-01    0.01       1.0  T
  12   -505.0395274 -0.253125E-01  0.154E-01    0.00       1.0  T
  13   -504.9871526  0.523748E-01  0.240E-01    0.01       1.0  T
  14   -505.0492089 -0.620564E-01  0.109E-01    0.01       1.0  T
  15   -505.0644171 -0.152082E-01  0.823E-02    0.01       1.0  T
  16   -505.0678413 -0.342421E-02  0.591E-02    0.00       1.0  T
  17   -505.0657499  0.209144E-02  0.689E-02    0.01       1.0  T
  18   -505.0669578 -0.120788E-02  0.604E-02    0.00       1.0  T
  19   -505.0684929 -0.153507E-02  0.467E-02    0.00       1.0  T
  20   -505.0696242 -0.113131E-02  0.311E-02    0.00       1.0  T
  21   -505.0708939 -0.126971E-02  0.122E-02    0.00       1.0  T
  22   -505.0701969  0.697001E-03  0.258E-02    0.01       1.0  T
  23   -505.0707391 -0.542183E-03  0.174E-02    0.00       1.0  T
  24   -505.0708449 -0.105841E-03  0.125E-02    0.00       1.0  T
  25   -505.0709883 -0.143382E-03  0.764E-03    0.00       1.0  T
  26   -505.0710202 -0.319359E-04  0.563E-03    0.00       1.1  T
  27   -505.0710460 -0.257379E-04  0.433E-03    0.00       1.4  T
  28   -505.0710572 -0.112419E-04  0.349E-03    0.00       1.7  T
  29   -505.0710672 -0.100214E-04  0.196E-03    0.00       3.1  T
  30   -505.0710665  0.701835E-06  0.215E-03    0.00       2.8  T
  31   -505.0710693 -0.281662E-05  0.166E-03    0.00       3.6  T
  32   -505.0710727 -0.338278E-05  0.878E-04    0.00       6.9  T
  33   -505.0710730 -0.317259E-06  0.719E-04    0.00       8.5  T
  34   -505.0710734 -0.362244E-06  0.456E-04    0.00      13.3  T
     SCC iter.                  ...        0 min,  8.383 sec
     gradient                   ...        0 min,  0.502 sec
 * total energy  :  -496.3136579 Eh     change       -0.1386689E-01 Eh
   gradient norm :     0.0230473 Eh/α   predicted    -0.1324705E-01 (  -4.47%)
   displ. norm   :     0.8954719 α      lambda       -0.1382419E-01
   maximum displ.:     0.5750064 α      in ANC's #45, #40, #42, ...

........................................................................
.............................. CYCLE   13 ..............................
........................................................................
   1   -505.0631201 -0.505063E+03  0.223E-01    0.00       0.0  T
   2   -503.3968399  0.166628E+01  0.110E+00    0.26       1.0  T
   3   -504.7597857 -0.136295E+01  0.572E-01    0.01       1.0  T
   4   -504.5578642  0.201922E+00  0.590E-01    0.01       1.0  T
   5   -504.2515083  0.306356E+00  0.692E-01    0.00       1.0  T
   6   -504.4175851 -0.166077E+00  0.614E-01    0.03       1.0  T
   7   -504.6411976 -0.223613E+00  0.578E-01    0.01       1.0  T
   8   -504.3930244  0.248173E+00  0.689E-01    0.02       1.0  T
   9   -504.5620466 -0.169022E+00  0.591E-01    0.01       1.0  T
  10   -504.6144313 -0.523847E-01  0.551E-01    0.03       1.0  T
  11   -504.8602506 -0.245819E+00  0.423E-01    0.00       1.0  T
  12   -504.9693085 -0.109058E+00  0.363E-01    0.02       1.0  T
  13   -505.0469524 -0.776438E-01  0.239E-01    0.01       1.0  T
  14   -505.0474328 -0.480393E-03  0.232E-01    0.00       1.0  T
  15   -504.9771329  0.702998E-01  0.301E-01    0.01       1.0  T
  16   -505.0658949 -0.887620E-01  0.195E-01    0.01       1.0  T
  17   -505.0624218  0.347315E-02  0.192E-01    0.00       1.0  T
  18   -505.0824095 -0.199877E-01  0.147E-01    0.01       1.0  T
  19   -505.0915979 -0.918843E-02  0.104E-01    0.01       1.0  T
  20   -505.0960200 -0.442210E-02  0.886E-02    0.01       1.0  T
  21   -505.0979234 -0.190337E-02  0.738E-02    0.01       1.0  T
  22   -505.0997404 -0.181700E-02  0.580E-02    0.01       1.0  T
  23   -505.1013797 -0.163937E-02  0.379E-02    0.01       1.0  T
  24   -505.1025424 -0.116269E-02  0.304E-02    0.01       1.0  T
  25   -505.1033948 -0.852387E-03  0.179E-02    0.00       1.0  T
  26   -505.1034046 -0.976354E-05  0.139E-02    0.00       1.0  T
  27   -505.1036384 -0.233794E-03  0.725E-03    0.00       1.0  T
  28   -505.1036899 -0.514978E-04  0.421E-03    0.00       1.4  T
  29   -505.1036746  0.152684E-04  0.525E-03    0.00       1.2  T
  30   -505.1036960 -0.214221E-04  0.337E-03    0.00       1.8  T
  31   -505.1036977 -0.164783E-05  0.318E-03    0.00       1.9  T
  32   -505.1037095 -0.118081E-04  0.117E-03    0.00       5.2  T
  33   -505.1037090  0.476577E-06  0.121E-03    0.00       5.0  T
  34   -505.1037106 -0.159108E-05  0.599E-04    0.00      10.1  T
  35   -505.1037104  0.193086E-06  0.745E-04    0.00       8.2  T
  36   -505.1037108 -0.371465E-06  0.576E-04    0.00      10.5  T
     SCC iter.                  ...        0 min,  8.811 sec
     gradient                   ...        0 min,  0.500 sec
 * total energy  :  -496.3267354 Eh     change       -0.1307755E-01 Eh
   gradient norm :     0.0219359 Eh/α   predicted    -0.1245471E-01 (  -4.76%)
   displ. norm   :     0.9256152 α      lambda       -0.1352302E-01
   maximum displ.:     0.5964482 α      in ANC's #45, #40, #42, ...

........................................................................
.............................. CYCLE   14 ..............................
........................................................................
   1   -505.0011069 -0.505001E+03  0.383E-01    0.01       0.0  T
   2   -502.7914123  0.220969E+01  0.147E+00    0.20       1.0  T
   3   -504.6309142 -0.183950E+01  0.758E-01    0.00       1.0  T
   4   -504.1948156  0.436099E+00  0.702E-01    0.08       1.0  T
   5   -504.0733584  0.121457E+00  0.819E-01    0.10       1.0  T
   6   -504.2929411 -0.219583E+00  0.731E-01    0.05       1.0  T
   7   -504.6030052 -0.310064E+00  0.544E-01    0.05       1.0  T
   8   -504.4646241  0.138381E+00  0.644E-01    0.02       1.0  T
   9   -504.7065000 -0.241876E+00  0.615E-01    0.04       1.0  T
  10   -504.4917431  0.214757E+00  0.608E-01    0.03       1.0  T
  11   -504.9821754 -0.490432E+00  0.374E-01    0.04       1.0  T
  12   -504.9834212 -0.124585E-02  0.327E-01    0.02       1.0  T
  13   -504.9758009  0.762039E-02  0.325E-01    0.01       1.0  T
  14   -505.0146917 -0.388909E-01  0.265E-01    0.01       1.0  T
  15   -505.0243337 -0.964198E-02  0.256E-01    0.00       1.0  T
  16   -505.0666828 -0.423491E-01  0.189E-01    0.00       1.0  T
  17   -505.0423373  0.243455E-01  0.204E-01    0.01       1.0  T
  18   -505.1232506 -0.809133E-01  0.868E-02    0.00       1.0  T
  19   -505.1088171  0.144335E-01  0.122E-01    0.01       1.0  T
  20   -505.1264136 -0.175965E-01  0.671E-02    0.00       1.0  T
  21   -505.1295810 -0.316738E-02  0.486E-02    0.00       1.0  T
  22   -505.1302257 -0.644676E-03  0.383E-02    0.00       1.0  T
  23   -505.1309909 -0.765221E-03  0.323E-02    0.00       1.0  T
  24   -505.1306714  0.319519E-03  0.343E-02    0.01       1.0  T
  25   -505.1319193 -0.124794E-02  0.167E-02    0.00       1.0  T
  26   -505.1320832 -0.163944E-03  0.134E-02    0.00       1.0  T
  27   -505.1321131 -0.298425E-04  0.125E-02    0.00       1.0  T
  28   -505.1322595 -0.146363E-03  0.809E-03    0.00       1.0  T
  29   -505.1323118 -0.523366E-04  0.537E-03    0.00       1.1  T
  30   -505.1323477 -0.359450E-04  0.263E-03    0.00       2.3  T
  31   -505.1323532 -0.547793E-05  0.193E-03    0.00       3.1  T
  32   -505.1323545 -0.125670E-05  0.168E-03    0.00       3.6  T
  33   -505.1323583 -0.386831E-05  0.948E-04    0.00       6.4  T
  34   -505.1323596 -0.127163E-05  0.393E-04    0.00      15.5  T
  35   -505.1323597 -0.107238E-06  0.296E-04    0.00      20.6  T
  36   -505.1323598 -0.476198E-07  0.209E-04    0.00      29.1  T
     SCC iter.                  ...        0 min,  8.812 sec
     gradient                   ...        0 min,  0.501 sec
 * total energy  :  -496.3398611 Eh     change       -0.1312570E-01 Eh
   gradient norm :     0.0203137 Eh/α   predicted    -0.1255455E-01 (  -4.35%)
   displ. norm   :     0.9564651 α      lambda       -0.1384574E-01
   maximum displ.:     0.6083653 α      in ANC's #45, #40, #42, ...

........................................................................
.............................. CYCLE   15 ..............................
........................................................................
   1   -504.9579917 -0.504958E+03  0.487E-01    0.01       0.0  T
   2   -501.9600823  0.299791E+01  0.175E+00    0.07       1.0  T
   3   -504.3751556 -0.241507E+01  0.929E-01    0.03       1.0  T
   4   -504.1560107  0.219145E+00  0.938E-01    0.18       1.0  T
   5   -504.3918726 -0.235862E+00  0.777E-01    0.02       1.0  T
   6   -503.9963963  0.395476E+00  0.858E-01    0.02       1.0  T
   7   -504.3289924 -0.332596E+00  0.685E-01    0.04       1.0  T
   8   -504.5632429 -0.234250E+00  0.570E-01    0.00       1.0  T
   9   -504.5432166  0.200262E-01  0.602E-01    0.04       1.0  T
  10   -504.8550583 -0.311842E+00  0.518E-01    0.03       1.0  T
  11   -504.4428555  0.412203E+00  0.643E-01    0.01       1.0  T
  12   -505.0068995 -0.564044E+00  0.333E-01    0.00       1.0  T
  13   -505.0632378 -0.563383E-01  0.270E-01    0.00       1.0  T
  14   -504.8827683  0.180469E+00  0.395E-01    0.02       1.0  T
  15   -505.0748591 -0.192091E+00  0.210E-01    0.01       1.0  T
  16   -504.9235569  0.151302E+00  0.393E-01    0.03       1.0  T
  17   -504.9679153 -0.443584E-01  0.327E-01    0.01       1.0  T
  18   -505.0904888 -0.122573E+00  0.200E-01    0.01       1.0  T
  19   -505.0750638  0.154251E-01  0.230E-01    0.01       1.0  T
  20   -505.1322090 -0.571452E-01  0.125E-01    0.00       1.0  T
  21   -505.1283498  0.385917E-02  0.118E-01    0.00       1.0  T
  22   -505.1449100 -0.165602E-01  0.763E-02    0.01       1.0  T
  23   -505.1529186 -0.800857E-02  0.299E-02    0.00       1.0  T
  24   -505.1531496 -0.231017E-03  0.294E-02    0.00       1.0  T
  25   -505.1530080  0.141620E-03  0.292E-02    0.00       1.0  T
  26   -505.1535624 -0.554451E-03  0.238E-02    0.00       1.0  T
  27   -505.1540765 -0.514097E-03  0.159E-02    0.00       1.0  T
  28   -505.1544146 -0.338054E-03  0.791E-03    0.00       1.0  T
  29   -505.1544726 -0.579907E-04  0.588E-03    0.00       1.0  T
  30   -505.1545188 -0.461819E-04  0.283E-03    0.00       2.1  T
  31   -505.1545195 -0.735217E-06  0.236E-03    0.00       2.6  T
  32   -505.1545241 -0.461016E-05  0.175E-03    0.00       3.5  T
  33   -505.1545253 -0.117537E-05  0.153E-03    0.00       4.0  T
  34   -505.1545272 -0.190150E-05  0.971E-04    0.00       6.3  T
  35   -505.1545277 -0.533914E-06  0.765E-04    0.00       7.9  T
  36   -505.1545286 -0.923838E-06  0.418E-04    0.00      14.5  T
     SCC iter.                  ...        0 min,  8.809 sec
     gradient                   ...        0 min,  0.501 sec
 * total energy  :  -496.3534606 Eh     change       -0.1359949E-01 Eh
   gradient norm :     0.0190914 Eh/α   predicted    -0.1325612E-01 (  -2.52%)
   displ. norm   :     0.9774173 α      lambda       -0.1441493E-01
   maximum displ.:     0.6066694 α      in ANC's #45, #40, #42, ...

........................................................................
.............................. CYCLE   16 ..............................
........................................................................
   1   -504.9536313 -0.504954E+03  0.523E-01    0.00       0.0  T
   2   -502.2081304  0.274550E+01  0.180E+00    0.03       1.0  T
   3   -504.0721093 -0.186398E+01  0.102E+00    0.02       1.0  T
   4   -504.1025193 -0.304100E-01  0.980E-01    0.22       1.0  T
   5   -504.4629659 -0.360447E+00  0.756E-01    0.09       1.0  T
   6   -504.0457987  0.417167E+00  0.799E-01    0.04       1.0  T
   7   -504.0017200  0.440787E-01  0.796E-01    0.05       1.0  T
   8   -504.5254028 -0.523683E+00  0.632E-01    0.04       1.0  T
   9   -504.6135779 -0.881751E-01  0.571E-01    0.02       1.0  T
  10   -504.5564628  0.571151E-01  0.636E-01    0.02       1.0  T
  11   -504.6994783 -0.143016E+00  0.572E-01    0.01       1.0  T
  12   -505.0125035 -0.313025E+00  0.357E-01    0.01       1.0  T
  13   -505.0141185 -0.161501E-02  0.321E-01    0.02       1.0  T
  14   -504.9483898  0.657286E-01  0.371E-01    0.03       1.0  T
  15   -504.7176163  0.230774E+00  0.480E-01    0.01       1.0  T
  16   -504.9298201 -0.212204E+00  0.384E-01    0.00       1.0  T
  17   -505.0678476 -0.138027E+00  0.249E-01    0.00       1.0  T
  18   -505.1269294 -0.590818E-01  0.170E-01    0.01       1.0  T
  19   -505.1239638  0.296559E-02  0.183E-01    0.01       1.0  T
  20   -505.1401411 -0.161773E-01  0.147E-01    0.00       1.0  T
  21   -505.1665269 -0.263858E-01  0.575E-02    0.01       1.0  T
  22   -505.1581868  0.834014E-02  0.856E-02    0.00       1.0  T
  23   -505.1619371 -0.375034E-02  0.749E-02    0.00       1.0  T
  24   -505.1676051 -0.566800E-02  0.444E-02    0.01       1.0  T
  25   -505.1704151 -0.280994E-02  0.144E-02    0.00       1.0  T
  26   -505.1704839 -0.688676E-04  0.118E-02    0.00       1.0  T
  27   -505.1704350  0.489229E-04  0.123E-02    0.00       1.0  T
  28   -505.1706972 -0.262162E-03  0.480E-03    0.00       1.3  T
  29   -505.1707199 -0.227452E-04  0.281E-03    0.00       2.2  T
  30   -505.1707128  0.718152E-05  0.316E-03    0.00       1.9  T
  31   -505.1707277 -0.149009E-04  0.173E-03    0.00       3.5  T
  32   -505.1707272  0.495225E-06  0.195E-03    0.00       3.1  T
  33   -505.1707314 -0.420483E-05  0.114E-03    0.00       5.3  T
  34   -505.1707318 -0.413070E-06  0.893E-04    0.00       6.8  T
  35   -505.1707321 -0.362591E-06  0.590E-04    0.00      10.3  T
     SCC iter.                  ...        0 min,  8.621 sec
     gradient                   ...        0 min,  0.500 sec
 * total energy  :  -496.3677456 Eh     change       -0.1428494E-01 Eh
   gradient norm :     0.0207230 Eh/α   predicted    -0.1409309E-01 (  -1.34%)
   displ. norm   :     0.9833870 α      lambda       -0.1492350E-01
   maximum displ.:     0.5779244 α      in ANC's #45, #40, #42, ...

........................................................................
.............................. CYCLE   17 ..............................
........................................................................
   1   -504.9521896 -0.504952E+03  0.530E-01    0.00       0.0  T
   2   -495.7248923  0.922730E+01  0.419E+00    0.05       1.0  T
   3   -503.6115439 -0.788665E+01  0.133E+00    0.03       1.0  T
   4   -504.2012553 -0.589711E+00  0.887E-01    0.08       1.0  T
   5   -504.1331111  0.681442E-01  0.926E-01    0.05       1.0  T
   6   -504.3276203 -0.194509E+00  0.703E-01    0.05       1.0  T
   7   -504.2444502  0.831701E-01  0.798E-01    0.05       1.0  T
   8   -504.0670354  0.177415E+00  0.815E-01    0.04       1.0  T
   9   -504.7960865 -0.729051E+00  0.492E-01    0.01       1.0  T
  10   -504.7423960  0.536905E-01  0.556E-01    0.01       1.0  T
  11   -504.6548872  0.875088E-01  0.548E-01    0.00       1.0  T
  12   -504.6338205  0.210666E-01  0.611E-01    0.00       1.0  T
  13   -504.9813294 -0.347509E+00  0.386E-01    0.02       1.0  T
  14   -504.7785952  0.202734E+00  0.490E-01    0.00       1.0  T
  15   -504.9350605 -0.156465E+00  0.382E-01    0.02       1.0  T
  16   -505.1096586 -0.174598E+00  0.206E-01    0.00       1.0  T
  17   -505.1655773 -0.559187E-01  0.993E-02    0.00       1.0  T
  18   -505.0968995  0.686778E-01  0.201E-01    0.00       1.0  T
  19   -505.1469286 -0.500291E-01  0.136E-01    0.01       1.0  T
  20   -505.1461681  0.760474E-03  0.127E-01    0.00       1.0  T
  21   -505.1618195 -0.156514E-01  0.930E-02    0.00       1.0  T
  22   -505.1704241 -0.860466E-02  0.537E-02    0.01       1.0  T
  23   -505.1691693  0.125486E-02  0.550E-02    0.00       1.0  T
  24   -505.1739852 -0.481595E-02  0.231E-02    0.00       1.0  T
  25   -505.1732114  0.773827E-03  0.319E-02    0.00       1.0  T
  26   -505.1744003 -0.118894E-02  0.215E-02    0.00       1.0  T
  27   -505.1748779 -0.477571E-03  0.106E-02    0.00       1.0  T
  28   -505.1750330 -0.155056E-03  0.656E-03    0.00       1.0  T
  29   -505.1750764 -0.434844E-04  0.340E-03    0.00       1.8  T
  30   -505.1750931 -0.166135E-04  0.210E-03    0.00       2.9  T
  31   -505.1750946 -0.158538E-05  0.124E-03    0.00       4.9  T
  32   -505.1750957 -0.103357E-05  0.108E-03    0.00       5.6  T
  33   -505.1750953  0.407497E-06  0.104E-03    0.00       5.8  T
  34   -505.1750933  0.201214E-05  0.138E-03    0.00       4.4  T
  35   -505.1750942 -0.902755E-06  0.117E-03    0.00       5.2  T
  36   -505.1750949 -0.753579E-06  0.954E-04    0.00       6.4  T
  37   -505.1750950 -0.739786E-07  0.884E-04    0.00       6.9  T
     SCC iter.                  ...        0 min,  9.055 sec
     gradient                   ...        0 min,  0.500 sec
 * total energy  :  -496.3828810 Eh     change       -0.1513542E-01 Eh
   gradient norm :     0.0282299 Eh/α   predicted    -0.1467765E-01 (  -3.02%)
   displ. norm   :     0.9766336 α      lambda       -0.1562004E-01
   maximum displ.:     0.5608578 α      in ANC's #45, #40, #21, ...

........................................................................
.............................. CYCLE   18 ..............................
........................................................................
   1   -504.9990831 -0.504999E+03  0.467E-01    0.00       0.0  T
   2   -492.2788764  0.127202E+02  0.479E+00    0.05       1.0  T
   3   -503.8640903 -0.115852E+02  0.126E+00    0.01       1.0  T
   4   -504.3964501 -0.532360E+00  0.800E-01    0.06       1.0  T
   5   -504.2877561  0.108694E+00  0.819E-01    0.02       1.0  T
   6   -504.0521772  0.235579E+00  0.870E-01    0.06       1.0  T
   7   -504.5590699 -0.506893E+00  0.653E-01    0.05       1.0  T
   8   -504.4172076  0.141862E+00  0.701E-01    0.05       1.0  T
   9   -504.6468545 -0.229647E+00  0.623E-01    0.01       1.0  T
  10   -504.5390124  0.107842E+00  0.592E-01    0.04       1.0  T
  11   -504.6999403 -0.160928E+00  0.567E-01    0.04       1.0  T
  12   -504.7022521 -0.231173E-02  0.521E-01    0.01       1.0  T
  13   -504.9375190 -0.235267E+00  0.434E-01    0.01       1.0  T
  14   -504.6393754  0.298144E+00  0.517E-01    0.04       1.0  T
  15   -505.1175225 -0.478147E+00  0.231E-01    0.00       1.0  T
  16   -504.9494923  0.168030E+00  0.362E-01    0.01       1.0  T
  17   -505.0114609 -0.619686E-01  0.301E-01    0.01       1.0  T
  18   -505.1568187 -0.145358E+00  0.125E-01    0.00       1.0  T
  19   -505.1505837  0.623504E-02  0.120E-01    0.01       1.0  T
  20   -505.1495454  0.103821E-02  0.121E-01    0.01       1.0  T
  21   -505.1692970 -0.197515E-01  0.567E-02    0.00       1.0  T
  22   -505.1710681 -0.177112E-02  0.560E-02    0.00       1.0  T
  23   -505.1754074 -0.433932E-02  0.230E-02    0.00       1.0  T
  24   -505.1734253  0.198213E-02  0.389E-02    0.00       1.0  T
  25   -505.1748703 -0.144503E-02  0.262E-02    0.00       1.0  T
  26   -505.1757970 -0.926758E-03  0.137E-02    0.00       1.0  T
  27   -505.1756612  0.135848E-03  0.144E-02    0.00       1.0  T
  28   -505.1759800 -0.318811E-03  0.928E-03    0.00       1.0  T
  29   -505.1759398  0.401596E-04  0.969E-03    0.00       1.0  T
  30   -505.1759346  0.528785E-05  0.940E-03    0.00       1.0  T
  31   -505.1760413 -0.106702E-03  0.653E-03    0.00       1.0  T
  32   -505.1760452 -0.393274E-05  0.629E-03    0.00       1.0  T
  33   -505.1760559 -0.106668E-04  0.588E-03    0.00       1.0  T
  34   -505.1760431  0.127262E-04  0.617E-03    0.00       1.0  T
  35   -505.1760553 -0.121207E-04  0.564E-03    0.00       1.1  T
  36   -505.1760956 -0.403583E-04  0.329E-03    0.00       1.8  T
  37   -505.1760940  0.158322E-05  0.300E-03    0.00       2.0  T
  38   -505.1761017 -0.764193E-05  0.229E-03    0.00       2.7  T
  39   -505.1761041 -0.246010E-05  0.168E-03    0.00       3.6  T
  40   -505.1761044 -0.291576E-06  0.157E-03    0.00       3.9  T
  41   -505.1761088 -0.439983E-05  0.754E-04    0.00       8.1  T
  42   -505.1761096 -0.740405E-06  0.440E-04    0.00      13.8  T
  43   -505.1761097 -0.928270E-07  0.227E-04    0.00      26.8  T
     SCC iter.                  ...        0 min, 10.522 sec
     gradient                   ...        0 min,  0.500 sec
 * total energy  :  -496.3993007 Eh     change       -0.1641968E-01 Eh
   gradient norm :     0.0384192 Eh/α   predicted    -0.1525935E-01 (  -7.07%)
   displ. norm   :     0.9480677 α      lambda       -0.1768939E-01
   maximum displ.:     0.5067607 α      in ANC's #45, #40, #21, ...

........................................................................
.............................. CYCLE   19 ..............................
........................................................................
   1   -505.0105661 -0.505011E+03  0.441E-01    0.00       0.0  T
   2   -479.3306725  0.256799E+02  0.564E+00    0.00       1.0  T
   3   -503.7944513 -0.244638E+02  0.128E+00    0.02       1.0  T
   4   -504.1040533 -0.309602E+00  0.865E-01    0.01       1.0  T
   5   -503.9916698  0.112383E+00  0.836E-01    0.15       1.0  T
   6   -504.1320730 -0.140403E+00  0.743E-01    0.01       1.0  T
   7   -504.1981014 -0.660285E-01  0.767E-01    0.04       1.0  T
   8   -504.7960834 -0.597982E+00  0.508E-01    0.01       1.0  T
   9   -504.5569474  0.239136E+00  0.699E-01    0.07       1.0  T
  10   -504.7724191 -0.215472E+00  0.539E-01    0.02       1.0  T
  11   -504.7565168  0.159023E-01  0.504E-01    0.03       1.0  T
  12   -504.7782422 -0.217254E-01  0.520E-01    0.02       1.0  T
  13   -504.9328891 -0.154647E+00  0.419E-01    0.01       1.0  T
  14   -505.0235353 -0.906462E-01  0.302E-01    0.01       1.0  T
  15   -505.0117542  0.117811E-01  0.359E-01    0.01       1.0  T
  16   -505.0516520 -0.398979E-01  0.280E-01    0.00       1.0  T
  17   -505.0996772 -0.480252E-01  0.209E-01    0.00       1.0  T
  18   -505.1043960 -0.471873E-02  0.235E-01    0.00       1.0  T
  19   -505.0686594  0.357366E-01  0.253E-01    0.02       1.0  T
  20   -505.1581111 -0.894518E-01  0.120E-01    0.02       1.0  T
  21   -505.1685169 -0.104058E-01  0.856E-02    0.01       1.0  T
  22   -505.1698913 -0.137442E-02  0.756E-02    0.00       1.0  T
  23   -505.1679234  0.196790E-02  0.830E-02    0.01       1.0  T
  24   -505.1738241 -0.590072E-02  0.586E-02    0.01       1.0  T
  25   -505.1738669 -0.427171E-04  0.586E-02    0.01       1.0  T
  26   -505.1780836 -0.421679E-02  0.340E-02    0.01       1.0  T
  27   -505.1763575  0.172612E-02  0.449E-02    0.01       1.0  T
  28   -505.1785861 -0.222858E-02  0.307E-02    0.01       1.0  T
  29   -505.1793574 -0.771303E-03  0.230E-02    0.00       1.0  T
  30   -505.1800013 -0.643927E-03  0.141E-02    0.00       1.0  T
  31   -505.1800589 -0.575694E-04  0.133E-02    0.00       1.0  T
  32   -505.1800003  0.585666E-04  0.142E-02    0.00       1.0  T
  33   -505.1801713 -0.171000E-03  0.105E-02    0.00       1.0  T
  34   -505.1803333 -0.161964E-03  0.430E-03    0.00       1.4  T
  35   -505.1803570 -0.237152E-04  0.211E-03    0.00       2.9  T
  36   -505.1803584 -0.134076E-05  0.162E-03    0.00       3.8  T
  37   -505.1803595 -0.110812E-05  0.140E-03    0.00       4.3  T
  38   -505.1803595 -0.656636E-07  0.144E-03    0.00       4.2  T
  39   -505.1803626 -0.304473E-05  0.723E-04    0.00       8.4  T
  40   -505.1803629 -0.306541E-06  0.503E-04    0.00      12.1  T
  41   -505.1803630 -0.166843E-06  0.454E-04    0.00      13.4  T
     SCC iter.                  ...        0 min, 10.032 sec
     gradient                   ...        0 min,  0.499 sec
 * total energy  :  -496.4190141 Eh     change       -0.1971343E-01 Eh
   gradient norm :     0.0554715 Eh/α   predicted    -0.1679462E-01 ( -14.81%)
   displ. norm   :     0.8917958 α      lambda       -0.2316967E-01
   maximum displ.:     0.4124436 α      in ANC's #45, #21, #33, ...

........................................................................
.............................. CYCLE   20 ..............................
........................................................................
   1   -504.9965976 -0.504997E+03  0.432E-01    0.00       0.0  T
   2   -472.7995134  0.321971E+02  0.581E+00    0.09       1.0  T
   3   -503.9421377 -0.311426E+02  0.115E+00    0.20       1.0  T
   4   -504.0749459 -0.132808E+00  0.850E-01    0.03       1.0  T
   5   -503.9970129  0.779330E-01  0.842E-01    0.16       1.0  T
   6   -504.1401985 -0.143186E+00  0.800E-01    0.04       1.0  T
   7   -504.4696699 -0.329471E+00  0.699E-01    0.03       1.0  T
   8   -504.4739215 -0.425166E-02  0.708E-01    0.13       1.0  T
   9   -504.5774816 -0.103560E+00  0.712E-01    0.10       1.0  T
  10   -504.6357979 -0.583163E-01  0.629E-01    0.04       1.0  T
  11   -504.8413430 -0.205545E+00  0.468E-01    0.01       1.0  T
  12   -504.8405476  0.795357E-03  0.500E-01    0.03       1.0  T
  13   -504.9243400 -0.837923E-01  0.459E-01    0.01       1.0  T
  14   -504.8409814  0.833586E-01  0.439E-01    0.00       1.0  T
  15   -505.0389340 -0.197953E+00  0.302E-01    0.01       1.0  T
  16   -505.1385691 -0.996351E-01  0.187E-01    0.01       1.0  T
  17   -505.1291265  0.944261E-02  0.183E-01    0.01       1.0  T
  18   -505.1558167 -0.266903E-01  0.145E-01    0.01       1.0  T
  19   -505.0865066  0.693101E-01  0.234E-01    0.01       1.0  T
  20   -505.1757111 -0.892045E-01  0.897E-02    0.00       1.0  T
  21   -505.1721329  0.357815E-02  0.891E-02    0.00       1.0  T
  22   -505.1824638 -0.103309E-01  0.471E-02    0.01       1.0  T
  23   -505.1849244 -0.246064E-02  0.232E-02    0.00       1.0  T
  24   -505.1843139  0.610567E-03  0.303E-02    0.00       1.0  T
  25   -505.1851894 -0.875502E-03  0.179E-02    0.00       1.0  T
  26   -505.1852489 -0.595199E-04  0.162E-02    0.00       1.0  T
  27   -505.1855194 -0.270545E-03  0.989E-03    0.00       1.0  T
  28   -505.1855225 -0.312766E-05  0.972E-03    0.00       1.0  T
  29   -505.1855301 -0.757459E-05  0.917E-03    0.00       1.0  T
  30   -505.1855895 -0.594170E-04  0.669E-03    0.00       1.0  T
  31   -505.1856220 -0.324251E-04  0.459E-03    0.00       1.3  T
  32   -505.1856265 -0.448784E-05  0.399E-03    0.00       1.5  T
  33   -505.1856386 -0.121790E-04  0.265E-03    0.00       2.3  T
  34   -505.1856484 -0.975484E-05  0.948E-04    0.00       6.4  T
  35   -505.1856484 -0.601882E-07  0.947E-04    0.00       6.4  T
  36   -505.1856482  0.287217E-06  0.908E-04    0.00       6.7  T
     SCC iter.                  ...        0 min,  8.871 sec
     gradient                   ...        0 min,  0.500 sec
 * total energy  :  -496.4462090 Eh     change       -0.2719488E-01 Eh
   gradient norm :     0.0799148 Eh/α   predicted    -0.2079828E-01 ( -23.52%)
   displ. norm   :     0.8361552 α      lambda       -0.3160957E-01
   maximum displ.:     0.3204932 α      in ANC's #45, #21, #33, ...
 * RMSD in coord.:     0.8019823 α      energy gain  -0.1263769E+01 Eh

generating ANC from model Hessian ...
Using Lindh-Hessian (1995)
 Shifting diagonal of input Hessian by    1.0034824641836830E-002
 Lowest  eigenvalues of input Hessian
    0.010000    0.010000    0.010005    0.010012    0.010013    0.010016
    0.010019    0.010020    0.010021    0.010023    0.010024    0.010024
    0.010028    0.010029    0.010031    0.010031    0.010032    0.010033
 Highest eigenvalues
    2.487585    2.689410    2.917368    2.924106    2.930426    2.930738


........................................................................
.............................. CYCLE   21 ..............................
........................................................................
   1   -505.0215000 -0.505022E+03  0.386E-01    0.00       0.0  T
   2   -472.5009528  0.325205E+02  0.580E+00    0.09       1.0  T
   3   -503.9595026 -0.314585E+02  0.113E+00    0.20       1.0  T
   4   -504.1550951 -0.195593E+00  0.823E-01    0.04       1.0  T
   5   -504.3557062 -0.200611E+00  0.823E-01    0.07       1.0  T
   6   -504.6137637 -0.258058E+00  0.640E-01    0.01       1.0  T
   7   -504.4139108  0.199853E+00  0.687E-01    0.02       1.0  T
   8   -504.5281425 -0.114232E+00  0.628E-01    0.06       1.0  T
   9   -504.6580648 -0.129922E+00  0.638E-01    0.01       1.0  T
  10   -504.6271666  0.308982E-01  0.679E-01    0.02       1.0  T
  11   -504.7172458 -0.900792E-01  0.609E-01    0.01       1.0  T
  12   -505.0541837 -0.336938E+00  0.316E-01    0.01       1.0  T
  13   -504.9899456  0.642381E-01  0.364E-01    0.02       1.0  T
[...]
 417:  0.00 418:  0.00 419:  0.00 420:  0.00 421:  0.00 422:  0.00 423:  0.00 424:  0.00
 425:  0.00 426:  0.00 427:  0.00 428:  0.00 429:  0.00 430:  0.00 431:  0.00 432:  0.00
 433:  0.00 434:  0.00 435:  0.00 436:  0.00 437:  0.00 438:  0.00 439:  0.00 440:  0.00
 441:  0.00 442:  0.00 443:  0.00 444:  0.00 445:  0.00 446:  0.00 447:  0.00 448:  0.00
 449:  0.00 450:  0.00 451:  0.00 452:  0.00 453:  0.00 454:  0.00 455:  0.00 456:  0.00
 457:  0.00 458:  0.00 459:  0.00 460:  0.00 461:  0.00 462:  0.00 463:  0.00 464:  0.00
 465:  0.00 466:  0.00 467:  0.00 468:  0.00 469:  0.00 470:  0.00 471:  0.00 472:  0.00
 473:  0.00 474:  0.00 475:  0.00 476:  0.00 477:  0.00 478:  0.00 479:  0.00 480:  0.00
 481:  0.00 482:  0.00 483:  0.00 484:  0.00 485:  0.00 486:  0.00 487:  0.00 488:  0.00
 489:  0.00 490:  0.00 491:  0.00 492:  0.00 493:  0.00 494:  0.00 495:  0.00 496:  0.00
 497:  0.00 498:  0.00 499:  0.00 500:  0.00 501:  0.00 502:  0.00 503:  0.00 504:  0.00
 505:  0.00 506:  0.00 507:  0.00 508:  0.00 509:  0.00 510:  0.00 511:  0.00 512:  0.00
 513:  0.00 514:  0.00 515:  0.00 516:  0.00 517:  0.00 518:  0.00 519:  0.00 520:  0.00
 521:  0.00 522:  0.00 523:  0.00 524:  0.00 525:  0.00 526:  0.00 527:  0.00 528:  0.00
 529:  0.00 530:  0.00 531:  0.00 532:  0.00 533:  0.00 534:  0.00 535:  0.00 536:  0.00
 537:  0.00 538:  0.00 539:  0.00 540:  0.00 541:  0.00 542:  0.00 543:  0.00 544:  0.00
 545:  0.00 546:  0.00 547:  0.00 548:  0.00 549:  0.00 550:  0.00 551:  0.00 552:  0.00
 553:  0.00 554:  0.00 555:  0.00 556:  0.00 557:  0.00 558:  0.00 559:  0.00 560:  0.00
 561:  0.00 562:  0.00 563:  0.00 564:  0.00 565:  0.00 566:  0.00 567:  0.00 568:  0.00
 569:  0.00 570:  0.00 571:  0.00 572:  0.00 573:  0.00 574:  0.00 575:  0.00 576:  0.00
 577:  0.00 578:  0.00 579:  0.00 580:  0.00 581:  0.00 582:  0.00 583:  0.00 584:  0.00
 585:  0.00 586:  0.00 587:  0.00 588:  0.00 589:  0.00 590:  0.00 591:  0.00 592:  0.00
 593:  0.00 594:  0.00 595:  0.00 596:  0.00 597:  0.00 598:  0.00 599:  0.00 600:  0.00
 601:  0.00 602:  0.00 603:  0.00 604:  0.00 605:  0.00 606:  0.00 607:  0.00 608:  0.00
 609:  0.00 610:  0.00 611:  0.00 612:  0.00 613:  0.00 614:  0.00 615:  0.00 616:  0.00
 617:  0.00 618:  0.00 619:  0.00 620:  0.00 621:  0.00 622:  0.00 623:  0.00 624:  0.00
 625:  0.00 626:  0.00 627:  0.00 628:  0.00 629:  0.00 630:  0.00 631:  0.00 632:  0.00
 633:  0.00 634:  0.00 635:  0.00 636:  0.00 637:  0.00 638:  0.00 639:  0.00 640:  0.00
 641:  0.00 642:  0.00 643:  0.00 644:  0.00 645:  0.00 646:  0.00 647:  0.00 648:  0.00
 649:  0.00 650:  0.00 651:  0.00 652:  0.00 653:  0.00 654:  0.00 655:  0.00 656:  0.00
 657:  0.00 658:  0.00 659:  0.00 660:  0.00 661:  0.00 662:  0.00 663:  0.00 664:  0.00
 665:  0.00 666:  0.00 667:  0.00 668:  0.00 669:  0.00 670:  0.00 671:  0.00 672:  0.00
 673:  0.00 674:  0.00 675:  0.00 676:  0.00 677:  0.00 678:  0.00 679:  0.00 680:  0.00
 681:  0.00 682:  0.00 683:  0.00 684:  0.00 685:  0.00 686:  0.00 687:  0.00 688:  0.00
 689:  0.00 690:  0.00 691:  0.00 692:  0.00 693:  0.00 694:  0.00 695:  0.00 696:  0.00
 697:  0.00 698:  0.00 699:  0.00 700:  0.00 701:  0.00 702:  0.00 703:  0.00 704:  0.00
 705:  0.00 706:  0.00 707:  0.00 708:  0.00 709:  0.00 710:  0.00 711:  0.00 712:  0.00
 713:  0.00 714:  0.00 715:  0.00 716:  0.00 717:  0.00 718:  0.00 719:  0.00 720:  0.00
 721:  0.00 722:  0.00 723:  0.00 724:  0.00 725:  0.00 726:  0.00 727:  0.00 728:  0.00
 729:  0.00 730:  0.00 731:  0.00 732:  0.00 733:  0.00 734:  0.00 735:  0.00 736:  0.00
 737:  0.00 738:  0.00 739:  0.00 740:  0.00 741:  0.00 742:  0.00 743:  0.00 744:  0.00
 745:  0.00 746:  0.00 747:  0.00 748:  0.00 749:  0.00 750:  0.00 751:  0.00 752:  0.00
 753:  0.00 754:  0.00 755:  0.00 756:  0.00 757:  0.00 758:  0.00 759:  0.00 760:  0.00
 761:  0.00 762:  0.00 763:  0.00 764:  0.00 765:  0.00 766:  0.00 767:  0.00 768:  0.00
 769:  0.00 770:  0.00 771:  0.00 772:  0.00 773:  0.00 774:  0.00 775:  0.00 776:  0.00
 777:  0.00 778:  0.00 779:  0.00 780:  0.00 781:  0.00 782:  0.00 783:  0.00 784:  0.00
 785:  0.00 786:  0.00 787:  0.00 788:  0.00 789:  0.00 790:  0.00 791:  0.00 792:  0.00
 793:  0.00 794:  0.00 795:  0.00 796:  0.00 797:  0.00 798:  0.00 799:  0.00 800:  0.00
 801:  0.00 802:  0.00 803:  0.00 804:  0.00 805:  0.00 806:  0.00 807:  0.00 808:  0.00
 809:  0.00 810:  0.00 811:  0.00 812:  0.00 813:  0.00
 output can be read by thermo (or use thermo option).
 writing <g98.out> molden fake output.
 recommended (thermochemical) frequency scaling factor: 1.0
           -------------------------------------------------
          |             Thermodynamic Functions             |
           -------------------------------------------------
 symmetry recognition skipped because # atoms >         200
 inverting freq            1   4.6320554412240265     
 inverting freq            2   4.2504934469727775     
 inverting freq            3   2.7519548618329601     
 inverting freq            4   2.3443819629652616     

          ...................................................
          :                      SETUP                      :
          :.................................................:
          :  # frequencies                         805      :
          :  # imaginary freq.                       0      :
          :  linear?                             false      :
          :  only rotor calc.                    false      :
          :  symmetry                               C1      :
          :  rotational number                       1      :
          :  scaling factor                  1.0000000      :
          :  rotor cutoff                   50.0000000 cm⁻¹ :
          :  imag. cutoff                  -20.0000000 cm⁻¹ :
          :.................................................:

    mode    ω/cm⁻¹     T·S(HO)/kcal·mol⁻¹    T·S(FR)/kcal·mol⁻¹   T·S(vib)
   ------------------------------------------------------------------------
       1      4.63    -2.84441 (  0.01%)    -1.76132 ( 99.99%)    -1.76140
       2      4.25    -2.89534 (  0.01%)    -1.78678 ( 99.99%)    -1.78684
       3      2.75    -3.15290 (  0.00%)    -1.91557 (100.00%)    -1.91558
       4      2.34    -3.24787 (  0.00%)    -1.96305 (100.00%)    -1.96306
       5      1.78    -3.41105 (  0.00%)    -2.04464 (100.00%)    -2.04464
       6      2.17    -3.29348 (  0.00%)    -1.98585 (100.00%)    -1.98586
       7      2.33    -3.25236 (  0.00%)    -1.96530 (100.00%)    -1.96530
       8      3.27    -3.05125 (  0.00%)    -1.86474 (100.00%)    -1.86476
       9      3.87    -2.95040 (  0.00%)    -1.81431 (100.00%)    -1.81435
      10      4.72    -2.83280 (  0.01%)    -1.75551 ( 99.99%)    -1.75560
      11      4.78    -2.82575 (  0.01%)    -1.75198 ( 99.99%)    -1.75207
      12      4.98    -2.80207 (  0.01%)    -1.74014 ( 99.99%)    -1.74025
      13      5.51    -2.74172 (  0.01%)    -1.70997 ( 99.99%)    -1.71012
      14      7.81    -2.53491 (  0.06%)    -1.60655 ( 99.94%)    -1.60711
      15      9.82    -2.39953 (  0.15%)    -1.53886 ( 99.85%)    -1.54013
      16      9.97    -2.39009 (  0.16%)    -1.53413 ( 99.84%)    -1.53549
      17     10.43    -2.36350 (  0.19%)    -1.52083 ( 99.81%)    -1.52243
      18     13.67    -2.20328 (  0.56%)    -1.44070 ( 99.44%)    -1.44494
      19     14.07    -2.18614 (  0.62%)    -1.43213 ( 99.38%)    -1.43683
      20     16.74    -2.08324 (  1.24%)    -1.38066 ( 98.76%)    -1.38938
      21     20.36    -1.96737 (  2.68%)    -1.32268 ( 97.32%)    -1.33994
      22     22.58    -1.90604 (  4.00%)    -1.29199 ( 96.00%)    -1.31653
      23     24.32    -1.86234 (  5.30%)    -1.27012 ( 94.70%)    -1.30149
      24     26.86    -1.80342 (  7.69%)    -1.24062 ( 92.31%)    -1.28389
      25     28.84    -1.76129 (  9.97%)    -1.21952 ( 90.03%)    -1.27354
      26     31.69    -1.70566 ( 13.89%)    -1.19166 ( 86.11%)    -1.26306
      27     34.26    -1.65947 ( 18.07%)    -1.16852 ( 81.93%)    -1.25722
      28     36.34    -1.62468 ( 21.82%)    -1.15108 ( 78.18%)    -1.25440
      29     36.97    -1.61445 ( 23.02%)    -1.14595 ( 76.98%)    -1.25380
      30     37.03    -1.61353 ( 23.13%)    -1.14549 ( 76.87%)    -1.25375
      31     37.27    -1.60974 ( 23.59%)    -1.14359 ( 76.41%)    -1.25356
      32     37.55    -1.60538 ( 24.13%)    -1.14140 ( 75.87%)    -1.25335
      33     37.82    -1.60105 ( 24.67%)    -1.13923 ( 75.33%)    -1.25315
      34     37.98    -1.59866 ( 24.97%)    -1.13803 ( 75.03%)    -1.25305
      35     38.59    -1.58921 ( 26.19%)    -1.13329 ( 73.81%)    -1.25269
      36     38.65    -1.58831 ( 26.31%)    -1.13284 ( 73.69%)    -1.25266
      37     39.24    -1.57936 ( 27.50%)    -1.12836 ( 72.50%)    -1.25237
      38     40.55    -1.55991 ( 30.20%)    -1.11860 ( 69.80%)    -1.25187
      39     42.94    -1.52618 ( 35.22%)    -1.10168 ( 64.78%)    -1.25119
      40     44.77    -1.50145 ( 39.13%)    -1.08927 ( 60.87%)    -1.25056
      41     50.37    -1.43190 ( 50.75%)    -1.05434 ( 49.25%)    -1.24594
      42     56.07    -1.36877 ( 61.26%)    -1.02260 ( 38.74%)    -1.23468
      43     56.17    -1.36779 ( 61.42%)    -1.02211 ( 38.58%)    -1.23443
      44     61.59    -1.31350 ( 69.72%)    -0.99478 ( 30.28%)    -1.21700
      45     65.48    -1.27750 ( 74.63%)    -0.97664 ( 25.37%)    -1.20118
      46     74.87    -1.19890 ( 83.41%)    -0.93696 ( 16.59%)    -1.15544
      47     80.68    -1.15510 ( 87.15%)    -0.91480 ( 12.85%)    -1.12421
      48     81.73    -1.14756 ( 87.71%)    -0.91098 ( 12.29%)    -1.11849
      49     82.19    -1.14427 ( 87.95%)    -0.90932 ( 12.05%)    -1.11597
      50     82.42    -1.14262 ( 88.07%)    -0.90848 ( 11.93%)    -1.11469
      51     82.54    -1.14177 ( 88.13%)    -0.90805 ( 11.87%)    -1.11404
      52     82.59    -1.14145 ( 88.16%)    -0.90789 ( 11.84%)    -1.11379
      53     86.67    -1.11327 ( 90.03%)    -0.89360 (  9.97%)    -1.09136
      54     87.24    -1.10943 ( 90.26%)    -0.89166 (  9.74%)    -1.08822
      55     92.84    -1.07314 ( 92.24%)    -0.87322 (  7.76%)    -1.05763
      56     94.32    -1.06392 ( 92.68%)    -0.86853 (  7.32%)    -1.04962
      57     99.22    -1.03446 ( 93.94%)    -0.85353 (  6.06%)    -1.02350
      58    106.26    -0.99468 ( 95.33%)    -0.83324 (  4.67%)    -0.98714
      59    112.96    -0.95928 ( 96.30%)    -0.81512 (  3.70%)    -0.95395
      60    113.14    -0.95834 ( 96.33%)    -0.81464 (  3.67%)    -0.95306
      61    115.95    -0.94416 ( 96.66%)    -0.80736 (  3.34%)    -0.93958
      62    116.20    -0.94293 ( 96.69%)    -0.80673 (  3.31%)    -0.93841
      63    116.31    -0.94237 ( 96.70%)    -0.80645 (  3.30%)    -0.93789
      64    116.47    -0.94159 ( 96.72%)    -0.80605 (  3.28%)    -0.93714
      65    116.66    -0.94064 ( 96.74%)    -0.80556 (  3.26%)    -0.93623
      66    119.12    -0.92860 ( 96.99%)    -0.79937 (  3.01%)    -0.92471
      67    120.92    -0.91999 ( 97.16%)    -0.79495 (  2.84%)    -0.91644
      68    121.01    -0.91955 ( 97.17%)    -0.79472 (  2.83%)    -0.91602
      69    122.10    -0.91440 ( 97.26%)    -0.79207 (  2.74%)    -0.91106
      70    134.63    -0.85832 ( 98.13%)    -0.76312 (  1.87%)    -0.85655
      71    137.19    -0.84755 ( 98.27%)    -0.75754 (  1.73%)    -0.84599
      72    138.67    -0.84141 ( 98.34%)    -0.75436 (  1.66%)    -0.83996
      73    142.00    -0.82790 ( 98.49%)    -0.74734 (  1.51%)    -0.82668
      74    143.75    -0.82091 ( 98.56%)    -0.74370 (  1.44%)    -0.81980
      75    144.39    -0.81837 ( 98.58%)    -0.74238 (  1.42%)    -0.81730
      76    145.43    -0.81431 ( 98.62%)    -0.74027 (  1.38%)    -0.81329
      77    145.96    -0.81223 ( 98.64%)    -0.73918 (  1.36%)    -0.81124
      78    146.83    -0.80885 ( 98.67%)    -0.73742 (  1.33%)    -0.80790
      79    147.69    -0.80552 ( 98.70%)    -0.73569 (  1.30%)    -0.80462
      80    150.03    -0.79663 ( 98.78%)    -0.73104 (  1.22%)    -0.79583
      81    152.10    -0.78883 ( 98.85%)    -0.72697 (  1.15%)    -0.78812
      82    153.20    -0.78475 ( 98.88%)    -0.72484 (  1.12%)    -0.78408
      83    153.39    -0.78406 ( 98.88%)    -0.72448 (  1.12%)    -0.78340
      84    166.08    -0.73923 ( 99.19%)    -0.70093 (  0.81%)    -0.73892
      85    166.09    -0.73918 ( 99.19%)    -0.70090 (  0.81%)    -0.73887
      86    166.32    -0.73843 ( 99.19%)    -0.70051 (  0.81%)    -0.73812
      87    166.71    -0.73710 ( 99.20%)    -0.69981 (  0.80%)    -0.73680
      88    167.11    -0.73574 ( 99.21%)    -0.69909 (  0.79%)    -0.73545
      89    167.73    -0.73369 ( 99.22%)    -0.69801 (  0.78%)    -0.73341
      90    168.17    -0.73220 ( 99.22%)    -0.69722 (  0.78%)    -0.73192
      91    171.18    -0.72226 ( 99.28%)    -0.69197 (  0.72%)    -0.72205
      92    183.15    -0.68457 ( 99.45%)    -0.67194 (  0.55%)    -0.68450
      93    183.61    -0.68318 ( 99.45%)    -0.67121 (  0.55%)    -0.68312
      94    183.99    -0.68204 ( 99.46%)    -0.67059 (  0.54%)    -0.68198
      95    184.26    -0.68122 ( 99.46%)    -0.67016 (  0.54%)    -0.68116
      96    184.49    -0.68053 ( 99.46%)    -0.66979 (  0.54%)    -0.68047
      97    184.80    -0.67958 ( 99.47%)    -0.66928 (  0.53%)    -0.67952
      98    184.84    -0.67947 ( 99.47%)    -0.66922 (  0.53%)    -0.67941
      99    187.33    -0.67206 ( 99.50%)    -0.66526 (  0.50%)    -0.67202
     100    191.18    -0.66082 ( 99.53%)    -0.65924 (  0.47%)    -0.66081
     101    191.73    -0.65922 ( 99.54%)    -0.65838 (  0.46%)    -0.65921
     102    193.81    -0.65328 ( 99.56%)    -0.65519 (  0.44%)    -0.65329
     103    196.66    -0.64523 ( 99.58%)    -0.65086 (  0.42%)    -0.64526
     104    199.59    -0.63710 ( 99.61%)    -0.64647 (  0.39%)    -0.63714
     105    201.58    -0.63166 ( 99.62%)    -0.64354 (  0.38%)    -0.63171
     106    202.73    -0.62856 ( 99.63%)    -0.64186 (  0.37%)    -0.62860
     107    203.29    -0.62704 ( 99.64%)    -0.64104 (  0.36%)    -0.62709
     108    203.41    -0.62671 ( 99.64%)    -0.64086 (  0.36%)    -0.62676
     109    203.45    -0.62661 ( 99.64%)    -0.64080 (  0.36%)    -0.62666
     110    203.96    -0.62525 ( 99.64%)    -0.64006 (  0.36%)    -0.62530
     111    204.11    -0.62485 ( 99.64%)    -0.63985 (  0.36%)    -0.62490
     112    206.31    -0.61898 ( 99.66%)    -0.63667 (  0.34%)    -0.61904
     113    206.40    -0.61874 ( 99.66%)    -0.63654 (  0.34%)    -0.61881
     114    209.04    -0.61180 ( 99.67%)    -0.63277 (  0.33%)    -0.61187
     115    209.28    -0.61120 ( 99.68%)    -0.63244 (  0.32%)    -0.61127
     116    211.57    -0.60526 ( 99.69%)    -0.62921 (  0.31%)    -0.60533
     117    211.62    -0.60515 ( 99.69%)    -0.62915 (  0.31%)    -0.60523
     118    212.14    -0.60381 ( 99.69%)    -0.62842 (  0.31%)    -0.60389
     119    213.16    -0.60120 ( 99.70%)    -0.62699 (  0.30%)    -0.60128
     120    214.65    -0.59741 ( 99.71%)    -0.62493 (  0.29%)    -0.59749
     121    215.78    -0.59456 ( 99.71%)    -0.62337 (  0.29%)    -0.59465
     122    216.48    -0.59283 ( 99.72%)    -0.62242 (  0.28%)    -0.59291
     123    216.82    -0.59198 ( 99.72%)    -0.62195 (  0.28%)    -0.59207
     124    217.12    -0.59123 ( 99.72%)    -0.62155 (  0.28%)    -0.59132
     125    217.29    -0.59080 ( 99.72%)    -0.62131 (  0.28%)    -0.59089
     126    217.58    -0.59007 ( 99.72%)    -0.62091 (  0.28%)    -0.59015
     127    218.70    -0.58731 ( 99.73%)    -0.61940 (  0.27%)    -0.58740
     128    219.12    -0.58627 ( 99.73%)    -0.61883 (  0.27%)    -0.58636
     129    219.69    -0.58487 ( 99.73%)    -0.61806 (  0.27%)    -0.58496
     130    220.72    -0.58235 ( 99.74%)    -0.61668 (  0.26%)    -0.58244
     131    220.76    -0.58224 ( 99.74%)    -0.61661 (  0.26%)    -0.58233
     132    228.34    -0.56410 ( 99.77%)    -0.60662 (  0.23%)    -0.56419
     133    229.16    -0.56216 ( 99.77%)    -0.60555 (  0.23%)    -0.56226
     134    230.77    -0.55841 ( 99.78%)    -0.60348 (  0.22%)    -0.55851
     135    235.30    -0.54804 ( 99.80%)    -0.59772 (  0.20%)    -0.54814
     136    241.76    -0.53366 ( 99.82%)    -0.58970 (  0.18%)    -0.53377
     137    254.96    -0.50567 ( 99.85%)    -0.57395 (  0.15%)    -0.50577
     138    258.94    -0.49759 ( 99.86%)    -0.56936 (  0.14%)    -0.49769
     139    259.17    -0.49712 ( 99.86%)    -0.56909 (  0.14%)    -0.49722
     140    259.32    -0.49681 ( 99.86%)    -0.56892 (  0.14%)    -0.49691
     141    259.46    -0.49655 ( 99.86%)    -0.56877 (  0.14%)    -0.49665
     142    259.58    -0.49629 ( 99.86%)    -0.56863 (  0.14%)    -0.49639
     143    259.71    -0.49603 ( 99.86%)    -0.56848 (  0.14%)    -0.49613
     144    259.84    -0.49577 ( 99.86%)    -0.56833 (  0.14%)    -0.49587
     145    259.90    -0.49565 ( 99.86%)    -0.56826 (  0.14%)    -0.49575
     146    263.30    -0.48891 ( 99.87%)    -0.56442 (  0.13%)    -0.48901
     147    269.61    -0.47666 ( 99.88%)    -0.55740 (  0.12%)    -0.47676
     148    277.02    -0.46273 ( 99.89%)    -0.54937 (  0.11%)    -0.46283
     149    285.03    -0.44821 ( 99.91%)    -0.54092 (  0.09%)    -0.44830
     150    292.92    -0.43441 ( 99.92%)    -0.53283 (  0.08%)    -0.43449
   ------------------------------------------------------------------------

   temp. (K)  partition function   enthalpy   heat capacity  entropy
                                   cal/mol     cal/K/mol   cal/K/mol   J/K/mol
 298.15  VIB  0.344E+90           100416.791    634.506    646.315
         ROT  0.179E+11              888.752      2.981     49.893
         INT  0.614+100           101305.543    637.487    696.208
         TR   0.149E+30             1481.254      4.968     49.711
         TOT                      102786.7973   642.4548   745.9192  3120.9259

       T/K    H(0)-H(T)+PV         H(T)/Eh          T*S/Eh         G(T)/Eh
   ------------------------------------------------------------------------
    298.15    0.163801E+00    0.200921E+01    0.354410E+00    0.165480E+01
   ------------------------------------------------------------------------

         :::::::::::::::::::::::::::::::::::::::::::::::::::::
         ::                  THERMODYNAMIC                  ::
         :::::::::::::::::::::::::::::::::::::::::::::::::::::
         :: total free energy        -495.273709378910 Eh   ::
         ::.................................................::
         :: total energy             -496.928506486733 Eh   ::
         :: zero point energy           1.845406195038 Eh   ::
         :: G(RRHO) w/o ZPVE           -0.190609087215 Eh   ::
         :: G(RRHO) contrib.            1.654797107823 Eh   ::
         :::::::::::::::::::::::::::::::::::::::::::::::::::::

optimized geometry written to: xtbopt.xyz


           -------------------------------------------------
          | TOTAL ENERGY             -496.928506486733 Eh   |
          | TOTAL ENTHALPY           -494.919299103727 Eh   |
          | TOTAL FREE ENERGY        -495.273709378910 Eh   |
          | GRADIENT NORM               0.000547626154 Eh/α |
          | HOMO-LUMO GAP               0.000019701318 eV   |
           -------------------------------------------------

------------------------------------------------------------------------
 * finished run on 2021/11/20 at 19:01:22.435     
------------------------------------------------------------------------
 total:
 * wall-time:     0 d,  2 h,  3 min,  5.819 sec
 *  cpu-time:     0 d,  2 h,  3 min,  5.911 sec
 * ratio c/w:     1.000 speedup
 SCF:
 * wall-time:     0 d,  0 h,  0 min, 17.467 sec
 *  cpu-time:     0 d,  0 h,  0 min, 17.468 sec
 * ratio c/w:     1.000 speedup
 ANC optimizer:
 * wall-time:     0 d,  0 h, 11 min,  0.323 sec
 *  cpu-time:     0 d,  0 h, 11 min,  0.317 sec
 * ratio c/w:     1.000 speedup
 analytical hessian:
 * wall-time:     0 d,  1 h, 51 min, 47.596 sec
 *  cpu-time:     0 d,  1 h, 51 min, 47.693 sec
 * ratio c/w:     1.000 speedup

