271
 energy: -495.182440062628 gnorm: 1.006007163393 xtb: 6.4.1 (bd6e46d)
Cu       42.10772900000000    0.04415900000000   -0.01372200000000
C        44.43672000000000   -3.10263400000000    1.30896700000000
C        45.35282700000000   -2.15842600000000    1.25868400000000
C        44.94164800000000   -1.10452200000000    0.33739300000000
C        45.56051800000000    0.01982400000000   -0.00901700000000
C        44.85647600000000    1.23977200000000   -0.37312300000000
C        45.18458700000000    2.19982700000000   -1.22059600000000
C        44.14980700000001    3.21611200000000   -1.23749400000000
C        43.21353900000000    2.83965000000000   -0.39060200000000
N        43.61552900000000    1.60663900000000    0.17321500000000
C        41.95246500000000    3.48465000000000   -0.01145100000000
C        40.85724700000000    2.84986700000000    0.33931000000000
C        39.78362200000000    3.16782300000000    1.30833800000000
C        38.94605900000001    2.17106900000000    1.23117100000000
C        39.38435700000000    1.16738600000000    0.25071900000000
N        40.48929500000000    1.60623900000000   -0.23357300000000
C        38.77352200000000   -0.08588500000000   -0.16282900000000
C        39.43768200000001   -1.19039100000000   -0.41725300000000
C        39.06383400000000   -2.25333300000000   -1.37478000000000
C        40.01258100000000   -3.14708900000000   -1.28576100000000
C        40.99830500000000   -2.70963900000000   -0.30288300000000
N        40.64525900000000   -1.56383400000000    0.19391400000000
C        42.22919300000000   -3.36570900000000    0.14283800000000
C        43.35223400000000   -2.71984800000000    0.40995900000000
N        43.68083400000000   -1.47240700000000   -0.18844500000000
H        44.49698200000000   -4.01241400000000    1.92651300000000
H        46.26915500000000   -2.19837600000000    1.83673300000000
H        46.11195200000001    2.21662300000000   -1.82174000000000
H        44.16670600000000    4.12080100000000   -1.85011500000000
H        41.90474200000001    4.57945200000000   -0.01522800000000
H        39.73080000000001    4.04654800000000    1.93333000000000
H        38.03442900000000    2.13539900000000    1.84849600000000
H        37.67527100000000   -0.08297400000000   -0.26209900000000
H        38.19497800000001   -2.30579800000000   -2.02373100000000
H        40.00973500000000   -4.06339700000000   -1.88452100000000
H        42.19371000000001   -4.46151100000000    0.25476300000000
Cu      125.39376200000001   -0.00321700000000   -0.01815500000000
C       123.06477099999999    2.84357500000000    1.86534900000000
C       122.14866400000000    1.92508600000000    1.64077600000000
C       122.55984300000000    1.06038900000000    0.53996200000000
C       121.94097300000000    0.01982400000000   -0.00901700000000
C       122.64501500000000   -1.11140100000000   -0.59312000000000
C       122.31690400000001   -1.89757300000000   -1.60398700000000
C       123.35168400000001   -2.89308200000000   -1.80912700000000
C       124.28795200000000   -2.68026600000000   -0.90709700000000
N       123.88596200000001   -1.57325400000000   -0.12432600000000
C       125.54902700000001   -3.38440700000000   -0.65418400000000
C       126.64424400000000   -2.82571400000000   -0.19175100000000
C       127.71786899999999   -3.31791900000000    0.70147100000000
C       128.55543200000000   -2.32415200000000    0.81055700000000
C       128.11713499999999   -1.15600400000000    0.03332200000000
N       127.01219700000001   -1.49739600000000   -0.52397800000000
C       128.72796900000000    0.15223200000000   -0.14054800000000
C       128.06380899999999    1.28476500000000   -0.18565400000000
C       128.43765800000000    2.50689100000000   -0.92936900000000
C       127.48891000000000    3.36861800000000   -0.67609100000000
C       126.50318700000000    2.75642300000000    0.20857200000000
N       126.85623200000001    1.53834500000000    0.48418300000000
C       125.27229900000000    3.31841800000000    0.76826700000000
C       124.14925700000002    2.63421300000000    0.91093500000000
N       123.82065700000000    1.51943800000000    0.09150000000000
H       123.00450900000001    3.62300000000000    2.64095400000000
H       121.23233600000000    1.85710500000000    2.21620100000000
H       121.38953900000000   -1.80255600000000   -2.19781100000000
H       123.33478500000000   -3.66841600000000   -2.57894700000000
H       125.59674900000000   -4.45950500000000   -0.86099700000000
H       127.77069100000000   -4.29733600000000    1.15259800000000
H       129.46706300000000   -2.40362400000000    1.42378200000000
H       129.82622000000001    0.16778800000000   -0.23863600000000
H       129.30651300000000    2.67883500000000   -1.55732200000000
H       127.49175600000001    4.38009900000000   -1.09446800000000
H       125.30778100000001    4.37443400000000    1.08153600000000
C        48.45522200000000    0.01778800000000   -0.01012900000000
C        49.66319900000001    0.02524300000000   -0.00843400000000
C        51.08196700000000    0.02594000000000   -0.00329700000000
C        52.29748300000000    0.01778800000000   -0.01012900000000
C        61.80537300000000    0.01778800000000   -0.01012900000000
C        63.01335000000000    0.02524300000000   -0.00843400000000
C        64.43211700000001    0.02594000000000   -0.00329700000000
C        65.64763400000000    0.01778800000000   -0.01012900000000
C        75.15552300000000    0.01778800000000   -0.01012900000000
C        76.36350000000000    0.02524300000000   -0.00843400000000
C        77.78226800000002    0.02594000000000   -0.00329700000000
C        78.99778400000001    0.01778800000000   -0.01012900000000
C        88.50567400000000    0.01778800000000   -0.01012900000000
C        89.71365000000000    0.02524300000000   -0.00843400000000
C        91.13241800000002    0.02594000000000   -0.00329700000000
C        92.34793500000001    0.01778800000000   -0.01012900000000
C       101.85582400000000    0.01778800000000   -0.01012900000000
C       103.06380100000001    0.02524300000000   -0.00843400000000
C       104.48256900000000    0.02594000000000   -0.00329700000000
C       105.69808500000001    0.01778800000000   -0.01012900000000
C       115.20597500000000    0.01778800000000   -0.01012900000000
C       116.41395100000001    0.02524300000000   -0.00843400000000
C       117.83271900000000    0.02594000000000   -0.00329700000000
C       119.04823600000000    0.01778800000000   -0.01012900000000
Cu       57.08606500000000    0.03792400000000    0.00200900000000
C        54.80625400000000   -3.22352300000000   -0.90765700000000
C        53.85004500000000   -2.32417300000000   -1.00968300000000
C        54.24241900000000   -1.16186800000000   -0.20716700000000
C        53.60730200000000   -0.01059600000000    0.00509900000000
C        54.29275900000000    1.26400400000000    0.23132800000000
C        53.95746900000000    2.34260400000000    0.93556900000000
C        54.98201000000001    3.36192100000000    0.84498700000000
C        55.93260800000001    2.86499600000000    0.07162200000000
N        55.55561400000001    1.54839100000000   -0.34452000000000
C        57.17974700000001    3.47669800000000   -0.34524300000000
C        58.28129900000000    2.80944100000000   -0.67701500000000
C        59.27484500000000    3.06142500000000   -1.71118400000000
C        60.16872900000000    2.10056600000000   -1.60970000000000
C        59.78903000000000    1.18868200000000   -0.50572300000000
N        58.69411500000000    1.63800100000000    0.00164300000000
C        60.44623700000001   -0.01059600000000    0.00509900000000
C        59.82282600000000   -1.07977800000000    0.46661600000000
C        60.20153900000000   -2.01189300000000    1.54209100000000
C        59.26087000000000   -2.92603900000000    1.62795800000000
C        58.25256900000000   -2.63026000000000    0.63053000000000
N        58.59034300000000   -1.57688300000000   -0.01876500000000
C        57.00017500000000   -3.33726700000000    0.29933700000000
C        55.88629900000000   -2.74057100000000   -0.04800400000000
N        55.50418700000001   -1.45781400000000    0.36967900000000
H        54.80659900000000   -4.21459700000000   -1.39889100000000
H        52.94151000000001   -2.44586700000000   -1.59083100000000
H        53.03261700000000    2.46095500000000    1.51249500000000
H        55.00930500000000    4.35108500000000    1.30163800000000
H        57.26568700000000    4.57407500000000   -0.40726600000000
H        59.30751800000000    3.86764100000000   -2.43800800000000
H        61.06179000000000    1.98759800000000   -2.24347500000000
H        61.11628900000000   -1.93748700000000    2.15226100000000
H        59.27991600000001   -3.73964700000000    2.33622500000000
H        57.03866000000001   -4.43722700000000    0.35837300000000
Cu       70.43621500000002    0.03792400000000    0.00200900000000
C        68.15640399999999   -3.22352300000000   -0.90765700000000
C        67.20019499999999   -2.32417300000000   -1.00968300000000
C        67.59256900000000   -1.16186800000000   -0.20716700000000
C        66.95745300000000   -0.01059600000000    0.00509900000000
C        67.64291000000000    1.26400400000000    0.23132800000000
C        67.30762000000000    2.34260400000000    0.93556900000000
C        68.33216100000001    3.36192100000000    0.84498700000000
C        69.28275800000000    2.86499600000000    0.07162200000000
N        68.90576400000000    1.54839100000000   -0.34452000000000
C        70.52989800000000    3.47669800000000   -0.34524300000000
C        71.63144900000000    2.80944100000000   -0.67701500000000
C        72.62499600000000    3.06142500000000   -1.71118400000000
C        73.51887900000001    2.10056600000000   -1.60970000000000
C        73.13918099999999    1.18868200000000   -0.50572300000000
N        72.04426599999999    1.63800100000000    0.00164300000000
C        73.79638799999999   -0.01059600000000    0.00509900000000
C        73.17297600000002   -1.07977800000000    0.46661600000000
C        73.55168900000000   -2.01189300000000    1.54209100000000
C        72.61102000000000   -2.92603900000000    1.62795800000000
C        71.60271899999999   -2.63026000000000    0.63053000000000
N        71.94049400000000   -1.57688300000000   -0.01876500000000
C        70.35032600000000   -3.33726700000000    0.29933700000000
C        69.23644899999999   -2.74057100000000   -0.04800400000000
N        68.85433700000000   -1.45781400000000    0.36967900000000
H        68.15674900000000   -4.21459700000000   -1.39889100000000
H        66.29166100000000   -2.44586700000000   -1.59083100000000
H        66.38276700000000    2.46095500000000    1.51249500000000
H        68.35945599999999    4.35108500000000    1.30163800000000
H        70.61583800000000    4.57407500000000   -0.40726600000000
H        72.65766800000000    3.86764100000000   -2.43800800000000
H        74.41194000000002    1.98759800000000   -2.24347500000000
H        74.46643899999999   -1.93748700000000    2.15226100000000
H        72.63006700000000   -3.73964700000000    2.33622500000000
H        70.38881000000001   -4.43722700000000    0.35837300000000
Cu       83.78636600000000    0.03792400000000    0.00200900000000
C        81.50655500000001   -3.22352300000000   -0.90765700000000
C        80.55034600000000   -2.32417300000000   -1.00968300000000
C        80.94271999999999   -1.16186800000000   -0.20716700000000
C        80.30760300000001   -0.01059600000000    0.00509900000000
C        80.99306000000000    1.26400400000000    0.23132800000000
C        80.65777000000001    2.34260400000000    0.93556900000000
C        81.68231100000001    3.36192100000000    0.84498700000000
C        82.63290900000000    2.86499600000000    0.07162200000000
N        82.25591400000000    1.54839100000000   -0.34452000000000
C        83.88004800000000    3.47669800000000   -0.34524300000000
C        84.98160000000000    2.80944100000000   -0.67701500000000
C        85.97514600000000    3.06142500000000   -1.71118400000000
C        86.86902900000001    2.10056600000000   -1.60970000000000
C        86.48933100000001    1.18868200000000   -0.50572300000000
N        85.39441600000001    1.63800100000000    0.00164300000000
C        87.14653800000001   -0.01059600000000    0.00509900000000
C        86.52312700000000   -1.07977800000000    0.46661600000000
C        86.90183900000001   -2.01189300000000    1.54209100000000
C        85.96117100000001   -2.92603900000000    1.62795800000000
C        84.95286900000001   -2.63026000000000    0.63053000000000
N        85.29064400000000   -1.57688300000000   -0.01876500000000
C        83.70047600000001   -3.33726700000000    0.29933700000000
C        82.58660000000002   -2.74057100000000   -0.04800400000000
N        82.20448700000000   -1.45781400000000    0.36967900000000
H        81.50689900000000   -4.21459700000000   -1.39889100000000
H        79.64181100000000   -2.44586700000000   -1.59083100000000
H        79.73291800000000    2.46095500000000    1.51249500000000
H        81.70960599999999    4.35108500000000    1.30163800000000
H        83.96598800000000    4.57407500000000   -0.40726600000000
H        86.00781900000001    3.86764100000000   -2.43800800000000
H        87.76209100000000    1.98759800000000   -2.24347500000000
H        87.81659000000002   -1.93748700000000    2.15226100000000
H        85.98021700000000   -3.73964700000000    2.33622500000000
H        83.73896100000002   -4.43722700000000    0.35837300000000
Cu       97.13651600000000    0.03792400000000    0.00200900000000
C        94.85670500000001   -3.22352300000000   -0.90765700000000
C        93.90049600000000   -2.32417300000000   -1.00968300000000
C        94.29286999999999   -1.16186800000000   -0.20716700000000
C        93.65775400000000   -0.01059600000000    0.00509900000000
C        94.34321100000000    1.26400400000000    0.23132800000000
C        94.00792000000001    2.34260400000000    0.93556900000000
C        95.03246200000001    3.36192100000000    0.84498700000000
C        95.98305900000000    2.86499600000000    0.07162200000000
N        95.60606500000000    1.54839100000000   -0.34452000000000
C        97.23019900000000    3.47669800000000   -0.34524300000000
C        98.33175000000000    2.80944100000000   -0.67701500000000
C        99.32529700000002    3.06142500000000   -1.71118400000000
C       100.21917999999999    2.10056600000000   -1.60970000000000
C        99.83948200000000    1.18868200000000   -0.50572300000000
N        98.74456700000000    1.63800100000000    0.00164300000000
C       100.49668900000000   -0.01059600000000    0.00509900000000
C        99.87327700000002   -1.07977800000000    0.46661600000000
C       100.25199000000001   -2.01189300000000    1.54209100000000
C        99.31132100000002   -2.92603900000000    1.62795800000000
C        98.30302000000000   -2.63026000000000    0.63053000000000
N        98.64079500000000   -1.57688300000000   -0.01876500000000
C        97.05062700000001   -3.33726700000000    0.29933700000000
C        95.93675000000002   -2.74057100000000   -0.04800400000000
N        95.55463800000000   -1.45781400000000    0.36967900000000
H        94.85705000000000   -4.21459700000000   -1.39889100000000
H        92.99196200000000   -2.44586700000000   -1.59083100000000
H        93.08306800000001    2.46095500000000    1.51249500000000
H        95.05975700000000    4.35108500000000    1.30163800000000
H        97.31613900000001    4.57407500000000   -0.40726600000000
H        99.35796900000001    3.86764100000000   -2.43800800000000
H       101.11224100000000    1.98759800000000   -2.24347500000000
H       101.16674000000002   -1.93748700000000    2.15226100000000
H        99.33036800000001   -3.73964700000000    2.33622500000000
H        97.08911100000000   -4.43722700000000    0.35837300000000
Cu      110.48666700000000    0.03792400000000    0.00200900000000
C       108.20685600000000   -3.22352300000000   -0.90765700000000
C       107.25064700000000   -2.32417300000000   -1.00968300000000
C       107.64302100000000   -1.16186800000000   -0.20716700000000
C       107.00790400000000   -0.01059600000000    0.00509900000000
C       107.69336100000000    1.26400400000000    0.23132800000000
C       107.35807100000000    2.34260400000000    0.93556900000000
C       108.38261200000001    3.36192100000000    0.84498700000000
C       109.33320999999999    2.86499600000000    0.07162200000000
N       108.95621500000000    1.54839100000000   -0.34452000000000
C       110.58034900000000    3.47669800000000   -0.34524300000000
C       111.68190100000000    2.80944100000000   -0.67701500000000
C       112.67544700000001    3.06142500000000   -1.71118400000000
C       113.56932999999999    2.10056600000000   -1.60970000000000
C       113.18963200000000    1.18868200000000   -0.50572300000000
N       112.09471700000000    1.63800100000000    0.00164300000000
C       113.84683900000000   -0.01059600000000    0.00509900000000
C       113.22342800000000   -1.07977800000000    0.46661600000000
C       113.60214000000001   -2.01189300000000    1.54209100000000
C       112.66147200000000   -2.92603900000000    1.62795800000000
C       111.65317000000000   -2.63026000000000    0.63053000000000
N       111.99094500000000   -1.57688300000000   -0.01876500000000
C       110.40077700000001   -3.33726700000000    0.29933700000000
C       109.28690100000000   -2.74057100000000   -0.04800400000000
N       108.90478800000000   -1.45781400000000    0.36967900000000
H       108.20720000000000   -4.21459700000000   -1.39889100000000
H       106.34211200000000   -2.44586700000000   -1.59083100000000
H       106.43321899999999    2.46095500000000    1.51249500000000
H       108.40990700000000    4.35108500000000    1.30163800000000
H       110.66628900000001    4.57407500000000   -0.40726600000000
H       112.70812000000001    3.86764100000000   -2.43800800000000
H       114.46239199999999    1.98759800000000   -2.24347500000000
H       114.51689100000000   -1.93748700000000    2.15226100000000
H       112.68051800000001   -3.73964700000000    2.33622500000000
H       110.43926200000001   -4.43722700000000    0.35837300000000
271
 energy: -495.594479983067 gnorm: 0.584387470755 xtb: 6.4.1 (bd6e46d)
Cu       42.11628090958589    0.04362281096550   -0.01229045206465
C        44.43652578970928   -3.11160248563190    1.30185450365557
C        45.36450815730213   -2.15668902334339    1.25729324214836
C        44.93394464567591   -1.10640915174997    0.34400867594079
C        45.54241032807029    0.03717807194307   -0.01483194597222
C        44.84425066628080    1.23570173357334   -0.36312845375421
C        45.19536237264667    2.22549666785215   -1.23729028397001
C        44.17725844344862    3.21738956933140   -1.25129547755608
C        43.20659456202776    2.81787346337740   -0.38304315993994
N        43.59262597496005    1.58953744716136    0.17578233105795
C        41.96927717566305    3.48415859000002   -0.01188458874818
C        40.84672728869973    2.83616013984689    0.33999619440245
C        39.78564710637885    3.17575974426538    1.29414276918379
C        38.92422484577395    2.16296965601017    1.23603445166398
C        39.37939466057256    1.16930425858929    0.26428540177703
N        40.51865346082949    1.58884363480074   -0.22040136557719
C        38.76300671922227   -0.06687057123835   -0.15779395216191
C        39.44056225888114   -1.19494116600030   -0.42118224115810
C        39.05524954164717   -2.25233696507422   -1.36298264346646
C        40.02008296286211   -3.16511217509275   -1.28515821226967
C        41.00646166332483   -2.71778246209345   -0.30959543177378
N        40.65610625053194   -1.54321451585310    0.17298143392843
C        42.21297253484668   -3.37238282681359    0.13663721181398
C        43.35985156333430   -2.70708337400005    0.40973125356899
N        43.67570500701513   -1.46903779923732   -0.16434383743618
H        44.49043558950548   -4.00794455161963    1.91991912015546
H        46.27264320157402   -2.19072264512275    1.83428075128715
H        46.10922841772452    2.22297170055395   -1.82319244022746
H        44.17205668926641    4.11787674764819   -1.85090623142738
H        41.91710502976505    4.57604789324842   -0.00959875939713
H        39.73627695297453    4.04543811977219    1.92859931770288
H        38.03130914194651    2.12814172145318    1.84736947016182
H        37.67702309604820   -0.07663921441052   -0.26727094424893
H        38.19642256065563   -2.29832100455186   -2.01770888352767
H        40.01829109631027   -4.06616801483404   -1.88159259578594
H        42.18956667154784   -4.45787778164086    0.25684006747684
Cu      125.38521239696594   -0.00297942892496   -0.01662148461009
C       123.06500093433368    2.85365785828307    1.86007692585462
C       122.13691574151977    1.92369860310406    1.63903640708109
C       122.56726947150450    1.06123451408825    0.54667806841940
C       121.95836440057171    0.00369854920443   -0.01757125337498
C       122.65715699973246   -1.10916599973942   -0.58266530482424
C       122.30615072313297   -1.91967057258692   -1.62512447517826
C       123.32427707382874   -2.89184607993788   -1.82288209437129
C       124.29486963903283   -2.66034854870233   -0.89564020565594
N       123.90875156075677   -1.55679426699550   -0.11876437290616
C       125.53218950070128   -3.38384409936155   -0.65454747329270
C       126.65476832254588   -2.81234007881541   -0.18852522300984
C       127.71582478458159   -3.32305260056033    0.68607920139266
C       128.57731147322559   -2.31710698528865    0.81677903273465
C       128.12212115731791   -1.16038243086644    0.04628722045954
N       126.98279986594031   -1.48279251381057   -0.50777225069174
C       128.73848102517567    0.13256768992594   -0.13909279324316
C       128.06088487539941    1.28998337833618   -0.18867391171915
C       128.44619724340652    2.50371126525445   -0.91799952435305
C       127.48142107623455    3.38625266283173   -0.67210891313755
C       126.49503740740739    2.76569661800596    0.20351781620891
N       126.84544211104424    1.52193596840394    0.45978025071514
C       125.28854052752703    3.32609236746832    0.76337417016721
C       124.14165487972552    2.62157130091949    0.90844834143493
N       123.82574406139139    1.51161756297855    0.11455774201865
H       123.01106439479899    3.61982118598133    2.63364363477015
H       121.22883452903494    1.85006925356298    2.21239567620034
H       121.39225371705612   -1.80854024553792   -2.20040943009344
H       123.32944756871515   -3.66540811855590   -2.57918999354226
H       125.58439570639277   -4.45720097956563   -0.85487409374620
H       127.76521198087269   -4.29536193695340    1.14815668238639
H       129.47018766788955   -2.39627992353556    1.42402071247604
H       129.82446790354751    0.16251756022899   -0.24484689129484
H       129.30505825736708    2.67036915474532   -1.55279265241919
H       127.48319502107408    4.38228555384376   -1.09107362615826
H       125.31188540795931    4.37049277392295    1.08279262445073
C        48.44582875717356    0.01803799588070   -0.00860896103009
C        49.67218841028600    0.02539315532099   -0.00873307530834
C        51.05501724082389    0.02641990241022   -0.00328761351939
C        52.27595581280505    0.02462083873664   -0.01192849037839
C        61.81912012360674    0.02374258072381   -0.00774161764361
C        63.03670466352486    0.02563899339297   -0.00706482877975
C        64.40726573322841    0.02633477248413   -0.00373565651108
C        65.62609269975945    0.02450870822605   -0.01310267730813
C        75.16960124372353    0.02387687637008   -0.00737374298104
C        76.38639108191580    0.02564333265067   -0.00705620295989
C        77.75785353898716    0.02632697981321   -0.00380943699554
C        78.97597041022335    0.02450860053195   -0.01315772506787
C        88.51972755978407    0.02388290694410   -0.00735368384854
C        89.73655324312111    0.02564125948926   -0.00706983324292
C        91.10798972049406    0.02632561148327   -0.00380974540341
C        92.32612606176941    0.02451151846535   -0.01313309794033
C       101.86970448685211    0.02385242532352   -0.00743930130919
C       103.08692249626000    0.02564525734262   -0.00706997518604
C       104.45784121396782    0.02631628030555   -0.00377657942595
C       105.67639682573808    0.02446786457849   -0.01310842330674
C       115.22126902267256    0.02413886984906   -0.00727425278844
C       116.43969045549031    0.02558645267167   -0.00741426731223
C       117.82769714331030    0.02541781301403   -0.00366615382963
C       119.05265639137137    0.01732495159641   -0.00933380779247
Cu       57.07918861894810    0.03987714733577   -0.00053431354242
C        54.80819659444186   -3.24041565008819   -0.90255067028416
C        53.84532911569787   -2.32231613966941   -1.00402381281675
C        54.26910806909784   -1.17822423952453   -0.20911898198967
C        53.62236871513372    0.00766555578587    0.00522788879471
C        54.32021653975324    1.26739669396694    0.22693765796843
C        53.94948593060909    2.36693180298319    0.94640058815172
C        54.95958267446993    3.36333166472159    0.85276833238976
C        55.94276818848952    2.84581382873395    0.06611839746830
N        55.57850200548853    1.53586902614585   -0.33362077314038
C        57.16681080176101    3.47653200592924   -0.34612597514559
C        58.28973945353555    2.79832908668547   -0.67732358223539
C        59.27954726747201    3.06871468477086   -1.70088216661794
C        60.18651867971321    2.08920036796882   -1.60960696637506
C        59.78974209135841    1.19037387780665   -0.51911724336751
N        58.66417072784876    1.62224331748998   -0.01184920938388
C        60.44999434030473    0.00529841576103   -0.00313502889631
C        59.80740834751314   -1.09404450130789    0.47345696684327
C        60.21233218893192   -2.00937904027180    1.53408417670140
C        59.25653164125355   -2.94087913262568    1.62783281540679
C        58.24312530305718   -2.63802264854464    0.63822255259987
N        58.57668227143706   -1.54472068532668   -0.00926020797114
C        57.01914453013792   -3.34360334283332    0.30821507997573
C        55.87363208933868   -2.72857944474557   -0.05423374270979
N        55.51406955745340   -1.44687373437760    0.34394538663106
H        54.81063154156950   -4.21151772272455   -1.39567719490842
H        52.94240400770958   -2.43764759886564   -1.58705261675274
H        53.03262056229066    2.46404006713288    1.51329437528897
H        55.00075970297014    4.34616859943840    1.30337262975578
H        57.25213882459349    4.56882180176552   -0.41186612860305
H        59.30161678300334    3.86630833750748   -2.43159362874234
H        61.06174094213262    1.98245735911718   -2.24065102144217
H        61.11135652340535   -1.93329777909068    2.14539936807360
H        59.27391303517590   -3.74458632423680    2.33679014310660
H        57.04317379632980   -4.43461025399300    0.35635974697100
Cu       70.42886806550371    0.03989665874629   -0.00032233501006
C        68.15746837422064   -3.24056941304867   -0.90258580805982
C        67.19519655258799   -2.32330196659567   -1.00363650366165
C        67.61893917141364   -1.17800041150734   -0.20760820487792
C        66.97324546124746    0.00684080429007    0.00489931094154
C        67.67086832211250    1.26801604100907    0.22641924362949
C        67.30000605682294    2.36701537093719    0.94671078022151
C        68.30956441526308    3.36378709197675    0.85254951550689
C        69.29298416654517    2.84608261861617    0.06601446111775
N        68.92761914153586    1.53613818512906   -0.33400389921057
C        70.51672431674002    3.47638339713742   -0.34569953288715
C        71.64014561765707    2.79803925149612   -0.67722514683716
C        72.62964759800148    3.06852787805247   -1.70113403599147
C        73.53682698700473    2.08928305453364   -1.60971248623487
C        73.13982709639917    1.19028031321943   -0.51939305125983
N        72.01457942770031    1.62271464352456   -0.01162443929024
C        73.79949527447941    0.00509064368877   -0.00294845003904
C        73.15790590862737   -1.09378663587679    0.47341962949874
C        73.56305298063677   -2.00979730161245    1.53403365500085
C        72.60681706827265   -2.94029931413010    1.62846586048185
C        71.59369490205239   -2.63712342520296    0.63828463719995
N        71.92688255794414   -1.54583372999999   -0.00954287964794
C        70.36866734169699   -3.34352872749741    0.30747393970850
C        69.22434525166291   -2.72840860476582   -0.05409613542710
N        68.86409976787388   -1.44732093822028    0.34415259366991
H        68.16066598476773   -4.21159447667050   -1.39581244255835
H        66.29252662495814   -2.43781385455636   -1.58724443169019
H        66.38270820080292    2.46414178347597    1.51332303831356
H        68.35090540236800    4.34633490103548    1.30346242232865
H        70.60230050171454    4.56877772491918   -0.41165080221732
H        72.65176902518255    3.86631020470587   -2.43163143950345
H        74.41195567792721    1.98247776579681   -2.24074062943497
H        74.46170375493979   -1.93335192464141    2.14548512830849
H        72.62412492536671   -3.74452432529251    2.33687716784532
H        70.39334053240749   -4.43455770418409    0.35581023037963
Cu       83.77903168128542    0.03983451825381   -0.00032086797414
C        81.50764740668312   -3.24041426732621   -0.90274683814613
C        80.54515949305663   -2.32337721162836   -1.00350051838805
C        80.96894263691156   -1.17779040170134   -0.20783375699657
C        80.32376612771483    0.00680746586901    0.00485204257997
C        81.02096414471386    1.26788988959562    0.22657513030242
C        80.65007600066419    2.36709076652499    0.94671322977233
C        81.65964619734858    3.36371914935322    0.85262627949350