      -----------------------------------------------------------      
     |                   =====================                   |     
     |                           x T B                           |     
     |                   =====================                   |     
     |                         S. Grimme                         |     
     |          Mulliken Center for Theoretical Chemistry        |     
     |                    University of Bonn                     |     
      -----------------------------------------------------------      

   * xtb version 6.4.1 (bd6e46d) compiled by 'conda@4901f00b25ba' on 2021-06-10

   xtb is free software: you can redistribute it and/or modify it under
   the terms of the GNU Lesser General Public License as published by
   the Free Software Foundation, either version 3 of the License, or
   (at your option) any later version.
   
   xtb is distributed in the hope that it will be useful,
   but WITHOUT ANY WARRANTY; without even the implied warranty of
   MERCHANTABILITY or FITNESS FOR A PARTICULAR PURPOSE.  See the
   GNU Lesser General Public License for more details.
   
   Cite this work as:
   * C. Bannwarth, E. Caldeweyher, S. Ehlert, A. Hansen, P. Pracht,
     J. Seibert, S. Spicher, S. Grimme, WIREs Comput. Mol. Sci., 2020, 11,
     e01493. DOI: 10.1002/wcms.1493
   
   for GFN2-xTB:
   * C. Bannwarth, S. Ehlert and S. Grimme., J. Chem. Theory Comput., 2019,
     15, 1652-1671. DOI: 10.1021/acs.jctc.8b01176
   for GFN1-xTB:
   * S. Grimme, C. Bannwarth, P. Shushkov, J. Chem. Theory Comput., 2017,
     13, 1989-2009. DOI: 10.1021/acs.jctc.7b00118
   for GFN0-xTB:
   * P. Pracht, E. Caldeweyher, S. Ehlert, S. Grimme, ChemRxiv, 2019, preprint.
     DOI: 10.26434/chemrxiv.8326202.v1
   for GFN-FF:
   * S. Spicher and S. Grimme, Angew. Chem. Int. Ed., 2020, 59, 15665-15673.
     DOI: 10.1002/anie.202004239
   
   for DFT-D4:
   * E. Caldeweyher, C. Bannwarth and S. Grimme, J. Chem. Phys., 2017,
     147, 034112. DOI: 10.1063/1.4993215
   * E. Caldeweyher, S. Ehlert, A. Hansen, H. Neugebauer, S. Spicher,
     C. Bannwarth and S. Grimme, J. Chem. Phys., 2019, 150, 154122.
     DOI: 10.1063/1.5090222
   * E. Caldeweyher, J.-M. Mewes, S. Ehlert and S. Grimme, Phys. Chem. Chem. Phys.
     2020, 22, 8499-8512. DOI: 10.1039/D0CP00502A
   
   for sTDA-xTB:
   * S. Grimme and C. Bannwarth, J. Chem. Phys., 2016, 145, 054103.
     DOI: 10.1063/1.4959605
   
   in the mass-spec context:
   * V. Asgeirsson, C. Bauer and S. Grimme, Chem. Sci., 2017, 8, 4879.
     DOI: 10.1039/c7sc00601b
   * J. Koopman and S. Grimme, ACS Omega 2019, 4, 12, 15120-15133.
     DOI: 10.1021/acsomega.9b02011
   
   for metadynamics refer to:
   * S. Grimme, J. Chem. Theory Comput., 2019, 155, 2847-2862
     DOI: 10.1021/acs.jctc.9b00143
   
   for SPH calculations refer to:
   * S. Spicher and S. Grimme, J. Chem. Theory Comput., 2021, 17, 1701-1714
     DOI: 10.1021/acs.jctc.0c01306
   
   with help from (in alphabetical order)
   P. Atkinson, C. Bannwarth, F. Bohle, G. Brandenburg, E. Caldeweyher
   M. Checinski, S. Dohm, S. Ehlert, S. Ehrlich, I. Gerasimov, J. Koopman
   C. Lavigne, S. Lehtola, F. März, M. Müller, F. Musil, H. Neugebauer
   J. Pisarek, C. Plett, P. Pracht, J. Seibert, P. Shushkov, S. Spicher
   M. Stahn, M. Steiner, T. Strunk, J. Stückrath, T. Rose, and J. Unsleber
   
 * started run on 2021/11/19 at 15:45:18.561     

           -------------------------------------------------
          |                Calculation Setup                |
           -------------------------------------------------

          program call               : /home/jeff/miniconda3/bin/xtb input_structure_1.xyz --gfn 2 --ohess normal --parallel 1 --etemp 300 --chrg 0 --uhf 0 -I det_control.in
          hostname                   : jelfscompute1
          coordinate file            : input_structure_1.xyz
          omp threads                :                     1
          number of atoms            :                   164
          number of electrons        :                   522
          charge                     :                     0
          spin                       :                   0.0
          first test random number   :      0.46770536066990

   ID    Z sym.   atoms
    1    6 C      1-8, 10-14, 16-20, 22, 23, 38-45, 47-51, 53-57, 59, 60,
                  75-100, 102-106, 108-112, 114, 115, 129-136, 138-142,
                  144-148, 150, 151
    2    7 N      9, 15, 21, 24, 46, 52, 58, 61, 101, 107, 113, 116, 137,
                  143, 149, 152
    3    1 H      25-37, 62-74, 117-128, 153-164

molecular fragmentation (1/2 indicates fragments):
111111111111111111111111111111111111122222222222222222222222222222222222
222222222222222222222222222222222222222222222222222222222222222222222222
22222222222222222222
# atoms in fragment 1/2:    37   127
 fragment masses (1/2) :      309.34     1142.21
CMA distance (Bohr)    :  60.376
constraining FC (au)   :  0.0500

           -------------------------------------------------
          |                 G F N 2 - x T B                 |
           -------------------------------------------------

        Reference                      10.1021/acs.jctc.8b01176
      * Hamiltonian:
        H0-scaling (s, p, d)           1.850000    2.230000    2.230000
        zeta-weighting                 0.500000
      * Dispersion:
        s8                             2.700000
        a1                             0.520000
        a2                             5.000000
        s9                             5.000000
      * Repulsion:
        kExp                           1.500000    1.000000
        rExp                           1.000000
      * Coulomb:
        alpha                          2.000000
        third order                    shell-resolved
        anisotropic                    true
        a3                             3.000000
        a5                             4.000000
        cn-shift                       1.200000
        cn-exp                         4.000000
        max-rad                        5.000000


          ...................................................
          :                      SETUP                      :
          :.................................................:
          :  # basis functions                 506          :
          :  # atomic orbitals                 506          :
          :  # shells                          278          :
          :  # electrons                       522          :
          :  max. iterations                   250          :
          :  Hamiltonian                  GFN2-xTB          :
          :  restarted?                      false          :
          :  GBSA solvation                  false          :
          :  PC potential                    false          :
          :  electronic temp.          300.0000000     K    :
          :  accuracy                    1.0000000          :
          :  -> integral cutoff          0.2500000E+02      :
          :  -> integral neglect         0.1000000E-07      :
          :  -> SCF convergence          0.1000000E-05 Eh   :
          :  -> wf. convergence          0.1000000E-03 e    :
          :  Broyden damping             0.4000000          :
          ...................................................

 iter      E             dE          RMSdq      gap      omega  full diag
   1   -285.2990351 -0.285299E+03  0.607E+00    0.00       0.0  T
   2   -269.8827211  0.154163E+02  0.559E+00    0.22       1.0  T
   3   -222.6104726  0.472722E+02  0.862E+00    0.01       1.0  T
   4   -231.9932589 -0.938279E+01  0.785E+00    0.00       1.0  T
   5   -279.9231376 -0.479299E+02  0.407E+00    0.08       1.0  T
   6   -284.6335340 -0.471040E+01  0.275E+00    0.43       1.0  T
   7   -284.2246239  0.408910E+00  0.256E+00    0.18       1.0  T
   8   -285.3737188 -0.114909E+01  0.175E+00    0.20       1.0  T
   9   -285.6324923 -0.258774E+00  0.142E+00    0.03       1.0  T
  10   -284.6979443  0.934548E+00  0.179E+00    0.16       1.0  T
  11   -285.6212656 -0.923321E+00  0.123E+00    0.06       1.0  T
  12   -285.6176039  0.366167E-02  0.124E+00    0.11       1.0  T
  13   -286.0033145 -0.385711E+00  0.630E-01    0.11       1.0  T
  14   -286.0023696  0.944924E-03  0.659E-01    0.02       1.0  T
  15   -286.0285195 -0.261499E-01  0.605E-01    0.03       1.0  T
  16   -285.7765022  0.252017E+00  0.904E-01    0.08       1.0  T
  17   -286.1151861 -0.338684E+00  0.302E-01    0.09       1.0  T
  18   -286.0806522  0.345340E-01  0.349E-01    0.03       1.0  T
  19   -286.1129672 -0.323150E-01  0.194E-01    0.05       1.0  T
  20   -286.1134938 -0.526567E-03  0.192E-01    0.06       1.0  T
  21   -286.1013662  0.121275E-01  0.220E-01    0.05       1.0  T
  22   -286.1175413 -0.161751E-01  0.160E-01    0.08       1.0  T
  23   -286.1171247  0.416632E-03  0.156E-01    0.09       1.0  T
  24   -286.1181166 -0.991968E-03  0.146E-01    0.09       1.0  T
  25   -286.1206926 -0.257599E-02  0.124E-01    0.09       1.0  T
  26   -286.1224715 -0.177887E-02  0.107E-01    0.09       1.0  T
  27   -286.1257423 -0.327084E-02  0.673E-02    0.09       1.0  T
  28   -286.1275546 -0.181226E-02  0.285E-02    0.08       1.0  T
  29   -286.1276490 -0.944236E-04  0.233E-02    0.09       1.0  T
  30   -286.1278193 -0.170263E-03  0.139E-02    0.08       1.0  T
  31   -286.1278878 -0.685437E-04  0.834E-03    0.08       1.0  T
  32   -286.1279101 -0.223130E-04  0.565E-03    0.08       1.4  T
  33   -286.1279197 -0.961836E-05  0.343E-03    0.08       2.3  T
  34   -286.1279185  0.128876E-05  0.375E-03    0.08       2.1  T
  35   -286.1279194 -0.970982E-06  0.357E-03    0.08       2.2  T
  36   -286.1279228 -0.333751E-05  0.245E-03    0.08       3.2  T
  37   -286.1279257 -0.290455E-05  0.104E-03    0.08       7.5  T
  38   -286.1279255  0.218814E-06  0.125E-03    0.08       6.3  T
  39   -286.1279258 -0.369336E-06  0.807E-04    0.08       9.7  T
  40   -286.1279259 -0.956525E-07  0.645E-04    0.08      12.1  T

   *** convergence criteria satisfied after 40 iterations ***

         #    Occupation            Energy/Eh            Energy/eV
      -------------------------------------------------------------
         1        2.0000           -0.6940018             -18.8848
       ...           ...                  ...                  ...
       255        2.0000           -0.3577540              -9.7350
       256        2.0000           -0.3564429              -9.6993
       257        2.0000           -0.3564167              -9.6986
       258        2.0000           -0.3470956              -9.4450
       259        2.0000           -0.3469600              -9.4413
       260        2.0000           -0.3466898              -9.4339
       261        1.5023           -0.3348621              -9.1121 (HOMO)
       262        0.2500           -0.3319637              -9.0332 (LUMO)
       263        0.2477           -0.3319539              -9.0329
       264        0.0000           -0.3190129              -8.6808
       265                         -0.3094135              -8.4196
       266                         -0.3093599              -8.4181
       ...                                ...                  ...
       506                          2.0154958              54.8444
      -------------------------------------------------------------
                  HL-Gap            0.0028984 Eh            0.0789 eV
             Fermi-level           -0.3338125 Eh           -9.0835 eV

 SCC (total)                   0 d,  0 h,  0 min,  2.685 sec
 SCC setup                      ...        0 min,  0.005 sec (  0.171%)
 Dispersion                     ...        0 min,  0.010 sec (  0.362%)
 classical contributions        ...        0 min,  0.001 sec (  0.043%)
 integral evaluation            ...        0 min,  0.077 sec (  2.868%)
 iterations                     ...        0 min,  2.365 sec ( 88.074%)
 molecular gradient             ...        0 min,  0.221 sec (  8.224%)
 printout                       ...        0 min,  0.007 sec (  0.257%)

         :::::::::::::::::::::::::::::::::::::::::::::::::::::
         ::                     SUMMARY                     ::
         :::::::::::::::::::::::::::::::::::::::::::::::::::::
         :: total energy            -280.374505231858 Eh    ::
         :: gradient norm              1.148906231694 Eh/a0 ::
         :: HOMO-LUMO gap              0.078868614825 eV    ::
         ::.................................................::
         :: SCC energy              -286.127925918306 Eh    ::
         :: -> isotropic ES            0.156109584812 Eh    ::
         :: -> anisotropic ES         -0.006304252570 Eh    ::
         :: -> anisotropic XC          0.223323035862 Eh    ::
         :: -> dispersion             -0.218533221750 Eh    ::
         :: repulsion energy           5.754815045815 Eh    ::
         :: add. restraining           0.000000000000 Eh    ::
         :: total charge              -0.000000000046 e     ::
         :::::::::::::::::::::::::::::::::::::::::::::::::::::

      ----------------------------------------------------------- 
     |                   =====================                   |
     |                        A N C O P T                        |
     |                   =====================                   |
     |               Approximate Normal Coordinate               |
     |                Rational Function Optimizer                |
      ----------------------------------------------------------- 

          ...................................................
          :                      SETUP                      :
          :.................................................:
          :   optimization level            normal          :
          :   max. optcycles                   492          :
          :   ANC micro-cycles                  20          :
          :   degrees of freedom               486          :
          :.................................................:
          :   RF solver                   davidson          :
          :   write xtbopt.log                true          :
          :   linear?                        false          :
          :   energy convergence         0.5000000E-05 Eh   :
          :   grad. convergence          0.1000000E-02 Eh/α :
          :   maximium RF displ.         1.0000000          :
          :   Hlow (freq-cutoff)         0.1000000E-01      :
          :   Hmax (freq-cutoff)         5.0000000          :
          :   S6 in model hess.         20.0000000          :
          ...................................................

generating ANC from model Hessian ...
Using Lindh-Hessian (1995)
 Shifting diagonal of input Hessian by    1.0167536184656701E-002
 Lowest  eigenvalues of input Hessian
    0.010000    0.010025    0.010154    0.010164    0.010166    0.010167
    0.000000    0.000000    0.000000    0.000000    0.000000    0.000000
    0.010170    0.010174    0.010176    0.010177    0.010187    0.010190
 Highest eigenvalues
    2.672924    2.682860    3.277966    3.285281    3.328865    3.334024


........................................................................
.............................. CYCLE    1 ..............................
........................................................................
   1   -286.1279261 -0.286128E+03  0.311E-04    0.08       0.0  T
   2   -286.1279012  0.248474E-04  0.634E-03    0.08       1.2  T
   3   -286.1279254 -0.242025E-04  0.112E-03    0.08       7.0  T
   4   -286.1279255 -0.100180E-06  0.100E-03    0.08       7.8  T
   5   -286.1279256 -0.881488E-07  0.927E-04    0.08       8.4  T
     SCC iter.                  ...        0 min,  0.299 sec
     gradient                   ...        0 min,  0.220 sec
 * total energy  :  -280.3745049 Eh     change        0.2934779E-06 Eh
   gradient norm :     1.1489019 Eh/α   predicted     0.0000000E+00 (-100.00%)
   displ. norm   :     0.5510674 α      lambda       -0.5464858E+00
   maximum displ.:     0.1536529 α      in ANC's #309, #390, #480, ...

........................................................................
.............................. CYCLE    2 ..............................
........................................................................
   1   -286.2287252 -0.286229E+03  0.366E-01    0.15       0.0  T
   2   -284.8330763  0.139565E+01  0.166E+00    0.29       1.0  T
   3   -286.2129858 -0.137991E+01  0.382E-01    0.21       1.0  T
   4   -286.2438176 -0.308318E-01  0.226E-01    0.05       1.0  T
   5   -286.0666231  0.177195E+00  0.781E-01    0.06       1.0  T
   6   -285.9694211  0.972020E-01  0.707E-01    0.06       1.0  T
   7   -286.1205749 -0.151154E+00  0.500E-01    0.01       1.0  T
   8   -286.2403037 -0.119729E+00  0.202E-01    0.12       1.0  T
   9   -286.2447179 -0.441414E-02  0.184E-01    0.12       1.0  T
  10   -286.2491886 -0.447075E-02  0.122E-01    0.10       1.0  T
  11   -286.2548681 -0.567952E-02  0.562E-02    0.08       1.0  T
  12   -286.2549545 -0.863746E-04  0.423E-02    0.07       1.0  T
  13   -286.2553866 -0.432079E-03  0.321E-02    0.07       1.0  T
  14   -286.2557279 -0.341362E-03  0.196E-02    0.07       1.0  T
  15   -286.2559007 -0.172798E-03  0.107E-02    0.07       1.0  T
  16   -286.2559345 -0.337196E-04  0.636E-03    0.07       1.2  T
  17   -286.2559443 -0.986975E-05  0.477E-03    0.08       1.6  T
  18   -286.2559524 -0.803461E-05  0.262E-03    0.08       3.0  T
  19   -286.2559555 -0.315017E-05  0.920E-04    0.08       8.5  T
  20   -286.2559559 -0.335292E-06  0.472E-04    0.08      16.6  T
  21   -286.2559560 -0.984892E-07  0.222E-04    0.08      35.1  T
     SCC iter.                  ...        0 min,  1.239 sec
     gradient                   ...        0 min,  0.220 sec
 * total energy  :  -280.7377751 Eh     change       -0.3632702E+00 Eh
   gradient norm :     0.4022241 Eh/α   predicted    -0.3562291E+00 (  -1.94%)
   displ. norm   :     0.5820285 α      lambda       -0.1826678E+00
   maximum displ.:     0.1584018 α      in ANC's #309, #253, #237, ...

........................................................................
.............................. CYCLE    3 ..............................
........................................................................
   1   -286.3730558 -0.286373E+03  0.289E-01    0.09       0.0  T
   2   -286.0275712  0.345485E+00  0.834E-01    0.03       1.0  T
   3   -286.3392955 -0.311724E+00  0.371E-01    0.05       1.0  T
   4   -286.1055197  0.233776E+00  0.734E-01    0.05       1.0  T
   5   -286.1238028 -0.182831E-01  0.668E-01    0.04       1.0  T
   6   -286.3268036 -0.203001E+00  0.425E-01    0.08       1.0  T
   7   -286.2880217  0.387819E-01  0.469E-01    0.08       1.0  T
   8   -286.3272065 -0.391848E-01  0.408E-01    0.14       1.0  T
   9   -286.3537767 -0.265702E-01  0.269E-01    0.09       1.0  T
  10   -286.3631106 -0.933391E-02  0.202E-01    0.09       1.0  T
  11   -286.3697369 -0.662626E-02  0.161E-01    0.09       1.0  T
  12   -286.3758619 -0.612502E-02  0.116E-01    0.09       1.0  T
  13   -286.3795585 -0.369661E-02  0.640E-02    0.08       1.0  T
  14   -286.3811545 -0.159603E-02  0.231E-02    0.07       1.0  T
  15   -286.3809830  0.171479E-03  0.286E-02    0.07       1.0  T
  16   -286.3811632 -0.180187E-03  0.173E-02    0.06       1.0  T
  17   -286.3813234 -0.160205E-03  0.676E-03    0.07       1.2  T
  18   -286.3813457 -0.222502E-04  0.228E-03    0.07       3.4  T
  19   -286.3813467 -0.107044E-05  0.163E-03    0.07       4.8  T
  20   -286.3813479 -0.112509E-05  0.746E-04    0.07      10.5  T
  21   -286.3813480 -0.115168E-06  0.512E-04    0.07      15.3  T
  22   -286.3813479  0.409921E-07  0.610E-04    0.07      12.8  T
     SCC iter.                  ...        0 min,  1.297 sec
     gradient                   ...        0 min,  0.221 sec
 * total energy  :  -280.8716455 Eh     change       -0.1338704E+00 Eh
   gradient norm :     0.1644387 Eh/α   predicted    -0.1222740E+00 (  -8.66%)
   displ. norm   :     0.6704661 α      lambda       -0.8248527E-01
   maximum displ.:     0.1965427 α      in ANC's #108, #100, #129, ...

........................................................................
.............................. CYCLE    4 ..............................
........................................................................
   1   -286.4410253 -0.286441E+03  0.284E-01    0.14       0.0  T
   2   -285.1006824  0.134034E+01  0.159E+00    0.28       1.0  T
   3   -286.4515518 -0.135087E+01  0.199E-01    0.04       1.0  T
   4   -286.3708910  0.806608E-01  0.430E-01    0.02       1.0  T
   5   -285.9283332  0.442558E+00  0.943E-01    0.19       1.0  T
   6   -286.4140807 -0.485747E+00  0.414E-01    0.09       1.0  T
   7   -286.4403072 -0.262265E-01  0.205E-01    0.10       1.0  T
   8   -286.4406148 -0.307597E-03  0.164E-01    0.07       1.0  T
   9   -286.4544337 -0.138189E-01  0.111E-01    0.09       1.0  T
  10   -286.4577329 -0.329919E-02  0.505E-02    0.08       1.0  T
  11   -286.4582490 -0.516056E-03  0.316E-02    0.07       1.0  T
  12   -286.4586554 -0.406439E-03  0.157E-02    0.07       1.0  T
  13   -286.4586521  0.329528E-05  0.129E-02    0.07       1.0  T
  14   -286.4587305 -0.783655E-04  0.503E-03    0.07       1.6  T
  15   -286.4587344 -0.394918E-05  0.399E-03    0.07       2.0  T
  16   -286.4587358 -0.136722E-05  0.287E-03    0.07       2.7  T
  17   -286.4587392 -0.342475E-05  0.138E-03    0.07       5.6  T
  18   -286.4587396 -0.344539E-06  0.767E-04    0.07      10.2  T
  19   -286.4587396 -0.905742E-07  0.529E-04    0.07      14.8  T
     SCC iter.                  ...        0 min,  1.119 sec
     gradient                   ...        0 min,  0.221 sec
 * total energy  :  -280.9341882 Eh     change       -0.6254267E-01 Eh
   gradient norm :     0.0878055 Eh/α   predicted    -0.5978227E-01 (  -4.41%)
   displ. norm   :     0.7737058 α      lambda       -0.4925757E-01
   maximum displ.:     0.2287236 α      in ANC's #108, #100, #42, ...

........................................................................
.............................. CYCLE    5 ..............................
........................................................................
   1   -286.4484143 -0.286448E+03  0.261E-01    0.19       0.0  T
   2   -285.0327054  0.141571E+01  0.161E+00    0.29       1.0  T
   3   -286.4643669 -0.143166E+01  0.145E-01    0.08       1.0  T
   4   -286.4235104  0.408565E-01  0.389E-01    0.07       1.0  T
   5   -286.2760646  0.147446E+00  0.544E-01    0.03       1.0  T
   6   -286.1778869  0.981777E-01  0.688E-01    0.06       1.0  T
   7   -286.4591419 -0.281255E+00  0.146E-01    0.11       1.0  T
   8   -286.4630860 -0.394416E-02  0.856E-02    0.10       1.0  T
   9   -286.4639431 -0.857118E-03  0.626E-02    0.08       1.0  T
  10   -286.4664959 -0.255279E-02  0.227E-02    0.09       1.0  T
  11   -286.4664698  0.261574E-04  0.210E-02    0.09       1.0  T
  12   -286.4665831 -0.113323E-03  0.152E-02    0.09       1.0  T
  13   -286.4666593 -0.761846E-04  0.857E-03    0.09       1.0  T
  14   -286.4666762 -0.169371E-04  0.598E-03    0.09       1.3  T
  15   -286.4666843 -0.807393E-05  0.444E-03    0.09       1.8  T
  16   -286.4666927 -0.839892E-05  0.172E-03    0.09       4.5  T
  17   -286.4666944 -0.168724E-05  0.318E-04    0.09      24.5  T
  18   -286.4666944 -0.177799E-07  0.262E-04    0.09      29.8  T
  19   -286.4666944 -0.557088E-08  0.187E-04    0.09      41.7  T
     SCC iter.                  ...        0 min,  1.120 sec
     gradient                   ...        0 min,  0.220 sec
 * total energy  :  -280.9764859 Eh     change       -0.4229769E-01 Eh
   gradient norm :     0.0688173 Eh/α   predicted    -0.3937236E-01 (  -6.92%)
   displ. norm   :     0.8634976 α      lambda       -0.4081398E-01
   maximum displ.:     0.2783106 α      in ANC's #33, #42, #45, ...

........................................................................
.............................. CYCLE    6 ..............................
........................................................................
   1   -286.4523519 -0.286452E+03  0.240E-01    0.26       0.0  T
   2   -285.3277732  0.112458E+01  0.138E+00    0.08       1.0  T
   3   -286.4464790 -0.111871E+01  0.266E-01    0.18       1.0  T
   4   -286.4313106  0.151684E-01  0.350E-01    0.17       1.0  T
   5   -286.4536861 -0.223755E-01  0.143E-01    0.07       1.0  T
   6   -286.4611101 -0.742400E-02  0.814E-02    0.09       1.0  T
   7   -286.4296885  0.314216E-01  0.228E-01    0.05       1.0  T
   8   -286.4645521 -0.348636E-01  0.236E-02    0.12       1.0  T
   9   -286.4645906 -0.385141E-04  0.179E-02    0.11       1.0  T
  10   -286.4642600  0.330645E-03  0.278E-02    0.11       1.0  T
  11   -286.4646216 -0.361582E-03  0.118E-02    0.12       1.0  T
  12   -286.4646373 -0.157267E-04  0.554E-03    0.12       1.4  T
  13   -286.4646408 -0.347913E-05  0.389E-03    0.12       2.0  T
  14   -286.4646467 -0.587040E-05  0.218E-03    0.12       3.6  T
  15   -286.4646487 -0.200778E-05  0.104E-03    0.12       7.5  T
  16   -286.4646490 -0.298770E-06  0.613E-04    0.12      12.7  T
  17   -286.4646491 -0.151959E-06  0.303E-04    0.12      25.8  T
     SCC iter.                  ...        0 min,  1.003 sec
     gradient                   ...        0 min,  0.220 sec
 * total energy  :  -281.0140201 Eh     change       -0.3753420E-01 Eh
   gradient norm :     0.0566593 Eh/α   predicted    -0.3562301E-01 (  -5.09%)
   displ. norm   :     0.9295485 α      lambda       -0.3874167E-01
   maximum displ.:     0.3579088 α      in ANC's #33, #42, #45, ...

........................................................................
.............................. CYCLE    7 ..............................
........................................................................
   1   -286.4500306 -0.286450E+03  0.253E-01    0.36       0.0  T
   2   -286.0844550  0.365576E+00  0.776E-01    0.01       1.0  T
   3   -286.4371783 -0.352723E+00  0.271E-01    0.46       1.0  T
   4   -286.4386045 -0.142623E-02  0.276E-01    0.35       1.0  T
   5   -286.4542550 -0.156505E-01  0.111E-01    0.37       1.0  T
   6   -286.4553955 -0.114048E-02  0.738E-02    0.31       1.0  T
   7   -286.4561749 -0.779443E-03  0.665E-02    0.29       1.0  T
   8   -286.4566430 -0.468026E-03  0.569E-02    0.27       1.0  T
   9   -286.4571246 -0.481654E-03  0.461E-02    0.24       1.0  T
  10   -286.4575866 -0.461948E-03  0.298E-02    0.18       1.0  T
  11   -286.4574741  0.112504E-03  0.267E-02    0.16       1.0  T
  12   -286.4579052 -0.431183E-03  0.769E-03    0.17       1.0  T
  13   -286.4579398 -0.345867E-04  0.239E-03    0.18       3.3  T
  14   -286.4579406 -0.769950E-06  0.146E-03    0.18       5.3  T
  15   -286.4579409 -0.314934E-06  0.647E-04    0.18      12.1  T
  16   -286.4579410 -0.651805E-07  0.352E-04    0.18      22.2  T
     SCC iter.                  ...        0 min,  0.943 sec
     gradient                   ...        0 min,  0.220 sec
 * total energy  :  -281.0521002 Eh     change       -0.3808005E-01 Eh
   gradient norm :     0.0548837 Eh/α   predicted    -0.3610841E-01 (  -5.18%)
   displ. norm   :     0.9765605 α      lambda       -0.4171121E-01
   maximum displ.:     0.3951179 α      in ANC's #33, #42, #45, ...

........................................................................
.............................. CYCLE    8 ..............................
........................................................................
   1   -286.4389765 -0.286439E+03  0.293E-01    0.54       0.0  T
   2   -286.4148945  0.240820E-01  0.362E-01    0.38       1.0  T
   3   -286.4351331 -0.202386E-01  0.236E-01    0.47       1.0  T
   4   -286.4419403 -0.680725E-02  0.108E-01    0.53       1.0  T
   5   -286.4438223 -0.188194E-02  0.630E-02    0.45       1.0  T
   6   -286.4445730 -0.750776E-03  0.112E-02    0.47       1.0  T
   7   -286.4445826 -0.953734E-05  0.878E-03    0.47       1.0  T
   8   -286.4445893 -0.667533E-05  0.634E-03    0.47       1.2  T
   9   -286.4445954 -0.617042E-05  0.284E-03    0.47       2.7  T
  10   -286.4445969 -0.143233E-05  0.874E-04    0.47       8.9  T
  11   -286.4445970 -0.128184E-06  0.463E-04    0.47      16.9  T
  12   -286.4445970 -0.191811E-07  0.293E-04    0.47      26.6  T
     SCC iter.                  ...        0 min,  0.707 sec
     gradient                   ...        0 min,  0.220 sec
 * total energy  :  -281.0946391 Eh     change       -0.4253891E-01 Eh
   gradient norm :     0.0720227 Eh/α   predicted    -0.4074501E-01 (  -4.22%)
   displ. norm   :     0.9666156 α      lambda       -0.4396011E-01
   maximum displ.:     0.4148685 α      in ANC's #33, #42, #45, ...

........................................................................
.............................. CYCLE    9 ..............................
........................................................................
   1   -286.4241366 -0.286424E+03  0.266E-01    0.77       0.0  T
   2   -286.4182486  0.588803E-02  0.227E-01    0.81       1.0  T
   3   -286.4204945 -0.224589E-02  0.204E-01    0.82       1.0  T
   4   -286.4267544 -0.625995E-02  0.553E-02    0.82       1.0  T
   5   -286.4267942 -0.398067E-04  0.386E-02    0.82       1.0  T
   6   -286.4271462 -0.352013E-03  0.866E-03    0.82       1.0  T
   7   -286.4271589 -0.126603E-04  0.490E-03    0.82       1.6  T
   8   -286.4271621 -0.322727E-05  0.259E-03    0.82       3.0  T
   9   -286.4271628 -0.644709E-06  0.154E-03    0.82       5.1  T
  10   -286.4271631 -0.343747E-06  0.869E-04    0.82       9.0  T
  11   -286.4271632 -0.920892E-07  0.435E-04    0.82      18.0  T
     SCC iter.                  ...        0 min,  0.651 sec
     gradient                   ...        0 min,  0.220 sec
 * total energy  :  -281.1405825 Eh     change       -0.4594347E-01 Eh
   gradient norm :     0.1000402 Eh/α   predicted    -0.4251705E-01 (  -7.46%)
   displ. norm   :     0.9354010 α      lambda       -0.4864593E-01
   maximum displ.:     0.4212225 α      in ANC's #33, #42, #45, ...

........................................................................
.............................. CYCLE   10 ..............................
........................................................................
   1   -286.4095156 -0.286410E+03  0.231E-01    0.86       0.0  T
   2   -286.4077451  0.177056E-02  0.178E-01    0.86       1.0  T
   3   -286.4079484 -0.203318E-03  0.155E-01    0.86       1.0  T
   4   -286.4113338 -0.338536E-02  0.370E-02    0.86       1.0  T
   5   -286.4113837 -0.499211E-04  0.174E-02    0.86       1.0  T
   6   -286.4114587 -0.750155E-04  0.765E-03    0.86       1.0  T
   7   -286.4114702 -0.114809E-04  0.344E-03    0.86       2.3  T
   8   -286.4114710 -0.853243E-06  0.193E-03    0.86       4.1  T
   9   -286.4114714 -0.376645E-06  0.865E-04    0.86       9.0  T
  10   -286.4114715 -0.865963E-07  0.433E-04    0.86      18.0  T
     SCC iter.                  ...        0 min,  0.591 sec
     gradient                   ...        0 min,  0.220 sec
 * total energy  :  -281.1911508 Eh     change       -0.5056827E-01 Eh
   gradient norm :     0.1224528 Eh/α   predicted    -0.4560501E-01 (  -9.81%)
   displ. norm   :     0.9046740 α      lambda       -0.5269365E-01
   maximum displ.:     0.4264462 α      in ANC's #33, #52, #42, ...

........................................................................
.............................. CYCLE   11 ..............................
........................................................................
   1   -286.4023007 -0.286402E+03  0.181E-01    0.88       0.0  T
   2   -286.4013804  0.920351E-03  0.152E-01    0.88       1.0  T
   3   -286.4020554 -0.675035E-03  0.102E-01    0.88       1.0  T
   4   -286.4032901 -0.123474E-02  0.346E-02    0.88       1.0  T
   5   -286.4034096 -0.119507E-03  0.181E-02    0.88       1.0  T
   6   -286.4035045 -0.948471E-04  0.603E-03    0.88       1.3  T
   7   -286.4035088 -0.435750E-05  0.306E-03    0.88       2.6  T
   8   -286.4035096 -0.795143E-06  0.154E-03    0.88       5.1  T
   9   -286.4035098 -0.161479E-06  0.788E-04    0.88       9.9  T
  10   -286.4035099 -0.786619E-07  0.296E-04    0.88      26.4  T
     SCC iter.                  ...        0 min,  0.566 sec
     gradient                   ...        0 min,  0.209 sec
 * total energy  :  -281.2446650 Eh     change       -0.5351419E-01 Eh
   gradient norm :     0.1362594 Eh/α   predicted    -0.4791000E-01 ( -10.47%)
   displ. norm   :     0.8976052 α      lambda       -0.7508706E-01
   maximum displ.:     0.3873478 α      in ANC's #33, #52, #102, ...

........................................................................
.............................. CYCLE   12 ..............................
........................................................................
   1   -286.3839431 -0.286384E+03  0.258E-01    0.81       0.0  T
   2   -286.3808032  0.313988E-02  0.250E-01    0.81       1.0  T
   3   -286.3851315 -0.432831E-02  0.128E-01    0.81       1.0  T
   4   -286.3856104 -0.478853E-03  0.600E-02    0.81       1.0  T
   5   -286.3864295 -0.819107E-03  0.183E-02    0.81       1.0  T
   6   -286.3865038 -0.743215E-04  0.929E-03    0.81       1.0  T
   7   -286.3865163 -0.125118E-04  0.468E-03    0.81       1.7  T
   8   -286.3865175 -0.117626E-05  0.228E-03    0.81       3.4  T
   9   -286.3865182 -0.676280E-06  0.101E-03    0.81       7.8  T
  10   -286.3865183 -0.158703E-06  0.334E-04    0.81      23.4  T
  11   -286.3865183 -0.708849E-08  0.210E-04    0.81      37.2  T
     SCC iter.                  ...        0 min,  0.621 sec
     gradient                   ...        0 min,  0.209 sec
 * total energy  :  -281.2925148 Eh     change       -0.4784985E-01 Eh
   gradient norm :     0.1124446 Eh/α   predicted    -0.6779218E-01 (  41.68%)
   displ. norm   :     0.7224157 α      lambda       -0.3863119E-01
   maximum displ.:     0.3567421 α      in ANC's #33, #42, #45, ...

........................................................................
.............................. CYCLE   13 ..............................
........................................................................
   1   -286.4323292 -0.286432E+03  0.134E-01    0.84       0.0  T
   2   -286.4322028  0.126410E-03  0.915E-02    0.84       1.0  T
   3   -286.4303093  0.189357E-02  0.906E-02    0.84       1.0  T
   4   -286.4324078 -0.209855E-02  0.211E-02    0.84       1.0  T
   5   -286.4324925 -0.846705E-04  0.540E-03    0.84       1.4  T
   6   -286.4324968 -0.427553E-05  0.250E-03    0.84       3.1  T
   7   -286.4324975 -0.701461E-06  0.138E-03    0.84       5.7  T
   8   -286.4324976 -0.948398E-07  0.710E-04    0.84      11.0  T
   9   -286.4324976 -0.931339E-07  0.296E-04    0.84      26.4  T
     SCC iter.                  ...        0 min,  0.509 sec
     gradient                   ...        0 min,  0.209 sec
 * total energy  :  -281.3263080 Eh     change       -0.3379313E-01 Eh
   gradient norm :     0.0978208 Eh/α   predicted    -0.2939614E-01 ( -13.01%)
   displ. norm   :     0.8895106 α      lambda       -0.6180227E-01
   maximum displ.:     0.3090894 α      in ANC's #33, #129, #132, ...

........................................................................
.............................. CYCLE   14 ..............................
........................................................................
   1   -286.5158131 -0.286516E+03  0.278E-01    0.74       0.0  T
   2   -286.5153559  0.457232E-03  0.202E-01    0.74       1.0  T
   3   -286.5130524  0.230351E-02  0.159E-01    0.74       1.0  T
   4   -286.5161500 -0.309760E-02  0.689E-02    0.74       1.0  T
   5   -286.5172630 -0.111299E-02  0.188E-02    0.74       1.0  T
   6   -286.5173529 -0.899335E-04  0.764E-03    0.74       1.0  T
   7   -286.5173599 -0.698363E-05  0.390E-03    0.74       2.0  T
   8   -286.5173603 -0.381506E-06  0.243E-03    0.74       3.2  T
   9   -286.5173611 -0.875565E-06  0.104E-03    0.74       7.5  T
  10   -286.5173614 -0.220549E-06  0.371E-04    0.74      21.0  T
  11   -286.5173614 -0.205753E-07  0.198E-04    0.74      39.3  T
     SCC iter.                  ...        0 min,  0.621 sec
     gradient                   ...        0 min,  0.209 sec
 * total energy  :  -281.3578106 Eh     change       -0.3150267E-01 Eh
   gradient norm :     0.1075525 Eh/α   predicted    -0.5535100E-01 (  75.70%)
   displ. norm   :     0.8456414 α      lambda       -0.4590648E-01
   maximum displ.:     0.4785771 α      in ANC's #33, #52, #12, ...

........................................................................
.............................. CYCLE   15 ..............................
........................................................................
   1   -286.5690892 -0.286569E+03  0.130E-01    0.77       0.0  T
   2   -286.5681017  0.987528E-03  0.130E-01    0.77       1.0  T
   3   -286.5693811 -0.127937E-02  0.634E-02    0.77       1.0  T
   4   -286.5694326 -0.514930E-04  0.295E-02    0.77       1.0  T
   5   -286.5696439 -0.211333E-03  0.834E-03    0.77       1.0  T
   6   -286.5696592 -0.152655E-04  0.296E-03    0.77       2.6  T
   7   -286.5696593 -0.128090E-06  0.218E-03    0.77       3.6  T
   8   -286.5696598 -0.521106E-06  0.130E-03    0.77       6.0  T
   9   -286.5696601 -0.323766E-06  0.274E-04    0.77      28.5  T
  10   -286.5696601 -0.775123E-08  0.157E-04    0.77      49.7  T
     SCC iter.                  ...        0 min,  0.566 sec
     gradient                   ...        0 min,  0.209 sec
 * total energy  :  -281.3964806 Eh     change       -0.3866995E-01 Eh
   gradient norm :     0.0715369 Eh/α   predicted    -0.3936734E-01 (   1.80%)
   displ. norm   :     0.8265997 α      lambda       -0.3705468E-01
   maximum displ.:     0.4355391 α      in ANC's #33, #42, #45, ...

........................................................................
.............................. CYCLE   16 ..............................
........................................................................
   1   -286.6333785 -0.286633E+03  0.149E-01    0.80       0.0  T
   2   -286.6331921  0.186406E-03  0.111E-01    0.80       1.0  T
   3   -286.6326462  0.545893E-03  0.816E-02    0.80       1.0  T
   4   -286.6334803 -0.834076E-03  0.349E-02    0.80       1.0  T
   5   -286.6338073 -0.327004E-03  0.632E-03    0.80       1.2  T
   6   -286.6338151 -0.772828E-05  0.323E-03    0.80       2.4  T
   7   -286.6338164 -0.134662E-05  0.177E-03    0.80       4.4  T
   8   -286.6338166 -0.188252E-06  0.869E-04    0.80       9.0  T
   9   -286.6338167 -0.982900E-07  0.382E-04    0.80      20.5  T
     SCC iter.                  ...        0 min,  0.510 sec
     gradient                   ...        0 min,  0.209 sec
 * total energy  :  -281.4227135 Eh     change       -0.2623296E-01 Eh
   gradient norm :     0.0872877 Eh/α   predicted    -0.3118649E-01 (  18.88%)
   displ. norm   :     0.8505655 α      lambda       -0.3533919E-01
   maximum displ.:     0.4674997 α      in ANC's #33, #42, #12, ...

........................................................................
.............................. CYCLE   17 ..............................
........................................................................
   1   -286.7025485 -0.286703E+03  0.148E-01    0.82       0.0  T
   2   -286.7023322  0.216316E-03  0.104E-01    0.82       1.0  T
   3   -286.7006316  0.170060E-02  0.968E-02    0.82       1.0  T
   4   -286.7026844 -0.205279E-02  0.210E-02    0.82       1.0  T
   5   -286.7027821 -0.976504E-04  0.691E-03    0.82       1.1  T
   6   -286.7027913 -0.918301E-05  0.264E-03    0.82       3.0  T
   7   -286.7027918 -0.529754E-06  0.150E-03    0.82       5.2  T
   8   -286.7027918 -0.776305E-08  0.103E-03    0.82       7.6  T
   9   -286.7027920 -0.235218E-06  0.310E-04    0.82      25.2  T
  10   -286.7027920 -0.172446E-07  0.147E-04    0.82      53.2  T
     SCC iter.                  ...        0 min,  0.566 sec
     gradient                   ...        0 min,  0.209 sec
 * total energy  :  -281.4508725 Eh     change       -0.2815892E-01 Eh
   gradient norm :     0.0573237 Eh/α   predicted    -0.3045287E-01 (   8.15%)
   displ. norm   :     0.8566020 α      lambda       -0.2885439E-01
   maximum displ.:     0.4472118 α      in ANC's #33, #42, #45, ...

........................................................................
.............................. CYCLE   18 ..............................
........................................................................
   1   -286.7528724 -0.286753E+03  0.134E-01    0.81       0.0  T
   2   -286.7525357  0.336703E-03  0.104E-01    0.80       1.0  T
   3   -286.7520030  0.532644E-03  0.792E-02    0.81       1.0  T
   4   -286.7530199 -0.101690E-02  0.265E-02    0.81       1.0  T
   5   -286.7531897 -0.169742E-03  0.809E-03    0.81       1.0  T
   6   -286.7532034 -0.137528E-04  0.265E-03    0.81       2.9  T
   7   -286.7532038 -0.358942E-06  0.164E-03    0.81       4.8  T
   8   -286.7532039 -0.135140E-06  0.106E-03    0.81       7.3  T
   9   -286.7532041 -0.224446E-06  0.300E-04    0.81      26.1  T
  10   -286.7532042 -0.154389E-07  0.136E-04    0.81      57.3  T
     SCC iter.                  ...        0 min,  0.566 sec
     gradient                   ...        0 min,  0.209 sec
 * total energy  :  -281.4728816 Eh     change       -0.2200909E-01 Eh
   gradient norm :     0.0633864 Eh/α   predicted    -0.2501340E-01 (  13.65%)
   displ. norm   :     0.8557823 α      lambda       -0.2618469E-01
   maximum displ.:     0.4434229 α      in ANC's #33, #42, #45, ...

........................................................................
.............................. CYCLE   19 ..............................
........................................................................
   1   -286.8020139 -0.286802E+03  0.121E-01    0.82       0.0  T
   2   -286.8018388  0.175158E-03  0.854E-02    0.82       1.0  T
   3   -286.8007783  0.106046E-02  0.765E-02    0.82       1.0  T
   4   -286.8020900 -0.131165E-02  0.212E-02    0.82       1.0  T
   5   -286.8021914 -0.101475E-03  0.543E-03    0.82       1.4  T
   6   -286.8021970 -0.560354E-05  0.200E-03    0.82       3.9  T
   7   -286.8021973 -0.281077E-06  0.127E-03    0.82       6.1  T
   8   -286.8021975 -0.184323E-06  0.664E-04    0.82      11.8  T
   9   -286.8021976 -0.903925E-07  0.221E-04    0.82      35.3  T
     SCC iter.                  ...        0 min,  0.511 sec
     gradient                   ...        0 min,  0.209 sec
 * total energy  :  -281.4956350 Eh     change       -0.2275344E-01 Eh
   gradient norm :     0.0408254 Eh/α   predicted    -0.2268071E-01 (  -0.32%)
   displ. norm   :     0.8890860 α      lambda       -0.2129681E-01
   maximum displ.:     0.4758747 α      in ANC's #33, #42, #45, ...

........................................................................
.............................. CYCLE   20 ..............................
........................................................................
   1   -286.8538213 -0.286854E+03  0.130E-01    0.82       0.0  T
   2   -286.8537069  0.114420E-03  0.841E-02    0.82       1.0  T
   3   -286.8518972  0.180974E-02  0.834E-02    0.82       1.0  T
   4   -286.8538939 -0.199670E-02  0.117E-02    0.82       1.0  T
   5   -286.8539297 -0.357872E-04  0.312E-03    0.82       2.5  T
   6   -286.8539310 -0.128942E-05  0.180E-03    0.82       4.3  T
   7   -286.8539312 -0.213333E-06  0.118E-03    0.82       6.6  T
   8   -286.8539314 -0.250657E-06  0.437E-04    0.82      17.9  T
   9   -286.8539315 -0.360316E-07  0.146E-04    0.82      53.5  T
     SCC iter.                  ...        0 min,  0.509 sec
     gradient                   ...        0 min,  0.209 sec
 * total energy  :  -281.5144032 Eh     change       -0.1876822E-01 Eh
   gradient norm :     0.0381324 Eh/α   predicted    -0.1906570E-01 (   1.59%)
   displ. norm   :     0.9299716 α      lambda       -0.2052208E-01
   maximum displ.:     0.4231125 α      in ANC's #33, #42, #45, ...
 * RMSD in coord.:     1.0210327 α      energy gain  -0.1139898E+01 Eh

generating ANC from model Hessian ...
Using Lindh-Hessian (1995)
 Shifting diagonal of input Hessian by    9.9980390566357449E-003
 Lowest  eigenvalues of input Hessian
    0.000000    0.000000    0.000000    0.000000    0.000000    0.000000
    0.010000    0.010002    0.010005    0.010010    0.010013    0.010014
    0.010021    0.010024    0.010034    0.010037    0.010059    0.010068
 Highest eigenvalues
    2.536677    2.556292    2.706261    2.862172    2.867165    3.043294


........................................................................
.............................. CYCLE   21 ..............................
........................................................................
   1   -286.8954671 -0.286895E+03  0.183E-01    0.81       0.0  T
   2   -286.8953293  0.137741E-03  0.114E-01    0.81       1.0  T
   3   -286.8919279  0.340141E-02  0.119E-01    0.81       1.0  T
   4   -286.8955296 -0.360166E-02  0.153E-02    0.81       1.0  T
   5   -286.8955919 -0.623436E-04  0.480E-03    0.81       1.6  T
   6   -286.8955957 -0.381147E-05  0.238E-03    0.81       3.3  T
   7   -286.8955959 -0.142500E-06  0.150E-03    0.81       5.2  T
   8   -286.8955962 -0.341898E-06  0.631E-04    0.81      12.4  T
   9   -286.8955963 -0.845092E-07  0.199E-04    0.81      39.3  T
     SCC iter.                  ...        0 min,  0.510 sec
     gradient                   ...        0 min,  0.209 sec
 * total energy  :  -281.5299869 Eh     change       -0.1558363E-01 Eh
   gradient norm :     0.0339141 Eh/α   predicted     0.0000000E+00 (-100.00%)
   displ. norm   :     0.6510073 α      lambda       -0.1234780E-01
   maximum displ.:     0.3744785 α      in ANC's #38, #40, #37, ...

........................................................................
.............................. CYCLE   22 ..............................
........................................................................
   1   -286.9231733 -0.286923E+03  0.122E-01    0.81       0.0  T
   2   -286.9231394  0.339257E-04  0.744E-02    0.81       1.0  T
   3   -286.9218850  0.125445E-02  0.664E-02    0.81       1.0  T
   4   -286.9232064 -0.132147E-02  0.568E-03    0.81       1.4  T
   5   -286.9232116 -0.514501E-05  0.264E-03    0.81       3.0  T
   6   -286.9232127 -0.109233E-05  0.133E-03    0.81       5.9  T
   7   -286.9232128 -0.990594E-07  0.810E-04    0.81       9.6  T
   8   -286.9232128 -0.772460E-07  0.386E-04    0.81      20.2  T
     SCC iter.                  ...        0 min,  0.454 sec
     gradient                   ...        0 min,  0.209 sec
 * total energy  :  -281.5406158 Eh     change       -0.1062892E-01 Eh
   gradient norm :     0.0246770 Eh/α   predicted    -0.8790520E-02 ( -17.30%)
   displ. norm   :     0.9221209 α      lambda       -0.1607133E-01
   maximum displ.:     0.4449770 α      in ANC's #38, #40, #37, ...

........................................................................
.............................. CYCLE   23 ..............................
........................................................................
   1   -286.9579474 -0.286958E+03  0.172E-01    0.81       0.0  T
   2   -286.9578896  0.578483E-04  0.105E-01    0.81       1.0  T
   3   -286.9555581  0.233146E-02  0.919E-02    0.81       1.0  T
   4   -286.9580100 -0.245186E-02  0.853E-03    0.81       1.0  T
   5   -286.9580217 -0.117276E-04  0.368E-03    0.81       2.1  T
   6   -286.9580239 -0.217462E-05  0.204E-03    0.81       3.8  T
   7   -286.9580243 -0.390454E-06  0.116E-03    0.81       6.7  T
   8   -286.9580244 -0.142773E-06  0.564E-04    0.81      13.8  T
   9   -286.9580245 -0.755061E-07  0.158E-04    0.81      49.3  T
     SCC iter.                  ...        0 min,  0.510 sec
     gradient                   ...        0 min,  0.210 sec
 * total energy  :  -281.5533214 Eh     change       -0.1270566E-01 Eh
   gradient norm :     0.0288801 Eh/α   predicted    -0.1486873E-01 (  17.02%)
   displ. norm   :     0.8491199 α      lambda       -0.1195432E-01
   maximum displ.:     0.5234761 α      in ANC's #38, #40, #37, ...

........................................................................
.............................. CYCLE   24 ..............................
........................................................................
   1   -286.9733873 -0.286973E+03  0.128E-01    0.82       0.0  T
   2   -286.9733437  0.436517E-04  0.784E-02    0.82       1.0  T
   3   -286.9717936  0.155005E-02  0.695E-02    0.82       1.0  T
   4   -286.9734335 -0.163986E-02  0.641E-03    0.82       1.2  T
   5   -286.9734410 -0.746437E-05  0.228E-03    0.82       3.4  T
   6   -286.9734415 -0.507116E-06  0.138E-03    0.82       5.7  T
   7   -286.9734416 -0.145338E-06  0.776E-04    0.82      10.1  T
   8   -286.9734417 -0.839933E-07  0.383E-04    0.82      20.4  T
     SCC iter.                  ...        0 min,  0.453 sec
     gradient                   ...        0 min,  0.210 sec
 * total energy  :  -281.5638016 Eh     change       -0.1048013E-01 Eh
   gradient norm :     0.0206160 Eh/α   predicted    -0.1028675E-01 (  -1.85%)
   displ. norm   :     0.8680437 α      lambda       -0.1001252E-01
   maximum displ.:     0.4836731 α      in ANC's #38, #40, #37, ...

........................................................................
.............................. CYCLE   25 ..............................
........................................................................
   1   -286.9877795 -0.286988E+03  0.137E-01    0.82       0.0  T
   2   -286.9877497  0.297992E-04  0.825E-02    0.82       1.0  T
   3   -286.9863418  0.140780E-02  0.648E-02    0.82       1.0  T
   4   -286.9878160 -0.147413E-02  0.794E-03    0.82       1.0  T
   5   -286.9878293 -0.133242E-04  0.302E-03    0.82       2.6  T
   6   -286.9878306 -0.125132E-05  0.172E-03    0.82       4.5  T
   7   -286.9878308 -0.250463E-06  0.100E-03    0.82       7.8  T
   8   -286.9878309 -0.139178E-06  0.400E-04    0.82      19.5  T
   9   -286.9878310 -0.353120E-07  0.114E-04    0.82      68.4  T
     SCC iter.                  ...        0 min,  0.509 sec
     gradient                   ...        0 min,  0.210 sec
 * total energy  :  -281.5723737 Eh     change       -0.8572149E-02 Eh
   gradient norm :     0.0180305 Eh/α   predicted    -0.8778484E-02 (   2.41%)
   displ. norm   :     0.8657881 α      lambda       -0.8410810E-02
   maximum displ.:     0.5521420 α      in ANC's #38, #37, #40, ...

........................................................................
.............................. CYCLE   26 ..............................
........................................................................
   1   -287.0066751 -0.287007E+03  0.152E-01    0.83       0.0  T
   2   -287.0066640  0.111539E-04  0.906E-02    0.83       1.0  T
   3   -287.0056684  0.995618E-03  0.551E-02    0.83       1.0  T
   4   -287.0067019 -0.103349E-02  0.775E-03    0.83       1.0  T
   5   -287.0067155 -0.136527E-04  0.295E-03    0.83       2.6  T
   6   -287.0067165 -0.962982E-06  0.183E-03    0.83       4.3  T
   7   -287.0067167 -0.267519E-06  0.106E-03    0.83       7.4  T
   8   -287.0067169 -0.167712E-06  0.420E-04    0.83      18.6  T
   9   -287.0067170 -0.390928E-07  0.112E-04    0.83      69.6  T
     SCC iter.                  ...        0 min,  0.510 sec
     gradient                   ...        0 min,  0.211 sec
 * total energy  :  -281.5790801 Eh     change       -0.6706403E-02 Eh
   gradient norm :     0.0164651 Eh/α   predicted    -0.7357737E-02 (   9.71%)
   displ. norm   :     0.8355587 α      lambda       -0.6889725E-02
   maximum displ.:     0.4822561 α      in ANC's #38, #40, #37, ...

........................................................................
.............................. CYCLE   27 ..............................
........................................................................
   1   -287.0217492 -0.287022E+03  0.166E-01    0.83       0.0  T
   2   -287.0217492 -0.361993E-07  0.987E-02    0.83       1.0  T
   3   -287.0211201  0.629115E-03  0.446E-02    0.83       1.0  T
   4   -287.0217693 -0.649171E-03  0.700E-03    0.83       1.1  T
   5   -287.0217809 -0.116513E-04  0.276E-03    0.83       2.8  T
   6   -287.0217816 -0.637715E-06  0.172E-03    0.83       4.5  T
   7   -287.0217818 -0.188848E-06  0.947E-04    0.83       8.2  T
   8   -287.0217819 -0.117995E-06  0.429E-04    0.83      18.2  T
     SCC iter.                  ...        0 min,  0.454 sec
     gradient                   ...        0 min,  0.212 sec
 * total energy  :  -281.5838141 Eh     change       -0.4733953E-02 Eh
   gradient norm :     0.0161839 Eh/α   predicted    -0.5849925E-02 (  23.57%)
   displ. norm   :     0.7455838 α      lambda       -0.5292797E-02
   maximum displ.:     0.3950220 α      in ANC's #38, #40, #37, ...

........................................................................
.............................. CYCLE   28 ..............................
........................................................................
   1   -287.0358384 -0.287036E+03  0.148E-01    0.84       0.0  T
   2   -287.0358399 -0.144676E-05  0.882E-02    0.84       1.0  T
   3   -287.0354304  0.409477E-03  0.370E-02    0.84       1.0  T
   4   -287.0358551 -0.424659E-03  0.525E-03    0.84       1.5  T
   5   -287.0358603 -0.522606E-05  0.212E-03    0.84       3.7  T
   6   -287.0358605 -0.226285E-06  0.147E-03    0.84       5.3  T
   7   -287.0358607 -0.207432E-06  0.818E-04    0.84       9.5  T
   8   -287.0358608 -0.969297E-07  0.321E-04    0.84      24.3  T
     SCC iter.                  ...        0 min,  0.454 sec
     gradient                   ...        0 min,  0.211 sec
 * total energy  :  -281.5875779 Eh     change       -0.3763864E-02 Eh
   gradient norm :     0.0142885 Eh/α   predicted    -0.4117529E-02 (   9.40%)
   displ. norm   :     0.6956958 α      lambda       -0.3107688E-02
   maximum displ.:     0.4172541 α      in ANC's #38, #16, #37, ...

........................................................................
.............................. CYCLE   29 ..............................
........................................................................
   1   -287.0463008 -0.287046E+03  0.984E-02    0.84       0.0  T
   2   -287.0463020 -0.120767E-05  0.582E-02    0.84       1.0  T
   3   -287.0460714  0.230578E-03  0.290E-02    0.84       1.0  T
   4   -287.0463113 -0.239913E-03  0.395E-03    0.84       2.0  T
   5   -287.0463141 -0.278454E-05  0.174E-03    0.84       4.5  T
   6   -287.0463145 -0.325114E-06  0.980E-04    0.84       8.0  T
   7   -287.0463145 -0.411821E-07  0.629E-04    0.84      12.4  T
     SCC iter.                  ...        0 min,  0.397 sec
     gradient                   ...        0 min,  0.211 sec
 * total energy  :  -281.5901094 Eh     change       -0.2531445E-02 Eh
   gradient norm :     0.0127947 Eh/α   predicted    -0.2305904E-02 (  -8.91%)
   displ. norm   :     0.7171305 α      lambda       -0.2705296E-02
   maximum displ.:     0.3746093 α      in ANC's #38, #16, #17, ...

........................................................................
.............................. CYCLE   30 ..............................
........................................................................
   1   -287.0607824 -0.287061E+03  0.108E-01    0.84       0.0  T
   2   -287.0607843 -0.187417E-05  0.640E-02    0.84       1.0  T
   3   -287.0605673  0.216948E-03  0.310E-02    0.84       1.0  T
   4   -287.0607922 -0.224839E-03  0.425E-03    0.84       1.8  T
   5   -287.0607949 -0.274778E-05  0.224E-03    0.84       3.5  T
   6   -287.0607957 -0.813815E-06  0.109E-03    0.84       7.2  T
   7   -287.0607958 -0.715462E-07  0.621E-04    0.84      12.6  T
   8   -287.0607959 -0.699299E-07  0.256E-04    0.84      30.5  T
     SCC iter.                  ...        0 min,  0.455 sec
     gradient                   ...        0 min,  0.211 sec
 * total energy  :  -281.5920120 Eh     change       -0.1902573E-02 Eh
   gradient norm :     0.0122538 Eh/α   predicted    -0.2048285E-02 (   7.66%)
   displ. norm   :     0.7071506 α      lambda       -0.2781658E-02
   maximum displ.:     0.3266296 α      in ANC's #16, #38, #17, ...

........................................................................
.............................. CYCLE   31 ..............................
........................................................................
   1   -287.0773705 -0.287077E+03  0.119E-01    0.84       0.0  T
   2   -287.0773754 -0.482020E-05  0.704E-02    0.84       1.0  T
   3   -287.0772378  0.137553E-03  0.248E-02    0.84       1.0  T
   4   -287.0773775 -0.139681E-03  0.546E-03    0.84       1.4  T
   5   -287.0773828 -0.532491E-05  0.231E-03    0.84       3.4  T
   6   -287.0773835 -0.695221E-06  0.127E-03    0.84       6.1  T
   7   -287.0773837 -0.142750E-06  0.579E-04    0.84      13.5  T
   8   -287.0773837 -0.480896E-07  0.245E-04    0.84      31.9  T
     SCC iter.                  ...        0 min,  0.454 sec
     gradient                   ...        0 min,  0.211 sec
 * total energy  :  -281.5936571 Eh     change       -0.1645133E-02 Eh
   gradient norm :     0.0122167 Eh/α   predicted    -0.2086333E-02 (  26.82%)
   displ. norm   :     0.5962064 α      lambda       -0.1772929E-02
   maximum displ.:     0.3052272 α      in ANC's #16, #38, #17, ...

........................................................................
.............................. CYCLE   32 ..............................
........................................................................
   1   -287.0761907 -0.287076E+03  0.915E-02    0.84       0.0  T
   2   -287.0761933 -0.251306E-05  0.543E-02    0.84       1.0  T
   3   -287.0761158  0.774173E-04  0.178E-02    0.84       1.0  T
   4   -287.0761953 -0.795056E-04  0.377E-03    0.84       2.1  T
   5   -287.0761980 -0.261042E-05  0.179E-03    0.84       4.4  T
   6   -287.0761984 -0.445160E-06  0.917E-04    0.84       8.5  T
   7   -287.0761985 -0.550345E-07  0.488E-04    0.84      16.0  T
     SCC iter.                  ...        0 min,  0.397 sec
     gradient                   ...        0 min,  0.211 sec
 * total energy  :  -281.5947037 Eh     change       -0.1046631E-02 Eh
   gradient norm :     0.0105501 Eh/α   predicted    -0.1201569E-02 (  14.80%)
   displ. norm   :     0.5781669 α      lambda       -0.1725943E-02
   maximum displ.:     0.3164865 α      in ANC's #17, #16, #38, ...

........................................................................
.............................. CYCLE   33 ..............................
........................................................................
   1   -287.0757316 -0.287076E+03  0.864E-02    0.84       0.0  T
   2   -287.0757332 -0.158761E-05  0.513E-02    0.84       1.0  T
   3   -287.0756167  0.116493E-03  0.211E-02    0.84       1.0  T
   4   -287.0757369 -0.120193E-03  0.383E-03    0.84       2.0  T
   5   -287.0757398 -0.294499E-05  0.166E-03    0.84       4.7  T
   6   -287.0757402 -0.416288E-06  0.863E-04    0.84       9.0  T
   7   -287.0757403 -0.505808E-07  0.488E-04    0.84      16.0  T
     SCC iter.                  ...        0 min,  0.397 sec
     gradient                   ...        0 min,  0.211 sec
 * total energy  :  -281.5957466 Eh     change       -0.1042860E-02 Eh
   gradient norm :     0.0092993 Eh/α   predicted    -0.1151446E-02 (  10.41%)
   displ. norm   :     0.5342223 α      lambda       -0.1144330E-02
   maximum displ.:     0.3254434 α      in ANC's #16, #17, #18, ...

........................................................................
.............................. CYCLE   34 ..............................
........................................................................
   1   -287.0898060 -0.287090E+03  0.598E-02    0.84       0.0  T
   2   -287.0898073 -0.124407E-05  0.355E-02    0.84       1.0  T
   3   -287.0896947  0.112539E-03  0.206E-02    0.84       1.0  T
   4   -287.0898119 -0.117206E-03  0.359E-03    0.84       2.2  T
   5   -287.0898146 -0.267754E-05  0.135E-03    0.84       5.8  T
   6   -287.0898149 -0.279997E-06  0.806E-04    0.84       9.7  T
   7   -287.0898150 -0.901902E-07  0.418E-04    0.84      18.7  T
     SCC iter.                  ...        0 min,  0.398 sec
     gradient                   ...        0 min,  0.212 sec
 * total energy  :  -281.5966139 Eh     change       -0.8673413E-03 Eh
   gradient norm :     0.0094820 Eh/α   predicted    -0.7354512E-03 ( -15.21%)
   displ. norm   :     0.5851933 α      lambda       -0.9882636E-03
   maximum displ.:     0.3669420 α      in ANC's #16, #17, #18, ...

........................................................................
.............................. CYCLE   35 ..............................
........................................................................
   1   -287.0909618 -0.287091E+03  0.588E-02    0.84       0.0  T
   2   -287.0909642 -0.242692E-05  0.348E-02    0.84       1.0  T
   3   -287.0908864  0.778021E-04  0.182E-02    0.84       1.0  T
   4   -287.0909673 -0.808963E-04  0.333E-03    0.84       2.3  T
   5   -287.0909694 -0.208505E-05  0.140E-03    0.84       5.6  T
   6   -287.0909697 -0.328272E-06  0.732E-04    0.84      10.7  T
   7   -287.0909698 -0.666845E-07  0.397E-04    0.84      19.7  T
     SCC iter.                  ...        0 min,  0.398 sec
     gradient                   ...        0 min,  0.212 sec
 * total energy  :  -281.5974211 Eh     change       -0.8071474E-03 Eh
   gradient norm :     0.0079327 Eh/α   predicted    -0.6633524E-03 ( -17.82%)
   displ. norm   :     0.5563797 α      lambda       -0.8880725E-03
   maximum displ.:     0.3569342 α      in ANC's #16, #17, #18, ...

........................................................................
.............................. CYCLE   36 ..............................
........................................................................
   1   -287.0957148 -0.287096E+03  0.551E-02    0.84       0.0  T
   2   -287.0957176 -0.277201E-05  0.326E-02    0.84       1.0  T
   3   -287.0956727  0.449185E-04  0.140E-02    0.84       1.0  T
   4   -287.0957192 -0.464734E-04  0.307E-03    0.84       2.5  T
   5   -287.0957210 -0.183854E-05  0.107E-03    0.84       7.3  T
   6   -287.0957212 -0.154446E-06  0.512E-04    0.84      15.2  T
   7   -287.0957212 -0.578677E-08  0.359E-04    0.84      21.8  T
     SCC iter.                  ...        0 min,  0.397 sec
     gradient                   ...        0 min,  0.211 sec
 * total energy  :  -281.5981439 Eh     change       -0.7228782E-03 Eh
   gradient norm :     0.0069125 Eh/α   predicted    -0.5814979E-03 ( -19.56%)
   displ. norm   :     0.5695459 α      lambda       -0.7960583E-03
   maximum displ.:     0.3690882 α      in ANC's #16, #17, #18, ...

........................................................................
.............................. CYCLE   37 ..............................
........................................................................
   1   -287.0964098 -0.287096E+03  0.512E-02    0.84       0.0  T
   2   -287.0964119 -0.208458E-05  0.303E-02    0.84       1.0  T
   3   -287.0963630  0.489305E-04  0.141E-02    0.84       1.0  T
   4   -287.0964130 -0.499902E-04  0.315E-03    0.84       2.5  T
   5   -287.0964154 -0.239573E-05  0.880E-04    0.84       8.9  T
   6   -287.0964155 -0.879078E-07  0.498E-04    0.84      15.7  T
   7   -287.0964155 -0.140630E-07  0.339E-04    0.84      23.0  T
     SCC iter.                  ...        0 min,  0.398 sec
     gradient                   ...        0 min,  0.212 sec
 * total energy  :  -281.5987971 Eh     change       -0.6531932E-03 Eh
   gradient norm :     0.0068658 Eh/α   predicted    -0.5271469E-03 ( -19.30%)
   displ. norm   :     0.5498937 α      lambda       -0.6337907E-03
   maximum displ.:     0.3689147 α      in ANC's #16, #17, #18, ...

........................................................................
.............................. CYCLE   38 ..............................
........................................................................
   1   -287.1009179 -0.287101E+03  0.455E-02    0.84       0.0  T
   2   -287.1009178  0.590246E-07  0.270E-02    0.84       1.0  T
   3   -287.1008507  0.671089E-04  0.149E-02    0.84       1.0  T
   4   -287.1009207 -0.699449E-04  0.199E-03    0.84       3.9  T
   5   -287.1009215 -0.783474E-06  0.897E-04    0.84       8.7  T
   6   -287.1009216 -0.115863E-06  0.502E-04    0.84      15.5  T
     SCC iter.                  ...        0 min,  0.341 sec
     gradient                   ...        0 min,  0.212 sec
 * total energy  :  -281.5993179 Eh     change       -0.5207878E-03 Eh
   gradient norm :     0.0066667 Eh/α   predicted    -0.4127189E-03 ( -20.75%)
   displ. norm   :     0.4981852 α      lambda       -0.5030601E-03
   maximum displ.:     0.3434356 α      in ANC's #16, #17, #18, ...

........................................................................
.............................. CYCLE   39 ..............................
........................................................................
   1   -287.1062182 -0.287106E+03  0.403E-02    0.84       0.0  T
   2   -287.1062173  0.843867E-06  0.240E-02    0.84       1.0  T
   3   -287.1061444  0.728680E-04  0.151E-02    0.84       1.0  T
   4   -287.1062206 -0.761587E-04  0.172E-03    0.84       4.5  T
   5   -287.1062211 -0.515488E-06  0.801E-04    0.84       9.8  T
   6   -287.1062212 -0.866219E-07  0.476E-04    0.84      16.4  T
     SCC iter.                  ...        0 min,  0.341 sec
     gradient                   ...        0 min,  0.212 sec
 * total energy  :  -281.5997224 Eh     change       -0.4045222E-03 Eh
   gradient norm :     0.0059827 Eh/α   predicted    -0.3139626E-03 ( -22.39%)
   displ. norm   :     0.4436722 α      lambda       -0.4002570E-03
   maximum displ.:     0.3122983 α      in ANC's #16, #17, #18, ...

........................................................................
.............................. CYCLE   40 ..............................
........................................................................
   1   -287.1127379 -0.287113E+03  0.336E-02    0.84       0.0  T
   2   -287.1127377  0.143025E-06  0.199E-02    0.84       1.0  T
   3   -287.1126991  0.385987E-04  0.115E-02    0.84       1.0  T
   4   -287.1127396 -0.404384E-04  0.149E-03    0.84       5.2  T
   5   -287.1127401 -0.467686E-06  0.568E-04    0.84      13.8  T
   6   -287.1127401 -0.288386E-07  0.372E-04    0.84      21.0  T
     SCC iter.                  ...        0 min,  0.341 sec
     gradient                   ...        0 min,  0.212 sec
 * total energy  :  -281.6000497 Eh     change       -0.3272107E-03 Eh
   gradient norm :     0.0044929 Eh/α   predicted    -0.2395261E-03 ( -26.80%)
   displ. norm   :     0.4144531 α      lambda       -0.3231759E-03
   maximum displ.:     0.2943803 α      in ANC's #16, #17, #18, ...

........................................................................
.............................. CYCLE   41 ..............................
........................................................................
   1   -287.1168476 -0.287117E+03  0.307E-02    0.84       0.0  T
   2   -287.1168477 -0.136747E-06  0.181E-02    0.84       1.0  T
   3   -287.1168241  0.236390E-04  0.978E-03    0.84       1.0  T
   4   -287.1168488 -0.247371E-04  0.136E-03    0.84       5.7  T
   5   -287.1168492 -0.378033E-06  0.533E-04    0.84      14.7  T
   6   -287.1168492 -0.209684E-07  0.366E-04    0.84      21.3  T
     SCC iter.                  ...        0 min,  0.340 sec
     gradient                   ...        0 min,  0.212 sec
 * total energy  :  -281.6003171 Eh     change       -0.2674907E-03 Eh
   gradient norm :     0.0044577 Eh/α   predicted    -0.1893460E-03 ( -29.21%)
   displ. norm   :     0.3788538 α      lambda       -0.2654996E-03
   maximum displ.:     0.2731252 α      in ANC's #16, #17, #18, ...

........................................................................
.............................. CYCLE   42 ..............................
........................................................................
   1   -287.1215669 -0.287122E+03  0.274E-02    0.84       0.0  T
   2   -287.1215669  0.385461E-07  0.162E-02    0.84       1.0  T
   3   -287.1215460  0.208752E-04  0.909E-03    0.84       1.0  T
   4   -287.1215677 -0.217532E-04  0.143E-03    0.84       5.5  T
   5   -287.1215681 -0.377105E-06  0.584E-04    0.84      13.4  T
   6   -287.1215682 -0.372941E-07  0.314E-04    0.84      24.8  T
     SCC iter.                  ...        0 min,  0.341 sec
     gradient                   ...        0 min,  0.212 sec
 * total energy  :  -281.6005383 Eh     change       -0.2211049E-03 Eh
   gradient norm :     0.0042355 Eh/α   predicted    -0.1518071E-03 ( -31.34%)
   displ. norm   :     0.3659480 α      lambda       -0.2259034E-03
   maximum displ.:     0.2653772 α      in ANC's #16, #17, #18, ...
 * RMSD in coord.:     0.8768919 α      energy gain  -0.8613503E-01 Eh

generating ANC from model Hessian ...
Using Lindh-Hessian (1995)
 Shifting diagonal of input Hessian by    9.9988710888194807E-003
 Lowest  eigenvalues of input Hessian
    0.000000    0.000000    0.000000    0.000000    0.000000    0.000000
    0.010000    0.010002    0.010003    0.010007    0.010008    0.010013
    0.010013    0.010015    0.010019    0.010026    0.010042    0.010056
 Highest eigenvalues
    2.686020    2.688042    2.688400    3.020855    3.024024    3.024461


........................................................................
.............................. CYCLE   43 ..............................
........................................................................
   1   -287.1232253 -0.287123E+03  0.269E-02    0.84       0.0  T
   2   -287.1232252  0.896808E-07  0.159E-02    0.84       1.0  T
   3   -287.1232030  0.222648E-04  0.916E-03    0.84       1.0  T
   4   -287.1232262 -0.232641E-04  0.123E-03    0.84       6.4  T
   5   -287.1232265 -0.271110E-06  0.589E-04    0.84      13.3  T
   6   -287.1232265 -0.463857E-07  0.306E-04    0.84      25.5  T
     SCC iter.                  ...        0 min,  0.342 sec
     gradient                   ...        0 min,  0.213 sec
 * total energy  :  -281.6007261 Eh     change       -0.1878778E-03 Eh
   gradient norm :     0.0041462 Eh/α   predicted     0.0000000E+00 (-100.00%)
   displ. norm   :     0.0623077 α      lambda       -0.7258015E-04
   maximum displ.:     0.0290208 α      in ANC's #17, #16, #18, ...

........................................................................
.............................. CYCLE   44 ..............................
........................................................................
   1   -287.1242456 -0.287124E+03  0.153E-02    0.84       0.0  T
   2   -287.1242458 -0.139760E-06  0.911E-03    0.84       1.0  T
   3   -287.1242437  0.208410E-05  0.274E-03    0.84       2.8  T
   4   -287.1242456 -0.197179E-05  0.891E-04    0.84       8.8  T
   5   -287.1242459 -0.234331E-06  0.290E-04    0.84      26.9  T
   6   -287.1242459 -0.129041E-07  0.154E-04    0.84      50.8  T
     SCC iter.                  ...        0 min,  0.341 sec
     gradient                   ...        0 min,  0.226 sec
 * total energy  :  -281.6007791 Eh     change       -0.5301782E-04 Eh
   gradient norm :     0.0026449 Eh/α   predicted    -0.3743856E-04 ( -29.38%)
   displ. norm   :     0.2523548 α      lambda       -0.2387162E-03
   maximum displ.:     0.1077943 α      in ANC's #17, #16, #18, ...

........................................................................
.............................. CYCLE   45 ..............................
........................................................................
   1   -287.1274954 -0.287127E+03  0.364E-02    0.84       0.0  T
   2   -287.1274972 -0.178701E-05  0.216E-02    0.84       1.0  T
   3   -287.1274726  0.245900E-04  0.963E-03    0.84       1.0  T
   4   -287.1274963 -0.237055E-04  0.297E-03    0.84       2.6  T
   5   -287.1274989 -0.265437E-05  0.841E-04    0.84       9.3  T
   6   -287.1274990 -0.110951E-06  0.447E-04    0.84      17.5  T
   7   -287.1274991 -0.127732E-07  0.290E-04    0.84      26.9  T
     SCC iter.                  ...        0 min,  0.398 sec
     gradient                   ...        0 min,  0.213 sec
 * total energy  :  -281.6008615 Eh     change       -0.8232655E-04 Eh
   gradient norm :     0.0066475 Eh/α   predicted    -0.1269592E-03 (  54.21%)
   displ. norm   :     0.1277180 α      lambda       -0.1497099E-03
   maximum displ.:     0.0745016 α      in ANC's #17, #18, #16, ...

........................................................................
.............................. CYCLE   46 ..............................
........................................................................
   1   -287.1272825 -0.287127E+03  0.230E-02    0.84       0.0  T
   2   -287.1272826 -0.319815E-07  0.137E-02    0.84       1.0  T
   3   -287.1272768  0.574627E-05  0.486E-03    0.84       1.6  T
   4   -287.1272828 -0.597703E-05  0.635E-04    0.84      12.3  T
   5   -287.1272829 -0.543752E-07  0.336E-04    0.84      23.3  T
   6   -287.1272829 -0.118314E-07  0.213E-04    0.84      36.7  T
     SCC iter.                  ...        0 min,  0.341 sec
     gradient                   ...        0 min,  0.213 sec
 * total energy  :  -281.6009606 Eh     change       -0.9910854E-04 Eh
   gradient norm :     0.0053705 Eh/α   predicted    -0.7607634E-04 ( -23.24%)
   displ. norm   :     0.2036503 α      lambda       -0.1450559E-03
   maximum displ.:     0.1015546 α      in ANC's #17, #16, #18, ...

........................................................................
.............................. CYCLE   47 ..............................
........................................................................
   1   -287.1262443 -0.287126E+03  0.257E-02    0.84       0.0  T
   2   -287.1262444 -0.355282E-07  0.152E-02    0.84       1.0  T
   3   -287.1262332  0.111220E-04  0.695E-03    0.84       1.1  T
   4   -287.1262449 -0.116217E-04  0.875E-04    0.84       8.9  T
   5   -287.1262450 -0.110184E-06  0.442E-04    0.84      17.7  T
   6   -287.1262450 -0.260032E-07  0.249E-04    0.84      31.3  T
     SCC iter.                  ...        0 min,  0.341 sec
     gradient                   ...        0 min,  0.212 sec
 * total energy  :  -281.6010604 Eh     change       -0.9986275E-04 Eh
   gradient norm :     0.0034005 Eh/α   predicted    -0.7553665E-04 ( -24.36%)
   displ. norm   :     0.3185859 α      lambda       -0.1484811E-03
   maximum displ.:     0.1660482 α      in ANC's #17, #16, #18, ...

........................................................................
.............................. CYCLE   48 ..............................
........................................................................
   1   -287.1258833 -0.287126E+03  0.367E-02    0.84       0.0  T
   2   -287.1258833 -0.924194E-08  0.217E-02    0.84       1.0  T
   3   -287.1258620  0.213112E-04  0.955E-03    0.84       1.0  T
   4   -287.1258843 -0.223456E-04  0.111E-03    0.84       7.0  T
   5   -287.1258845 -0.162704E-06  0.574E-04    0.84      13.6  T
   6   -287.1258845 -0.321087E-07  0.348E-04    0.84      22.5  T
     SCC iter.                  ...        0 min,  0.341 sec
     gradient                   ...        0 min,  0.212 sec
 * total energy  :  -281.6011419 Eh     change       -0.8145218E-04 Eh
   gradient norm :     0.0042286 Eh/α   predicted    -0.8178019E-04 (   0.40%)
   displ. norm   :     0.3689933 α      lambda       -0.1941316E-03
   maximum displ.:     0.1953609 α      in ANC's #17, #16, #18, ...

........................................................................
.............................. CYCLE   49 ..............................
........................................................................
   1   -287.1264673 -0.287126E+03  0.416E-02    0.84       0.0  T
   2   -287.1264674 -0.568029E-07  0.247E-02    0.84       1.0  T
   3   -287.1264427  0.246712E-04  0.104E-02    0.84       1.0  T
   4   -287.1264685 -0.257778E-04  0.136E-03    0.84       5.7  T
   5   -287.1264687 -0.256358E-06  0.676E-04    0.84      11.5  T
   6   -287.1264688 -0.427893E-07  0.412E-04    0.84      18.9  T
     SCC iter.                  ...        0 min,  0.340 sec
     gradient                   ...        0 min,  0.213 sec
 * total energy  :  -281.6012252 Eh     change       -0.8330435E-04 Eh
   gradient norm :     0.0049507 Eh/α   predicted    -0.1102839E-03 (  32.39%)
   displ. norm   :     0.1362152 α      lambda       -0.9363456E-04
   maximum displ.:     0.0750565 α      in ANC's #16, #17, #18, ...

........................................................................
.............................. CYCLE   50 ..............................
........................................................................
   1   -287.1289479 -0.287129E+03  0.171E-02    0.84       0.0  T
   2   -287.1289480 -0.556666E-07  0.102E-02    0.84       1.0  T
   3   -287.1289445  0.347345E-05  0.374E-03    0.84       2.1  T
   4   -287.1289480 -0.355504E-05  0.743E-04    0.84      10.5  T
   5   -287.1289481 -0.107957E-06  0.291E-04    0.84      26.9  T
   6   -287.1289482 -0.103883E-07  0.166E-04    0.84      47.0  T
     SCC iter.                  ...        0 min,  0.340 sec
     gradient                   ...        0 min,  0.212 sec
 * total energy  :  -281.6012959 Eh     change       -0.7069108E-04 Eh
   gradient norm :     0.0027695 Eh/α   predicted    -0.4768771E-04 ( -32.54%)
   displ. norm   :     0.2041712 α      lambda       -0.8937298E-04
   maximum displ.:     0.1158251 α      in ANC's #16, #17, #18, ...

........................................................................
.............................. CYCLE   51 ..............................
........................................................................
   1   -287.1325369 -0.287133E+03  0.208E-02    0.84       0.0  T
   2   -287.1325370 -0.100427E-06  0.123E-02    0.84       1.0  T
   3   -287.1325287  0.828061E-05  0.576E-03    0.84       1.4  T
   4   -287.1325373 -0.858741E-05  0.983E-04    0.84       7.9  T
   5   -287.1325375 -0.204903E-06  0.339E-04    0.84      23.0  T
   6   -287.1325375 -0.709747E-08  0.231E-04    0.84      33.7  T
     SCC iter.                  ...        0 min,  0.342 sec
     gradient                   ...        0 min,  0.212 sec
 * total energy  :  -281.6013482 Eh     change       -0.5235103E-04 Eh
   gradient norm :     0.0020927 Eh/α   predicted    -0.4655312E-04 ( -11.08%)
   displ. norm   :     0.2492019 α      lambda       -0.8970942E-04
   maximum displ.:     0.1380171 α      in ANC's #16, #17, #18, ...

........................................................................
.............................. CYCLE   52 ..............................
........................................................................
   1   -287.1357530 -0.287136E+03  0.301E-02    0.84       0.0  T
   2   -287.1357530 -0.282773E-07  0.179E-02    0.84       1.0  T
   3   -287.1357371  0.159641E-04  0.769E-03    0.84       1.0  T
   4   -287.1357536 -0.165617E-04  0.112E-03    0.84       7.0  T
   5   -287.1357539 -0.247317E-06  0.480E-04    0.84      16.3  T
   6   -287.1357539 -0.187151E-07  0.322E-04    0.84      24.3  T
     SCC iter.                  ...        0 min,  0.340 sec
[...]
 169:  1.07 170:  0.12 171: 46.95 172:  0.01 173:  0.85 174:  3.12 175:  6.04 176:  8.82
 177: 13.13 178:  2.23 179:  3.50 180:  0.01 181:  0.61 182:  0.20 183: 14.12 184:  1.38
 185:  3.00 186:  0.00 187:  0.02 188:  0.00 189: 21.94 190:  0.02 191:  9.10 192:  0.55
 193: 76.15 194: 27.67 195:292.58 196:333.85 197:102.09 198:710.92 199:  2.03 200: 56.83
 201:  7.46 202:  0.41 203: 16.21 204:  0.62 205:  2.86 206:  0.89 207:  0.01 208:  0.04
 209: 83.51 210:  0.25 211:  3.05 212:  0.03 213: 10.81 214:  3.17 215: 12.05 216: 13.02
 217:  9.78 218:  0.24 219:  0.14 220:  0.00 221: 23.51 222: 24.73 223:  2.79 224: 96.72
 225:  1.77 226:  1.47 227:  0.00 228:  0.00 229: 11.03 230:  9.50 231:  0.02 232:  0.01
 233:  9.24 234:  0.12 235:  0.97 236:  1.88 237:  9.70 238:  5.78 239: 14.76 240: 12.41
 241:  0.94 242:121.82 243:  0.24 244:  0.62 245: 70.80 246: 61.54 247: 35.18 248: 32.92
 249:  5.40 250:  6.79 251: 57.74 252:112.81 253:  0.05 254:  0.42 255:  8.68 256:  5.64
 257:  0.11 258:  1.49 259: 10.50 260: 14.44 261:  2.05 262:  4.80 263: 16.10 264:  0.02
 265:  0.09 266:  0.20 267: 20.41 268:  0.04 269:  0.93 270:  0.15 271: 10.90 272:  3.16
 273:112.49 274:  0.35 275: 37.25 276:180.68 277: 82.75 278: 51.01 279: 56.75 280: 23.44
 281: 14.33 282:  0.02 283:334.21 284:  0.04 285: 18.32 286:  0.08 287: 20.34 288: 12.25
 289:  8.35 290:  0.45 291:  1.68 292:  1.65 293:  0.25 294:  0.00 295: 67.62 296:  0.91
 297:274.29 298:  3.34 299: 74.61 300:  0.78 301: 59.99 302:  7.55 303: 13.42 304:  0.10
 305:  0.42 306: 62.04 307:  2.08 308:  3.82 309:257.12 310:  0.03 311:  4.31 312: 55.89
 313: 79.84 314:  0.02 315: 15.15 316:  0.08 317:116.42 318:  3.58 319:583.50 320:  2.58
 321: 14.29 322:  0.30 323: 53.13 324:  0.37 325:179.33 326:  0.22 327:390.10 328:  0.02
 329:  0.02 330:  0.30 331: 20.72 332:  0.76 333: 68.34 334:  0.00 335:  3.66 336:  0.07
 337: 20.19 338:  0.13 339:609.03 340:870.35 341:  0.07 342: 57.40 343:  1.68 344:  0.00
 345:  6.04 346:  0.29 347: 81.05 348:  0.00 349:  0.04 350:  6.37 351:  5.33 352:  0.00
 353:  0.22 354:  0.04 355:  1.30 356:  0.01 357:  6.72 358:  8.38 359:446.89 360:  4.78
 361:  0.11 362:142.16 363:  0.14 364: 28.49 365:  4.67 366: 29.65 367:110.00 368:  0.62
 369:721.97 370:  0.37 371: 57.00 372:  0.04 373:254.73 374:  5.75 375:  0.22 376:521.78
 377: 61.45 378: 16.50 379:  0.01 380:  0.00 381:212.21 382:  1.61 383: 15.96 384:  0.00
 385:  1.93 386:  0.19 387:  0.98 388:  0.00 389:  0.27 390: 11.53 391: 14.76 392:  0.05
 393:  0.34 394:  0.01 395: 47.89 396:  0.00 397:  1.18 398:  0.02 399: 31.22 400:  0.10
 401:148.25 402:  0.77 403:139.36 404:  5.81 405: 19.75 406:  0.12 407:  1.65 408:  0.14
 409:  1.08 410:  0.42 411: 96.36 412: 11.42 413:  8.04 414:  0.01 415:  1.15 416:  0.85
 417:211.01 418:129.49 419: 44.16 420:  0.55 421: 51.49 422:  0.31 423: 20.20 424: 37.36
 425:  7.47 426:885.67 427:  0.96 428: 54.25 429: 20.51 430:  0.00 431:  0.07 432:112.03
 433: 11.50 434:  0.06 435:108.48 436:  3.84 437:  0.00 438:  2.77 439:  2.81 440:  0.30
 441:  1.24 442:  3.84 443:  1.90 444:  0.38 445: 40.81 446: 53.41 447: 23.26 448: 38.18
 449:  1.69 450:  4.13 451: 19.24 452: 13.94 453:  6.87 454: 25.05 455: 39.31 456: 40.01
 457: 17.17 458:  6.63 459: 45.05 460: 22.31 461:202.90 462:488.95 463: 17.31 464: 18.38
 465: 24.39 466:  4.32 467: 21.65 468: 18.12 469:  4.91 470: 14.95 471: 17.67 472: 27.06
 473:  4.46 474:132.50 475: 95.02 476: 11.52 477:176.40 478:168.45 479: 23.39 480: 22.45
 481: 17.62 482: 18.04 483: 33.02 484: 53.04 485:  5.38 486:  5.00 487:  0.51 488:  0.58
 489: 13.81 490: 13.94 491:  7.96 492:  8.03
 Raman intensities (amu)
   1:  0.00   2:  0.00   3:  0.00   4:  0.00   5:  0.00   6:  0.00   7:  0.00   8:  0.00
   9:  0.00  10:  0.00  11:  0.00  12:  0.00  13:  0.00  14:  0.00  15:  0.00  16:  0.00
  17:  0.00  18:  0.00  19:  0.00  20:  0.00  21:  0.00  22:  0.00  23:  0.00  24:  0.00
  25:  0.00  26:  0.00  27:  0.00  28:  0.00  29:  0.00  30:  0.00  31:  0.00  32:  0.00
  33:  0.00  34:  0.00  35:  0.00  36:  0.00  37:  0.00  38:  0.00  39:  0.00  40:  0.00
  41:  0.00  42:  0.00  43:  0.00  44:  0.00  45:  0.00  46:  0.00  47:  0.00  48:  0.00
  49:  0.00  50:  0.00  51:  0.00  52:  0.00  53:  0.00  54:  0.00  55:  0.00  56:  0.00
  57:  0.00  58:  0.00  59:  0.00  60:  0.00  61:  0.00  62:  0.00  63:  0.00  64:  0.00
  65:  0.00  66:  0.00  67:  0.00  68:  0.00  69:  0.00  70:  0.00  71:  0.00  72:  0.00
  73:  0.00  74:  0.00  75:  0.00  76:  0.00  77:  0.00  78:  0.00  79:  0.00  80:  0.00
  81:  0.00  82:  0.00  83:  0.00  84:  0.00  85:  0.00  86:  0.00  87:  0.00  88:  0.00
  89:  0.00  90:  0.00  91:  0.00  92:  0.00  93:  0.00  94:  0.00  95:  0.00  96:  0.00
  97:  0.00  98:  0.00  99:  0.00 100:  0.00 101:  0.00 102:  0.00 103:  0.00 104:  0.00
 105:  0.00 106:  0.00 107:  0.00 108:  0.00 109:  0.00 110:  0.00 111:  0.00 112:  0.00
 113:  0.00 114:  0.00 115:  0.00 116:  0.00 117:  0.00 118:  0.00 119:  0.00 120:  0.00
 121:  0.00 122:  0.00 123:  0.00 124:  0.00 125:  0.00 126:  0.00 127:  0.00 128:  0.00
 129:  0.00 130:  0.00 131:  0.00 132:  0.00 133:  0.00 134:  0.00 135:  0.00 136:  0.00
 137:  0.00 138:  0.00 139:  0.00 140:  0.00 141:  0.00 142:  0.00 143:  0.00 144:  0.00
 145:  0.00 146:  0.00 147:  0.00 148:  0.00 149:  0.00 150:  0.00 151:  0.00 152:  0.00
 153:  0.00 154:  0.00 155:  0.00 156:  0.00 157:  0.00 158:  0.00 159:  0.00 160:  0.00
 161:  0.00 162:  0.00 163:  0.00 164:  0.00 165:  0.00 166:  0.00 167:  0.00 168:  0.00
 169:  0.00 170:  0.00 171:  0.00 172:  0.00 173:  0.00 174:  0.00 175:  0.00 176:  0.00
 177:  0.00 178:  0.00 179:  0.00 180:  0.00 181:  0.00 182:  0.00 183:  0.00 184:  0.00
 185:  0.00 186:  0.00 187:  0.00 188:  0.00 189:  0.00 190:  0.00 191:  0.00 192:  0.00
 193:  0.00 194:  0.00 195:  0.00 196:  0.00 197:  0.00 198:  0.00 199:  0.00 200:  0.00
 201:  0.00 202:  0.00 203:  0.00 204:  0.00 205:  0.00 206:  0.00 207:  0.00 208:  0.00
 209:  0.00 210:  0.00 211:  0.00 212:  0.00 213:  0.00 214:  0.00 215:  0.00 216:  0.00
 217:  0.00 218:  0.00 219:  0.00 220:  0.00 221:  0.00 222:  0.00 223:  0.00 224:  0.00
 225:  0.00 226:  0.00 227:  0.00 228:  0.00 229:  0.00 230:  0.00 231:  0.00 232:  0.00
 233:  0.00 234:  0.00 235:  0.00 236:  0.00 237:  0.00 238:  0.00 239:  0.00 240:  0.00
 241:  0.00 242:  0.00 243:  0.00 244:  0.00 245:  0.00 246:  0.00 247:  0.00 248:  0.00
 249:  0.00 250:  0.00 251:  0.00 252:  0.00 253:  0.00 254:  0.00 255:  0.00 256:  0.00
 257:  0.00 258:  0.00 259:  0.00 260:  0.00 261:  0.00 262:  0.00 263:  0.00 264:  0.00
 265:  0.00 266:  0.00 267:  0.00 268:  0.00 269:  0.00 270:  0.00 271:  0.00 272:  0.00
 273:  0.00 274:  0.00 275:  0.00 276:  0.00 277:  0.00 278:  0.00 279:  0.00 280:  0.00
 281:  0.00 282:  0.00 283:  0.00 284:  0.00 285:  0.00 286:  0.00 287:  0.00 288:  0.00
 289:  0.00 290:  0.00 291:  0.00 292:  0.00 293:  0.00 294:  0.00 295:  0.00 296:  0.00
 297:  0.00 298:  0.00 299:  0.00 300:  0.00 301:  0.00 302:  0.00 303:  0.00 304:  0.00
 305:  0.00 306:  0.00 307:  0.00 308:  0.00 309:  0.00 310:  0.00 311:  0.00 312:  0.00
 313:  0.00 314:  0.00 315:  0.00 316:  0.00 317:  0.00 318:  0.00 319:  0.00 320:  0.00
 321:  0.00 322:  0.00 323:  0.00 324:  0.00 325:  0.00 326:  0.00 327:  0.00 328:  0.00
 329:  0.00 330:  0.00 331:  0.00 332:  0.00 333:  0.00 334:  0.00 335:  0.00 336:  0.00
Refinement of some symmetry elements was terminated before convergence was reached.
Some symmetry elements may remain unidentified.
Molecule has no symmetry elements
It seems to be the C1 point group
 337:  0.00 338:  0.00 339:  0.00 340:  0.00 341:  0.00 342:  0.00 343:  0.00 344:  0.00
 345:  0.00 346:  0.00 347:  0.00 348:  0.00 349:  0.00 350:  0.00 351:  0.00 352:  0.00
 353:  0.00 354:  0.00 355:  0.00 356:  0.00 357:  0.00 358:  0.00 359:  0.00 360:  0.00
 361:  0.00 362:  0.00 363:  0.00 364:  0.00 365:  0.00 366:  0.00 367:  0.00 368:  0.00
 369:  0.00 370:  0.00 371:  0.00 372:  0.00 373:  0.00 374:  0.00 375:  0.00 376:  0.00
 377:  0.00 378:  0.00 379:  0.00 380:  0.00 381:  0.00 382:  0.00 383:  0.00 384:  0.00
 385:  0.00 386:  0.00 387:  0.00 388:  0.00 389:  0.00 390:  0.00 391:  0.00 392:  0.00
 393:  0.00 394:  0.00 395:  0.00 396:  0.00 397:  0.00 398:  0.00 399:  0.00 400:  0.00
 401:  0.00 402:  0.00 403:  0.00 404:  0.00 405:  0.00 406:  0.00 407:  0.00 408:  0.00
 409:  0.00 410:  0.00 411:  0.00 412:  0.00 413:  0.00 414:  0.00 415:  0.00 416:  0.00
 417:  0.00 418:  0.00 419:  0.00 420:  0.00 421:  0.00 422:  0.00 423:  0.00 424:  0.00
 425:  0.00 426:  0.00 427:  0.00 428:  0.00 429:  0.00 430:  0.00 431:  0.00 432:  0.00
 433:  0.00 434:  0.00 435:  0.00 436:  0.00 437:  0.00 438:  0.00 439:  0.00 440:  0.00
 441:  0.00 442:  0.00 443:  0.00 444:  0.00 445:  0.00 446:  0.00 447:  0.00 448:  0.00
 449:  0.00 450:  0.00 451:  0.00 452:  0.00 453:  0.00 454:  0.00 455:  0.00 456:  0.00
 457:  0.00 458:  0.00 459:  0.00 460:  0.00 461:  0.00 462:  0.00 463:  0.00 464:  0.00
 465:  0.00 466:  0.00 467:  0.00 468:  0.00 469:  0.00 470:  0.00 471:  0.00 472:  0.00
 473:  0.00 474:  0.00 475:  0.00 476:  0.00 477:  0.00 478:  0.00 479:  0.00 480:  0.00
 481:  0.00 482:  0.00 483:  0.00 484:  0.00 485:  0.00 486:  0.00 487:  0.00 488:  0.00
 489:  0.00 490:  0.00 491:  0.00 492:  0.00
 output can be read by thermo (or use thermo option).
 writing <g98.out> molden fake output.
 recommended (thermochemical) frequency scaling factor: 1.0
           -------------------------------------------------
          |             Thermodynamic Functions             |
           -------------------------------------------------

c1  symmetry found (for desy threshold:  0.10E+00) used in thermo
 inverting freq            1   2.0012803053577750     

          ...................................................
          :                      SETUP                      :
          :.................................................:
          :  # frequencies                         485      :
          :  # imaginary freq.                       0      :
          :  linear?                             false      :
          :  only rotor calc.                    false      :
          :  symmetry                               c1      :
          :  rotational number                       1      :
          :  scaling factor                  1.0000000      :
          :  rotor cutoff                   50.0000000 cm⁻¹ :
          :  imag. cutoff                  -20.0000000 cm⁻¹ :
          :.................................................:

    mode    ω/cm⁻¹     T·S(HO)/kcal·mol⁻¹    T·S(FR)/kcal·mol⁻¹   T·S(vib)
   ------------------------------------------------------------------------
       1      2.00    -3.34162 (  0.00%)    -2.00992 (100.00%)    -2.00992
       2      2.53    -3.20311 (  0.00%)    -1.94066 (100.00%)    -1.94067
       3      3.97    -2.93631 (  0.00%)    -1.80726 (100.00%)    -1.80731
       4      4.86    -2.81584 (  0.01%)    -1.74703 ( 99.99%)    -1.74712
       5      5.70    -2.72119 (  0.02%)    -1.69970 ( 99.98%)    -1.69987
       6      6.30    -2.66194 (  0.03%)    -1.67007 ( 99.97%)    -1.67033
       7      7.29    -2.57587 (  0.05%)    -1.62704 ( 99.95%)    -1.62746
       8      9.00    -2.45067 (  0.11%)    -1.56443 ( 99.89%)    -1.56536
       9     11.59    -2.30102 (  0.29%)    -1.48959 ( 99.71%)    -1.49192
      10     16.77    -2.08227 (  1.25%)    -1.38017 ( 98.75%)    -1.38894
      11     17.24    -2.06608 (  1.39%)    -1.37207 ( 98.61%)    -1.38173
      12     21.75    -1.92843 (  3.45%)    -1.30320 ( 96.55%)    -1.32480
      13     22.67    -1.90389 (  4.05%)    -1.29091 ( 95.95%)    -1.31575
      14     23.43    -1.88438 (  4.60%)    -1.28115 ( 95.40%)    -1.30888
      15     27.60    -1.78727 (  8.50%)    -1.23253 ( 91.50%)    -1.27969
      16     33.90    -1.66576 ( 17.45%)    -1.17167 ( 82.55%)    -1.25786
      17     40.82    -1.55607 ( 30.75%)    -1.11667 ( 69.25%)    -1.25179
      18     41.58    -1.54515 ( 32.35%)    -1.11120 ( 67.65%)    -1.25157
      19     41.87    -1.54100 ( 32.97%)    -1.10911 ( 67.03%)    -1.25149
      20     42.00    -1.53914 ( 33.24%)    -1.10818 ( 66.76%)    -1.25145
      21     42.67    -1.52989 ( 34.65%)    -1.10354 ( 65.35%)    -1.25127
      22     42.89    -1.52677 ( 35.13%)    -1.10197 ( 64.87%)    -1.25120
      23     50.41    -1.43150 ( 50.81%)    -1.05414 ( 49.19%)    -1.24589
      24     57.66    -1.35231 ( 63.88%)    -1.01432 ( 36.12%)    -1.23023
      25     61.04    -1.31876 ( 68.96%)    -0.99743 ( 31.04%)    -1.21902
      26     67.04    -1.26370 ( 76.37%)    -0.96968 ( 23.63%)    -1.19422
      27     70.34    -1.23550 ( 79.66%)    -0.95545 ( 20.34%)    -1.17853
      28     79.98    -1.16023 ( 86.75%)    -0.91740 ( 13.25%)    -1.12805
      29     85.27    -1.12274 ( 89.43%)    -0.89841 ( 10.57%)    -1.09903
      30     86.05    -1.11744 ( 89.77%)    -0.89572 ( 10.23%)    -1.09475
      31     88.91    -1.09835 ( 90.91%)    -0.88603 (  9.09%)    -1.07905
      32     91.77    -1.07986 ( 91.90%)    -0.87664 (  8.10%)    -1.06341
      33     92.95    -1.07247 ( 92.27%)    -0.87288 (  7.73%)    -1.05705
      34     93.39    -1.06967 ( 92.41%)    -0.87146 (  7.59%)    -1.05462
      35     96.19    -1.05247 ( 93.20%)    -0.86270 (  6.80%)    -1.03956
      36    100.70    -1.02587 ( 94.27%)    -0.84915 (  5.73%)    -1.01574
      37    104.97    -1.00176 ( 95.10%)    -0.83685 (  4.90%)    -0.99368
      38    112.04    -0.96399 ( 96.19%)    -0.81753 (  3.81%)    -0.95840
      39    113.35    -0.95729 ( 96.35%)    -0.81410 (  3.65%)    -0.95207
      40    113.36    -0.95722 ( 96.35%)    -0.81406 (  3.65%)    -0.95200
      41    114.76    -0.95014 ( 96.52%)    -0.81043 (  3.48%)    -0.94528
      42    116.33    -0.94227 ( 96.70%)    -0.80639 (  3.30%)    -0.93778
      43    119.08    -0.92880 ( 96.99%)    -0.79948 (  3.01%)    -0.92490
      44    119.88    -0.92497 ( 97.06%)    -0.79751 (  2.94%)    -0.92122
      45    141.70    -0.82908 ( 98.47%)    -0.74795 (  1.53%)    -0.82784
      46    141.89    -0.82833 ( 98.48%)    -0.74756 (  1.52%)    -0.82710
      47    142.40    -0.82629 ( 98.50%)    -0.74650 (  1.50%)    -0.82509
      48    142.69    -0.82511 ( 98.51%)    -0.74589 (  1.49%)    -0.82393
      49    143.28    -0.82276 ( 98.54%)    -0.74467 (  1.46%)    -0.82162
      50    148.48    -0.80250 ( 98.73%)    -0.73411 (  1.27%)    -0.80163
      51    152.67    -0.78672 ( 98.86%)    -0.72587 (  1.14%)    -0.78603
      52    159.66    -0.76142 ( 99.05%)    -0.71261 (  0.95%)    -0.76095
      53    163.63    -0.74760 ( 99.14%)    -0.70534 (  0.86%)    -0.74723
      54    179.99    -0.69423 ( 99.41%)    -0.67709 (  0.59%)    -0.69413
      55    181.24    -0.69039 ( 99.42%)    -0.67505 (  0.58%)    -0.69031
      56    182.10    -0.68778 ( 99.43%)    -0.67365 (  0.57%)    -0.68770
      57    183.08    -0.68478 ( 99.45%)    -0.67206 (  0.55%)    -0.68471
      58    184.75    -0.67975 ( 99.47%)    -0.66937 (  0.53%)    -0.67969
      59    185.00    -0.67899 ( 99.47%)    -0.66897 (  0.53%)    -0.67893
      60    185.16    -0.67851 ( 99.47%)    -0.66871 (  0.53%)    -0.67846
      61    186.35    -0.67495 ( 99.48%)    -0.66681 (  0.52%)    -0.67491
      62    196.71    -0.64509 ( 99.58%)    -0.65078 (  0.42%)    -0.64511
      63    198.72    -0.63951 ( 99.60%)    -0.64777 (  0.40%)    -0.63954
      64    201.06    -0.63308 ( 99.62%)    -0.64430 (  0.38%)    -0.63312
      65    201.44    -0.63205 ( 99.62%)    -0.64375 (  0.38%)    -0.63209
      66    202.28    -0.62978 ( 99.63%)    -0.64252 (  0.37%)    -0.62982
      67    202.73    -0.62854 ( 99.63%)    -0.64185 (  0.37%)    -0.62859
      68    211.43    -0.60564 ( 99.69%)    -0.62941 (  0.31%)    -0.60571
      69    222.76    -0.57737 ( 99.75%)    -0.61394 (  0.25%)    -0.57746
      70    250.16    -0.51563 ( 99.84%)    -0.57957 (  0.16%)    -0.51573
      71    260.52    -0.49441 ( 99.86%)    -0.56755 (  0.14%)    -0.49451
      72    263.57    -0.48837 ( 99.87%)    -0.56411 (  0.13%)    -0.48847
      73    264.74    -0.48608 ( 99.87%)    -0.56280 (  0.13%)    -0.48618
      74    264.97    -0.48562 ( 99.87%)    -0.56254 (  0.13%)    -0.48572
      75    265.40    -0.48478 ( 99.87%)    -0.56206 (  0.13%)    -0.48488
      76    265.48    -0.48463 ( 99.87%)    -0.56197 (  0.13%)    -0.48473
      77    267.14    -0.48141 ( 99.88%)    -0.56013 (  0.12%)    -0.48151
      78    268.67    -0.47846 ( 99.88%)    -0.55843 (  0.12%)    -0.47855
      79    272.61    -0.47097 ( 99.89%)    -0.55412 (  0.11%)    -0.47106
      80    273.77    -0.46877 ( 99.89%)    -0.55285 (  0.11%)    -0.46886
      81    277.79    -0.46132 ( 99.90%)    -0.54855 (  0.10%)    -0.46141
      82    286.08    -0.44634 ( 99.91%)    -0.53983 (  0.09%)    -0.44642
      83    286.84    -0.44499 ( 99.91%)    -0.53904 (  0.09%)    -0.44508
      84    293.84    -0.43283 ( 99.92%)    -0.53190 (  0.08%)    -0.43292
      85    297.90    -0.42595 ( 99.92%)    -0.52783 (  0.08%)    -0.42603
      86    298.15    -0.42555 ( 99.92%)    -0.52759 (  0.08%)    -0.42563
   ------------------------------------------------------------------------

   temp. (K)  partition function   enthalpy   heat capacity  entropy
                                   cal/mol     cal/K/mol   cal/K/mol   J/K/mol
 298.15  VIB  0.148E+51            57418.667    366.811    368.541
         ROT  0.298E+10              888.752      2.981     46.332
         INT  0.441E+60            58307.419    369.792    414.873
         TR   0.535E+29             1481.254      4.968     47.671
         TOT                       59788.6731   374.7603   462.5437  1935.2829

       T/K    H(0)-H(T)+PV         H(T)/Eh          T*S/Eh         G(T)/Eh
   ------------------------------------------------------------------------
    298.15    0.952793E-01    0.125992E+01    0.219769E+00    0.104015E+01
   ------------------------------------------------------------------------

         :::::::::::::::::::::::::::::::::::::::::::::::::::::
         ::                  THERMODYNAMIC                  ::
         :::::::::::::::::::::::::::::::::::::::::::::::::::::
         :: total free energy        -280.561435102470 Eh   ::
         ::.................................................::
         :: total energy             -281.601588051195 Eh   ::
         :: zero point energy           1.164643077911 Eh   ::
         :: G(RRHO) w/o ZPVE           -0.124490129187 Eh   ::
         :: G(RRHO) contrib.            1.040152948724 Eh   ::
         :::::::::::::::::::::::::::::::::::::::::::::::::::::

optimized geometry written to: xtbopt.xyz


           -------------------------------------------------
          | TOTAL ENERGY             -281.601588051195 Eh   |
          | TOTAL ENTHALPY           -280.341665657868 Eh   |
          | TOTAL FREE ENERGY        -280.561435102470 Eh   |
          | GRADIENT NORM               0.000605772618 Eh/α |
          | HOMO-LUMO GAP               0.839923063216 eV   |
           -------------------------------------------------

------------------------------------------------------------------------
 * finished run on 2021/11/19 at 15:55:12.010     
------------------------------------------------------------------------
 total:
 * wall-time:     0 d,  0 h,  9 min, 53.449 sec
 *  cpu-time:     0 d,  0 h,  9 min, 53.445 sec
 * ratio c/w:     1.000 speedup
 SCF:
 * wall-time:     0 d,  0 h,  0 min,  2.686 sec
 *  cpu-time:     0 d,  0 h,  0 min,  2.686 sec
 * ratio c/w:     1.000 speedup
 ANC optimizer:
 * wall-time:     0 d,  0 h,  0 min, 51.096 sec
 *  cpu-time:     0 d,  0 h,  0 min, 51.083 sec
 * ratio c/w:     1.000 speedup
 analytical hessian:
 * wall-time:     0 d,  0 h,  8 min, 59.291 sec
 *  cpu-time:     0 d,  0 h,  8 min, 59.301 sec
 * ratio c/w:     1.000 speedup

