164
 energy: -281.601588051346 gnorm: 0.000605854318 xtb: 6.4.1 (bd6e46d)
C        22.36378564044321    3.41600656700436    0.26570009147665
C        23.32033817923463    2.46900835407340    0.20750705361426
C        22.62040819869043    1.20235868101594    0.08739412806730
C        23.28292087215399   -0.03902715789767    0.00391333872120
C        22.63325055376666   -1.28017953245386   -0.10113327606351
C        23.23830615390614   -2.56309207900655   -0.18006039828993
C        22.23532739999422   -3.48484038622066   -0.27025342925680
C        20.99648020622760   -2.78448417435887   -0.24994606260383
N        21.28955181305610   -1.45846248717641   -0.14565131138378
C        19.72916490983670   -3.34310234563519   -0.32539957925084
C        18.51268133387781   -2.67470222869356   -0.31420803264677
C        17.23483165086540   -3.36588935329102   -0.40877992504099
C        16.28726751880129   -2.41093901057237   -0.37022589428320
C        16.99354153009935   -1.14470780978610   -0.25038287183709
N        18.32855393033843   -1.34147002722717   -0.22049210368553
C        16.34825736649950    0.08327252704663   -0.17580311942467
C        16.97274945942328    1.31517053483233   -0.05598605515167
C        16.36611771065062    2.60097806216431    0.03063707467165
C        17.36513748677377    3.52264723033352    0.13878522131196
C        18.60771966962364    2.82445880693898    0.12005805968310
N        18.31846157892144    1.50192672585204    0.00192786700604
C        19.87518508149367    3.38174495810612    0.20213670732211
C        21.09248512688220    2.71766426099976    0.17849193835550
N        21.28944666521597    1.38132315110067    0.07245281111403
H        22.47137364085275    4.47976680975384    0.35731500557828
H        24.38703131634216    2.57859093032796    0.24075467202999
H        24.29593266980381   -2.74166042315291   -0.16780326108613
H        22.33410790240306   -4.55026249712804   -0.34498463971629
H        20.61552454275565   -0.70259706937141   -0.10827450770904
H        19.68733563615812   -4.42062232699339   -0.40489931485352
H        17.12151198876128   -4.42985241601349   -0.49253670324924
H        15.21979981147547   -2.51267384100880   -0.41475625298109
H        15.26840405633929    0.07808144720323   -0.21221125552221
H        15.30877295413915    2.78098859980588    0.01173523125053
H        17.26543173458930    4.58743483563446    0.22388244376088
H        18.99042507726651    0.74510619580949   -0.03788482126978
H        19.91843303131992    4.45844751092725    0.29257447236457
C        65.64915449722884   -3.40158531941389    0.42583622970737
C        64.69184723097773   -2.45528529264009    0.36836818477887
C        65.38964481855081   -1.19148179868489    0.21216420722132
C        64.72592144339444    0.04823398681957    0.11475753220133
C        65.37465658820722    1.28722297915342   -0.01917440288667
C        64.76981247530023    2.56965570019751   -0.10591812557660
C        65.77241017098119    3.48895335452960   -0.22205331307319
C        67.01069160207020    2.78738815734187   -0.21125570065367
N        66.71777856053798    1.46320198260346   -0.08551633568471
C        68.27709732702658    3.34358842312085   -0.31478810833446
C        69.49310790302680    2.67430758746153   -0.31918325277052
C        70.76922016659969    3.36324748428913   -0.44729390811642
C        71.71665851404916    2.40782123493703   -0.41916330357942
C        71.01212883920641    1.14359893839752   -0.27129663391330
N        69.67821427684946    1.34194505430504   -0.21520088980355
C        71.65774749556630   -0.08429457559530   -0.19767444295729
C        71.03450689950257   -1.31363255653512   -0.04867998435611
C        71.64086974507451   -2.59933795733893    0.04104121316057
C        70.64317021987669   -3.51731049862576    0.18627999191329
C        69.40162934401155   -2.81695408551359    0.18738375747279
N        69.69020558587742   -1.49686009552511    0.04343461344419
C        68.13571280222224   -3.37077994101900    0.30810470183397
C        66.91870220619506   -2.70579282714773    0.30079554873079
N        66.72010539265180   -1.37134125442365    0.17596138736361
H        65.54322551784141   -4.46344135708041    0.53861078761649
H        63.62597231343988   -2.56385148318872    0.42396757206404
H        63.71265640645031    2.74965044009518   -0.08035127305824
H        65.67379542046093    4.55349892730541   -0.30872055097465
H        67.39092479653179    0.70651996693271   -0.04797692008813
H        68.31833793873408    4.42008560405490   -0.40743901205386
H        70.88157959094264    4.42620131070969   -0.54425891811012
H        72.78302482164472    2.50802149209564   -0.48710811539240
H        72.73647408212894   -0.08104582089568   -0.25868812883850
H        72.69712289642452   -2.78178655155515   -0.00092297760596
H        70.74302133659521   -4.58100378804789    0.28387256685218
H        69.01930640174537   -0.73879293841982    0.00895993414357
H        68.09342008148917   -4.44584977700485    0.41671857797717
C        24.67852652011145   -0.04190137837554    0.02513939072086
C        25.89892299873633   -0.03512859673829    0.03986891628124
C        27.23426783315448   -0.02728141755322    0.04885624466511
C        28.45907220837603   -0.01563740355060    0.05299390198192
C        29.79415806987279   -0.00318033595824    0.05340757383307
C        31.01479288091304    0.01061556013746    0.05135098981316
C        40.83660603239635   -0.03267445188328   -0.02898995089287
C        42.05749315060671   -0.01781304078956   -0.03389332219936
C        43.39225203633669   -0.00187453854840   -0.03379849687186
C        44.61734489496535    0.01673140175812   -0.02964909480598
C        45.95207578755570    0.03240784164427   -0.02046501072942
C        47.17286568418601    0.04626812607710   -0.00899745639214
C        56.99445696875526   -0.00186688733445    0.15186570992786
C        58.21510589693193    0.01100619531490    0.16500909858410
C        59.55012045501306    0.02288815349211    0.17266302067196
C        60.77499372302276    0.03538863838769    0.17275074126149
C        62.11025863289499    0.04350322008115    0.16498445936653
C        63.33066468222501    0.05189647939011    0.14872665525790
C        33.39238685169672   -3.40237573079970    0.47017889897612
C        32.41634095799849   -2.47988373704672    0.36040210306767
C        33.09031007674760   -1.20581502909846    0.19244451238466
C        32.40904927500149    0.01945084869101    0.04433644532620
C        33.05650904891166    1.25700492721749   -0.11358906532940
C        32.46014298032435    2.53576292081250   -0.26582953081809
C        33.47174683251090    3.44516227619872   -0.39021078924808
C        34.70530758814524    2.73996638316862   -0.31683880439130
N        34.40197249301021    1.42339918652431   -0.14875255471803
C        35.97357957752161    3.29801645778151   -0.40367552190135
C        37.20129181474302    2.65914182223699   -0.33949657787673
C        38.45871581577217    3.37957759247902   -0.44776025767427
C        39.43472166328493    2.45665512948475   -0.34162473840469
C        38.76084564787725    1.18293958750567   -0.17035143630805
N        37.42621014514177    1.33309342787398   -0.17337061616276
C        39.44262901623220   -0.04212649396457   -0.02016478635159
C        38.79514134628131   -1.27899256526539    0.14358061020900
C        39.39122275232049   -2.55749928715740    0.29930703052499
C        38.37946077707694   -3.46633858523332    0.42587742297879
C        37.14595892197566   -2.76112074000295    0.35034975803975
N        37.44967248722233   -1.44490488838834    0.17945610048313
C        35.87787540672463   -3.31946550659610    0.43580119276400
C        34.64987146791137   -2.68128876945220    0.36687945750414
N        34.42514083202644   -1.35552778158666    0.20012472432934
H        33.30638389121323   -4.46326757653413    0.60644586971076
H        31.35181976823913   -2.61062347889700    0.38652869499540
H        31.40374314794588    2.72115562537819   -0.27698458573312
H        33.38146774194964    4.50594718885255   -0.52097117143343
H        35.05608872645978    0.65332283437500   -0.06060769708423
H        36.00410720685947    4.37075557086984   -0.53936890145733
H        38.54451359266481    4.44037798041449   -0.58486712985268
H        40.49917310776396    2.58699739404836   -0.37199462628816
H        40.44760173209008   -2.74297969979242    0.31075618735583
H        38.46930498440156   -4.52686735562401    0.55906707171408
H        36.79596843743825   -0.67466118192270    0.08944641240100
H        35.84746384454189   -4.39198540567621    0.57320525272420
C        49.53788288371032   -3.36627556133807    0.47099582262425
C        48.56537614881829   -2.44333307779914    0.33645004362763
C        49.24406335493048   -1.17035394906611    0.17916176301757
C        48.56678333502290    0.05443308739892    0.00774497131867
C        49.21893140342650    1.29005122135940   -0.14688060178217
C        48.62813516135561    2.56795188076088   -0.32583538846965
C        49.64365174465071    3.47535903615952   -0.43129555047282
C        50.87417301331517    2.76992284643840   -0.31831848276112
N        50.56502250624377    1.45490007758682   -0.14818045529591
C        52.14446808150456    3.32735592951629   -0.37115135721990
C        53.36975309136025    2.68923958958191   -0.26420285992418
C        54.62989626021384    3.40930417623202   -0.33721434408275
C        55.60219646927769    2.48694462651298   -0.19704387475562
C        54.92329758446242    1.21403373238258   -0.04029319911407
N        53.58929273031612    1.36420853566030   -0.08426781757736
C        55.60040341165033   -0.01053416869330    0.13202797588602
C        54.94868598787613   -1.24686846943750    0.28165245134462
C        55.53966920078464   -2.52522825484468    0.45614687585450
C        54.52426954113054   -3.43339531664355    0.55681220684807
C        53.29372842496618   -2.72785512619571    0.44569400829957
N        53.60257324656880   -1.41212954713975    0.28105726683279
C        52.02318325911789   -3.28519650792940    0.49728971069900
C        50.79800994927710   -2.64640910915042    0.39516497100417
N        50.57808485959941   -1.32087066969717    0.21842810944006
H        49.44789932707187   -4.42669459998138    0.60844194804220
H        47.50043881302016   -2.57325183355128    0.33835083173343
H        47.57258098291125    2.75403998450213   -0.36657775606349
H        49.55823955574758    4.53507803164633   -0.57357702209016
H        51.21542693183154    0.68464742519355   -0.03654280475864
H        52.17923982144523    4.39908873749936   -0.51366025224044
H        54.72005299175103    4.46949505925588   -0.47625095946153
H        56.66708693683442    2.61718374067397   -0.19520240978094
H        56.59521588779901   -2.71129889531901    0.49720442878079
H        54.61002113350585   -4.49365947317700    0.69487032250362
H        52.95207625498463   -0.64184478896023    0.17039148493312
H        51.98832435837889   -4.35746130661146    0.63584450387896
