164
 energy: -280.374504938380 gnorm: 1.148901861507 xtb: 6.4.1 (bd6e46d)
C        21.67171600000000    3.50795000000000    0.78828100000000
C        22.56169300000001    2.56769100000000    0.59008600000000
C        21.90019200000000    1.30761600000000    0.28927900000000
C        22.25863000000000    0.00195400000000    0.00059800000000
C        21.43345200000000   -1.12911800000000   -0.08461900000000
C        21.88901700000000   -2.33784200000000    0.49668800000000
C        20.91632300000000   -3.27038900000000    0.29653300000000
C        19.88522900000000   -2.60268800000000   -0.40645400000000
N        20.22195400000000   -1.32182800000000   -0.62336800000000
C        18.72726800000000   -3.32880300000000   -0.73817100000000
C        17.40916700000000   -2.88610700000000   -0.62463600000000
C        16.09682100000000   -3.48824200000000   -0.72161600000000
C        15.17519300000000   -2.54159400000000   -0.51553100000000
C        15.87207900000000   -1.29576400000000   -0.27880000000000
N        17.19315300000000   -1.57551600000000   -0.35848500000000
C        15.47283700000000    0.00623400000000   -0.01079700000000
C        16.30544900000000    1.14291000000000    0.06511200000000
C        15.87130600000000    2.34489900000000   -0.54502900000000
C        16.86681900000000    3.26128800000000   -0.35307300000000
C        17.88097000000000    2.58804500000000    0.37085800000000
N        17.51577300000000    1.32022300000000    0.60968200000000
C        19.05061200000000    3.29500100000000    0.69235800000000
C        20.36586500000000    2.89147600000000    0.62234200000000
N        20.55548700000000    1.58037300000000    0.32594000000000
H        21.83898000000000    4.53649400000000    1.02687100000000
H        23.63195200000000    2.69102800000000    0.63910400000000
H        22.84953800000000   -2.52354500000000    1.01526500000000
H        20.95320500000000   -4.32699900000000    0.62186000000000
H        19.61866900000000   -0.55441800000000   -1.17088800000000
H        18.81565900000000   -4.36423000000000   -1.11651800000000
H        15.89814600000000   -4.54894200000000   -0.93036000000000
H        14.10578400000000   -2.73352800000000   -0.53476400000000
H        14.39789400000000    0.09550300000000    0.12694800000000
H        14.91765200000000    2.53645700000000   -1.07382600000000
H        16.85239800000000    4.31151700000000   -0.69951400000000
H        18.10909800000000    0.56277900000000    1.18167900000000
H        18.98210400000000    4.35240600000000    1.04907400000000
C        66.34378000000000   -3.49567300000000    0.82465200000000
C        65.45380299999999   -2.55752200000000    0.61670100000000
C        66.11530399999999   -1.30064000000000    0.30282400000000
C        65.75686600000000    0.00195400000000    0.00059800000000
C        66.58204400000000    1.13208000000000   -0.09636100000000
C        66.12647900000000    2.34677600000000    0.47236100000000
C        67.09917299999999    3.27719300000000    0.26253100000000
C        68.13026700000000    2.60222700000000   -0.43348400000000
N        67.79354200000000    1.31918400000000   -0.63708300000000
C        69.28822800000000    3.32485900000000   -0.77272400000000
C        70.60632800000002    2.88336600000000   -0.65459800000000
C        71.91867499999999    3.48446000000000   -0.75782500000000
C        72.84030300000001    2.54000400000000   -0.54192000000000
C        72.14341700000000    1.29669900000000   -0.29226300000000
N        70.82234300000002    1.57560900000000   -0.37484900000000
C        72.54265900000000   -0.00244400000000   -0.01075200000000
C        71.71004700000002   -1.13827100000000    0.07695800000000
C        72.14418999999999   -2.34653200000000   -0.52066600000000
C        71.14867700000001   -3.26087800000000   -0.31920300000000
C        70.13452599999999   -2.58015200000000    0.39769700000000
N        70.49972300000000   -1.30991800000000    0.62334100000000
C        68.96488400000000   -3.28373100000000    0.72652200000000
C        67.64963100000000   -2.88095600000000    0.65231900000000
N        67.46000800000000   -1.57300100000000    0.34231600000000
H        66.17651600000001   -4.52168300000000    1.07391100000000
H        64.38354400000000   -2.68034400000000    0.66699800000000
H        65.16595700000001    2.53785400000000    0.98898100000000
H        67.06229100000000    4.33712500000000    0.57686700000000
H        68.39682700000000    0.54612800000000   -1.17660300000000
H        69.19983700000002    4.35630000000000   -1.16180400000000
H        72.11735000000000    4.54293600000000   -0.97757500000000
H        73.90971200000000    2.73172800000000   -0.56314500000000
H        73.61760200000001   -0.09027800000000    0.12791300000000
H        73.09784399999999   -2.54357100000000   -1.04744500000000
H        71.16309800000001   -4.31464800000000   -0.65471800000000
H        69.90639800000000   -0.54657500000000    1.18744000000000
H        69.03339200000001   -4.33737400000000    1.09420000000000
C        25.17538700000000    0.01375400000000    0.00488200000000
C        26.39092000000000   -0.01158900000000   -0.00559800000000
C        27.81243700000000   -0.03301300000000   -0.00977300000000
C        29.02099800000000   -0.03522400000000   -0.00966800000000
C        30.44207300000000   -0.01626400000000   -0.01029500000000
C        31.65321600000000    0.01375400000000    0.00488200000000
C        40.76811300000000    0.01375400000000    0.00488200000000
C        41.98364600000000   -0.01158900000000   -0.00559800000000
C        43.40516300000000   -0.03301300000000   -0.00977300000000
C        44.61372500000000   -0.03522400000000   -0.00966800000000
C        46.03480000000000   -0.01626400000000   -0.01029500000000
C        47.24594200000000    0.01375400000000    0.00488200000000
C        56.36084000000000    0.01375400000000    0.00488200000000
C        57.57637300000000   -0.01158900000000   -0.00559800000000
C        58.99789000000000   -0.03301300000000   -0.00977300000000
C        60.20645100000000   -0.03522400000000   -0.00966800000000
C        61.62752700000000   -0.01626400000000   -0.01029500000000
C        62.83866900000000    0.01375400000000    0.00488200000000
C        33.41674900000000   -3.59472000000000    0.00005600000000
C        32.54219900000000   -2.59981500000000   -0.01024600000000
C        33.21366300000000   -1.32103200000000    0.00294400000000
C        32.81663200000000   -0.00544700000000   -0.00183500000000
C        33.62782400000000    1.13887700000000   -0.15596100000000
C        33.14879900000000    2.19139300000000   -0.96802600000000
C        34.13588400000000    3.13414600000000   -0.95949500000000
C        35.18315500000000    2.63235100000000   -0.14669200000000
N        34.84430200000000    1.42598400000000    0.32605400000000
C        36.34353300000000    3.41033400000000    0.00765800000000
C        37.66452200000001    2.95246100000000   -0.02173600000000
C        38.97709100000000    3.58059400000000   -0.08286300000000
C        39.89120400000000    2.62553000000000   -0.08544700000000
C        39.21765700000001    1.33865600000000   -0.02625700000000
N        37.90559900000000    1.62725500000000    0.00853200000000
C        39.61994100000000   -0.00544700000000   -0.00183500000000
C        38.78778700000000   -1.11923600000000    0.18044600000000
C        39.22774500000001   -2.15089300000000    1.04375700000000
C        38.22956300000000   -3.07423300000000    1.04837800000000
C        37.20664700000000   -2.59429500000000    0.19494900000000
N        37.57382400000000   -1.41304800000000   -0.31555900000000
C        36.04973800000000   -3.36970300000000    0.03788000000000
C        34.72896300000000   -2.95022500000000    0.02119500000000
N        34.55257200000000   -1.61202100000000    0.02209600000000
H        33.24823000000000   -4.65688700000000   -0.00534600000000
H        31.45437100000000   -2.78585100000000   -0.02727200000000
H        32.18472100000000    2.26676500000000   -1.50234300000000
H        34.09773700000000    4.10526100000000   -1.49193800000000
H        35.45198100000000    0.78888400000000    1.01468300000000
H        36.28843300000000    4.49659600000000    0.15177300000000
H        39.19551800000001    4.64858600000000   -0.12119400000000
H        40.96751900000001    2.77157300000000   -0.12507400000000
H        40.18175400000000   -2.21530500000000    1.60130500000000
H        38.25498100000000   -4.01955100000000    1.62369800000000
H        36.98674800000001   -0.79359200000000   -1.03920900000000
H        36.11045600000000   -4.48144300000000   -0.07624900000000
C        49.00947600000000   -3.59472000000000    0.00005600000000
C        48.13492600000000   -2.59981500000000   -0.01024600000000
C        48.80639000000001   -1.32103200000000    0.00294400000000
C        48.40935900000001   -0.00544700000000   -0.00183500000000
C        49.22055100000001    1.13887700000000   -0.15596100000000
C        48.74152500000000    2.19139300000000   -0.96802600000000
C        49.72861000000000    3.13414600000000   -0.95949500000000
C        50.77588200000000    2.63235100000000   -0.14669200000000
N        50.43702900000000    1.42598400000000    0.32605400000000
C        51.93625900000001    3.41033400000000    0.00765800000000
C        53.25724800000000    2.95246100000000   -0.02173600000000
C        54.56981800000000    3.58059400000000   -0.08286300000000
C        55.48393000000001    2.62553000000000   -0.08544700000000
C        54.81038400000001    1.33865600000000   -0.02625700000000
N        53.49832500000001    1.62725500000000    0.00853200000000
C        55.21266700000000   -0.00544700000000   -0.00183500000000
C        54.38051300000001   -1.11923600000000    0.18044600000000
C        54.82047100000000   -2.15089300000000    1.04375700000000
C        53.82228900000000   -3.07423300000000    1.04837800000000
C        52.79937400000000   -2.59429500000000    0.19494900000000
N        53.16655100000000   -1.41304800000000   -0.31555900000000
C        51.64246400000000   -3.36970300000000    0.03788000000000
C        50.32168900000001   -2.95022500000000    0.02119500000000
N        50.14529800000000   -1.61202100000000    0.02209600000000
H        48.84095700000000   -4.65688700000000   -0.00534600000000
H        47.04709800000000   -2.78585100000000   -0.02727200000000
H        47.77744800000001    2.26676500000000   -1.50234300000000
H        49.69046400000000    4.10526100000000   -1.49193800000000
H        51.04470700000000    0.78888400000000    1.01468300000000
H        51.88115900000000    4.49659600000000    0.15177300000000
H        54.78824500000000    4.64858600000000   -0.12119400000000
H        56.56024500000000    2.77157300000000   -0.12507400000000
H        55.77448100000000   -2.21530500000000    1.60130500000000
H        53.84770800000000   -4.01955100000000    1.62369800000000
H        52.57947500000001   -0.79359200000000   -1.03920900000000
H        51.70318300000001   -4.48144300000000   -0.07624900000000
164
 energy: -280.737775123773 gnorm: 0.402224108955 xtb: 6.4.1 (bd6e46d)
C        21.66479774719693    3.51069663229542    0.79030116359435
C        22.57485743283364    2.56076748043379    0.58643815929488
C        21.89544990981693    1.30825298347145    0.28566265180094
C        22.25654804845197    0.01401804832556    0.00247111783293
C        21.45052814224815   -1.11947683632097   -0.07972123204828
C        21.89670813775328   -2.34120994359266    0.49807014535697
C        20.92167322103390   -3.27367217256112    0.29032135683432
C        19.87818800784616   -2.61313537619303   -0.41212006282544
N        20.21871508438343   -1.31676101061226   -0.62563709766983
C        18.71407660299100   -3.33262794389524   -0.74422773095387
C        17.40682543797128   -2.87095411362755   -0.63079251072452
C        16.09746149848637   -3.49665349503317   -0.72592640543669
C        15.17076945905068   -2.54500515999709   -0.51433853132463
C        15.88445254753557   -1.30086989646948   -0.27148127927858
N        17.20583663278122   -1.56443963748853   -0.35539683480542
C        15.46882977357405   -0.00604970339390   -0.00788233568092
C        16.29325076374817    1.13680196506385    0.06353835930452
C        15.86532793134499    2.34766663407182   -0.54084208196644
C        16.86259079195358    3.26522717040418   -0.34782735779836
C        17.88761907895420    2.60075029967227    0.37383574430067
N        17.52278816727690    1.31458138327243    0.60538055535445
C        19.05926149942950    3.30580149200284    0.70067906591574
C        20.36687559181545    2.87444509784444    0.62492475831437
N        20.55220276998973    1.56864261157410    0.32628595485221
H        21.83627920821650    4.53967306972365    1.02791710082044
H        23.63751782908361    2.68761876876138    0.63813227952768
H        22.84284589607186   -2.51833464599191    1.01191141801419
H        20.94972421295400   -4.31675510626029    0.61750060836159
H        19.63341728822657   -0.57554843410012   -1.15190153862404
H        18.81746385486239   -4.36291789198763   -1.10408991498772
H        15.90091891987508   -4.54579347736305   -0.93000595804588
H        14.10639959000966   -2.72853104709993   -0.53343639789294
H        14.39718092330151    0.10093081723580    0.11856938828962
H        14.92591890766055    2.53086474150188   -1.06917543204443
H        16.85601653466976    4.30151369754894   -0.69549594868302
H        18.09410590269548    0.58291123182772    1.16080671880917
H        18.97691417702647    4.35096623622672    1.03886269849132
C        66.35069940423000   -3.49839227098117    0.82670135088376
C        65.44062390754776   -2.55063071272949    0.61298318420104
C        66.11999667497676   -1.30127084635863    0.29922619378042
C        65.75899656699589   -0.00996469257672    0.00255533646415
C        66.56500521040041    1.12251027421201   -0.09136774993237
C        66.11879520643073    2.35016553027038    0.47371347647481
C        67.09382120229171    3.28041284904354    0.25628955143168
C        68.13731463595376    2.61261876801838   -0.43925966048730
N        67.79679855722482    1.31410298240467   -0.63930290669921
C        69.30141969000718    3.32862221153954   -0.77881996576038
C        70.60867015237496    2.86814988690241   -0.66059692815482
C        71.91803498312380    3.49282699065892   -0.76222122733923
C        72.84472659162682    2.54342771538451   -0.54076255649301
C        72.13104339489971    1.30188097600562   -0.28499847298295
N        70.80965912653204    1.56456620049369   -0.37164437373426
C        72.54666637186637    0.00986920608232   -0.00796577308870
C        71.72224487704376   -1.13217963416850    0.07532013541868
C        72.15016702266281   -2.34925552051512   -0.51645142272754
C        71.15290457601260   -3.26476302833232   -0.31391558059224
C        70.12787524461653   -2.59282527721122    0.40080696246444
N        70.49270860854436   -1.30432144500132    0.61898154288668
C        68.95622991292709   -3.29443878633947    0.73494690149309
C        67.64860723707420   -2.86388523833697    0.65470955706687
N        67.46326002413467   -1.56124915670065    0.34254228483988
H        66.17921924120957   -4.52485010334129    1.07498720496417
H        64.37798217382964   -2.67696167391460    0.66599112768675
H        65.17265286144097    2.53260931108258    0.98567716712326
H        67.06577076039186    4.32683786224802    0.57261404435639
H        68.38208070375644    0.56745701946671   -1.15783933536139
H        69.19803229804694    4.35511817402721   -1.14936218921466
H        72.11457711585302    4.53979119351941   -0.97718747443272
H        73.90909643509305    2.72674516470949   -0.56176552216761
H        73.61831513318666   -0.09579255797465    0.11959110402257
H        73.08957640171624   -2.53793062383554   -1.04285396107751
H        71.15947906195308   -4.30460350991963   -0.65080582677730
H        69.92139003872123   -0.56692250417453    1.16677642670906
H        69.03857979313234   -4.33603701418783    1.08397308745458
C        25.17343832498266    0.01232065097519    0.00532133478033
C        26.39817811712605   -0.01231830460430   -0.00528625831910
C        27.79442927740515   -0.03254315575183   -0.00981894086671
C        29.01834994385788   -0.03471538324580   -0.00875039088080
C        30.37853270238695   -0.01332367169420   -0.00920559830238
C        31.57829513370970    0.02269795359193   -0.00005936250839
C        40.84687966863363    0.00783691956499    0.00960531526613
C        42.04802445715271   -0.01722622333761   -0.00624171951276
C        43.39866413625377   -0.03193444393791   -0.01124429863032
C        44.62035280541830   -0.03425066870750   -0.00855746859959
C        45.97208707164377   -0.01364913892145   -0.00906259226281
C        47.17259508841853    0.02241777917619    0.00003279353016
C        56.44100830651364    0.00763637571445    0.00977046830454
C        57.64152213691668   -0.01739388913292   -0.00594008502015
C        59.00007117438589   -0.03164755802420   -0.01111211121485
C        60.22407829043134   -0.03390299175003   -0.00988129272462
C        61.61912609997495   -0.01649644559887   -0.00978146723838
C        62.84294481249742    0.01409115849870    0.00545567065052
C        33.42626161570299   -3.59795256831777   -0.00150403622877
C        32.53199487570219   -2.60129216454291   -0.00923488588556
C        33.24807302892143   -1.34221430340482    0.00863229226243
C        32.86313763102360   -0.01261751853615   -0.00013087506312
C        33.63650970930732    1.13937607762160   -0.15954179953463
C        33.14888108394991    2.19340039358381   -0.96487124249806
C        34.13571126287280    3.14319319995991   -0.95586317495662
C        35.19053437722379    2.64785738394952   -0.14659397929127
N        34.85699558056288    1.42485315441839    0.32532091773557
C        36.36050052212365    3.41735387655637    0.01282108390485
C        37.66471022328263    2.94810459088422   -0.01455993393074
C        38.97321474614645    3.59190981876265   -0.08029078649275
C        39.89696767899723    2.62317709660049   -0.08661233862580
C        39.18221596536227    1.35639442175876   -0.03254967091736
N        37.88260003849035    1.61711771408496    0.00619774106938
C        39.56697631548699    0.00671532051168   -0.00406650493024
C        38.77584101077773   -1.12076415619282    0.18438885962397
C        39.22888402430425   -2.15182378096664    1.04063752143311
C        38.23092125968135   -3.08473220468644    1.04575479054845
C        37.20037209882419   -2.61124786190759    0.19546821323014
N        37.56101054573064   -1.41137249819567   -0.31499855340837
C        36.03842099671012   -3.38499094381661    0.03165962513920
C        34.73260763628297   -2.94385727306620    0.01384873826073
N        34.56348124492952   -1.60708565641051    0.02374518438609
H        33.25062947262141   -4.65684116599835   -0.00548033205228
H        31.45685268271948   -2.77825989284673   -0.02693725194096
H        32.19436344097999    2.26110778650351   -1.49577683468254
H        34.10175569142271    4.09763118117216   -1.48647355462337
H        35.43825276195076    0.80530232028793    0.99190878644807
H        36.28493855657307    4.49597009684758    0.14204788471827
H        39.19104038585518    4.64896104254881   -0.12091875377129
H        40.96693552023766    2.76753605998894   -0.12540626915417
H        40.17220330966360   -2.20951000967555    1.59420169677177
H        38.25047129598865   -4.01337066216163    1.61808484309818
H        37.00010099367206   -0.80952490422871   -1.01546226430488
H        36.11656271320769   -4.47826778839055   -0.06653622477173
C        49.01885353651496   -3.59816947339811   -0.00144826521890
C        48.12486341245171   -2.60168640227258   -0.00917194685031
C        48.84127321612139   -1.34239079429018    0.00856399896594
C        48.45588492414904   -0.01240037208741   -0.00004845470987
C        49.22961387011756    1.13975428939791   -0.15968481269051
C        48.74191720931676    2.19349694227136   -0.96513778169250
C        49.72816161629154    3.14365982738010   -0.95545178598744
C        50.78345375329302    2.64834987447845   -0.14652131112870
N        50.44949374930664    1.42465450439021    0.32528433760698
C        51.95254186461190    3.41718260007249    0.01253938544577
C        53.25788566569665    2.94786791312195   -0.01432473204749
C        54.56580693364808    3.59171980855221   -0.08025091974933
C        55.48980135370195    2.62281995711498   -0.08654866789760
C        54.77530127019018    1.35627825520644   -0.03283503203716
N        53.47488060985818    1.61756086858183    0.00641969513278
C        55.15972861906236    0.00689567632951   -0.00394715271648
C        54.36896847393153   -1.12043780436016    0.18427608023192
C        54.82194773836287   -2.15177014451439    1.04034635287106
C        53.82333295284587   -3.08422626687106    1.04618030958962
C        52.79330428918824   -2.61073607256214    0.19555987876472
N        53.15351240008651   -1.41160157254951   -0.31501841558689
C        51.63040737906406   -3.38518807273539    0.03131451898358
C        50.32582702667055   -2.94412625836748    0.01409118362904
N        50.15566893793613   -1.60654359145472    0.02396944800279
H        48.84329558627719   -4.65697050083632   -0.00550219671981
H        47.04954455630322   -2.77830911546026   -0.02694054757506
H        47.78720340823327    2.26105319326134   -1.49583363601114
H        49.69446164013816    4.09776084083016   -1.48647246531697
H        51.03086838257205    0.80517445194841    0.99183722625361
H        51.87758415166596    4.49594722463613    0.14173257631996
H        54.78370755582563    4.64883711139776   -0.12093672557273
H        56.55963229909153    2.76748824495632   -0.12540985906416
H        55.76504873393701   -2.20957612803933    1.59414522998156
H        53.84316823440532   -4.01323982791540    1.61808594225198
H        52.59272854705013   -0.80965708930224   -1.01552398955434
H        51.70921853613349   -4.47829943116197   -0.06690168089879
164
 energy: -280.871645547485 gnorm: 0.164438710238 xtb: 6.4.1 (bd6e46d)
C        21.65829606879894    3.50519970783599    0.79356372608409
C        22.58677126953479    2.55533368165589    0.57897388229078
C        21.89042861056353    1.31168171578552    0.27853560141109
C        22.25550454835753    0.02750077089580    0.00472083722217
C        21.47395572874984   -1.11247789557425   -0.07341758339280
C        21.90693036342438   -2.34602595773702    0.49492485422005
C        20.93171208231263   -3.27616799952315    0.27448291988509
C        19.87547534994550   -2.62584649115770   -0.42179250624804
N        20.22428680179920   -1.31846419601315   -0.62233042082614
C        18.70081541780009   -3.33384767563379   -0.75435300545571
C        17.40647904449158   -2.84741512632932   -0.64426787121825
C        16.10156723820953   -3.49979971557640   -0.73417985805162
C        15.17217749922621   -2.54802146003358   -0.50929056009162
C        15.90268405092334   -1.30720611562237   -0.25533685765199
N        17.22357599378300   -1.54814935382542   -0.35032901094853
C        15.46457313925950   -0.02057487585707   -0.00057801432523
C        16.27824098842428    1.13198511723919    0.06217147774892
C        15.85687059679557    2.35158534783182   -0.52766291765644
C        16.85407970465542    3.26964964219054   -0.33293062649653
C        17.89287191698781    2.61723571846863    0.37818642019974
N        17.52765967109600    1.31452362279235    0.58876694311913
C        19.06905172070025    3.31601468989723    0.71289186828207
C        20.36760892663509    2.84745622746119    0.63404209115352
N        20.54701133730145    1.54893060344649    0.33181845196662
H        21.82932836674349    4.53830084826288    1.02930700583649
H        23.64733912799279    2.68133556723820    0.63452589210134
H        22.83754850337577   -2.51015423752750    1.00943826609440
H        20.94396547932618   -4.30350707222564    0.60856691662336
H        19.65800652751032   -0.60927232515606   -1.11630471154788
H        18.81836665701792   -4.36636130481601   -1.07546413646677
H        15.90957265692985   -4.54137288381474   -0.93174863275993
H        14.10902303652059   -2.71641241282493   -0.52868124985925
H        14.39394474170159    0.11009105214041    0.09707662564638
H        14.93480120481308    2.52114527794989   -1.06201875833106
H        16.86185575939729    4.28916771548672   -0.68799909810723
H        18.07207235094694    0.61476448492164    1.11990000564058
H        18.97010077047347    4.35555527227531    1.01581596828904
C        66.35719389645547   -3.49283017939554    0.82990462048815
C        65.42868460995332   -2.54524849551854    0.60546176972752
C        66.12494242099331   -1.30470461520856    0.29211463947297
C        65.76002106447295   -0.02327341532415    0.00490783872112
C        66.54162547451820    1.11562596702617   -0.08500877959370
C        66.10859452996377    2.35498280993909    0.47052707731124
C        67.08379406751031    3.28276498471701    0.24043345398659
C        68.14005146075135    2.62525230473474   -0.44906516544256
N        67.79127368792830    1.31586434372841   -0.63601696908552
C        69.31469058436224    3.32975026179481   -0.78895796151111
C        70.60902307119052    2.84447440669355   -0.67382822615328
C        71.91393338932836    3.49588912279132   -0.77050376984141
C        72.84332053977322    2.54649641941376   -0.53574454113460
C        72.11281184792334    1.30838559237937   -0.26892008870669
N        70.79192007674102    1.54833293446609   -0.36640400945976
C        72.55092211561120    0.02446915511206   -0.00081327873043
C        71.73725554226129   -1.12737650645046    0.07390414084013
C        72.15862353755249   -2.35303740847399   -0.50322983152672
C        71.16141240532542   -3.26902942611117   -0.29897184360566
C        70.12261647204224   -2.60925879118384    0.40532640196918
N        70.48783794540563   -1.30443465979053    0.60237144899578
C        68.94641810134559   -3.30450461319251    0.74725584154824
C        67.64785264793947   -2.83676082952654    0.66353771461146
N        67.46838853801853   -1.54142906009360    0.34786995661485
H        66.18617104788080   -4.52344201951124    1.07635282822221
H        64.36815228647897   -2.67074665945458    0.66231978117235
H        65.17795624430173    2.52440543758032    0.98327224939381
H        67.07153339941169    4.31351430880664    0.56381907743703
H        68.35750910243544    0.60155924685630   -1.12260594951343
H        69.19713529577469    4.35886817949858   -1.12077422816827
H        72.10592512289523    4.53535295181104   -0.97888209929620
H        73.90647411079749    2.71467579519382   -0.55688416483792
H        73.62155054316997   -0.10517559397206    0.09819423952258
H        73.08069186069359   -2.52813805607207   -1.03579858432524
H        71.15363723112051   -4.29217865756376   -0.64343900868736
H        69.94342362309312   -0.59919644176142    1.12620245788312
H        69.04537710550755   -4.34085028806645    1.06096421945527
C        25.16733828057444    0.00872828360125    0.00655210450863
C        26.39656618379906   -0.01386271293719   -0.00439291064661
C        27.76317096655335   -0.03076048285702   -0.00984441483614
C        28.99208459738382   -0.03251875874039   -0.00584398372718
C        30.31757048179333   -0.01034946419181   -0.00869842217176
C        31.53413375320699    0.03468362254822   -0.01518205467459
C        40.87966954805518   -0.00270443273756    0.02326028933059
C        42.09371227696850   -0.02581867540212   -0.00604495586178
C        43.39836077498838   -0.03108210094022   -0.01457254385752
C        44.62035459314289   -0.03240060502437   -0.00563570804057
C        45.92497954550722   -0.01093592645780   -0.00828747906573
C        47.13826830795706    0.03414582544861   -0.01475430590897
C        56.48351678260276   -0.00324604782469    0.02377422710205
C        57.70100427199733   -0.02627473905876   -0.00501753619166
C        59.02586329749217   -0.03075146969678   -0.01415329660153
C        60.25515676574987   -0.03196706559201   -0.01054268695646
C        61.62063190944045   -0.01626032007222   -0.00868096476605
C        62.84990248407895    0.01471288819936    0.00715197025814
C        33.43994572257949   -3.59722814921804   -0.00701756658619
C        32.52699361364287   -2.60441878965695   -0.00510036511945
C        33.27500213840901   -1.35797896176887    0.02287950577330
C        32.86759349057630   -0.02291177482343    0.00324499909325
C        33.63052867027614    1.13876638228301   -0.16217734730790
C        33.14933780095196    2.20089362216717   -0.95570641778667
C        34.13426579380380    3.15621786657374   -0.94436624758950
C        35.19749603783824    2.67041219821508   -0.14522976146456
N        34.86717248987694    1.42782230923515    0.31190341438745
C        36.37703134714771    3.43082885137155    0.02275460079133
C        37.66204394302276    2.94300758801839    0.00006161002979
C        38.96666075937350    3.59927106897967   -0.07268654567498
C        39.89476806501010    2.62096772469407   -0.09044138269741
C        39.14835180952877    1.36924308648538   -0.04757105121060
N        37.85122356777027    1.60585244009727   -0.00049735731149
C        39.55373585139979    0.02475036514032   -0.00764547323059
C        38.77874775417839   -1.12069881523754    0.18815470256523
C        39.23040402201109   -2.15797977746473    1.03194736005273
C        38.23567365446095   -3.10035032607130    1.03522407676296
C        37.19622295429479   -2.63701353109357    0.19474745783871
N        37.55024973117973   -1.41426313337864   -0.30119939995282
C        36.02946480433992   -3.40792417772626    0.02015467887174
C        34.74101278132710   -2.93624675143391   -0.00180731268953
N        34.57780512532433   -1.59912168497534    0.02679534235032