      -----------------------------------------------------------      
     |                   =====================                   |     
     |                           x T B                           |     
     |                   =====================                   |     
     |                         S. Grimme                         |     
     |          Mulliken Center for Theoretical Chemistry        |     
     |                    University of Bonn                     |     
      -----------------------------------------------------------      

   * xtb version 6.4.1 (bd6e46d) compiled by 'conda@4901f00b25ba' on 2021-06-10

   xtb is free software: you can redistribute it and/or modify it under
   the terms of the GNU Lesser General Public License as published by
   the Free Software Foundation, either version 3 of the License, or
   (at your option) any later version.
   
   xtb is distributed in the hope that it will be useful,
   but WITHOUT ANY WARRANTY; without even the implied warranty of
   MERCHANTABILITY or FITNESS FOR A PARTICULAR PURPOSE.  See the
   GNU Lesser General Public License for more details.
   
   Cite this work as:
   * C. Bannwarth, E. Caldeweyher, S. Ehlert, A. Hansen, P. Pracht,
     J. Seibert, S. Spicher, S. Grimme, WIREs Comput. Mol. Sci., 2020, 11,
     e01493. DOI: 10.1002/wcms.1493
   
   for GFN2-xTB:
   * C. Bannwarth, S. Ehlert and S. Grimme., J. Chem. Theory Comput., 2019,
     15, 1652-1671. DOI: 10.1021/acs.jctc.8b01176
   for GFN1-xTB:
   * S. Grimme, C. Bannwarth, P. Shushkov, J. Chem. Theory Comput., 2017,
     13, 1989-2009. DOI: 10.1021/acs.jctc.7b00118
   for GFN0-xTB:
   * P. Pracht, E. Caldeweyher, S. Ehlert, S. Grimme, ChemRxiv, 2019, preprint.
     DOI: 10.26434/chemrxiv.8326202.v1
   for GFN-FF:
   * S. Spicher and S. Grimme, Angew. Chem. Int. Ed., 2020, 59, 15665-15673.
     DOI: 10.1002/anie.202004239
   
   for DFT-D4:
   * E. Caldeweyher, C. Bannwarth and S. Grimme, J. Chem. Phys., 2017,
     147, 034112. DOI: 10.1063/1.4993215
   * E. Caldeweyher, S. Ehlert, A. Hansen, H. Neugebauer, S. Spicher,
     C. Bannwarth and S. Grimme, J. Chem. Phys., 2019, 150, 154122.
     DOI: 10.1063/1.5090222
   * E. Caldeweyher, J.-M. Mewes, S. Ehlert and S. Grimme, Phys. Chem. Chem. Phys.
     2020, 22, 8499-8512. DOI: 10.1039/D0CP00502A
   
   for sTDA-xTB:
   * S. Grimme and C. Bannwarth, J. Chem. Phys., 2016, 145, 054103.
     DOI: 10.1063/1.4959605
   
   in the mass-spec context:
   * V. Asgeirsson, C. Bauer and S. Grimme, Chem. Sci., 2017, 8, 4879.
     DOI: 10.1039/c7sc00601b
   * J. Koopman and S. Grimme, ACS Omega 2019, 4, 12, 15120-15133.
     DOI: 10.1021/acsomega.9b02011
   
   for metadynamics refer to:
   * S. Grimme, J. Chem. Theory Comput., 2019, 155, 2847-2862
     DOI: 10.1021/acs.jctc.9b00143
   
   for SPH calculations refer to:
   * S. Spicher and S. Grimme, J. Chem. Theory Comput., 2021, 17, 1701-1714
     DOI: 10.1021/acs.jctc.0c01306
   
   with help from (in alphabetical order)
   P. Atkinson, C. Bannwarth, F. Bohle, G. Brandenburg, E. Caldeweyher
   M. Checinski, S. Dohm, S. Ehlert, S. Ehrlich, I. Gerasimov, J. Koopman
   C. Lavigne, S. Lehtola, F. März, M. Müller, F. Musil, H. Neugebauer
   J. Pisarek, C. Plett, P. Pracht, J. Seibert, P. Shushkov, S. Spicher
   M. Stahn, M. Steiner, T. Strunk, J. Stückrath, T. Rose, and J. Unsleber
   
 * started run on 2021/11/19 at 14:58:17.724     

           -------------------------------------------------
          |                Calculation Setup                |
           -------------------------------------------------

          program call               : /home/jeff/miniconda3/bin/xtb /home/jeff/chem/final-year-proejct/Zn+2_4_7_outenergy/input_structure.xyz --gfn 2 --parallel 1 --etemp 300 --chrg 0 --uhf 0 -I det_control.in
          coordinate file            : /home/jeff/chem/final-year-proejct/Zn+2_4_7_outenergy/input_structure.xyz
          omp threads                :                     1
          number of atoms            :                   271
          number of electrons        :                   882
          charge                     :                     0
          spin                       :                   0.0
          first test random number   :      0.14595364542188

   ID    Z sym.   atoms
    1   30 Zn     1, 37, 97, 132, 167, 202, 237
    2    6 C      2-9, 11-15, 17-21, 23, 24, 38-45, 47-51, 53-57, 59, 60,
                  73-96, 98-105, 107-111, 113-117, 119, 120, 133-140,
                  142-146, 148-152, 154, 155, 168-175, 177-181, 183-187, 189,
                  190, 203-210, 212-216, 218-222, 224, 225, 238-245, 247-251,
                  253-257, 259, 260
    3    7 N      10, 16, 22, 25, 46, 52, 58, 61, 106, 112, 118, 121, 141,
                  147, 153, 156, 176, 182, 188, 191, 211, 217, 223, 226, 246,
                  252, 258, 261
    4    1 H      26-36, 62-72, 122-131, 157-166, 192-201, 227-236, 262-271

           -------------------------------------------------
          |                 G F N 2 - x T B                 |
           -------------------------------------------------

        Reference                      10.1021/acs.jctc.8b01176
      * Hamiltonian:
        H0-scaling (s, p, d)           1.850000    2.230000    2.230000
        zeta-weighting                 0.500000
      * Dispersion:
        s8                             2.700000
        a1                             0.520000
        a2                             5.000000
        s9                             5.000000
      * Repulsion:
        kExp                           1.500000    1.000000
        rExp                           1.000000
      * Coulomb:
        alpha                          2.000000
        third order                    shell-resolved
        anisotropic                    true
        a3                             3.000000
        a5                             4.000000
        cn-shift                       1.200000
        cn-exp                         4.000000
        max-rad                        5.000000


          ...................................................
          :                      SETUP                      :
          :.................................................:
          :  # basis functions                 868          :
          :  # atomic orbitals                 868          :
          :  # shells                          470          :
          :  # electrons                       882          :
          :  max. iterations                   250          :
          :  Hamiltonian                  GFN2-xTB          :
          :  restarted?                      false          :
          :  GBSA solvation                  false          :
          :  PC potential                    false          :
          :  electronic temp.          300.0000000     K    :
          :  accuracy                    1.0000000          :
          :  -> integral cutoff          0.2500000E+02      :
          :  -> integral neglect         0.1000000E-07      :
          :  -> SCF convergence          0.1000000E-05 Eh   :
          :  -> wf. convergence          0.1000000E-03 e    :
          :  Broyden damping             0.4000000          :
          ...................................................

 iter      E             dE          RMSdq      gap      omega  full diag
   1   -480.8497459 -0.480850E+03  0.704E+00    0.84       0.0  T
   2   -481.8033569 -0.953611E+00  0.370E+00    0.79       1.0  T
   3   -481.5452554  0.258102E+00  0.249E+00    0.91       1.0  T
   4   -482.5706899 -0.102543E+01  0.401E-01    0.82       1.0  T
   5   -482.5772470 -0.655714E-02  0.270E-01    0.85       1.0  T
   6   -482.5800110 -0.276392E-02  0.168E-01    0.85       1.0  T
   7   -482.5831242 -0.311323E-02  0.923E-02    0.84       1.0  T
   8   -482.5857576 -0.263345E-02  0.335E-02    0.84       1.0  T
   9   -482.5860449 -0.287277E-03  0.145E-02    0.84       1.0  T
  10   -482.5860744 -0.294378E-04  0.650E-03    0.84       1.0  T
  11   -482.5860804 -0.600624E-05  0.245E-03    0.84       2.5  T
  12   -482.5860813 -0.923081E-06  0.112E-03    0.84       5.4  T
  13   -482.5860813 -0.196819E-07  0.658E-04    0.84       9.2  T
  14   -482.5860814 -0.110452E-06  0.199E-04    0.84      30.5  T

   *** convergence criteria satisfied after 14 iterations ***

         #    Occupation            Energy/Eh            Energy/eV
      -------------------------------------------------------------
         1        2.0000           -0.6686010             -18.1936
       ...           ...                  ...                  ...
       435        2.0000           -0.3693628             -10.0509
       436        2.0000           -0.3692424             -10.0476
       437        2.0000           -0.3649073              -9.9296
       438        2.0000           -0.3601487              -9.8001
       439        2.0000           -0.3554433              -9.6721
       440        2.0000           -0.3513000              -9.5594
       441        2.0000           -0.3485336              -9.4841 (HOMO)
       442        0.0000           -0.3176093              -8.6426 (LUMO)
       443                         -0.3141912              -8.5496
       444                         -0.3097217              -8.4280
       445                         -0.3047703              -8.2932
       446                         -0.3002628              -8.1706
       ...                                ...                  ...
       868                          1.6299913              44.3543
      -------------------------------------------------------------
                  HL-Gap            0.0309243 Eh            0.8415 eV
             Fermi-level           -0.3330589 Eh           -9.0630 eV

 SCC (total)                   0 d,  0 h,  0 min,  4.084 sec
 SCC setup                      ...        0 min,  0.013 sec (  0.313%)
 Dispersion                     ...        0 min,  0.026 sec (  0.628%)
 classical contributions        ...        0 min,  0.002 sec (  0.055%)
 integral evaluation            ...        0 min,  0.193 sec (  4.715%)
 iterations                     ...        0 min,  3.306 sec ( 80.944%)
 molecular gradient             ...        0 min,  0.515 sec ( 12.598%)
 printout                       ...        0 min,  0.030 sec (  0.746%)

         :::::::::::::::::::::::::::::::::::::::::::::::::::::
         ::                     SUMMARY                     ::
         :::::::::::::::::::::::::::::::::::::::::::::::::::::
         :: total energy            -473.683967092718 Eh    ::
         :: gradient norm              0.000900108957 Eh/a0 ::
         :: HOMO-LUMO gap              0.841493212139 eV    ::
         ::.................................................::
         :: SCC energy              -482.586081415871 Eh    ::
         :: -> isotropic ES            0.455533499569 Eh    ::
         :: -> anisotropic ES          0.060613713355 Eh    ::
         :: -> anisotropic XC          0.273292111937 Eh    ::
         :: -> dispersion             -0.440889430526 Eh    ::
         :: repulsion energy           8.910031307545 Eh    ::
         :: add. restraining           0.000000000000 Eh    ::
         :: total charge               0.000000000000 e     ::
         :::::::::::::::::::::::::::::::::::::::::::::::::::::

           -------------------------------------------------
          |                Property Printout                |
           -------------------------------------------------

    * Orbital Energies and Occupations

         #    Occupation            Energy/Eh            Energy/eV
      -------------------------------------------------------------
         1        2.0000           -0.6686010             -18.1936
       ...           ...                  ...                  ...
       429        2.0000           -0.3710099             -10.0957
       430        2.0000           -0.3709385             -10.0937
       431        2.0000           -0.3709351             -10.0937
       432        2.0000           -0.3706616             -10.0862
       433        2.0000           -0.3706598             -10.0862
       434        2.0000           -0.3693779             -10.0513
       435        2.0000           -0.3693628             -10.0509
       436        2.0000           -0.3692424             -10.0476
       437        2.0000           -0.3649073              -9.9296
       438        2.0000           -0.3601487              -9.8001
       439        2.0000           -0.3554433              -9.6721
       440        2.0000           -0.3513000              -9.5594
       441        2.0000           -0.3485336              -9.4841 (HOMO)
       442        0.0000           -0.3176093              -8.6426 (LUMO)
       443                         -0.3141912              -8.5496
       444                         -0.3097217              -8.4280
       445                         -0.3047703              -8.2932
       446                         -0.3002628              -8.1706
       447                         -0.3001882              -8.1685
       448                         -0.3001870              -8.1685
       449                         -0.2999040              -8.1608
       450                         -0.2999010              -8.1607
       451                         -0.2998130              -8.1583
       452                         -0.2986997              -8.1280
       ...                                ...                  ...
       868                          1.6299913              44.3543
      -------------------------------------------------------------
                  HL-Gap            0.0309243 Eh            0.8415 eV
             Fermi-level           -0.3330589 Eh           -9.0630 eV

     #   Z          covCN         q      C6AA      α(0)
     1  30 Zn       3.042     0.245   122.298    21.603
     2   6 C        3.020    -0.052    29.266     8.874
     3   6 C        3.018    -0.050    29.228     8.868
     4   6 C        3.166     0.077    25.945     8.324
     5   6 C        2.953     0.017    27.630     8.621
     6   6 C        3.165     0.077    25.946     8.324
     7   6 C        3.018    -0.050    29.227     8.868
     8   6 C        3.020    -0.052    29.266     8.874
     9   6 C        3.149     0.076    26.053     8.349
    10   7 N        2.632    -0.177    24.836     7.402
    11   6 C        2.901    -0.050    29.234     8.865
    12   6 C        3.145     0.077    26.038     8.349
    13   6 C        3.017    -0.051    29.244     8.871
    14   6 C        3.018    -0.051    29.247     8.871
    15   6 C        3.145     0.077    26.028     8.347
    16   7 N        2.635    -0.175    24.790     7.395
    17   6 C        2.901    -0.051    29.278     8.872
    18   6 C        3.145     0.077    26.028     8.347
    19   6 C        3.018    -0.051    29.247     8.871
    20   6 C        3.017    -0.051    29.244     8.871
    21   6 C        3.145     0.077    26.038     8.348
    22   7 N        2.635    -0.175    24.791     7.395
    23   6 C        2.901    -0.050    29.234     8.865
    24   6 C        3.149     0.076    26.052     8.349
    25   7 N        2.632    -0.177    24.835     7.401
    26   1 H        0.926     0.034     2.534     2.489
    27   1 H        0.926     0.035     2.510     2.478
    28   1 H        0.926     0.035     2.510     2.478
    29   1 H        0.926     0.034     2.534     2.489
    30   1 H        0.926     0.049     2.329     2.387
    31   1 H        0.926     0.034     2.526     2.485
    32   1 H        0.926     0.034     2.527     2.486
    33   1 H        0.926     0.049     2.337     2.391
    34   1 H        0.926     0.034     2.527     2.486
    35   1 H        0.926     0.034     2.526     2.485
    36   1 H        0.926     0.049     2.329     2.387
    37  30 Zn       3.042     0.245   122.299    21.603
    38   6 C        3.020    -0.052    29.266     8.874
    39   6 C        3.018    -0.050    29.228     8.868
    40   6 C        3.166     0.077    25.945     8.324
    41   6 C        2.953     0.017    27.630     8.622
    42   6 C        3.165     0.077    25.947     8.324
    43   6 C        3.018    -0.050    29.227     8.868
    44   6 C        3.020    -0.052    29.266     8.874
    45   6 C        3.149     0.076    26.052     8.349
    46   7 N        2.632    -0.177    24.837     7.402
    47   6 C        2.901    -0.050    29.235     8.865
    48   6 C        3.145     0.077    26.038     8.349
    49   6 C        3.017    -0.051    29.244     8.871
    50   6 C        3.018    -0.051    29.247     8.871
    51   6 C        3.145     0.077    26.028     8.347
    52   7 N        2.635    -0.175    24.790     7.395
    53   6 C        2.901    -0.052    29.278     8.872
    54   6 C        3.145     0.077    26.028     8.347
    55   6 C        3.018    -0.051    29.247     8.871
    56   6 C        3.017    -0.051    29.244     8.871
    57   6 C        3.145     0.077    26.038     8.348
    58   7 N        2.635    -0.175    24.791     7.395
    59   6 C        2.901    -0.050    29.235     8.865
    60   6 C        3.149     0.076    26.052     8.349
    61   7 N        2.632    -0.177    24.836     7.401
    62   1 H        0.926     0.034     2.534     2.489
    63   1 H        0.926     0.035     2.510     2.477
    64   1 H        0.926     0.035     2.510     2.477
    65   1 H        0.926     0.034     2.534     2.489
    66   1 H        0.926     0.049     2.329     2.387
    67   1 H        0.926     0.034     2.526     2.485
    68   1 H        0.926     0.034     2.527     2.486
    69   1 H        0.926     0.049     2.337     2.391
    70   1 H        0.926     0.034     2.527     2.486
    71   1 H        0.926     0.034     2.526     2.485
    72   1 H        0.926     0.049     2.329     2.387
    73   6 C        1.996    -0.020    31.582     9.076
    74   6 C        1.963    -0.010    31.335     9.040
    75   6 C        1.963    -0.009    31.315     9.037
    76   6 C        1.996    -0.021    31.604     9.079
    77   6 C        1.996    -0.020    31.587     9.076
    78   6 C        1.963    -0.010    31.324     9.038
    79   6 C        1.963    -0.009    31.317     9.037
    80   6 C        1.995    -0.021    31.594     9.077
    81   6 C        1.995    -0.021    31.589     9.077
    82   6 C        1.963    -0.009    31.320     9.038
    83   6 C        1.963    -0.009    31.318     9.037
    84   6 C        1.995    -0.021    31.590     9.077
    85   6 C        1.995    -0.021    31.590     9.077
    86   6 C        1.963    -0.009    31.318     9.037
    87   6 C        1.963    -0.009    31.320     9.038
    88   6 C        1.995    -0.021    31.589     9.077
    89   6 C        1.995    -0.021    31.594     9.077
    90   6 C        1.963    -0.009    31.317     9.037
    91   6 C        1.963    -0.010    31.324     9.038
    92   6 C        1.996    -0.020    31.587     9.076
    93   6 C        1.996    -0.021    31.603     9.079
    94   6 C        1.963    -0.009    31.314     9.037
    95   6 C        1.963    -0.010    31.334     9.040
    96   6 C        1.996    -0.020    31.581     9.076
    97  30 Zn       3.038     0.246   122.276    21.601
    98   6 C        3.020    -0.052    29.262     8.873
    99   6 C        3.018    -0.050    29.226     8.868
   100   6 C        3.167     0.077    25.936     8.322
   101   6 C        2.953     0.017    27.619     8.620
   102   6 C        3.166     0.077    25.937     8.322
   103   6 C        3.018    -0.050    29.226     8.868
   104   6 C        3.020    -0.052    29.262     8.873
   105   6 C        3.150     0.075    26.057     8.349
   106   7 N        2.632    -0.177    24.837     7.402
   107   6 C        2.901    -0.048    29.182     8.857
   108   6 C        3.150     0.075    26.059     8.350
   109   6 C        3.020    -0.052    29.261     8.873
   110   6 C        3.018    -0.050    29.229     8.868
   111   6 C        3.166     0.078    25.936     8.322
   112   7 N        2.632    -0.177    24.838     7.402
   113   6 C        2.953     0.017    27.629     8.621
   114   6 C        3.166     0.078    25.937     8.322
   115   6 C        3.018    -0.050    29.228     8.868
   116   6 C        3.020    -0.052    29.261     8.873
   117   6 C        3.150     0.075    26.059     8.350
   118   7 N        2.632    -0.177    24.838     7.402
   119   6 C        2.901    -0.048    29.182     8.857
   120   6 C        3.150     0.075    26.057     8.349
   121   7 N        2.632    -0.177    24.836     7.402
   122   1 H        0.926     0.034     2.532     2.488
   123   1 H        0.926     0.036     2.509     2.477
   124   1 H        0.926     0.036     2.508     2.477
   125   1 H        0.926     0.034     2.532     2.489
   126   1 H        0.925     0.050     2.320     2.382
   127   1 H        0.926     0.034     2.532     2.488
   128   1 H        0.926     0.035     2.510     2.478
   129   1 H        0.926     0.035     2.510     2.478
   130   1 H        0.926     0.034     2.532     2.489
   131   1 H        0.925     0.050     2.320     2.382
   132  30 Zn       3.037     0.246   122.275    21.601
   133   6 C        3.020    -0.052    29.261     8.873
   134   6 C        3.018    -0.050    29.227     8.868
   135   6 C        3.166     0.078    25.937     8.322
   136   6 C        2.953     0.017    27.622     8.620
   137   6 C        3.166     0.078    25.937     8.322
   138   6 C        3.018    -0.050    29.227     8.868
   139   6 C        3.020    -0.052    29.261     8.873
   140   6 C        3.150     0.075    26.059     8.350
   141   7 N        2.632    -0.177    24.835     7.401
   142   6 C        2.901    -0.048    29.179     8.857
   143   6 C        3.150     0.075    26.059     8.350
   144   6 C        3.020    -0.052    29.261     8.873
   145   6 C        3.019    -0.050    29.227     8.868
   146   6 C        3.166     0.078    25.938     8.323
   147   7 N        2.632    -0.177    24.837     7.402
   148   6 C        2.953     0.017    27.625     8.621
   149   6 C        3.166     0.078    25.937     8.322
   150   6 C        3.018    -0.050    29.228     8.868
   151   6 C        3.020    -0.052    29.260     8.873
   152   6 C        3.150     0.075    26.059     8.350
   153   7 N        2.632    -0.177    24.836     7.402
   154   6 C        2.901    -0.048    29.179     8.857
   155   6 C        3.150     0.075    26.058     8.350
   156   7 N        2.632    -0.177    24.836     7.402
   157   1 H        0.926     0.034     2.531     2.488
   158   1 H        0.926     0.036     2.509     2.477
   159   1 H        0.926     0.036     2.509     2.477
   160   1 H        0.926     0.034     2.532     2.488
   161   1 H        0.925     0.050     2.319     2.381
   162   1 H        0.926     0.034     2.532     2.488
   163   1 H        0.926     0.035     2.510     2.478
   164   1 H        0.926     0.036     2.509     2.477
   165   1 H        0.926     0.034     2.531     2.488
   166   1 H        0.925     0.050     2.319     2.381
   167  30 Zn       3.037     0.246   122.275    21.601
   168   6 C        3.020    -0.052    29.260     8.873
   169   6 C        3.018    -0.050    29.227     8.868
   170   6 C        3.166     0.078    25.938     8.323
   171   6 C        2.953     0.017    27.623     8.620
   172   6 C        3.166     0.078    25.937     8.322
   173   6 C        3.019    -0.050    29.227     8.868
   174   6 C        3.020    -0.052    29.260     8.873
   175   6 C        3.150     0.075    26.058     8.350
   176   7 N        2.632    -0.177    24.836     7.402
   177   6 C        2.901    -0.048    29.179     8.857
   178   6 C        3.150     0.075    26.058     8.350
   179   6 C        3.020    -0.052    29.260     8.873
   180   6 C        3.018    -0.050    29.227     8.868
   181   6 C        3.166     0.078    25.936     8.322
   182   7 N        2.632    -0.177    24.836     7.401
   183   6 C        2.953     0.017    27.623     8.620
   184   6 C        3.166     0.078    25.939     8.323
   185   6 C        3.018    -0.050    29.226     8.868
   186   6 C        3.020    -0.052    29.260     8.873
   187   6 C        3.150     0.075    26.059     8.350
   188   7 N        2.632    -0.177    24.836     7.401
   189   6 C        2.901    -0.048    29.179     8.857
   190   6 C        3.150     0.075    26.059     8.350
   191   7 N        2.632    -0.177    24.836     7.401
   192   1 H        0.926     0.034     2.531     2.488
   193   1 H        0.926     0.036     2.509     2.477
   194   1 H        0.926     0.036     2.509     2.477
   195   1 H        0.926     0.034     2.531     2.488
   196   1 H        0.925     0.050     2.319     2.381
   197   1 H        0.926     0.034     2.531     2.488
   198   1 H        0.926     0.036     2.509     2.477
   199   1 H        0.926     0.036     2.509     2.477
   200   1 H        0.926     0.034     2.531     2.488
   201   1 H        0.925     0.050     2.319     2.381
   202  30 Zn       3.037     0.246   122.275    21.601
   203   6 C        3.020    -0.052    29.260     8.873
   204   6 C        3.019    -0.050    29.228     8.868
   205   6 C        3.166     0.078    25.936     8.322
   206   6 C        2.953     0.017    27.625     8.621
   207   6 C        3.166     0.078    25.939     8.323
   208   6 C        3.018    -0.050    29.227     8.868
   209   6 C        3.020    -0.052    29.260     8.873
   210   6 C        3.150     0.075    26.059     8.350
   211   7 N        2.632    -0.177    24.836     7.402
   212   6 C        2.901    -0.048    29.179     8.857
   213   6 C        3.150     0.075    26.059     8.350
   214   6 C        3.020    -0.052    29.261     8.873
   215   6 C        3.018    -0.050    29.227     8.868
   216   6 C        3.166     0.078    25.937     8.322
   217   7 N        2.632    -0.177    24.836     7.401
   218   6 C        2.953     0.017    27.622     8.620
   219   6 C        3.166     0.078    25.937     8.322
   220   6 C        3.019    -0.050    29.227     8.868
   221   6 C        3.020    -0.052    29.261     8.873
   222   6 C        3.150     0.075    26.058     8.350
   223   7 N        2.632    -0.177    24.836     7.401
   224   6 C        2.901    -0.048    29.179     8.857
   225   6 C        3.150     0.075    26.058     8.350
   226   7 N        2.632    -0.177    24.836     7.402
   227   1 H        0.926     0.034     2.531     2.488
   228   1 H        0.926     0.036     2.509     2.477
   229   1 H        0.926     0.035     2.510     2.477
   230   1 H        0.926     0.034     2.532     2.488
   231   1 H        0.925     0.050     2.319     2.381
   232   1 H        0.926     0.034     2.532     2.488
   233   1 H        0.926     0.036     2.509     2.477
   234   1 H        0.926     0.036     2.509     2.477
   235   1 H        0.926     0.034     2.531     2.488
   236   1 H        0.925     0.050     2.319     2.381
   237  30 Zn       3.038     0.246   122.276    21.601
   238   6 C        3.020    -0.052    29.261     8.873
   239   6 C        3.018    -0.050    29.228     8.868
   240   6 C        3.166     0.078    25.937     8.322
   241   6 C        2.953     0.017    27.629     8.621
   242   6 C        3.166     0.078    25.937     8.322
   243   6 C        3.018    -0.050    29.228     8.868
   244   6 C        3.020    -0.052    29.261     8.873
   245   6 C        3.150     0.075    26.059     8.350
   246   7 N        2.632    -0.177    24.838     7.402
   247   6 C        2.901    -0.048    29.182     8.857
   248   6 C        3.150     0.075    26.056     8.349
   249   6 C        3.020    -0.052    29.262     8.873
   250   6 C        3.018    -0.050    29.227     8.868
   251   6 C        3.167     0.077    25.937     8.322
   252   7 N        2.632    -0.177    24.837     7.402
   253   6 C        2.953     0.017    27.619     8.620
   254   6 C        3.166     0.077    25.937     8.322
   255   6 C        3.018    -0.050    29.226     8.868
   256   6 C        3.020    -0.052    29.262     8.873
   257   6 C        3.150     0.075    26.056     8.349
   258   7 N        2.632    -0.177    24.838     7.402
   259   6 C        2.901    -0.048    29.183     8.858
   260   6 C        3.150     0.075    26.059     8.350
   261   7 N        2.632    -0.177    24.838     7.402
   262   1 H        0.926     0.034     2.532     2.488
   263   1 H        0.926     0.035     2.510     2.478
   264   1 H        0.926     0.035     2.510     2.478
   265   1 H        0.926     0.034     2.532     2.488
   266   1 H        0.925     0.050     2.320     2.382
   267   1 H        0.926     0.034     2.532     2.488
   268   1 H        0.926     0.036     2.508     2.476
   269   1 H        0.926     0.036     2.508     2.476
   270   1 H        0.926     0.034     2.532     2.488
   271   1 H        0.925     0.050     2.320     2.382

 Mol. C6AA /au·bohr⁶  :    1441691.374180
 Mol. C8AA /au·bohr⁸  :   41095601.291438
 Mol. α(0) /au        :       1961.901440


Wiberg/Mayer (AO) data.
largest (>0.10) Wiberg bond orders for each atom

 ---------------------------------------------------------------------------
     #   Z sym  total        # sym  WBO       # sym  WBO       # sym  WBO
 ---------------------------------------------------------------------------
     1  30 Zn   2.081 --    16 N    0.491    22 N    0.491    25 N    0.489
                            10 N    0.489
     2   6 C    3.953 --     3 C    1.650    24 C    1.171    26 H    0.972
     3   6 C    3.957 --     2 C    1.650     4 C    1.179    27 H    0.971
     4   6 C    3.912 --    25 N    1.286     5 C    1.252     3 C    1.179
     5   6 C    3.941 --     6 C    1.252     4 C    1.252    73 C    1.184
     6   6 C    3.912 --    10 N    1.286     5 C    1.252     7 C    1.179
     7   6 C    3.957 --     8 C    1.650     6 C    1.179    28 H    0.971
     8   6 C    3.953 --     7 C    1.650     9 C    1.171    29 H    0.972
     9   6 C    3.924 --    11 C    1.358    10 N    1.247     8 C    1.171
    10   7 N    3.467 --     6 C    1.286     9 C    1.247     1 Zn   0.489
    11   6 C    3.931 --     9 C    1.358    12 C    1.354    30 H    0.964
    12   6 C    3.929 --    11 C    1.354    16 N    1.261    13 C    1.163
    13   6 C    3.957 --    14 C    1.666    12 C    1.163    31 H    0.972
    14   6 C    3.955 --    13 C    1.666    15 C    1.162    32 H    0.972
    15   6 C    3.932 --    17 C    1.354    16 N    1.263    14 C    1.162
    16   7 N    3.464 --    15 C    1.263    12 C    1.261     1 Zn   0.491
    17   6 C    3.926 --    15 C    1.354    18 C    1.354    33 H    0.964
    18   6 C    3.932 --    17 C    1.354    22 N    1.263    19 C    1.162
    19   6 C    3.955 --    20 C    1.666    18 C    1.162    34 H    0.972
    20   6 C    3.957 --    19 C    1.666    21 C    1.163    35 H    0.972
    21   6 C    3.929 --    23 C    1.354    22 N    1.261    20 C    1.163
    22   7 N    3.464 --    18 C    1.263    21 C    1.261     1 Zn   0.491
    23   6 C    3.931 --    24 C    1.358    21 C    1.354    36 H    0.964
    24   6 C    3.924 --    23 C    1.358    25 N    1.247     2 C    1.171
    25   7 N    3.467 --     4 C    1.286    24 C    1.247     1 Zn   0.489
    26   1 H    0.998 --     2 C    0.972
    27   1 H    0.998 --     3 C    0.971
    28   1 H    0.998 --     7 C    0.971
    29   1 H    0.998 --     8 C    0.972
    30   1 H    0.996 --    11 C    0.964
    31   1 H    0.998 --    13 C    0.972
    32   1 H    0.998 --    14 C    0.972
    33   1 H    0.996 --    17 C    0.964
    34   1 H    0.998 --    19 C    0.972
    35   1 H    0.998 --    20 C    0.972
    36   1 H    0.996 --    23 C    0.964
    37  30 Zn   2.081 --    52 N    0.491    58 N    0.491    46 N    0.489
                            61 N    0.489
    38   6 C    3.953 --    39 C    1.651    60 C    1.171    62 H    0.972
    39   6 C    3.957 --    38 C    1.651    40 C    1.179    63 H    0.971
    40   6 C    3.912 --    61 N    1.286    41 C    1.252    39 C    1.179
    41   6 C    3.941 --    42 C    1.252    40 C    1.252    96 C    1.183
    42   6 C    3.912 --    46 N    1.286    41 C    1.252    43 C    1.179
    43   6 C    3.957 --    44 C    1.651    42 C    1.179    64 H    0.971
    44   6 C    3.953 --    43 C    1.651    45 C    1.171    65 H    0.972
    45   6 C    3.924 --    47 C    1.358    46 N    1.247    44 C    1.171
    46   7 N    3.467 --    42 C    1.286    45 C    1.247    37 Zn   0.489
    47   6 C    3.931 --    45 C    1.358    48 C    1.354    66 H    0.964
    48   6 C    3.929 --    47 C    1.354    52 N    1.261    49 C    1.163
    49   6 C    3.957 --    50 C    1.666    48 C    1.163    67 H    0.972
    50   6 C    3.955 --    49 C    1.666    51 C    1.162    68 H    0.972
    51   6 C    3.932 --    53 C    1.354    52 N    1.263    50 C    1.162
    52   7 N    3.464 --    51 C    1.263    48 C    1.261    37 Zn   0.491
    53   6 C    3.926 --    51 C    1.354    54 C    1.354    69 H    0.964
    54   6 C    3.932 --    53 C    1.354    58 N    1.263    55 C    1.162
    55   6 C    3.955 --    56 C    1.666    54 C    1.162    70 H    0.972
    56   6 C    3.957 --    55 C    1.666    57 C    1.163    71 H    0.972
    57   6 C    3.929 --    59 C    1.354    58 N    1.261    56 C    1.163
    58   7 N    3.464 --    54 C    1.263    57 C    1.261    37 Zn   0.491
    59   6 C    3.931 --    60 C    1.358    57 C    1.354    72 H    0.964
    60   6 C    3.924 --    59 C    1.358    61 N    1.247    38 C    1.171
    61   7 N    3.467 --    40 C    1.286    60 C    1.247    37 Zn   0.489
    62   1 H    0.998 --    38 C    0.972
    63   1 H    0.998 --    39 C    0.971
    64   1 H    0.998 --    43 C    0.971
    65   1 H    0.998 --    44 C    0.972
    66   1 H    0.996 --    47 C    0.964
    67   1 H    0.998 --    49 C    0.972
    68   1 H    0.998 --    50 C    0.972
    69   1 H    0.996 --    53 C    0.964
    70   1 H    0.998 --    55 C    0.972
    71   1 H    0.998 --    56 C    0.972
    72   1 H    0.996 --    59 C    0.964
    73   6 C    3.918 --    74 C    2.470     5 C    1.184    76 C    0.203
    74   6 C    3.928 --    73 C    2.470    75 C    1.305
    75   6 C    3.925 --    76 C    2.469    74 C    1.305
    76   6 C    3.919 --    75 C    2.469   101 C    1.187    73 C    0.203
    77   6 C    3.918 --    78 C    2.466   113 C    1.188    80 C    0.202
    78   6 C    3.925 --    77 C    2.466    79 C    1.307
    79   6 C    3.925 --    80 C    2.466    78 C    1.307
    80   6 C    3.918 --    79 C    2.466   136 C    1.188    77 C    0.202
    81   6 C    3.918 --    82 C    2.466   148 C    1.188    84 C    0.202
    82   6 C    3.925 --    81 C    2.466    83 C    1.307
    83   6 C    3.925 --    84 C    2.466    82 C    1.307
    84   6 C    3.918 --    83 C    2.466   171 C    1.188    81 C    0.202
    85   6 C    3.918 --    86 C    2.466   183 C    1.188    88 C    0.202
    86   6 C    3.925 --    85 C    2.466    87 C    1.307
    87   6 C    3.925 --    88 C    2.466    86 C    1.307
    88   6 C    3.918 --    87 C    2.466   206 C    1.188    85 C    0.202
    89   6 C    3.918 --    90 C    2.466   218 C    1.188    92 C    0.202
    90   6 C    3.925 --    89 C    2.466    91 C    1.307
    91   6 C    3.925 --    92 C    2.466    90 C    1.307
    92   6 C    3.918 --    91 C    2.466   241 C    1.188    89 C    0.202
    93   6 C    3.919 --    94 C    2.470   253 C    1.186    96 C    0.203
    94   6 C    3.925 --    93 C    2.470    95 C    1.304
    95   6 C    3.928 --    96 C    2.471    94 C    1.304
    96   6 C    3.917 --    95 C    2.471    41 C    1.183    93 C    0.203
    97  30 Zn   2.076 --   112 N    0.489   121 N    0.489   106 N    0.489
                           118 N    0.489
    98   6 C    3.954 --    99 C    1.648   120 C    1.173   122 H    0.972
    99   6 C    3.955 --    98 C    1.648   100 C    1.181   123 H    0.971
   100   6 C    3.912 --   121 N    1.287   101 C    1.249    99 C    1.181
   101   6 C    3.929 --   102 C    1.250   100 C    1.249    76 C    1.187
   102   6 C    3.912 --   106 N    1.287   101 C    1.250   103 C    1.181
   103   6 C    3.955 --   104 C    1.648   102 C    1.181   124 H    0.971
   104   6 C    3.954 --   103 C    1.648   105 C    1.173   125 H    0.972
   105   6 C    3.923 --   107 C    1.356   106 N    1.245   104 C    1.173
   106   7 N    3.460 --   102 C    1.287   105 C    1.245    97 Zn   0.489
   107   6 C    3.925 --   108 C    1.357   105 C    1.356   126 H    0.964
   108   6 C    3.923 --   107 C    1.357   112 N    1.244   109 C    1.173
   109   6 C    3.954 --   110 C    1.648   108 C    1.173   127 H    0.972
   110   6 C    3.955 --   109 C    1.648   111 C    1.181   128 H    0.971
   111   6 C    3.912 --   112 N    1.288   113 C    1.249   110 C    1.181
   112   7 N    3.460 --   111 C    1.288   108 C    1.244    97 Zn   0.489
   113   6 C    3.929 --   114 C    1.249   111 C    1.249    77 C    1.188
   114   6 C    3.912 --   118 N    1.288   113 C    1.249   115 C    1.181
   115   6 C    3.955 --   116 C    1.648   114 C    1.181   129 H    0.971
   116   6 C    3.954 --   115 C    1.648   117 C    1.173   130 H    0.972
   117   6 C    3.923 --   119 C    1.357   118 N    1.245   116 C    1.173
   118   7 N    3.460 --   114 C    1.288   117 C    1.245    97 Zn   0.489
   119   6 C    3.925 --   117 C    1.357   120 C    1.356   131 H    0.964
   120   6 C    3.923 --   119 C    1.356   121 N    1.245    98 C    1.173
   121   7 N    3.460 --   100 C    1.287   120 C    1.245    97 Zn   0.489
   122   1 H    0.998 --    98 C    0.972
   123   1 H    0.998 --    99 C    0.971
   124   1 H    0.998 --   103 C    0.971
   125   1 H    0.998 --   104 C    0.972
   126   1 H    0.996 --   107 C    0.964
   127   1 H    0.998 --   109 C    0.972
   128   1 H    0.998 --   110 C    0.971
   129   1 H    0.998 --   115 C    0.971
   130   1 H    0.998 --   116 C    0.972
   131   1 H    0.996 --   119 C    0.964
   132  30 Zn   2.076 --   141 N    0.489   153 N    0.489   156 N    0.489
                           147 N    0.489
   133   6 C    3.953 --   134 C    1.648   155 C    1.173   157 H    0.972
   134   6 C    3.955 --   133 C    1.648   135 C    1.181   158 H    0.971
   135   6 C    3.912 --   156 N    1.288   136 C    1.249   134 C    1.181
   136   6 C    3.929 --   137 C    1.249   135 C    1.249    80 C    1.188
   137   6 C    3.912 --   141 N    1.288   136 C    1.249   138 C    1.181
   138   6 C    3.955 --   139 C    1.648   137 C    1.181   159 H    0.971
   139   6 C    3.953 --   138 C    1.648   140 C    1.173   160 H    0.972
   140   6 C    3.923 --   142 C    1.356   141 N    1.245   139 C    1.173
   141   7 N    3.460 --   137 C    1.288   140 C    1.245   132 Zn   0.489
   142   6 C    3.925 --   143 C    1.356   140 C    1.356   161 H    0.964
   143   6 C    3.923 --   142 C    1.356   147 N    1.245   144 C    1.173
   144   6 C    3.954 --   145 C    1.648   143 C    1.173   162 H    0.972
   145   6 C    3.955 --   144 C    1.648   146 C    1.181   163 H    0.971
   146   6 C    3.912 --   147 N    1.288   148 C    1.249   145 C    1.181
   147   7 N    3.460 --   146 C    1.288   143 C    1.245   132 Zn   0.489
   148   6 C    3.929 --   149 C    1.249   146 C    1.249    81 C    1.188
   149   6 C    3.912 --   153 N    1.288   148 C    1.249   150 C    1.181
   150   6 C    3.955 --   151 C    1.648   149 C    1.181   164 H    0.971
   151   6 C    3.954 --   150 C    1.648   152 C    1.173   165 H    0.972
   152   6 C    3.923 --   154 C    1.356   153 N    1.245   151 C    1.173
   153   7 N    3.460 --   149 C    1.288   152 C    1.245   132 Zn   0.489
   154   6 C    3.925 --   152 C    1.356   155 C    1.356   166 H    0.964
   155   6 C    3.923 --   154 C    1.356   156 N    1.245   133 C    1.173
   156   7 N    3.460 --   135 C    1.288   155 C    1.245   132 Zn   0.489
   157   1 H    0.998 --   133 C    0.972
   158   1 H    0.998 --   134 C    0.971
   159   1 H    0.998 --   138 C    0.971
   160   1 H    0.998 --   139 C    0.972
   161   1 H    0.996 --   142 C    0.964
   162   1 H    0.998 --   144 C    0.972
   163   1 H    0.998 --   145 C    0.971
   164   1 H    0.998 --   150 C    0.971
   165   1 H    0.998 --   151 C    0.972
   166   1 H    0.996 --   154 C    0.964
   167  30 Zn   2.076 --   191 N    0.489   188 N    0.489   182 N    0.489
                           176 N    0.489
   168   6 C    3.953 --   169 C    1.648   190 C    1.173   192 H    0.972
   169   6 C    3.955 --   168 C    1.648   170 C    1.181   193 H    0.971
   170   6 C    3.912 --   191 N    1.288   171 C    1.249   169 C    1.181
   171   6 C    3.929 --   170 C    1.249   172 C    1.249    84 C    1.188
   172   6 C    3.912 --   176 N    1.288   171 C    1.249   173 C    1.181
   173   6 C    3.955 --   174 C    1.648   172 C    1.181   194 H    0.971
   174   6 C    3.954 --   173 C    1.648   175 C    1.173   195 H    0.972
   175   6 C    3.923 --   177 C    1.356   176 N    1.245   174 C    1.173
   176   7 N    3.460 --   172 C    1.288   175 C    1.245   167 Zn   0.489
   177   6 C    3.925 --   178 C    1.356   175 C    1.356   196 H    0.964
   178   6 C    3.923 --   177 C    1.356   182 N    1.245   179 C    1.173
   179   6 C    3.954 --   180 C    1.648   178 C    1.173   197 H    0.972
   180   6 C    3.955 --   179 C    1.648   181 C    1.181   198 H    0.971
   181   6 C    3.912 --   182 N    1.288   183 C    1.249   180 C    1.181
   182   7 N    3.460 --   181 C    1.288   178 C    1.245   167 Zn   0.489
   183   6 C    3.929 --   184 C    1.249   181 C    1.249    85 C    1.188
   184   6 C    3.912 --   188 N    1.288   183 C    1.249   185 C    1.181
   185   6 C    3.955 --   186 C    1.648   184 C    1.181   199 H    0.971
   186   6 C    3.953 --   185 C    1.648   187 C    1.173   200 H    0.972
   187   6 C    3.923 --   189 C    1.356   188 N    1.245   186 C    1.173
   188   7 N    3.460 --   184 C    1.288   187 C    1.245   167 Zn   0.489
   189   6 C    3.925 --   190 C    1.356   187 C    1.356   201 H    0.964
   190   6 C    3.923 --   189 C    1.356   191 N    1.245   168 C    1.173
   191   7 N    3.460 --   170 C    1.288   190 C    1.245   167 Zn   0.489
   192   1 H    0.998 --   168 C    0.972
   193   1 H    0.998 --   169 C    0.971
   194   1 H    0.998 --   173 C    0.971
   195   1 H    0.998 --   174 C    0.972
   196   1 H    0.996 --   177 C    0.964
   197   1 H    0.998 --   179 C    0.972
   198   1 H    0.998 --   180 C    0.971
   199   1 H    0.998 --   185 C    0.971
   200   1 H    0.998 --   186 C    0.972
   201   1 H    0.996 --   189 C    0.964
   202  30 Zn   2.076 --   217 N    0.489   211 N    0.489   226 N    0.489
                           223 N    0.489
   203   6 C    3.954 --   204 C    1.648   225 C    1.173   227 H    0.972
   204   6 C    3.955 --   203 C    1.648   205 C    1.181   228 H    0.971
   205   6 C    3.912 --   226 N    1.288   206 C    1.249   204 C    1.181
   206   6 C    3.929 --   207 C    1.249   205 C    1.249    88 C    1.188
   207   6 C    3.912 --   211 N    1.288   206 C    1.249   208 C    1.181
   208   6 C    3.955 --   209 C    1.648   207 C    1.181   229 H    0.971
   209   6 C    3.954 --   208 C    1.648   210 C    1.173   230 H    0.972
   210   6 C    3.923 --   212 C    1.356   211 N    1.245   209 C    1.173
   211   7 N    3.460 --   207 C    1.288   210 C    1.245   202 Zn   0.489
   212   6 C    3.925 --   210 C    1.356   213 C    1.356   231 H    0.964
   213   6 C    3.923 --   212 C    1.356   217 N    1.245   214 C    1.173
   214   6 C    3.953 --   215 C    1.648   213 C    1.173   232 H    0.972
   215   6 C    3.955 --   214 C    1.648   216 C    1.181   233 H    0.971
   216   6 C    3.912 --   217 N    1.287   218 C    1.249   215 C    1.181
   217   7 N    3.460 --   216 C    1.287   213 C    1.245   202 Zn   0.489
   218   6 C    3.929 --   216 C    1.249   219 C    1.249    89 C    1.188
   219   6 C    3.912 --   223 N    1.288   218 C    1.249   220 C    1.181
   220   6 C    3.955 --   221 C    1.648   219 C    1.181   234 H    0.971
   221   6 C    3.953 --   220 C    1.648   222 C    1.173   235 H    0.972
   222   6 C    3.923 --   224 C    1.356   223 N    1.245   221 C    1.173
   223   7 N    3.460 --   219 C    1.288   222 C    1.245   202 Zn   0.489
   224   6 C    3.925 --   225 C    1.356   222 C    1.356   236 H    0.964
   225   6 C    3.923 --   224 C    1.356   226 N    1.245   203 C    1.173
   226   7 N    3.460 --   205 C    1.288   225 C    1.245   202 Zn   0.489
   227   1 H    0.998 --   203 C    0.972
   228   1 H    0.998 --   204 C    0.971
   229   1 H    0.998 --   208 C    0.971
   230   1 H    0.998 --   209 C    0.972
   231   1 H    0.996 --   212 C    0.964
   232   1 H    0.998 --   214 C    0.972
   233   1 H    0.998 --   215 C    0.971
   234   1 H    0.998 --   220 C    0.971
   235   1 H    0.998 --   221 C    0.972
   236   1 H    0.996 --   224 C    0.964
   237  30 Zn   2.076 --   261 N    0.489   252 N    0.489   246 N    0.489
                           258 N    0.489
   238   6 C    3.954 --   239 C    1.648   260 C    1.173   262 H    0.972
   239   6 C    3.955 --   238 C    1.648   240 C    1.181   263 H    0.971
   240   6 C    3.912 --   261 N    1.288   241 C    1.249   239 C    1.181
   241   6 C    3.929 --   242 C    1.249   240 C    1.249    92 C    1.188
   242   6 C    3.912 --   246 N    1.288   241 C    1.249   243 C    1.181
   243   6 C    3.955 --   244 C    1.648   242 C    1.181   264 H    0.971
   244   6 C    3.954 --   243 C    1.648   245 C    1.173   265 H    0.972
   245   6 C    3.923 --   247 C    1.357   246 N    1.244   244 C    1.173
   246   7 N    3.460 --   242 C    1.288   245 C    1.244   237 Zn   0.489
   247   6 C    3.925 --   245 C    1.357   248 C    1.356   266 H    0.964
   248   6 C    3.923 --   247 C    1.356   252 N    1.245   249 C    1.173
   249   6 C    3.954 --   250 C    1.648   248 C    1.173   267 H    0.972
   250   6 C    3.955 --   249 C    1.648   251 C    1.181   268 H    0.971
   251   6 C    3.912 --   252 N    1.287   253 C    1.250   250 C    1.181
   252   7 N    3.460 --   251 C    1.287   248 C    1.245   237 Zn   0.489
   253   6 C    3.929 --   254 C    1.250   251 C    1.250    93 C    1.186
   254   6 C    3.912 --   258 N    1.287   253 C    1.250   255 C    1.181
   255   6 C    3.955 --   256 C    1.648   254 C    1.181   269 H    0.971
   256   6 C    3.954 --   255 C    1.648   257 C    1.173   270 H    0.972
   257   6 C    3.923 --   259 C    1.356   258 N    1.245   256 C    1.173
   258   7 N    3.460 --   254 C    1.287   257 C    1.245   237 Zn   0.489
   259   6 C    3.925 --   260 C    1.357   257 C    1.356   271 H    0.964
   260   6 C    3.923 --   259 C    1.357   261 N    1.244   238 C    1.173
   261   7 N    3.460 --   240 C    1.288   260 C    1.244   237 Zn   0.489
   262   1 H    0.998 --   238 C    0.972
   263   1 H    0.998 --   239 C    0.971
   264   1 H    0.998 --   243 C    0.971
   265   1 H    0.998 --   244 C    0.972
   266   1 H    0.996 --   247 C    0.964
   267   1 H    0.998 --   249 C    0.972
   268   1 H    0.998 --   250 C    0.971
   269   1 H    0.998 --   255 C    0.971
   270   1 H    0.998 --   256 C    0.972
   271   1 H    0.996 --   259 C    0.964
 ---------------------------------------------------------------------------

Topologies differ in total number of bonds
Writing topology from bond orders to xtbtopo.mol

molecular dipole:
                 x           y           z       tot (Debye)
 q only:       -0.000      -0.001      -0.003
   full:       -0.000      -0.001      -0.006       0.015
molecular quadrupole (traceless):
                xx          xy          yy          xz          yz          zz
 q only:      113.096       0.373     -15.358      -0.654      -4.915     -97.738
  q+dip:      204.359       0.562       3.403      -1.279     -12.471    -207.762
   full:      145.441       0.528     -15.551      -1.303      -6.819    -129.890


           -------------------------------------------------
          | TOTAL ENERGY             -473.683967092718 Eh   |
          | GRADIENT NORM               0.000900108957 Eh/α |
          | HOMO-LUMO GAP               0.841493212139 eV   |
           -------------------------------------------------

------------------------------------------------------------------------
 * finished run on 2021/11/19 at 14:58:21.969     
------------------------------------------------------------------------
 total:
 * wall-time:     0 d,  0 h,  0 min,  4.245 sec
 *  cpu-time:     0 d,  0 h,  0 min,  4.245 sec
 * ratio c/w:     1.000 speedup
 SCF:
 * wall-time:     0 d,  0 h,  0 min,  4.089 sec
 *  cpu-time:     0 d,  0 h,  0 min,  4.089 sec
 * ratio c/w:     1.000 speedup

