 Entering Gaussian System
 *********************************************
 Gaussian 98:
 frequency output generated by the xtb code
 *********************************************
                         Standard orientation:
 --------------------------------------------------------------------
  Center     Atomic     Atomic              Coordinates (Angstroms)
  Number     Number      Type              X           Y           Z
 --------------------------------------------------------------------
    1          6             0       15.770950    3.405381    0.316658
    2          6             0       16.728425    2.458694    0.268555
    3          6             0       16.030444    1.192230    0.137281
    4          6             0       16.693505   -0.049159    0.057591
    5          6             0       16.042174   -1.289113   -0.051997
    6          6             0       16.643464   -2.574167   -0.121043
    7          6             0       15.638200   -3.492276   -0.223396
    8          6             0       14.401728   -2.787308   -0.221093
    9          7             0       14.698383   -1.462370   -0.113251
   10          6             0       13.134321   -3.342550   -0.318368
   11          6             0       11.918344   -2.673246   -0.326751
   12          6             0       10.642207   -3.364049   -0.445513
   13          6             0        9.694001   -2.409377   -0.418823
   14          6             0       10.398003   -1.143645   -0.282895
   15          7             0       11.732495   -1.340473   -0.231965
   16          6             0        9.752723    0.084768   -0.216318
   17          6             0       10.378518    1.315133   -0.087377
   18          6             0        9.775627    2.603437   -0.014298
   19          6             0       10.776576    3.521250    0.107589
   20          6             0       12.016606    2.818016    0.111674
   21          7             0       11.723867    1.496424   -0.007552
   22          6             0       13.283967    3.372091    0.214674
   23          6             0       14.500997    2.707048    0.210792
   24          7             0       14.699545    1.370908    0.106762
   25          1             0       15.877102    4.469014    0.411582
   26          1             0       17.794585    2.568478    0.315877
   27          1             0       17.700151   -2.756721   -0.094046
   28          1             0       15.733566   -4.558232   -0.294970
   29          1             0       14.028173   -0.702631   -0.085146
   30          1             0       13.092119   -4.419886   -0.400892
   31          1             0       10.530195   -4.427596   -0.535769
   32          1             0        8.627432   -2.511074   -0.481539
   33          1             0        8.673610    0.081507   -0.269142
   34          1             0        8.719517    2.787879   -0.051524
   35          1             0       10.679809    4.586757    0.186909
   36          1             0       12.391430    0.735051   -0.035820
   37          1             0       13.327361    4.448846    0.304754
   38          6             0       42.903536   -3.398118    0.416546
   39          6             0       41.945661   -2.452248    0.361414
   40          6             0       42.642825   -1.187396    0.211697
   41          6             0       41.979175    0.052870    0.119812
   42          6             0       42.630108    1.291382   -0.008000
   43          6             0       42.028468    2.575797   -0.086439
   44          6             0       43.033297    3.492840   -0.201161
   45          6             0       44.269778    2.787883   -0.197786
   46          7             0       43.973533    1.463971   -0.076874
   47          6             0       45.536677    3.342207   -0.305877
   48          6             0       46.752551    2.672738   -0.316433
   49          6             0       48.027952    3.362173   -0.449620
   50          6             0       48.975969    2.407261   -0.423841
   51          6             0       48.272622    1.142857   -0.272922
   52          7             0       46.938670    1.340624   -0.212901
   53          6             0       48.918010   -0.085177   -0.200507
   54          6             0       48.293025   -1.313757   -0.051933
   55          6             0       48.896316   -2.601188    0.032944
   56          6             0       47.896390   -3.517024    0.176395
   57          6             0       46.656589   -2.813510    0.181586
   58          7             0       46.948397   -1.493645    0.041993
   59          6             0       45.389950   -3.365919    0.301484
   60          6             0       44.172873   -2.701015    0.296082
   61          7             0       43.973507   -1.366306    0.176209
   62          1             0       42.798084   -4.460516    0.524689
   63          1             0       40.879740   -2.561591    0.414719
   64          1             0       40.971944    2.758616   -0.056569
   65          1             0       42.937724    4.558081   -0.281567
   66          1             0       44.643972    0.704622   -0.044207
   67          1             0       45.578385    4.418855   -0.397005
   68          1             0       48.139599    4.425059   -0.548021
   69          1             0       50.042025    2.508045   -0.495623
   70          1             0       49.996598   -0.082980   -0.263245
   71          1             0       49.952029   -2.786248   -0.011164
   72          1             0       47.993702   -4.581375    0.269653
   73          1             0       46.280472   -0.732746    0.009750
   74          1             0       45.347171   -4.441366    0.406389
   75          6             0       18.089033   -0.051813    0.081849
   76          6             0       19.309538   -0.042626    0.088155
   77          6             0       20.644925   -0.030595    0.087166
   78          6             0       21.869658   -0.013731    0.074792
   79          6             0       23.204751    0.001490    0.062100
   80          6             0       24.425340    0.016968    0.046898
   81          6             0       34.247559   -0.002967    0.146172
   82          6             0       35.468145    0.012445    0.161728
   83          6             0       36.803220    0.027032    0.171753
   84          6             0       38.028085    0.041270    0.174512
   85          6             0       39.363427    0.050742    0.166005
   86          6             0       40.583881    0.056662    0.152295
   87          6             0       26.802979   -3.392964    0.476893
   88          6             0       25.827039   -2.471775    0.356185
   89          6             0       26.501170   -1.196383    0.198842
   90          6             0       25.819641    0.027373    0.038949
   91          6             0       26.467269    1.263332   -0.130072
   92          6             0       25.871406    2.537607   -0.317851
   93          6             0       26.883453    3.446217   -0.444401
   94          6             0       28.116787    2.745501   -0.334082
   95          7             0       27.812853    1.431644   -0.146544
   96          6             0       29.385346    3.305674   -0.400149
   97          6             0       30.612889    2.672461   -0.290473
   98          6             0       31.870404    3.396675   -0.369142
   99          6             0       32.846102    2.479259   -0.220727
  100          6             0       32.172067    1.204878   -0.055453
  101          7             0       30.837466    1.349714   -0.100639
  102          6             0       32.853467   -0.016303    0.123823
  103          6             0       32.205812   -1.254380    0.276645
  104          6             0       32.801620   -2.529859    0.456928
  105          6             0       31.789839   -3.442042    0.556629
  106          6             0       30.556572   -2.741921    0.440184
  107          7             0       30.860438   -1.425320    0.272868
  108          6             0       29.288348   -3.304246    0.491505
  109          6             0       28.060588   -2.669315    0.395041
  110          7             0       27.835953   -1.343861    0.225332
  111          1             0       26.716810   -4.454346    0.609126
  112          1             0       24.762483   -2.604432    0.366214
  113          1             0       24.815046    2.720388   -0.351443
  114          1             0       26.793709    4.503723   -0.599653
  115          1             0       28.466962    0.664952   -0.032969
  116          1             0       29.416442    4.375992   -0.553741
  117          1             0       31.956580    4.456123   -0.516085
  118          1             0       33.910500    2.613617   -0.218828
  119          1             0       33.857805   -2.711468    0.502173
  120          1             0       31.879656   -4.501486    0.698509
  121          1             0       30.206836   -0.658278    0.158065
  122          1             0       29.257686   -4.376796    0.628707
 --------------------------------------------------------------------
     1 basis functions        1 primitive gaussians
     1 alpha electrons        1 beta electrons

 Harmonic frequencies (cm**-1), IR intensities (km*mol⁻¹),
 Raman scattering activities (A**4/amu), Raman depolarization ratios,
 reduced masses (AMU), force constants (mDyne/A) and normal coordinates:
                      1                      2                      3
                        a                      a                      a 
 Frequencies --     2.2593                 2.6394                 5.0820
 Red. masses --    11.8286                11.7193                11.2663
 Frc consts  --     0.0000                 0.0000                 0.0000
 IR Inten    --     1.1175                 0.3757                 0.0301
 Raman Activ --     0.0000                 0.0000                 0.0000
 Depolar     --     0.0000                 0.0000                 0.0000
 Atom AN      X      Y      Z        X      Y      Z        X      Y      Z
   1   6    -0.02  -0.01   0.01     0.07   0.02  -0.00    -0.00  -0.02   0.21
   2   6    -0.01  -0.00   0.02     0.05  -0.00  -0.00    -0.00  -0.02   0.15
   3   6    -0.01  -0.00  -0.01     0.03   0.01  -0.00    -0.00  -0.01   0.08
   4   6     0.00  -0.00  -0.01    -0.00  -0.00  -0.00     0.00  -0.00   0.01
   5   6     0.01  -0.00  -0.04    -0.03   0.01  -0.00     0.00   0.00  -0.06
   6   6     0.01   0.00  -0.04    -0.06  -0.00  -0.00     0.00   0.01  -0.14
   7   6     0.02  -0.00  -0.08    -0.07   0.02  -0.01     0.00   0.01  -0.19
   8   6     0.01  -0.01  -0.09    -0.06   0.05  -0.01     0.00   0.01  -0.14
   9   7     0.01  -0.01  -0.08    -0.03   0.04  -0.01     0.00   0.00  -0.07
  10   6     0.02  -0.01  -0.12    -0.07   0.08  -0.01     0.00   0.02  -0.17
  11   6     0.02  -0.01  -0.14    -0.06   0.10  -0.02     0.00   0.02  -0.13
  12   6     0.02  -0.02  -0.17    -0.07   0.13  -0.02     0.00   0.02  -0.17
  13   6     0.02  -0.02  -0.18    -0.05   0.15  -0.03     0.00   0.02  -0.12
  14   6     0.01  -0.02  -0.15    -0.02   0.13  -0.02     0.00   0.01  -0.05
  15   7     0.01  -0.02  -0.14    -0.03   0.11  -0.02     0.00   0.01  -0.06
  16   6     0.00  -0.02  -0.14     0.00   0.15  -0.02    -0.00   0.01   0.03
  17   6    -0.00  -0.02  -0.12     0.03   0.13  -0.02    -0.00   0.00   0.10
  18   6    -0.01  -0.02  -0.11     0.06   0.15  -0.02    -0.00  -0.00   0.17
  19   6    -0.01  -0.02  -0.08     0.08   0.13  -0.02    -0.00  -0.01   0.22
  20   6    -0.01  -0.02  -0.07     0.06   0.10  -0.02    -0.00  -0.01   0.18
  21   7    -0.00  -0.02  -0.10     0.03   0.11  -0.02    -0.00  -0.00   0.11
  22   6    -0.01  -0.01  -0.04     0.07   0.07  -0.01    -0.00  -0.02   0.21
  23   6    -0.01  -0.01  -0.02     0.06   0.05  -0.01    -0.00  -0.01   0.17
  24   7    -0.01  -0.01  -0.04     0.03   0.04  -0.01    -0.00  -0.01   0.10
  25   1    -0.01  -0.00   0.01     0.03   0.00  -0.00    -0.00  -0.01   0.08
  26   1    -0.00  -0.00   0.01     0.02  -0.01   0.00    -0.00  -0.01   0.04
  27   1     0.00   0.00  -0.01    -0.02  -0.01   0.00     0.00   0.00  -0.04
  28   1     0.01  -0.00  -0.02    -0.03   0.01  -0.00     0.00   0.00  -0.07
  29   1     0.00  -0.00  -0.02    -0.00   0.02  -0.00    -0.00   0.00  -0.01
  30   1     0.01  -0.00  -0.04    -0.03   0.02  -0.00     0.00   0.01  -0.07
  31   1     0.01  -0.00  -0.05    -0.03   0.04  -0.01     0.00   0.01  -0.07
  32   1     0.01  -0.01  -0.06    -0.02   0.05  -0.01     0.00   0.01  -0.04
  33   1     0.00  -0.01  -0.05     0.00   0.05  -0.01    -0.00   0.00   0.01
  34   1    -0.00  -0.01  -0.04     0.02   0.05  -0.01    -0.00  -0.00   0.05
  35   1    -0.01  -0.01  -0.02     0.03   0.04  -0.01    -0.00  -0.00   0.08
  36   1    -0.00  -0.00  -0.03     0.00   0.03  -0.00    -0.00  -0.00   0.02
  37   1    -0.01  -0.00  -0.01     0.03   0.02  -0.00    -0.00  -0.01   0.08
  38   6    -0.00  -0.00   0.00     0.07   0.02   0.01     0.00   0.02   0.20
  39   6    -0.00   0.00   0.01     0.05  -0.00   0.01     0.00   0.02   0.15
  40   6    -0.00  -0.00  -0.01     0.03   0.01   0.00     0.00   0.01   0.08
  41   6     0.00  -0.00  -0.02    -0.00  -0.00  -0.00    -0.00   0.01   0.01
  42   6     0.00  -0.01  -0.04    -0.03   0.01  -0.01    -0.00  -0.00  -0.05
  43   6     0.00  -0.00  -0.04    -0.06  -0.00  -0.01    -0.00  -0.00  -0.12
  44   6     0.00  -0.01  -0.07    -0.08   0.02  -0.01    -0.00  -0.01  -0.17
  45   6     0.00  -0.01  -0.09    -0.06   0.05  -0.01    -0.00  -0.01  -0.13
  46   7     0.00  -0.01  -0.07    -0.04   0.04  -0.01    -0.00  -0.00  -0.07
  47   6     0.00  -0.02  -0.12    -0.07   0.07  -0.02    -0.00  -0.01  -0.16
  48   6    -0.00  -0.02  -0.13    -0.06   0.10  -0.02    -0.00  -0.01  -0.12
  49   6    -0.00  -0.02  -0.16    -0.08   0.13  -0.03    -0.00  -0.02  -0.16
  50   6    -0.00  -0.03  -0.17    -0.05   0.15  -0.03    -0.00  -0.02  -0.11
  51   6    -0.00  -0.02  -0.15    -0.03   0.13  -0.02    -0.00  -0.01  -0.04
  52   7    -0.00  -0.02  -0.13    -0.03   0.11  -0.02    -0.00  -0.01  -0.06
  53   6    -0.01  -0.02  -0.14     0.00   0.15  -0.02    -0.00  -0.01   0.02
  54   6    -0.01  -0.02  -0.12     0.03   0.14  -0.02     0.00  -0.00   0.09
  55   6    -0.01  -0.02  -0.11     0.06   0.15  -0.02     0.00   0.00   0.15
  56   6    -0.01  -0.02  -0.09     0.08   0.13  -0.01     0.00   0.01   0.20
  57   6    -0.01  -0.01  -0.07     0.06   0.10  -0.01     0.00   0.01   0.17
  58   7    -0.01  -0.02  -0.10     0.03   0.11  -0.01     0.00   0.00   0.11
  59   6    -0.01  -0.01  -0.04     0.07   0.07  -0.00     0.00   0.02   0.20
  60   6    -0.00  -0.01  -0.03     0.06   0.05  -0.00     0.00   0.02   0.16
  61   7    -0.00  -0.01  -0.04     0.03   0.04  -0.00     0.00   0.01   0.10
  62   1    -0.00   0.00   0.01     0.03   0.00   0.00     0.00   0.01   0.07
  63   1    -0.00   0.00   0.01     0.02  -0.01   0.00     0.00   0.01   0.04
  64   1     0.00  -0.00  -0.01    -0.02  -0.01  -0.00    -0.00  -0.00  -0.04
  65   1     0.00  -0.00  -0.02    -0.03   0.01  -0.00    -0.00  -0.00  -0.07
  66   1    -0.00  -0.00  -0.02    -0.00   0.02  -0.00    -0.00  -0.00  -0.01
  67   1     0.00  -0.00  -0.04    -0.03   0.02  -0.01    -0.00  -0.01  -0.06
  68   1    -0.00  -0.01  -0.05    -0.03   0.04  -0.01    -0.00  -0.01  -0.06
  69   1    -0.00  -0.01  -0.06    -0.02   0.05  -0.01    -0.00  -0.01  -0.03
  70   1    -0.00  -0.01  -0.05     0.00   0.05  -0.01    -0.00  -0.00   0.01
  71   1    -0.00  -0.01  -0.04     0.02   0.05  -0.01     0.00   0.00   0.05
  72   1    -0.00  -0.00  -0.02     0.03   0.04  -0.00     0.00   0.00   0.08
  73   1    -0.00  -0.00  -0.03     0.00   0.03  -0.00     0.00   0.00   0.02
  74   1    -0.00  -0.00  -0.01     0.03   0.02  -0.00     0.00   0.01   0.07
  75   6    -0.00   0.00   0.01    -0.00  -0.03   0.00     0.00  -0.01   0.00
  76   6    -0.00   0.01   0.03    -0.00  -0.05   0.01     0.00  -0.01  -0.00
  77   6    -0.00   0.01   0.06    -0.00  -0.07   0.01     0.00  -0.01  -0.01
  78   6    -0.00   0.01   0.08    -0.00  -0.09   0.01     0.00  -0.01  -0.01
  79   6    -0.00   0.02   0.09    -0.00  -0.10   0.02     0.00  -0.01  -0.02
  80   6     0.00   0.02   0.11    -0.00  -0.11   0.02    -0.00  -0.00  -0.03
  81   6     0.00   0.02   0.11    -0.00  -0.11   0.02    -0.00   0.00  -0.02
  82   6     0.00   0.01   0.09    -0.00  -0.10   0.02    -0.00   0.01  -0.02
  83   6     0.00   0.01   0.08    -0.00  -0.09   0.02    -0.00   0.01  -0.01
  84   6     0.00   0.01   0.06    -0.00  -0.08   0.01    -0.00   0.01  -0.00
  85   6     0.00   0.01   0.03    -0.00  -0.05   0.01    -0.00   0.01   0.00
  86   6     0.00   0.00   0.01    -0.00  -0.03   0.00    -0.00   0.01   0.01
  87   6     0.00   0.02   0.14    -0.00  -0.11   0.03     0.00  -0.00  -0.02
  88   6     0.00   0.02   0.13    -0.00  -0.11   0.03     0.00  -0.00  -0.02
  89   6     0.00   0.02   0.13    -0.00  -0.11   0.02     0.00  -0.00  -0.03
  90   6     0.00   0.02   0.12    -0.00  -0.11   0.02     0.00  -0.00  -0.03
  91   6     0.00   0.02   0.12     0.00  -0.11   0.02    -0.00  -0.00  -0.03
  92   6     0.00   0.02   0.12     0.00  -0.11   0.01    -0.00  -0.01  -0.04
  93   6     0.00   0.02   0.13     0.00  -0.11   0.01    -0.00  -0.01  -0.04
  94   6     0.00   0.02   0.13     0.00  -0.11   0.01    -0.00  -0.00  -0.04
  95   7     0.00   0.02   0.14     0.00  -0.12   0.02    -0.00  -0.00  -0.04
  96   6     0.00   0.02   0.13     0.00  -0.11   0.01    -0.00  -0.00  -0.05
  97   6     0.00   0.02   0.13     0.00  -0.11   0.01    -0.00  -0.00  -0.05
  98   6     0.00   0.02   0.13     0.00  -0.11   0.01    -0.00  -0.00  -0.05
  99   6     0.00   0.02   0.12     0.00  -0.11   0.01    -0.00   0.00  -0.04
 100   6     0.00   0.02   0.13    -0.00  -0.11   0.02    -0.00   0.00  -0.04
 101   7     0.00   0.02   0.14    -0.00  -0.12   0.02    -0.00  -0.00  -0.04
 102   6     0.00   0.02   0.12    -0.00  -0.11   0.02     0.00   0.00  -0.03
 103   6     0.00   0.02   0.13    -0.00  -0.11   0.02     0.00   0.00  -0.02
 104   6     0.00   0.02   0.13    -0.00  -0.11   0.03     0.00   0.00  -0.02
 105   6    -0.00   0.02   0.13    -0.00  -0.11   0.03     0.00   0.00  -0.01
 106   6     0.00   0.02   0.14    -0.00  -0.11   0.03     0.00   0.00  -0.02
 107   7    -0.00   0.02   0.15    -0.00  -0.12   0.03     0.00   0.00  -0.03
 108   6    -0.00   0.02   0.14    -0.00  -0.11   0.03     0.00  -0.00  -0.02
 109   6     0.00   0.02   0.14    -0.00  -0.11   0.03     0.00  -0.00  -0.02
 110   7     0.00   0.02   0.15    -0.00  -0.12   0.03     0.00  -0.00  -0.03
 111   1    -0.00   0.01   0.04    -0.00  -0.03   0.01     0.00  -0.00  -0.01
 112   1     0.00   0.01   0.04    -0.00  -0.03   0.01     0.00  -0.00  -0.01
 113   1     0.00   0.01   0.03     0.00  -0.03   0.00    -0.00  -0.00  -0.01
 114   1     0.00   0.01   0.04     0.00  -0.03   0.00    -0.00  -0.00  -0.01
 115   1    -0.00   0.01   0.04    -0.00  -0.03   0.01    -0.00  -0.00  -0.01
 116   1     0.00   0.01   0.04     0.00  -0.03   0.00    -0.00  -0.00  -0.02
 117   1     0.00   0.01   0.04     0.00  -0.03   0.00    -0.00  -0.00  -0.02
 118   1     0.00   0.01   0.03     0.00  -0.03   0.00    -0.00   0.00  -0.01
 119   1     0.00   0.01   0.03    -0.00  -0.03   0.01     0.00   0.00  -0.00
 120   1    -0.00   0.01   0.04    -0.00  -0.03   0.01     0.00   0.00  -0.00
 121   1    -0.00   0.01   0.04    -0.00  -0.03   0.01     0.00  -0.00  -0.01
 122   1    -0.00   0.01   0.04    -0.00  -0.03   0.01     0.00   0.00  -0.01
                      4                      5                      6
                        a                      a                      a 
 Frequencies --     6.1285                 7.0320                 8.7122
 Red. masses --    11.2431                11.4976                11.5776
 Frc consts  --     0.0000                 0.0000                 0.0000
 IR Inten    --     0.2967                 0.0087                 0.0567
 Raman Activ --     0.0000                 0.0000                 0.0000
 Depolar     --     0.0000                 0.0000                 0.0000
 Atom AN      X      Y      Z        X      Y      Z        X      Y      Z
   1   6    -0.01  -0.00   0.12    -0.10   0.07  -0.00     0.02  -0.00  -0.08
   2   6    -0.01   0.00   0.09    -0.07   0.10  -0.01     0.01  -0.00  -0.11
   3   6    -0.00   0.00   0.05    -0.04   0.08  -0.00     0.01  -0.00  -0.09
   4   6    -0.00   0.01   0.02    -0.00   0.10  -0.00     0.00  -0.00  -0.12
   5   6     0.00   0.01  -0.02     0.04   0.08  -0.00    -0.00  -0.00  -0.10
   6   6     0.01   0.01  -0.05     0.07   0.09  -0.00    -0.00  -0.00  -0.13
   7   6     0.01   0.01  -0.08     0.10   0.06  -0.00    -0.01  -0.00  -0.11
   8   6     0.01   0.01  -0.07     0.08   0.03   0.00    -0.01  -0.00  -0.06
   9   7     0.01   0.01  -0.03     0.04   0.04  -0.00    -0.00  -0.00  -0.07
  10   6     0.01   0.01  -0.10     0.09  -0.01   0.00    -0.01   0.00  -0.01
  11   6     0.01   0.00  -0.09     0.07  -0.04   0.01    -0.01   0.00   0.04
  12   6     0.01   0.00  -0.12     0.09  -0.08   0.01    -0.02   0.00   0.09
  13   6     0.01  -0.00  -0.10     0.07  -0.11   0.01    -0.02   0.00   0.14
  14   6     0.01  -0.00  -0.06     0.03  -0.09   0.01    -0.01  -0.00   0.12
  15   7     0.01  -0.00  -0.06     0.04  -0.05   0.01    -0.01  -0.00   0.06
  16   6     0.00  -0.01  -0.03    -0.00  -0.11   0.01    -0.01  -0.00   0.15
  17   6    -0.00  -0.01   0.01    -0.04  -0.09   0.01    -0.00  -0.00   0.13
  18   6    -0.01  -0.01   0.05    -0.08  -0.10   0.01     0.00  -0.00   0.16
  19   6    -0.01  -0.01   0.08    -0.10  -0.08   0.01     0.01  -0.00   0.12
  20   6    -0.01  -0.01   0.07    -0.08  -0.04   0.00     0.01  -0.00   0.07
  21   7    -0.01  -0.01   0.03    -0.05  -0.05   0.01     0.00  -0.00   0.08
  22   6    -0.01  -0.01   0.10    -0.10  -0.00   0.00     0.01  -0.00   0.02
  23   6    -0.01  -0.00   0.09    -0.08   0.03  -0.00     0.01  -0.00  -0.03
  24   7    -0.01  -0.00   0.05    -0.04   0.04  -0.00     0.01  -0.00  -0.05
  25   1    -0.01  -0.00   0.04    -0.04   0.02  -0.00     0.01  -0.00  -0.02
  26   1    -0.00   0.00   0.03    -0.02   0.04  -0.00     0.00  -0.00  -0.04
  27   1     0.00   0.00  -0.01     0.02   0.04  -0.00    -0.00  -0.00  -0.05
  28   1     0.00   0.00  -0.03     0.04   0.02  -0.00    -0.00  -0.00  -0.03
  29   1     0.00   0.00  -0.00     0.01   0.01   0.00    -0.00  -0.00  -0.01
  30   1     0.00   0.00  -0.04     0.04  -0.00   0.00    -0.00   0.00  -0.01
  31   1     0.01   0.00  -0.04     0.04  -0.02   0.00    -0.01   0.00   0.03
  32   1     0.00  -0.00  -0.03     0.02  -0.04   0.00    -0.01   0.00   0.05
  33   1     0.00  -0.00  -0.01    -0.00  -0.04   0.00    -0.00  -0.00   0.06
  34   1    -0.00  -0.00   0.01    -0.02  -0.04   0.00     0.00  -0.00   0.06
  35   1    -0.00  -0.00   0.03    -0.04  -0.02   0.00     0.00  -0.00   0.04
  36   1    -0.00  -0.00   0.00    -0.01  -0.01   0.00     0.00  -0.00   0.01
  37   1    -0.00  -0.00   0.04    -0.04  -0.00   0.00     0.00  -0.00   0.00
  38   6    -0.00  -0.02  -0.14     0.10  -0.07   0.02     0.00   0.00   0.06
  39   6    -0.00  -0.01  -0.11     0.07  -0.09   0.02     0.00   0.00   0.10
  40   6    -0.00  -0.01  -0.06     0.04  -0.08   0.01     0.00   0.00   0.09
  41   6    -0.00  -0.01  -0.03     0.00  -0.09   0.01     0.00   0.01   0.11
  42   6    -0.00  -0.00   0.02    -0.04  -0.08   0.00    -0.00   0.01   0.11
  43   6     0.00   0.00   0.06    -0.07  -0.09  -0.00    -0.00   0.01   0.14
  44   6     0.00   0.00   0.10    -0.10  -0.07  -0.01    -0.00   0.01   0.11
  45   6     0.00   0.01   0.09    -0.08  -0.03  -0.01    -0.00   0.00   0.06
  46   7     0.00   0.00   0.04    -0.04  -0.04  -0.00    -0.00   0.00   0.07
  47   6     0.00   0.01   0.12    -0.10   0.01  -0.01    -0.01   0.00   0.02
  48   6     0.00   0.01   0.11    -0.08   0.04  -0.01    -0.01  -0.00  -0.03
  49   6     0.00   0.02   0.15    -0.10   0.08  -0.02    -0.01  -0.00  -0.08
  50   6     0.00   0.02   0.12    -0.07   0.10  -0.01    -0.01  -0.01  -0.13
  51   6     0.00   0.01   0.07    -0.03   0.09  -0.01    -0.01  -0.01  -0.11
  52   7     0.00   0.01   0.07    -0.04   0.05  -0.01    -0.01  -0.00  -0.06
  53   6     0.00   0.01   0.03     0.00   0.10  -0.00    -0.01  -0.01  -0.15
  54   6     0.00   0.00  -0.02     0.04   0.09   0.00    -0.01  -0.01  -0.13
  55   6     0.00   0.00  -0.06     0.08   0.10   0.01    -0.01  -0.01  -0.17
  56   6     0.00  -0.01  -0.10     0.10   0.08   0.01    -0.01  -0.01  -0.13
  57   6     0.00  -0.01  -0.09     0.08   0.04   0.01    -0.00  -0.01  -0.08
  58   7     0.00  -0.00  -0.04     0.05   0.05   0.00    -0.01  -0.01  -0.09
  59   6    -0.00  -0.01  -0.12     0.10   0.00   0.01    -0.00  -0.00  -0.03
  60   6    -0.00  -0.01  -0.11     0.08  -0.03   0.01     0.00   0.00   0.02
  61   7    -0.00  -0.01  -0.06     0.04  -0.04   0.01    -0.00   0.00   0.04
  62   1    -0.00  -0.01  -0.05     0.04  -0.02   0.01     0.00   0.00   0.02
  63   1    -0.00  -0.01  -0.04     0.02  -0.04   0.00     0.00   0.00   0.04
  64   1    -0.00  -0.00   0.02    -0.02  -0.04  -0.00     0.00   0.00   0.05
  65   1     0.00   0.00   0.04    -0.04  -0.02  -0.00    -0.00   0.00   0.04
  66   1     0.00   0.00   0.01    -0.01  -0.01  -0.00    -0.00   0.00   0.01
  67   1     0.00   0.00   0.05    -0.04   0.00  -0.00    -0.00   0.00   0.01
  68   1     0.00   0.01   0.05    -0.04   0.02  -0.01    -0.00  -0.00  -0.02
  69   1     0.00   0.01   0.04    -0.02   0.04  -0.00    -0.00  -0.00  -0.05
  70   1     0.00   0.00   0.01     0.00   0.04  -0.00    -0.00  -0.00  -0.06
  71   1     0.00   0.00  -0.01     0.02   0.04   0.00    -0.00  -0.00  -0.06
  72   1     0.00  -0.00  -0.04     0.04   0.02   0.00    -0.00  -0.00  -0.04
  73   1     0.00  -0.00  -0.00     0.01   0.01   0.00    -0.00  -0.00  -0.01
  74   1    -0.00  -0.00  -0.05     0.04   0.00   0.01    -0.00  -0.00  -0.01
  75   6    -0.00   0.01   0.03    -0.00   0.13  -0.01     0.00  -0.01  -0.15
  76   6    -0.00   0.01   0.03    -0.00   0.15  -0.01     0.00  -0.01  -0.17
  77   6    -0.00   0.01   0.04    -0.00   0.16  -0.01     0.00  -0.01  -0.18
  78   6    -0.00   0.01   0.04    -0.00   0.16  -0.01     0.00  -0.01  -0.17
  79   6    -0.00   0.01   0.03    -0.00   0.15  -0.01     0.00  -0.01  -0.16
  80   6    -0.00   0.01   0.03     0.00   0.13  -0.01     0.01  -0.00  -0.14
  81   6    -0.00  -0.01  -0.03     0.00  -0.13   0.00     0.00   0.01   0.14
  82   6    -0.00  -0.01  -0.04     0.00  -0.15   0.01     0.00   0.01   0.16
  83   6    -0.00  -0.01  -0.04     0.00  -0.16   0.01     0.00   0.01   0.17
  84   6    -0.00  -0.01  -0.04     0.00  -0.16   0.01     0.00   0.01   0.17
  85   6    -0.00  -0.01  -0.04     0.00  -0.15   0.01     0.00   0.01   0.16
  86   6    -0.00  -0.01  -0.03     0.00  -0.13   0.01     0.00   0.01   0.15
  87   6    -0.01   0.03   0.24    -0.09   0.07  -0.02    -0.00   0.00  -0.03
  88   6    -0.00   0.03   0.18    -0.07   0.09  -0.02    -0.00   0.00  -0.07
  89   6    -0.00   0.02   0.10    -0.03   0.08  -0.01     0.00  -0.00  -0.07
  90   6    -0.00   0.01   0.02     0.00   0.09  -0.01     0.01  -0.00  -0.11
  91   6     0.00  -0.01  -0.06     0.03   0.08  -0.00     0.01  -0.00  -0.11
  92   6     0.00  -0.02  -0.14     0.07   0.09   0.00     0.01  -0.01  -0.14
  93   6     0.00  -0.03  -0.20     0.09   0.07   0.00     0.01  -0.01  -0.12
  94   6     0.00  -0.02  -0.17     0.07   0.03   0.00     0.01  -0.01  -0.08
  95   7     0.00  -0.01  -0.09     0.04   0.04  -0.00     0.01  -0.00  -0.07
  96   6     0.00  -0.03  -0.21     0.09  -0.00   0.01     0.01  -0.00  -0.04
  97   6     0.00  -0.03  -0.18     0.07  -0.03   0.01     0.01  -0.00   0.00
  98   6     0.00  -0.03  -0.24     0.09  -0.07   0.01     0.01   0.00   0.03
  99   6     0.00  -0.03  -0.18     0.07  -0.09   0.01     0.01   0.00   0.07
 100   6     0.00  -0.02  -0.10     0.03  -0.08   0.00     0.01   0.00   0.07
 101   7     0.00  -0.02  -0.11     0.04  -0.04   0.00     0.01   0.00   0.03
 102   6    -0.00  -0.01  -0.02    -0.00  -0.09   0.00     0.00   0.01   0.11
 103   6    -0.00   0.01   0.06    -0.03  -0.08  -0.00    -0.00   0.01   0.11
 104   6    -0.00   0.02   0.14    -0.07  -0.09  -0.01    -0.00   0.01   0.14
 105   6    -0.01   0.02   0.20    -0.09  -0.07  -0.01    -0.01   0.01   0.13
 106   6    -0.01   0.02   0.17    -0.07  -0.03  -0.01    -0.00   0.01   0.08
 107   7    -0.00   0.01   0.09    -0.04  -0.04  -0.01    -0.00   0.01   0.08
 108   6    -0.01   0.03   0.21    -0.09   0.00  -0.02    -0.00   0.01   0.05
 109   6    -0.01   0.02   0.18    -0.07   0.03  -0.01    -0.00   0.00  -0.00
 110   7    -0.00   0.01   0.11    -0.04   0.04  -0.01     0.00   0.00  -0.03
 111   1    -0.00   0.01   0.09    -0.03   0.02  -0.01    -0.00   0.00  -0.00
 112   1    -0.00   0.01   0.06    -0.02   0.03  -0.01    -0.00  -0.00  -0.03
 113   1     0.00  -0.00  -0.04     0.02   0.04   0.00     0.00  -0.00  -0.05
 114   1     0.00  -0.01  -0.08     0.03   0.02   0.00     0.01  -0.00  -0.04
 115   1     0.00  -0.00  -0.01     0.00   0.01  -0.00     0.00  -0.00  -0.01
 116   1     0.00  -0.01  -0.08     0.03  -0.00   0.00     0.00  -0.00  -0.02
 117   1     0.00  -0.01  -0.09     0.03  -0.02   0.00     0.00  -0.00   0.01
 118   1     0.00  -0.01  -0.06     0.02  -0.03   0.00     0.00   0.00   0.03
 119   1    -0.00   0.00   0.04    -0.02  -0.04  -0.00    -0.00   0.00   0.05
 120   1    -0.00   0.01   0.08    -0.03  -0.02  -0.00    -0.00   0.00   0.04
 121   1    -0.00   0.00   0.01    -0.00  -0.01  -0.00     0.00   0.00   0.01
 122   1    -0.00   0.01   0.08    -0.03   0.00  -0.01    -0.00   0.00   0.02
                      7                      8                      9
                        a                      a                      a 
 Frequencies --    13.2490                18.9137                21.3889
 Red. masses --    11.5308                11.6057                11.5094
 Frc consts  --     0.0000                 0.0000                 0.0000
 IR Inten    --     0.6009                 0.2360                 1.2893
 Raman Activ --     0.0000                 0.0000                 0.0000
 Depolar     --     0.0000                 0.0000                 0.0000
 Atom AN      X      Y      Z        X      Y      Z        X      Y      Z
   1   6    -0.01   0.01   0.13     0.10  -0.11   0.04    -0.02   0.01   0.14
   2   6    -0.01   0.01   0.16     0.07  -0.14   0.04    -0.01   0.02   0.13
   3   6    -0.00   0.01   0.13     0.03  -0.12   0.03    -0.00   0.01   0.09
   4   6     0.00   0.01   0.14     0.00  -0.14   0.03     0.00   0.02   0.08
   5   6     0.01   0.01   0.13    -0.03  -0.12   0.03     0.01   0.01   0.09
   6   6     0.02   0.01   0.17    -0.07  -0.14   0.04     0.02   0.02   0.11
   7   6     0.02   0.00   0.14    -0.10  -0.11   0.04     0.02   0.01   0.12
   8   6     0.02   0.00   0.09    -0.08  -0.07   0.03     0.02   0.00   0.09
   9   7     0.01   0.00   0.10    -0.04  -0.09   0.03     0.01   0.01   0.09
  10   6     0.02  -0.00   0.04    -0.09  -0.03   0.02     0.02  -0.00   0.07
  11   6     0.02  -0.00  -0.02    -0.07   0.00   0.00     0.02  -0.00   0.01
  12   6     0.03  -0.00  -0.08    -0.09   0.04  -0.01     0.03  -0.00  -0.04
  13   6     0.03  -0.00  -0.15    -0.07   0.07  -0.03     0.03  -0.00  -0.10
  14   6     0.02  -0.00  -0.12    -0.03   0.05  -0.03     0.02  -0.00  -0.08
  15   7     0.02  -0.00  -0.05    -0.04   0.01  -0.01     0.02  -0.00  -0.02
  16   6     0.02  -0.00  -0.16     0.01   0.07  -0.04     0.01  -0.00  -0.12
  17   6     0.01  -0.00  -0.13     0.04   0.05  -0.03     0.01  -0.00  -0.08
  18   6     0.00  -0.00  -0.16     0.08   0.07  -0.04    -0.00  -0.00  -0.10
  19   6    -0.00  -0.00  -0.10     0.11   0.04  -0.02    -0.01  -0.00  -0.04
  20   6    -0.00   0.00  -0.04     0.08  -0.00  -0.00    -0.01   0.00   0.01
  21   7     0.01   0.00  -0.06     0.05   0.01  -0.01     0.00   0.00  -0.02
  22   6    -0.01   0.00   0.03     0.10  -0.04   0.02    -0.01   0.00   0.07
  23   6    -0.01   0.00   0.08     0.08  -0.08   0.03    -0.01   0.01   0.10
  24   7    -0.00   0.01   0.09     0.04  -0.09   0.03    -0.00   0.01   0.09
  25   1    -0.01   0.00   0.04     0.04  -0.03   0.02    -0.01   0.00   0.05
  26   1    -0.00   0.00   0.06     0.02  -0.05   0.01    -0.00   0.01   0.04
  27   1     0.00   0.00   0.06    -0.02  -0.05   0.01     0.00   0.01   0.04
  28   1     0.01   0.00   0.05    -0.04  -0.03   0.01     0.01   0.00   0.04
  29   1     0.00   0.00   0.02    -0.00  -0.02   0.01     0.00   0.00   0.02
  30   1     0.01  -0.00   0.02    -0.04  -0.01   0.01     0.01  -0.00   0.02
  31   1     0.01  -0.00  -0.02    -0.04   0.01  -0.00     0.01  -0.00  -0.01
  32   1     0.01  -0.00  -0.06    -0.02   0.03  -0.01     0.01  -0.00  -0.04
  33   1     0.01  -0.00  -0.06     0.00   0.03  -0.02     0.01  -0.00  -0.05
  34   1     0.00  -0.00  -0.06     0.02   0.03  -0.02     0.00  -0.00  -0.04
  35   1    -0.00  -0.00  -0.03     0.04   0.01  -0.01    -0.00  -0.00  -0.01
  36   1     0.00   0.00  -0.01     0.01  -0.00   0.00     0.00   0.00   0.00
  37   1    -0.00   0.00   0.01     0.04  -0.01   0.01    -0.01   0.00   0.03
  38   6    -0.01   0.02   0.13     0.10  -0.11  -0.00    -0.03   0.01  -0.14
  39   6    -0.00   0.02   0.16     0.07  -0.14  -0.00    -0.02   0.02  -0.13
  40   6    -0.00   0.01   0.13     0.03  -0.12   0.00    -0.01   0.01  -0.10
  41   6    -0.00   0.02   0.14    -0.00  -0.14   0.00    -0.01   0.02  -0.09
  42   6    -0.00   0.02   0.14    -0.04  -0.12   0.00    -0.00   0.01  -0.10
  43   6    -0.00   0.02   0.17    -0.07  -0.14   0.00     0.00   0.02  -0.12
  44   6    -0.00   0.02   0.15    -0.10  -0.11   0.00     0.01   0.01  -0.13
  45   6    -0.00   0.01   0.10    -0.08  -0.07  -0.00     0.01   0.01  -0.10
  46   7    -0.00   0.01   0.10    -0.04  -0.09   0.00    -0.00   0.01  -0.09
  47   6    -0.00   0.01   0.05    -0.10  -0.03  -0.00     0.01   0.00  -0.07
  48   6    -0.01  -0.00  -0.02    -0.08   0.00  -0.00     0.01  -0.00  -0.01
  49   6    -0.01  -0.01  -0.08    -0.10   0.04  -0.00     0.02  -0.00   0.04
  50   6    -0.02  -0.02  -0.15    -0.07   0.07   0.00     0.02  -0.00   0.11
  51   6    -0.02  -0.01  -0.12    -0.03   0.05   0.00     0.01  -0.00   0.09
  52   7    -0.01  -0.00  -0.05    -0.04   0.01   0.00     0.01   0.00   0.02
  53   6    -0.02  -0.02  -0.17     0.00   0.07   0.01     0.00  -0.00   0.13
  54   6    -0.02  -0.01  -0.13     0.04   0.05   0.00    -0.01  -0.00   0.09
  55   6    -0.02  -0.02  -0.17     0.08   0.07   0.00    -0.01  -0.00   0.11
  56   6    -0.02  -0.01  -0.11     0.10   0.04   0.00    -0.02  -0.00   0.05
  57   6    -0.01  -0.00  -0.04     0.08  -0.00  -0.00    -0.02  -0.00  -0.01
  58   7    -0.02  -0.01  -0.06     0.05   0.01   0.00    -0.01   0.00   0.02
  59   6    -0.01   0.00   0.03     0.10  -0.04  -0.00    -0.03   0.00  -0.08
  60   6    -0.01   0.01   0.08     0.08  -0.08  -0.00    -0.02   0.00  -0.11
  61   7    -0.01   0.01   0.09     0.04  -0.09  -0.00    -0.02   0.01  -0.09
  62   1    -0.00   0.00   0.04     0.04  -0.03  -0.00    -0.01   0.00  -0.05
  63   1    -0.00   0.01   0.06     0.02  -0.05  -0.00    -0.01   0.01  -0.04
  64   1     0.00   0.01   0.06    -0.02  -0.05   0.00     0.00   0.01  -0.04
  65   1     0.00   0.01   0.05    -0.04  -0.03  -0.00     0.00   0.00  -0.04
  66   1    -0.00   0.00   0.02    -0.01  -0.02  -0.00    -0.00   0.00  -0.02
  67   1    -0.00   0.00   0.02    -0.04  -0.01  -0.00     0.00  -0.00  -0.03
  68   1    -0.00  -0.00  -0.02    -0.04   0.01  -0.00     0.01  -0.00   0.01
  69   1    -0.01  -0.01  -0.06    -0.02   0.03   0.00     0.01  -0.00   0.05
  70   1    -0.01  -0.01  -0.07     0.00   0.03   0.00     0.00  -0.00   0.05
  71   1    -0.01  -0.01  -0.07     0.02   0.03   0.00    -0.00  -0.00   0.05
  72   1    -0.01  -0.00  -0.03     0.04   0.01   0.00    -0.01  -0.00   0.01
  73   1    -0.00  -0.00  -0.01     0.01  -0.00   0.00    -0.00   0.00  -0.00
  74   1    -0.00   0.00   0.01     0.04  -0.01  -0.00    -0.01  -0.00  -0.03
  75   6     0.00   0.01   0.16     0.00  -0.16   0.02     0.00   0.03   0.05
  76   6     0.00   0.02   0.14     0.00  -0.14   0.00     0.00   0.02  -0.01
  77   6     0.00   0.01   0.12     0.00  -0.10  -0.01     0.00   0.02  -0.06
  78   6     0.00   0.01   0.09    -0.00  -0.03  -0.02     0.00   0.00  -0.12
  79   6     0.00   0.01   0.05    -0.00   0.03  -0.03     0.00  -0.01  -0.15
  80   6     0.00   0.00   0.00    -0.00   0.08  -0.04     0.00  -0.02  -0.17
  81   6    -0.00  -0.00   0.01    -0.00   0.08   0.01    -0.01  -0.01   0.18
  82   6    -0.00   0.01   0.05    -0.00   0.03   0.01    -0.01   0.00   0.16
  83   6    -0.00   0.01   0.09    -0.00  -0.03   0.01    -0.01   0.01   0.12
  84   6    -0.00   0.02   0.12    -0.00  -0.10   0.01    -0.01   0.02   0.06
  85   6    -0.00   0.02   0.15    -0.00  -0.14   0.01    -0.01   0.02   0.01
  86   6    -0.00   0.02   0.16    -0.00  -0.16   0.01    -0.01   0.03  -0.05
  87   6     0.00  -0.01  -0.09    -0.00   0.10  -0.02    -0.01  -0.02  -0.14
  88   6     0.00  -0.01  -0.06    -0.00   0.10  -0.03    -0.01  -0.02  -0.18
  89   6     0.00  -0.01  -0.06    -0.00   0.10  -0.02    -0.00  -0.02  -0.14
  90   6     0.00  -0.00  -0.04    -0.00   0.10  -0.03     0.00  -0.02  -0.16
  91   6     0.00  -0.01  -0.05    -0.00   0.10  -0.03     0.01  -0.02  -0.14
  92   6     0.00  -0.01  -0.06    -0.00   0.10  -0.03     0.01  -0.02  -0.17
  93   6     0.00  -0.01  -0.08    -0.00   0.10  -0.03     0.02  -0.02  -0.13
  94   6     0.00  -0.01  -0.09    -0.00   0.10  -0.02     0.01  -0.02  -0.07
  95   7     0.00  -0.01  -0.08    -0.00   0.10  -0.02     0.01  -0.02  -0.09
  96   6     0.00  -0.01  -0.11    -0.00   0.10  -0.01     0.01  -0.01   0.00
  97   6     0.00  -0.01  -0.10    -0.00   0.10  -0.00     0.01  -0.01   0.07
  98   6     0.00  -0.01  -0.09     0.00   0.10   0.01     0.01  -0.01   0.14
  99   6     0.00  -0.01  -0.06    -0.00   0.10   0.01     0.01  -0.01   0.18
 100   6    -0.00  -0.01  -0.06    -0.00   0.10   0.00     0.00  -0.01   0.14
 101   7    -0.00  -0.01  -0.08    -0.00   0.10  -0.00     0.00  -0.01   0.09
 102   6    -0.00  -0.01  -0.03    -0.00   0.10   0.01    -0.01  -0.01   0.16
 103   6    -0.00  -0.01  -0.05    -0.01   0.10   0.01    -0.01  -0.01   0.14
 104   6    -0.00  -0.01  -0.05    -0.01   0.10   0.02    -0.01  -0.01   0.17
 105   6     0.00  -0.01  -0.08    -0.01   0.10   0.01    -0.02  -0.01   0.13
 106   6     0.00  -0.01  -0.09    -0.01   0.10   0.01    -0.01  -0.01   0.07
 107   7    -0.00  -0.01  -0.08    -0.01   0.10   0.00    -0.01  -0.01   0.09
 108   6     0.00  -0.02  -0.10    -0.01   0.10   0.00    -0.01  -0.02  -0.00
 109   6     0.00  -0.01  -0.09    -0.00   0.10  -0.01    -0.01  -0.02  -0.07
 110   7     0.00  -0.01  -0.08    -0.00   0.10  -0.02    -0.00  -0.02  -0.08
 111   1    -0.00  -0.00  -0.03    -0.00   0.03  -0.00    -0.01  -0.01  -0.04
 112   1     0.00  -0.00  -0.01    -0.00   0.03  -0.01    -0.00  -0.01  -0.07
 113   1     0.00  -0.00  -0.01    -0.00   0.03  -0.01     0.00  -0.01  -0.06
 114   1     0.00  -0.00  -0.03     0.00   0.03  -0.01     0.01  -0.01  -0.04
 115   1     0.00  -0.00  -0.02    -0.00   0.03  -0.00     0.00  -0.00  -0.01
 116   1     0.00  -0.00  -0.04     0.00   0.03  -0.00     0.01  -0.00   0.00
 117   1     0.00  -0.00  -0.03     0.00   0.03   0.00     0.00  -0.00   0.04
 118   1     0.00  -0.00  -0.01     0.00   0.03   0.00     0.00  -0.00   0.07
 119   1    -0.00  -0.00  -0.01    -0.00   0.03   0.01    -0.00  -0.00   0.06
 120   1     0.00  -0.00  -0.03    -0.00   0.03   0.01    -0.01  -0.00   0.04
 121   1    -0.00  -0.00  -0.02    -0.00   0.03  -0.00    -0.00  -0.00   0.01
 122   1     0.00  -0.00  -0.03    -0.00   0.03   0.00    -0.01  -0.00  -0.00
                     10                     11                     12
                        a                      a                      a 
 Frequencies --    26.4194                28.9028                35.2236
 Red. masses --    11.4804                11.8743                11.5422
 Frc consts  --     0.0000                 0.0000                 0.0000
 IR Inten    --     0.0246                 0.0098                 3.1348
 Raman Activ --     0.0000                 0.0000                 0.0000
 Depolar     --     0.0000                 0.0000                 0.0000
 Atom AN      X      Y      Z        X      Y      Z        X      Y      Z
   1   6     0.07  -0.09   0.02     0.13   0.01  -0.03    -0.01   0.01   0.13
   2   6     0.05  -0.11   0.01     0.11  -0.00  -0.02    -0.00   0.01   0.07
   3   6     0.03  -0.09   0.00     0.09   0.01  -0.01     0.00   0.02   0.03
   4   6     0.00  -0.11  -0.00     0.08   0.00  -0.01     0.00   0.02  -0.03
   5   6    -0.02  -0.09   0.00     0.09  -0.00  -0.01     0.01   0.02   0.01
   6   6    -0.05  -0.11   0.00     0.11   0.01  -0.02     0.02   0.02   0.04
   7   6    -0.07  -0.09   0.01     0.13  -0.01  -0.02     0.02   0.01   0.10
   8   6    -0.06  -0.06   0.01     0.12  -0.03  -0.02     0.02  -0.00   0.10
   9   7    -0.03  -0.07   0.01     0.10  -0.03  -0.02     0.01   0.00   0.06
  10   6    -0.07  -0.03   0.01     0.12  -0.04  -0.02     0.02  -0.01   0.11
  11   6    -0.06  -0.00   0.01     0.13  -0.03  -0.01     0.02  -0.01   0.06
  12   6    -0.07   0.03   0.00     0.12  -0.01   0.01     0.02  -0.01   0.02
  13   6    -0.05   0.05  -0.01     0.13   0.00   0.02     0.03  -0.00  -0.06
  14   6    -0.02   0.03  -0.01     0.15  -0.01   0.02     0.03  -0.00  -0.07
  15   7    -0.03   0.00  -0.00     0.16  -0.03   0.00     0.02  -0.00   0.00
  16   6     0.00   0.05  -0.01     0.16  -0.00   0.03     0.02   0.00  -0.12
  17   6     0.03   0.03  -0.01     0.15   0.00   0.02     0.02   0.00  -0.08
  18   6     0.06   0.05  -0.01     0.13  -0.01   0.02     0.01  -0.00  -0.09
  19   6     0.08   0.02  -0.00     0.12   0.01   0.01    -0.00  -0.00  -0.01
  20   6     0.06  -0.01   0.00     0.13   0.03   0.00    -0.00   0.00   0.04
  21   7     0.04   0.00  -0.00     0.16   0.03   0.01     0.01   0.01  -0.00
  22   6     0.07  -0.04   0.01     0.13   0.04  -0.01    -0.01   0.00   0.11
  23   6     0.06  -0.06   0.01     0.12   0.03  -0.02    -0.00   0.01   0.11
  24   7     0.03  -0.07   0.01     0.11   0.03  -0.01    -0.00   0.01   0.06
  25   1     0.03  -0.03   0.01     0.04   0.00  -0.01    -0.00   0.00   0.05
  26   1     0.02  -0.04   0.00     0.03  -0.01  -0.01    -0.00   0.00   0.02
  27   1    -0.02  -0.04  -0.00     0.03   0.01  -0.00     0.01   0.01   0.01
  28   1    -0.03  -0.03   0.00     0.04  -0.00  -0.01     0.01   0.00   0.04
  29   1    -0.00  -0.01   0.00     0.02  -0.02  -0.00     0.00  -0.00   0.01
  30   1    -0.03  -0.01   0.00     0.04  -0.01  -0.01     0.01  -0.00   0.04
  31   1    -0.03   0.01   0.00     0.03  -0.00   0.00     0.01  -0.00   0.02
  32   1    -0.02   0.02  -0.00     0.04   0.00   0.01     0.01   0.00  -0.03
  33   1     0.00   0.02  -0.01     0.05  -0.00   0.01     0.01   0.00  -0.05
  34   1     0.02   0.02  -0.01     0.04  -0.01   0.01     0.00  -0.00  -0.04
  35   1     0.03   0.01  -0.00     0.03   0.00   0.00    -0.00  -0.00   0.00
  36   1     0.00  -0.00   0.00     0.05   0.01   0.00     0.01   0.00   0.01
  37   1     0.03  -0.01   0.00     0.04   0.01  -0.01    -0.00   0.00   0.04
  38   6    -0.07   0.09   0.01    -0.13  -0.01  -0.01    -0.00   0.01   0.14
  39   6    -0.05   0.11   0.00    -0.11   0.00  -0.01    -0.00   0.01   0.07
  40   6    -0.03   0.10  -0.00    -0.09  -0.01  -0.01    -0.00   0.00   0.03
  41   6    -0.00   0.11  -0.01    -0.08  -0.00  -0.01    -0.00  -0.00  -0.03
  42   6     0.02   0.10  -0.00    -0.09   0.00  -0.01    -0.00   0.00   0.01
  43   6     0.05   0.11  -0.00    -0.12  -0.01  -0.01    -0.01   0.00   0.04
  44   6     0.08   0.09  -0.00    -0.13   0.01  -0.02    -0.01   0.01   0.10
  45   6     0.06   0.06   0.00    -0.12   0.03  -0.01    -0.00   0.01   0.10
  46   7     0.03   0.07   0.00    -0.10   0.03  -0.01    -0.00   0.01   0.06
  47   6     0.07   0.03   0.01    -0.13   0.04  -0.01    -0.00   0.02   0.12
  48   6     0.06   0.00   0.00    -0.13   0.03  -0.00    -0.01   0.01   0.06
  49   6     0.07  -0.03   0.00    -0.12   0.01   0.00    -0.01   0.00   0.02
  50   6     0.05  -0.05  -0.00    -0.14  -0.00   0.02    -0.02  -0.01  -0.06
  51   6     0.02  -0.03  -0.00    -0.15   0.01   0.02    -0.02  -0.01  -0.07
  52   7     0.03  -0.00  -0.00    -0.16   0.03   0.00    -0.02   0.00   0.00
  53   6    -0.00  -0.05  -0.01    -0.16   0.00   0.02    -0.02  -0.01  -0.12
  54   6    -0.03  -0.03  -0.01    -0.15  -0.00   0.02    -0.02  -0.01  -0.08
  55   6    -0.06  -0.05  -0.01    -0.13   0.01   0.02    -0.02  -0.01  -0.09
  56   6    -0.08  -0.02  -0.00    -0.12  -0.01   0.01    -0.01  -0.00  -0.01
  57   6    -0.06   0.01   0.00    -0.13  -0.03   0.00    -0.01  -0.00   0.04
  58   7    -0.04  -0.00  -0.00    -0.16  -0.03   0.01    -0.02  -0.00  -0.00
  59   6    -0.08   0.04   0.01    -0.12  -0.04  -0.00    -0.00   0.01   0.12
  60   6    -0.06   0.06   0.01    -0.12  -0.03  -0.01    -0.00   0.01   0.11
  61   7    -0.03   0.07   0.00    -0.11  -0.03  -0.01    -0.00   0.00   0.06
  62   1    -0.03   0.03   0.00    -0.04  -0.00  -0.01    -0.00   0.00   0.05
  63   1    -0.02   0.04   0.00    -0.03   0.00  -0.00    -0.00   0.00   0.02
  64   1     0.02   0.04  -0.00    -0.03  -0.01  -0.00    -0.00  -0.00   0.00
  65   1     0.03   0.03   0.00    -0.04   0.00  -0.01    -0.00   0.00   0.04
  66   1     0.00   0.01   0.00    -0.02   0.02  -0.00     0.00   0.00   0.01
  67   1     0.03   0.01   0.00    -0.04   0.01  -0.00    -0.00   0.01   0.05
  68   1     0.03  -0.01   0.00    -0.03   0.00   0.00    -0.00   0.00   0.02
  69   1     0.02  -0.02  -0.00    -0.04  -0.00   0.01    -0.01  -0.00  -0.03
  70   1    -0.00  -0.02  -0.00    -0.05   0.00   0.01    -0.01  -0.00  -0.05
  71   1    -0.02  -0.02  -0.00    -0.04   0.01   0.01    -0.01  -0.00  -0.04
  72   1    -0.03  -0.01  -0.00    -0.03  -0.00   0.00    -0.00   0.00   0.00
  73   1    -0.00   0.00   0.00    -0.05  -0.01   0.00    -0.00  -0.00   0.01
  74   1    -0.03   0.01   0.00    -0.04  -0.01  -0.00    -0.00   0.00   0.05
  75   6     0.00  -0.12  -0.01     0.08  -0.00   0.00     0.01   0.03  -0.10
  76   6     0.00  -0.06  -0.02     0.08  -0.00   0.01     0.01   0.02  -0.19
  77   6     0.00  -0.00  -0.02     0.08   0.00   0.02     0.01   0.00  -0.24
  78   6    -0.00   0.08  -0.02     0.08   0.00   0.02     0.01  -0.02  -0.25
  79   6    -0.00   0.13  -0.01     0.07   0.01   0.02     0.01  -0.03  -0.23
  80   6    -0.00   0.17  -0.01     0.07   0.01   0.02     0.01  -0.04  -0.16
  81   6     0.00  -0.18  -0.01    -0.07  -0.00   0.00    -0.01  -0.01  -0.16
  82   6     0.00  -0.14  -0.01    -0.07  -0.00   0.00    -0.01  -0.02  -0.23
  83   6     0.00  -0.09  -0.01    -0.08  -0.00   0.01    -0.01  -0.02  -0.26
  84   6    -0.00   0.00  -0.02    -0.08  -0.00   0.01    -0.01  -0.02  -0.24
  85   6    -0.00   0.06  -0.02    -0.08  -0.00   0.00    -0.01  -0.02  -0.19
  86   6    -0.00   0.12  -0.01    -0.08  -0.00  -0.00    -0.00  -0.01  -0.11
  87   6    -0.13   0.10   0.01    -0.01  -0.02   0.01     0.01  -0.00   0.13
  88   6    -0.10   0.14   0.01     0.02   0.01   0.01     0.01  -0.01   0.03
  89   6    -0.05   0.11   0.01     0.05  -0.01   0.01     0.01  -0.02  -0.01
  90   6    -0.00   0.14   0.00     0.07   0.00   0.02     0.01  -0.03  -0.08
  91   6     0.04   0.12   0.01     0.05   0.01   0.01     0.00  -0.02  -0.04
  92   6     0.10   0.14   0.01     0.02  -0.01   0.01    -0.01  -0.02  -0.03
  93   6     0.13   0.10   0.02    -0.01   0.02   0.00    -0.01  -0.00   0.05
  94   6     0.11   0.05   0.01     0.01   0.06  -0.01    -0.01   0.01   0.09
  95   7     0.06   0.07   0.01     0.05   0.05  -0.00    -0.00  -0.00   0.03
  96   6     0.13  -0.00   0.01     0.00   0.07  -0.02    -0.01   0.02   0.15
  97   6     0.10  -0.05   0.00    -0.01   0.05  -0.01    -0.01   0.02   0.12
  98   6     0.13  -0.10  -0.00     0.01   0.02  -0.01    -0.01   0.02   0.13
  99   6     0.10  -0.14  -0.01    -0.02  -0.01  -0.01    -0.01   0.01   0.04
 100   6     0.05  -0.12  -0.00    -0.05   0.01  -0.01    -0.01   0.00  -0.01
 101   7     0.06  -0.07   0.00    -0.05   0.04  -0.01    -0.01   0.01   0.05
 102   6     0.00  -0.14  -0.01    -0.07   0.00  -0.00    -0.01  -0.01  -0.08
 103   6    -0.05  -0.12  -0.00    -0.05  -0.01  -0.00    -0.00  -0.00  -0.04
 104   6    -0.10  -0.14  -0.00    -0.02   0.01  -0.01     0.01   0.00  -0.03
 105   6    -0.14  -0.10   0.00     0.01  -0.02  -0.01     0.01   0.01   0.06
 106   6    -0.11  -0.05   0.00    -0.01  -0.06  -0.00     0.00   0.00   0.09
 107   7    -0.06  -0.07   0.00    -0.05  -0.05   0.00    -0.00  -0.00   0.04
 108   6    -0.13   0.00   0.01    -0.00  -0.07   0.00     0.01   0.00   0.15
 109   6    -0.10   0.05   0.01     0.01  -0.05   0.01     0.01  -0.00   0.12
 110   7    -0.06   0.07   0.01     0.05  -0.04   0.01     0.01  -0.01   0.05
 111   1    -0.05   0.03   0.01    -0.01  -0.00   0.00     0.00   0.00   0.05
 112   1    -0.03   0.05   0.00     0.00   0.01   0.00     0.00  -0.01   0.00
 113   1     0.03   0.05   0.00     0.00  -0.01   0.01    -0.00  -0.01  -0.02
 114   1     0.05   0.03   0.01    -0.01   0.01   0.00    -0.01   0.00   0.03
 115   1     0.01   0.01   0.00     0.03   0.03  -0.00     0.00   0.00   0.01
 116   1     0.05  -0.00   0.00     0.00   0.02  -0.01    -0.01   0.01   0.06
 117   1     0.05  -0.03   0.00     0.01   0.00  -0.00    -0.00   0.01   0.06
 118   1     0.03  -0.05  -0.00    -0.00  -0.01  -0.00    -0.00   0.00   0.00
 119   1    -0.03  -0.05  -0.00    -0.00   0.01  -0.00     0.00   0.00  -0.02
 120   1    -0.05  -0.03   0.00     0.01  -0.01  -0.00     0.00   0.00   0.03
 121   1    -0.01  -0.01   0.00    -0.03  -0.03   0.00    -0.00  -0.00   0.01
 122   1    -0.05   0.00   0.00    -0.00  -0.02  -0.00     0.00   0.00   0.06
                     13                     14                     15
                        a                      a                      a 
 Frequencies --    41.6827                42.5654                42.7597
 Red. masses --    10.8692                10.8841                10.8767
 Frc consts  --     0.0000                 0.0000                 0.0000
 IR Inten    --     9.3365                 7.7322                 1.5336
 Raman Activ --     0.0000                 0.0000                 0.0000
 Depolar     --     0.0000                 0.0000                 0.0000
 Atom AN      X      Y      Z        X      Y      Z        X      Y      Z
   1   6    -0.00  -0.00   0.06    -0.01  -0.02   0.25    -0.01  -0.01   0.16
   2   6    -0.00  -0.00   0.05    -0.01  -0.02   0.24    -0.01  -0.01   0.17
   3   6    -0.00   0.00   0.02    -0.00  -0.01   0.10    -0.00  -0.01   0.07
   4   6    -0.00   0.00  -0.01     0.00   0.00  -0.02     0.00  -0.00   0.00
   5   6     0.00   0.00  -0.03     0.00   0.01  -0.12     0.00   0.01  -0.08
   6   6     0.00   0.01  -0.05     0.01   0.02  -0.25     0.01   0.01  -0.18
   7   6     0.00   0.00  -0.04     0.01   0.02  -0.23     0.01   0.01  -0.19
   8   6     0.00   0.00  -0.01     0.00   0.01  -0.09     0.00   0.01  -0.09
   9   7     0.00   0.00  -0.01     0.00   0.00  -0.05     0.00   0.00  -0.04
  10   6     0.00  -0.00   0.01    -0.00  -0.00   0.02     0.00   0.00  -0.01
  11   6     0.00  -0.00   0.03    -0.01  -0.01   0.12    -0.00  -0.01   0.07
  12   6    -0.00  -0.01   0.05    -0.01  -0.02   0.24    -0.01  -0.01   0.17
  13   6     0.00  -0.00   0.04    -0.01  -0.02   0.23    -0.01  -0.01   0.18
  14   6     0.00  -0.00   0.02    -0.01  -0.01   0.10    -0.01  -0.01   0.09
  15   7     0.00  -0.00   0.01    -0.00  -0.01   0.06    -0.00  -0.00   0.04
  16   6     0.00  -0.00  -0.01    -0.00   0.00  -0.02    -0.00  -0.00   0.01
  17   6     0.00   0.00  -0.03     0.00   0.01  -0.12     0.00   0.01  -0.07
  18   6     0.00   0.00  -0.06     0.01   0.02  -0.24     0.01   0.01  -0.16
  19   6     0.00   0.00  -0.05     0.01   0.02  -0.23     0.01   0.01  -0.17
  20   6     0.00   0.00  -0.02     0.00   0.01  -0.10     0.00   0.01  -0.08
  21   7     0.00   0.00  -0.01     0.00   0.00  -0.06     0.00   0.00  -0.04
  22   6    -0.00   0.00   0.01    -0.00  -0.00   0.01     0.00   0.00  -0.02
  23   6    -0.00  -0.00   0.03    -0.01  -0.01   0.12    -0.00  -0.01   0.06
  24   7    -0.00   0.00   0.01    -0.00  -0.00   0.05    -0.00  -0.00   0.03
  25   1    -0.00  -0.00   0.02    -0.00  -0.01   0.10    -0.00  -0.01   0.06
  26   1    -0.00  -0.00   0.02    -0.00  -0.01   0.09    -0.00  -0.01   0.07
  27   1     0.00   0.00  -0.02     0.00   0.01  -0.10     0.00   0.00  -0.07
  28   1     0.00   0.00  -0.02     0.00   0.01  -0.09     0.00   0.01  -0.07
  29   1    -0.00  -0.00   0.00    -0.00  -0.00   0.01    -0.00  -0.00   0.01
  30   1     0.00  -0.00   0.01     0.00  -0.00   0.01     0.00   0.00  -0.01
  31   1    -0.00  -0.00   0.02    -0.00  -0.01   0.09    -0.00  -0.00   0.06
  32   1    -0.00  -0.00   0.02    -0.00  -0.01   0.09    -0.00  -0.01   0.07
  33   1     0.00  -0.00  -0.01     0.00   0.00  -0.01    -0.00  -0.00   0.01
  34   1     0.00   0.00  -0.02     0.00   0.01  -0.09     0.00   0.00  -0.06
  35   1     0.00   0.00  -0.02     0.00   0.01  -0.09     0.00   0.01  -0.07
  36   1     0.00   0.00   0.00    -0.00  -0.00   0.01    -0.00  -0.00   0.00
  37   1    -0.00   0.00   0.00    -0.00  -0.00   0.01     0.00   0.00  -0.01
  38   6     0.00   0.01   0.07    -0.01  -0.02  -0.19     0.01   0.02   0.23
  39   6     0.00   0.00   0.06    -0.01  -0.02  -0.18     0.01   0.02   0.23
  40   6     0.00   0.00   0.02    -0.00  -0.01  -0.07     0.00   0.01   0.10
  41   6    -0.00  -0.00  -0.01     0.00   0.00   0.02     0.00  -0.00  -0.00
  42   6    -0.00  -0.00  -0.03     0.00   0.01   0.09    -0.01  -0.01  -0.11
  43   6    -0.00  -0.01  -0.06     0.01   0.02   0.18    -0.01  -0.02  -0.24
  44   6    -0.00  -0.00  -0.05     0.01   0.01   0.16    -0.01  -0.02  -0.25
  45   6    -0.00  -0.00  -0.01     0.00   0.01   0.06    -0.01  -0.01  -0.11
  46   7    -0.00  -0.00  -0.01     0.00   0.00   0.03    -0.00  -0.01  -0.06
  47   6    -0.00   0.00   0.02    -0.00  -0.00  -0.02    -0.00  -0.00  -0.01
  48   6     0.00   0.00   0.03    -0.01  -0.01  -0.09     0.00   0.01   0.10
  49   6     0.00   0.01   0.06    -0.01  -0.02  -0.18     0.01   0.02   0.23
  50   6     0.00   0.00   0.05    -0.01  -0.02  -0.16     0.01   0.02   0.24
  51   6    -0.00   0.00   0.02    -0.01  -0.01  -0.07     0.01   0.01   0.11
  52   7    -0.00   0.00   0.02    -0.00  -0.00  -0.05     0.00   0.01   0.06
  53   6    -0.00  -0.00  -0.02    -0.00   0.00   0.02     0.00   0.00   0.01
  54   6    -0.00  -0.00  -0.03     0.00   0.01   0.09    -0.00  -0.01  -0.10
  55   6    -0.00  -0.01  -0.06     0.01   0.02   0.18    -0.01  -0.02  -0.22
  56   6    -0.00  -0.00  -0.05     0.01   0.01   0.16    -0.01  -0.02  -0.23
  57   6    -0.00  -0.00  -0.02     0.00   0.01   0.07    -0.00  -0.01  -0.11
  58   7    -0.00  -0.00  -0.02     0.00   0.00   0.05    -0.00  -0.00  -0.06
  59   6     0.00   0.00   0.01    -0.00  -0.00  -0.02     0.00  -0.00  -0.01
  60   6     0.00   0.00   0.03    -0.01  -0.01  -0.09     0.01   0.01   0.09
  61   7     0.00   0.00   0.01    -0.00  -0.00  -0.04     0.00   0.00   0.04
  62   1     0.00   0.00   0.03    -0.00  -0.01  -0.07     0.00   0.01   0.09
  63   1     0.00   0.00   0.02    -0.00  -0.01  -0.07     0.00   0.01   0.09
  64   1    -0.00  -0.00  -0.02     0.00   0.01   0.07    -0.00  -0.01  -0.09
  65   1    -0.00  -0.00  -0.02     0.00   0.01   0.06    -0.00  -0.01  -0.10
  66   1    -0.00   0.00   0.00    -0.00  -0.00  -0.01     0.00   0.00   0.01
  67   1    -0.00   0.00   0.01    -0.00  -0.00  -0.01    -0.00  -0.00  -0.01
  68   1     0.00   0.00   0.02    -0.00  -0.01  -0.07     0.00   0.01   0.09
  69   1     0.00   0.00   0.02    -0.00  -0.01  -0.06     0.01   0.01   0.09
  70   1    -0.00  -0.00  -0.01     0.00   0.00   0.01     0.00   0.00   0.00
  71   1    -0.00  -0.00  -0.03     0.00   0.01   0.07    -0.00  -0.01  -0.08
  72   1    -0.00  -0.00  -0.02     0.00   0.01   0.06    -0.00  -0.01  -0.09
  73   1    -0.00   0.00   0.00    -0.00  -0.00  -0.01     0.00   0.00   0.01
  74   1     0.00   0.00   0.01    -0.00  -0.00  -0.01     0.00  -0.00  -0.01
  75   6    -0.00   0.00  -0.02     0.00   0.01  -0.03    -0.00   0.00   0.01
  76   6    -0.00   0.00  -0.02     0.00   0.01  -0.04    -0.00   0.00   0.02
  77   6    -0.00  -0.00  -0.02     0.00   0.01  -0.03    -0.00   0.00   0.03
  78   6    -0.00  -0.00  -0.02     0.00   0.00  -0.02    -0.00   0.00   0.03
  79   6    -0.00  -0.01  -0.01     0.00   0.00  -0.01    -0.00   0.00   0.03
  80   6    -0.00  -0.01  -0.01     0.00  -0.00   0.01    -0.00   0.00   0.02
  81   6    -0.00   0.00  -0.01     0.00   0.00  -0.00     0.00   0.00   0.02
  82   6    -0.00   0.00  -0.02     0.00   0.00   0.01     0.00   0.00   0.02
  83   6    -0.00  -0.00  -0.02     0.00   0.01   0.03     0.00   0.00   0.02
  84   6    -0.00  -0.00  -0.03     0.00   0.01   0.04     0.00  -0.00   0.02
  85   6    -0.00  -0.00  -0.03     0.00   0.01   0.04     0.00  -0.00   0.01
  86   6    -0.00  -0.00  -0.02     0.00   0.01   0.03     0.00  -0.00   0.00
  87   6     0.01  -0.04  -0.28     0.00   0.00   0.03     0.00   0.01   0.06
  88   6     0.01  -0.04  -0.29     0.00   0.00   0.03    -0.00   0.01   0.07
  89   6     0.00  -0.02  -0.13     0.00  -0.00   0.02    -0.00   0.00   0.03
  90   6     0.00  -0.00  -0.00     0.00  -0.00   0.02    -0.00   0.00   0.01
  91   6    -0.00   0.02   0.13     0.00  -0.00   0.01    -0.00  -0.00  -0.03
  92   6    -0.00   0.04   0.29    -0.00  -0.00   0.02    -0.00  -0.01  -0.08
  93   6    -0.00   0.04   0.29    -0.00  -0.00   0.01    -0.00  -0.01  -0.09
  94   6    -0.00   0.02   0.14    -0.00  -0.00   0.01    -0.00  -0.01  -0.05
  95   7    -0.00   0.01   0.07     0.00  -0.00   0.01    -0.00  -0.00  -0.02
  96   6    -0.00   0.00   0.02    -0.00  -0.00  -0.00    -0.00  -0.00  -0.02
  97   6     0.00  -0.02  -0.12    -0.00  -0.00  -0.01    -0.00   0.00   0.02
  98   6     0.00  -0.04  -0.28    -0.00  -0.00  -0.02    -0.00   0.01   0.07
  99   6     0.00  -0.04  -0.29    -0.00  -0.00  -0.02    -0.00   0.01   0.08
 100   6     0.00  -0.02  -0.12     0.00  -0.00  -0.01    -0.00   0.01   0.04
 101   7     0.00  -0.01  -0.06     0.00  -0.00  -0.01    -0.00   0.00   0.01
 102   6    -0.00   0.00   0.00     0.00  -0.00  -0.01     0.00   0.00   0.01
 103   6    -0.00   0.02   0.13     0.00  -0.00  -0.02     0.00  -0.00  -0.03
 104   6    -0.00   0.04   0.29     0.00  -0.00  -0.03     0.00  -0.01  -0.07
 105   6    -0.00   0.04   0.29     0.00  -0.00  -0.03     0.00  -0.01  -0.08
 106   6     0.00   0.02   0.14     0.00  -0.00  -0.01     0.00  -0.00  -0.04
 107   7    -0.00   0.01   0.07     0.00  -0.00  -0.01     0.00  -0.00  -0.02
 108   6     0.00   0.00   0.02     0.00  -0.00  -0.00     0.00  -0.00  -0.02
 109   6     0.00  -0.02  -0.12     0.00  -0.00   0.01     0.00   0.00   0.02
 110   7     0.00  -0.01  -0.06     0.00  -0.00   0.01     0.00   0.00   0.01
 111   1     0.00  -0.01  -0.11     0.00   0.00   0.01     0.00   0.00   0.02
 112   1     0.00  -0.02  -0.11     0.00   0.00   0.01    -0.00   0.00   0.03
 113   1    -0.00   0.01   0.11    -0.00  -0.00   0.01    -0.00  -0.00  -0.03
 114   1    -0.00   0.02   0.11    -0.00  -0.00   0.00    -0.00  -0.00  -0.03
 115   1     0.00  -0.00  -0.01     0.00  -0.00   0.00    -0.00   0.00   0.00
 116   1    -0.00   0.00   0.01    -0.00  -0.00  -0.00    -0.00  -0.00  -0.01
 117   1     0.00  -0.01  -0.11    -0.00  -0.00  -0.01    -0.00   0.00   0.02
 118   1     0.00  -0.01  -0.11    -0.00  -0.00  -0.01    -0.00   0.01   0.03
 119   1    -0.00   0.02   0.11     0.00  -0.00  -0.01     0.00  -0.00  -0.03
 120   1    -0.00   0.02   0.11     0.00  -0.00  -0.01     0.00  -0.00  -0.03
 121   1     0.00  -0.00  -0.01     0.00  -0.00  -0.00     0.00   0.00   0.00
 122   1     0.00   0.00   0.01     0.00  -0.00   0.00     0.00  -0.00  -0.01
                     16                     17                     18
                        a                      a                      a 
 Frequencies --    46.3660                52.7670                60.5163
 Red. masses --    11.3835                11.8140                11.1465
 Frc consts  --     0.0000                 0.0000                 0.0000
 IR Inten    --     9.0117                 0.3873                 6.8013
 Raman Activ --     0.0000                 0.0000                 0.0000
 Depolar     --     0.0000                 0.0000                 0.0000
 Atom AN      X      Y      Z        X      Y      Z        X      Y      Z
   1   6    -0.01  -0.00   0.07    -0.07  -0.04  -0.00    -0.00   0.01  -0.06
   2   6    -0.01   0.01  -0.04    -0.03   0.01   0.01    -0.01   0.00   0.07
   3   6    -0.00   0.01  -0.06     0.03  -0.02   0.00    -0.00  -0.00   0.11
   4   6     0.00   0.01  -0.11     0.07  -0.01   0.01    -0.00  -0.00   0.17
   5   6     0.00   0.01  -0.03     0.04   0.01   0.01    -0.00   0.00   0.11
   6   6    -0.00   0.00   0.03    -0.03  -0.02   0.00     0.00   0.00   0.06
   7   6    -0.01  -0.00   0.13    -0.09   0.04  -0.00     0.01   0.01  -0.07
   8   6    -0.01  -0.00   0.12    -0.05   0.11   0.01     0.01   0.01  -0.08
   9   7    -0.00   0.01   0.03     0.03   0.09   0.01     0.00   0.00   0.03
  10   6    -0.01  -0.00   0.15    -0.06   0.13   0.01     0.01   0.02  -0.16
  11   6    -0.01  -0.00   0.07    -0.08   0.09   0.00     0.01   0.01  -0.10
  12   6    -0.00  -0.00   0.02    -0.05   0.03  -0.00     0.01   0.01  -0.09
  13   6     0.00   0.01  -0.10    -0.10  -0.01  -0.00     0.00  -0.01   0.04
  14   6    -0.00   0.01  -0.10    -0.16   0.02  -0.00    -0.00  -0.01   0.09
  15   7    -0.01   0.00  -0.01    -0.16   0.09   0.00    -0.00   0.00   0.01
  16   6    -0.00   0.01  -0.14    -0.19   0.00  -0.00    -0.01  -0.02   0.15
  17   6    -0.01   0.00  -0.07    -0.16  -0.01  -0.01    -0.01  -0.01   0.08
  18   6    -0.01   0.00  -0.03    -0.10   0.02  -0.00    -0.01  -0.01   0.03
  19   6    -0.01  -0.01   0.08    -0.04  -0.04  -0.01    -0.00   0.01  -0.10
  20   6    -0.01  -0.01   0.09    -0.08  -0.10  -0.01    -0.00   0.01  -0.10
  21   7    -0.01  -0.01   0.01    -0.16  -0.09  -0.01    -0.01  -0.00   0.01
  22   6    -0.02  -0.02   0.15    -0.06  -0.13  -0.02     0.00   0.02  -0.16
  23   6    -0.01  -0.01   0.09    -0.04  -0.10  -0.01    -0.00   0.01  -0.08
  24   7    -0.00  -0.00   0.01     0.02  -0.09  -0.00    -0.00   0.00   0.03
  25   1    -0.01  -0.00   0.04    -0.04  -0.01  -0.00    -0.00   0.01  -0.04
  26   1    -0.00   0.00  -0.02    -0.01   0.02   0.00    -0.00   0.00   0.04
  27   1    -0.00   0.00   0.00    -0.01  -0.02  -0.00     0.00   0.00   0.03
  28   1    -0.00  -0.00   0.06    -0.04   0.01  -0.00     0.00   0.01  -0.04
  29   1     0.00   0.00   0.00     0.03   0.05   0.01     0.00   0.00   0.01
  30   1    -0.00  -0.00   0.06    -0.02   0.04   0.00     0.01   0.01  -0.07
  31   1    -0.00  -0.00   0.02    -0.00   0.01   0.00     0.00   0.00  -0.05
  32   1     0.00   0.00  -0.05    -0.03  -0.02  -0.00    -0.00  -0.00   0.03
  33   1    -0.00   0.00  -0.06    -0.05  -0.00  -0.00    -0.00  -0.01   0.06
  34   1    -0.00   0.00  -0.02    -0.02   0.02   0.00    -0.00  -0.00   0.02
  35   1    -0.00  -0.00   0.04     0.01  -0.01  -0.00    -0.00   0.00  -0.05
  36   1    -0.00  -0.00   0.00    -0.07  -0.05  -0.01    -0.00  -0.00   0.00
  37   1    -0.01  -0.01   0.06    -0.02  -0.04  -0.00     0.00   0.01  -0.07
  38   6    -0.01  -0.01  -0.07    -0.07  -0.04   0.01    -0.01  -0.01  -0.06
  39   6    -0.00   0.00   0.04    -0.03   0.01  -0.01     0.00   0.01   0.07
  40   6     0.00   0.00   0.06     0.03  -0.02  -0.01     0.01   0.01   0.11
  41   6     0.00   0.01   0.11     0.07  -0.01  -0.02     0.01   0.02   0.16
  42   6    -0.00   0.00   0.03     0.04   0.01  -0.01     0.01   0.01   0.11
  43   6    -0.01  -0.01  -0.03    -0.03  -0.02  -0.00     0.00   0.01   0.06
  44   6    -0.02  -0.01  -0.13    -0.08   0.04   0.01    -0.00  -0.00  -0.07
  45   6    -0.01  -0.00  -0.12    -0.05   0.11  -0.00    -0.00   0.00  -0.08
  46   7    -0.00   0.00  -0.03     0.03   0.10  -0.01     0.00   0.01   0.03
  47   6    -0.02  -0.01  -0.15    -0.06   0.13   0.00    -0.01  -0.01  -0.16
  48   6    -0.01   0.00  -0.06    -0.08   0.09   0.00    -0.01  -0.00  -0.10
  49   6    -0.01   0.00  -0.02    -0.05   0.03   0.00    -0.00  -0.01  -0.10
  50   6    -0.00   0.01   0.10    -0.10  -0.01   0.00     0.00   0.00   0.04
  51   6    -0.01   0.01   0.09    -0.16   0.02  -0.00     0.00   0.01   0.09
  52   7    -0.01   0.01   0.01    -0.16   0.09  -0.00    -0.00   0.01   0.01
  53   6    -0.01   0.01   0.14    -0.19   0.00  -0.00     0.00   0.01   0.15
  54   6    -0.01   0.01   0.07    -0.16  -0.01   0.00    -0.00   0.01   0.09
  55   6    -0.00   0.00   0.03    -0.10   0.02   0.00    -0.00   0.00   0.03
  56   6    -0.01  -0.01  -0.07    -0.04  -0.04   0.01    -0.01  -0.01  -0.09
  57   6    -0.01  -0.02  -0.09    -0.08  -0.10   0.02    -0.01  -0.01  -0.10
  58   7    -0.01  -0.01  -0.01    -0.16  -0.09   0.02    -0.01  -0.00   0.01
  59   6    -0.01  -0.02  -0.15    -0.06  -0.13   0.03    -0.01  -0.02  -0.16
  60   6    -0.01  -0.02  -0.09    -0.04  -0.10   0.02    -0.01  -0.01  -0.08
  61   7    -0.00  -0.01  -0.01     0.02  -0.09   0.01     0.00   0.00   0.03
  62   1    -0.00  -0.00  -0.04    -0.04  -0.01   0.00    -0.00  -0.00  -0.04
  63   1    -0.00   0.00   0.02    -0.01   0.02  -0.01     0.00   0.00   0.03
  64   1    -0.00  -0.00  -0.00    -0.01  -0.02   0.00     0.00   0.00   0.03
  65   1    -0.01  -0.00  -0.06    -0.04   0.01   0.00    -0.00  -0.00  -0.04
  66   1     0.00   0.00  -0.00     0.03   0.05  -0.01     0.00   0.00   0.01
  67   1    -0.01  -0.00  -0.06    -0.02   0.04   0.00    -0.00  -0.00  -0.07
  68   1    -0.00  -0.00  -0.02    -0.00   0.01   0.00    -0.00  -0.00  -0.05
  69   1     0.00   0.00   0.05    -0.03  -0.02  -0.00     0.00   0.00   0.03
  70   1    -0.00   0.01   0.06    -0.05  -0.00  -0.00     0.00   0.01   0.06
  71   1    -0.00   0.00   0.02    -0.03   0.02  -0.00     0.00   0.00   0.02
  72   1    -0.00  -0.00  -0.04     0.01  -0.01   0.00    -0.00  -0.01  -0.05
  73   1    -0.00  -0.00  -0.00    -0.07  -0.05   0.01    -0.00  -0.00   0.00
  74   1    -0.00  -0.01  -0.06    -0.02  -0.04   0.01    -0.00  -0.01  -0.07
  75   6     0.00   0.02  -0.19     0.07  -0.00   0.01    -0.00  -0.01   0.18
  76   6     0.01   0.02  -0.24     0.07   0.01   0.02    -0.00  -0.03   0.13
  77   6     0.01   0.01  -0.24     0.08   0.01   0.02    -0.00  -0.04   0.04
  78   6     0.01   0.00  -0.18     0.08   0.01   0.02    -0.00  -0.04  -0.08
  79   6     0.01  -0.00  -0.09     0.08   0.00   0.01    -0.01  -0.04  -0.16
  80   6     0.01  -0.01   0.02     0.08   0.00   0.00    -0.01  -0.02  -0.19
  81   6     0.01   0.01  -0.02     0.08  -0.00   0.00     0.01  -0.03  -0.19
  82   6     0.01   0.02   0.09     0.08   0.00  -0.01     0.01  -0.03  -0.15
  83   6     0.01   0.02   0.17     0.08   0.00  -0.02     0.01  -0.02  -0.07
  84   6     0.01   0.03   0.23     0.08   0.00  -0.03     0.01  -0.01   0.05
  85   6     0.01   0.02   0.23     0.07   0.00  -0.03     0.01   0.01   0.13
  86   6     0.01   0.01   0.18     0.07  -0.00  -0.03     0.01   0.02   0.18
  87   6     0.02   0.01   0.13     0.09   0.00  -0.01    -0.00   0.02   0.10
  88   6     0.02   0.00   0.14     0.09  -0.00  -0.01    -0.00   0.00  -0.04
  89   6     0.01   0.00   0.09     0.09   0.00  -0.01    -0.00  -0.01  -0.10
  90   6     0.01  -0.00   0.08     0.08   0.00  -0.00    -0.01  -0.01  -0.16
  91   6     0.01   0.00   0.09     0.09  -0.00  -0.01    -0.00  -0.01  -0.10
  92   6     0.00   0.00   0.13     0.09  -0.00  -0.01     0.00   0.01  -0.02
  93   6     0.00   0.01   0.12     0.09  -0.00  -0.01     0.00   0.02   0.11
  94   6     0.00   0.00   0.07     0.09  -0.00  -0.01     0.00   0.01   0.10
  95   7     0.01   0.00   0.07     0.10  -0.00  -0.00    -0.00  -0.00  -0.03
  96   6     0.00  -0.00   0.00     0.09  -0.00  -0.00     0.00   0.02   0.17
  97   6     0.00  -0.01  -0.06     0.09   0.00   0.00     0.00   0.01   0.09
  98   6     0.00  -0.01  -0.13     0.09   0.00   0.01     0.00   0.01   0.09
  99   6     0.01  -0.01  -0.14     0.09   0.00   0.01     0.01  -0.01  -0.04
 100   6     0.01  -0.01  -0.09     0.09   0.00   0.01     0.01  -0.01  -0.10
 101   7     0.01  -0.01  -0.06     0.10   0.00   0.01     0.01  -0.01  -0.03
 102   6     0.01  -0.00  -0.08     0.08   0.00   0.01     0.01  -0.02  -0.16
 103   6     0.02  -0.01  -0.09     0.09  -0.00   0.01     0.01  -0.01  -0.10
 104   6     0.02  -0.01  -0.13     0.09   0.00   0.01     0.00  -0.00  -0.02
 105   6     0.02  -0.01  -0.12     0.09  -0.00   0.01    -0.01   0.02   0.10
 106   6     0.02  -0.01  -0.06     0.09  -0.00   0.01    -0.00   0.02   0.10
 107   7     0.02  -0.01  -0.07     0.10  -0.00   0.01     0.00   0.00  -0.03
 108   6     0.02  -0.00  -0.00     0.09  -0.00  -0.00    -0.00   0.03   0.17
 109   6     0.02   0.00   0.06     0.09   0.00  -0.01    -0.00   0.02   0.09
 110   7     0.01  -0.00   0.06     0.10   0.00  -0.00    -0.01   0.01  -0.03
 111   1     0.01   0.00   0.04     0.03  -0.00  -0.01    -0.00   0.01   0.05
 112   1     0.00   0.00   0.05     0.03  -0.00  -0.00    -0.00  -0.00  -0.02
 113   1     0.00   0.00   0.05     0.03   0.00  -0.00     0.00   0.00  -0.02
 114   1    -0.00   0.00   0.04     0.03  -0.00  -0.00     0.00   0.01   0.06
 115   1     0.00  -0.00   0.01     0.03  -0.00   0.00    -0.00  -0.00  -0.01
 116   1    -0.00  -0.00   0.00     0.03  -0.00  -0.00     0.00   0.01   0.08
 117   1     0.00  -0.00  -0.04     0.03   0.00   0.00     0.00   0.01   0.05
 118   1     0.00  -0.00  -0.05     0.03  -0.00   0.01     0.00  -0.00  -0.03
 119   1     0.01  -0.00  -0.05     0.03   0.00   0.00     0.00  -0.00  -0.02
 120   1     0.01  -0.00  -0.04     0.03  -0.00   0.00    -0.00   0.01   0.06
 121   1     0.00  -0.00  -0.01     0.03  -0.00   0.00     0.00   0.00  -0.01
 122   1     0.01  -0.00   0.00     0.03  -0.00  -0.00    -0.00   0.01   0.08
                     19                     20                     21
                        a                      a                      a 
 Frequencies --    66.4732                73.9546                84.7029
 Red. masses --    11.8164                11.2039                11.2433
 Frc consts  --     0.0000                 0.0000                 0.0000
 IR Inten    --     0.0177                19.8167                24.8143
 Raman Activ --     0.0000                 0.0000                 0.0000
 Depolar     --     0.0000                 0.0000                 0.0000
 Atom AN      X      Y      Z        X      Y      Z        X      Y      Z
   1   6     0.02   0.04   0.00     0.00  -0.01   0.03     0.01  -0.01  -0.02
   2   6    -0.03  -0.01  -0.00     0.01  -0.01  -0.09     0.00  -0.02   0.05
   3   6    -0.09   0.02  -0.00     0.00   0.00  -0.13    -0.00  -0.02   0.09
   4   6    -0.13   0.01  -0.01     0.00   0.00  -0.16    -0.00  -0.02   0.09
   5   6    -0.10  -0.01  -0.01     0.00  -0.00  -0.13    -0.00  -0.02   0.09
   6   6    -0.02   0.02   0.00    -0.00  -0.00  -0.08    -0.01  -0.02   0.04
   7   6     0.03  -0.04  -0.00    -0.01  -0.01   0.03    -0.01  -0.01  -0.02
   8   6    -0.00  -0.11  -0.01    -0.01  -0.01   0.04    -0.01  -0.01   0.00
   9   7    -0.09  -0.10  -0.01    -0.00  -0.00  -0.08    -0.00  -0.02   0.10
  10   6     0.01  -0.14  -0.01    -0.01  -0.02   0.14    -0.00   0.00  -0.08
  11   6     0.03  -0.10  -0.01    -0.01  -0.01   0.09    -0.00   0.00  -0.06
  12   6    -0.00  -0.04  -0.00    -0.01  -0.01   0.14    -0.00   0.01  -0.15
  13   6     0.05   0.01   0.00    -0.00   0.00   0.00    -0.00   0.01  -0.05
  14   6     0.11  -0.02   0.00     0.01   0.01  -0.09    -0.01  -0.00   0.08
  15   7     0.11  -0.10  -0.00     0.00   0.00  -0.04    -0.01  -0.01   0.08
  16   6     0.15  -0.00   0.01     0.01   0.02  -0.16    -0.01  -0.01   0.13
  17   6     0.12   0.01   0.01     0.01   0.01  -0.09    -0.00  -0.00   0.08
  18   6     0.05  -0.02   0.00     0.01   0.00   0.00     0.01   0.01  -0.04
  19   6    -0.01   0.04   0.00     0.00  -0.01   0.13     0.01   0.01  -0.14
  20   6     0.02   0.11   0.01     0.00  -0.01   0.10     0.01   0.00  -0.06
  21   7     0.12   0.10   0.01     0.01   0.01  -0.04    -0.00  -0.01   0.08
  22   6     0.01   0.14   0.01     0.00  -0.01   0.15     0.01   0.00  -0.09
  23   6    -0.01   0.10   0.01     0.00  -0.01   0.04     0.01  -0.01  -0.00
  24   7    -0.09   0.10   0.00     0.00  -0.00  -0.07    -0.00  -0.02   0.09
  25   1     0.02   0.01   0.00     0.00  -0.01   0.03     0.00  -0.00  -0.02
  26   1    -0.01  -0.02  -0.00     0.00  -0.00  -0.04     0.00  -0.01   0.02
  27   1    -0.00   0.02   0.00    -0.00  -0.00  -0.03    -0.00  -0.01   0.01
  28   1     0.03  -0.01   0.00    -0.00  -0.00   0.03    -0.00  -0.00  -0.02
  29   1    -0.05  -0.05  -0.01    -0.00  -0.00  -0.02    -0.00  -0.00   0.03
  30   1     0.00  -0.04  -0.00    -0.01  -0.01   0.07    -0.00   0.00  -0.05
  31   1    -0.02  -0.01  -0.00    -0.01  -0.01   0.07     0.00   0.01  -0.08
  32   1     0.01   0.02   0.00    -0.00   0.00  -0.01    -0.00   0.00  -0.02
  33   1     0.04   0.00   0.00     0.00   0.01  -0.06    -0.00  -0.00   0.04
  34   1     0.01  -0.03  -0.00     0.00   0.00  -0.01     0.00   0.00  -0.02
  35   1    -0.02   0.01  -0.00    -0.00  -0.00   0.07     0.01   0.01  -0.07
  36   1     0.06   0.05   0.01     0.00   0.00  -0.02    -0.00  -0.00   0.04
  37   1     0.01   0.04   0.00    -0.00  -0.01   0.07     0.01   0.00  -0.05
  38   6    -0.02  -0.04   0.00    -0.00  -0.00  -0.03     0.01  -0.01  -0.02
  39   6     0.03   0.01  -0.01     0.00   0.01   0.09     0.00  -0.01   0.04
  40   6     0.09  -0.02  -0.01     0.01   0.01   0.13     0.00  -0.00   0.09
  41   6     0.13  -0.01  -0.01     0.01   0.02   0.16     0.00  -0.01   0.08
  42   6     0.10   0.01  -0.01     0.01   0.01   0.13     0.00  -0.01   0.09
  43   6     0.02  -0.02  -0.00     0.00   0.01   0.08    -0.00  -0.01   0.04
  44   6    -0.03   0.04  -0.00    -0.00   0.00  -0.03    -0.01  -0.01  -0.02
  45   6     0.00   0.11  -0.01    -0.00  -0.00  -0.04    -0.01  -0.01   0.00
  46   7     0.09   0.10  -0.01     0.00   0.01   0.09     0.00  -0.00   0.09
  47   6    -0.01   0.14  -0.01    -0.01  -0.01  -0.15    -0.01  -0.01  -0.07
  48   6    -0.03   0.10  -0.00    -0.00  -0.01  -0.10    -0.01  -0.01  -0.05
  49   6     0.00   0.04  -0.00    -0.01  -0.01  -0.15    -0.02  -0.01  -0.14
  50   6    -0.05  -0.01   0.00     0.00  -0.00  -0.00    -0.01   0.00  -0.04
  51   6    -0.11   0.02   0.00     0.01   0.01   0.10     0.00   0.01   0.08
  52   7    -0.11   0.10  -0.00     0.00   0.01   0.05     0.00   0.01   0.08
  53   6    -0.15   0.00   0.00     0.01   0.01   0.17     0.01   0.01   0.12
  54   6    -0.12  -0.01   0.00     0.01   0.01   0.10     0.01   0.01   0.08
  55   6    -0.05   0.02  -0.00     0.00  -0.00   0.00     0.01   0.00  -0.04
  56   6     0.01  -0.04   0.00    -0.01  -0.01  -0.14     0.00  -0.01  -0.13
  57   6    -0.02  -0.11   0.01    -0.01  -0.01  -0.10     0.00  -0.00  -0.05
  58   7    -0.12  -0.10   0.01     0.00   0.00   0.04     0.01   0.01   0.08
  59   6    -0.01  -0.14   0.02    -0.01  -0.02  -0.15     0.00  -0.01  -0.08
  60   6     0.01  -0.10   0.01    -0.00  -0.00  -0.04     0.00  -0.01   0.00
  61   7     0.09  -0.10   0.00     0.00   0.01   0.08     0.00  -0.00   0.09
  62   1    -0.02  -0.01   0.00    -0.00  -0.00  -0.03     0.00  -0.01  -0.02
  63   1     0.01   0.02  -0.00     0.00   0.00   0.04     0.00  -0.00   0.01
  64   1     0.00  -0.02   0.00     0.00   0.00   0.03    -0.00  -0.00   0.01
  65   1    -0.03   0.01   0.00    -0.00  -0.00  -0.03    -0.00  -0.01  -0.02
  66   1     0.05   0.05  -0.01     0.00   0.00   0.02     0.00  -0.00   0.03
  67   1    -0.00   0.04  -0.00    -0.00  -0.01  -0.08    -0.01  -0.01  -0.05
  68   1     0.02   0.01  -0.00    -0.00  -0.01  -0.08    -0.01  -0.01  -0.07
  69   1    -0.01  -0.02   0.00     0.00   0.00   0.01    -0.00   0.00  -0.02
  70   1    -0.04  -0.00   0.00     0.00   0.01   0.06     0.00   0.01   0.04
  71   1    -0.01   0.02  -0.00     0.00   0.00   0.01     0.00  -0.00  -0.02
  72   1     0.02  -0.01   0.00    -0.00  -0.01  -0.07    -0.00  -0.01  -0.07
  73   1    -0.06  -0.05   0.01     0.00   0.00   0.02     0.00   0.00   0.04
  74   1    -0.01  -0.04   0.01    -0.00  -0.01  -0.08     0.00  -0.01  -0.05
  75   6    -0.12  -0.00  -0.01     0.00   0.00  -0.09    -0.00  -0.00  -0.01
  76   6    -0.12  -0.01  -0.01    -0.00   0.03   0.05    -0.00   0.06  -0.13
  77   6    -0.12  -0.02  -0.00    -0.00   0.04   0.16    -0.00   0.09  -0.18
  78   6    -0.12  -0.01  -0.00    -0.00   0.04   0.23    -0.00   0.09  -0.16
  79   6    -0.12  -0.01   0.00    -0.00   0.04   0.21     0.00   0.07  -0.07
  80   6    -0.12   0.00   0.01    -0.00   0.01   0.11     0.00   0.01   0.07
  81   6     0.12   0.00   0.01     0.00  -0.01  -0.11    -0.00   0.02   0.07
  82   6     0.12   0.01   0.01     0.00  -0.03  -0.21    -0.00   0.06  -0.07
  83   6     0.12   0.02   0.00     0.00  -0.03  -0.23    -0.00   0.07  -0.15
  84   6     0.12   0.02  -0.00     0.00  -0.02  -0.16    -0.00   0.06  -0.18
  85   6     0.12   0.01  -0.01     0.00  -0.01  -0.05    -0.00   0.04  -0.13
  86   6     0.12   0.00  -0.01     0.01   0.01   0.10    -0.00  -0.00  -0.01
  87   6     0.01   0.04  -0.01     0.00  -0.02  -0.13     0.00  -0.04  -0.16
  88   6    -0.04  -0.01   0.00    -0.00  -0.02  -0.11     0.00  -0.02  -0.04
  89   6    -0.09   0.02   0.00    -0.00  -0.01  -0.03     0.00   0.00   0.14
  90   6    -0.12   0.01   0.01    -0.00  -0.00   0.02     0.00   0.01   0.16
  91   6    -0.10  -0.01   0.01    -0.00  -0.01  -0.03     0.01   0.00   0.14
  92   6    -0.03   0.02  -0.00    -0.00  -0.02  -0.10     0.00  -0.03  -0.04
  93   6     0.02  -0.04  -0.00    -0.00  -0.02  -0.12    -0.00  -0.04  -0.15
  94   6    -0.01  -0.10   0.01    -0.00  -0.01  -0.06     0.00  -0.02  -0.03
  95   7    -0.09  -0.09   0.01    -0.00  -0.01  -0.03     0.00   0.01   0.18
  96   6     0.00  -0.13   0.01    -0.00  -0.00  -0.00    -0.00  -0.03  -0.11
  97   6     0.02  -0.09   0.01    -0.00   0.01   0.06    -0.00  -0.01  -0.02
  98   6    -0.01  -0.04  -0.00    -0.01   0.02   0.13    -0.00  -0.03  -0.15
  99   6     0.04   0.01   0.00    -0.00   0.02   0.11    -0.00  -0.02  -0.04
 100   6     0.09  -0.02   0.01    -0.00   0.00   0.03    -0.01   0.01   0.14
 101   7     0.09  -0.08   0.02    -0.00   0.00   0.02    -0.01   0.01   0.17
 102   6     0.12  -0.00   0.01    -0.00  -0.00  -0.02    -0.01   0.01   0.16
 103   6     0.10   0.01   0.01    -0.00   0.00   0.03    -0.00   0.01   0.13
 104   6     0.03  -0.02   0.00    -0.00   0.01   0.10     0.00  -0.01  -0.04
 105   6    -0.02   0.04  -0.01    -0.00   0.02   0.12     0.01  -0.03  -0.15
 106   6     0.01   0.10  -0.02    -0.00   0.01   0.06     0.00  -0.02  -0.03
 107   7     0.09   0.09  -0.01    -0.00   0.00   0.03    -0.00   0.01   0.17
 108   6    -0.00   0.13  -0.03    -0.00   0.00   0.01     0.00  -0.03  -0.11
 109   6    -0.02   0.09  -0.02    -0.00  -0.01  -0.06     0.00  -0.02  -0.02
 110   7    -0.09   0.09  -0.01    -0.00  -0.00  -0.02     0.00   0.00   0.17
 111   1     0.02   0.01  -0.00     0.00  -0.01  -0.05     0.00  -0.02  -0.09
 112   1    -0.01  -0.02   0.00    -0.00  -0.01  -0.04     0.00  -0.01  -0.03
[...]
 IR Inten    --     2.2008                 0.0466                10.2511
 Raman Activ --     0.0000                 0.0000                 0.0000
 Depolar     --     0.0000                 0.0000                 0.0000
 Atom AN      X      Y      Z        X      Y      Z        X      Y      Z
   1   6     0.00   0.00   0.00    -0.00  -0.00  -0.00     0.00  -0.00   0.00
   2   6     0.00   0.00   0.00    -0.00  -0.00  -0.00     0.00   0.00   0.00
   3   6    -0.00   0.00  -0.00     0.00   0.00  -0.00    -0.00   0.00   0.00
   4   6     0.00  -0.00   0.00     0.00   0.00   0.00    -0.00  -0.00  -0.00
   5   6    -0.00  -0.00   0.00     0.00  -0.00   0.00     0.00  -0.00  -0.00
   6   6     0.00  -0.00   0.00    -0.00   0.00   0.00    -0.00   0.00   0.00
   7   6    -0.00  -0.00  -0.00    -0.00   0.00   0.00    -0.00   0.00   0.00
   8   6     0.00  -0.00  -0.00     0.00   0.00   0.00     0.00  -0.00   0.00
   9   7     0.00  -0.00  -0.00    -0.00   0.00  -0.00     0.17  -0.19  -0.01
  10   6    -0.00  -0.00   0.00    -0.00   0.00  -0.00     0.00  -0.00   0.00
  11   6    -0.00   0.00   0.00     0.00  -0.00  -0.00    -0.00   0.00   0.00
  12   6    -0.00   0.00   0.00     0.00   0.00   0.00    -0.00  -0.00  -0.00
  13   6     0.00  -0.00   0.00     0.00   0.00   0.00    -0.00  -0.00  -0.00
  14   6    -0.00   0.00   0.00     0.00  -0.00   0.00    -0.00   0.00   0.00
  15   7     0.00  -0.00   0.00    -0.00   0.00  -0.00    -0.00  -0.00  -0.00
  16   6     0.00  -0.00   0.00     0.00   0.00   0.00     0.00  -0.00  -0.00
  17   6     0.00  -0.00   0.00    -0.00  -0.00   0.00     0.00  -0.00   0.00
  18   6     0.00   0.00   0.00     0.00  -0.00   0.00    -0.00   0.00   0.00
  19   6    -0.00  -0.00  -0.00     0.00  -0.00  -0.00    -0.00   0.00  -0.00
  20   6     0.00  -0.00  -0.00     0.00   0.00   0.00     0.00  -0.00  -0.00
  21   7     0.00  -0.00  -0.00    -0.00   0.00   0.00     0.04  -0.05  -0.00
  22   6     0.00  -0.00   0.00    -0.00  -0.00  -0.00     0.00  -0.00  -0.00
  23   6    -0.00   0.00   0.00     0.00  -0.00   0.00    -0.00  -0.00  -0.00
  24   7     0.00  -0.00  -0.00     0.00   0.00   0.00     0.00   0.00   0.00
  25   1    -0.00  -0.00  -0.00     0.00   0.00   0.00     0.00   0.00   0.00
  26   1     0.00  -0.00   0.00     0.00   0.00   0.00     0.00   0.00   0.00
  27   1     0.00  -0.00   0.00     0.00  -0.00   0.00    -0.00   0.00  -0.00
  28   1    -0.00   0.00   0.00     0.00  -0.00  -0.00    -0.00   0.00   0.00
  29   1    -0.00   0.00   0.00     0.00  -0.00  -0.00    -0.63   0.69   0.02
  30   1     0.00   0.00   0.00    -0.00  -0.00  -0.00     0.00   0.00   0.00
  31   1    -0.00  -0.00  -0.00    -0.00  -0.00  -0.00     0.00   0.00   0.00
  32   1    -0.00  -0.00   0.00    -0.00  -0.00  -0.00     0.00  -0.00  -0.00
  33   1    -0.00  -0.00   0.00    -0.00   0.00  -0.00    -0.00  -0.00  -0.00
  34   1    -0.00   0.00   0.00    -0.00   0.00  -0.00    -0.00   0.00  -0.00
  35   1    -0.00   0.00   0.00    -0.00   0.00   0.00    -0.00   0.00   0.00
  36   1    -0.00   0.00   0.00     0.00  -0.00  -0.00    -0.15   0.17   0.01
  37   1     0.00   0.00   0.00    -0.00   0.00   0.00     0.00   0.00   0.00
  38   6     0.00   0.00  -0.00     0.00   0.00  -0.00    -0.00  -0.00   0.00
  39   6    -0.00   0.00   0.00     0.00   0.00  -0.00    -0.00  -0.00   0.00
  40   6    -0.00   0.00   0.00    -0.00  -0.00   0.00     0.00  -0.00   0.00
  41   6     0.00   0.00  -0.00    -0.00  -0.00   0.00     0.00   0.00  -0.00
  42   6    -0.00  -0.00   0.00    -0.00   0.00  -0.00    -0.00   0.00  -0.00
  43   6    -0.00   0.00   0.00     0.00  -0.00   0.00     0.00  -0.00   0.00
  44   6    -0.00  -0.00   0.00     0.00  -0.00   0.00     0.00  -0.00  -0.00
  45   6     0.00  -0.00   0.00    -0.00  -0.00   0.00    -0.00   0.00   0.00
  46   7     0.00  -0.00   0.00     0.00  -0.00   0.00    -0.01   0.02  -0.00
  47   6    -0.00  -0.00  -0.00     0.00  -0.00   0.00    -0.00   0.00   0.00
  48   6    -0.00   0.00  -0.00    -0.00   0.00  -0.00     0.00  -0.00   0.00
  49   6    -0.00   0.00  -0.00    -0.00  -0.00   0.00     0.00   0.00  -0.00
  50   6     0.00  -0.00  -0.00    -0.00  -0.00   0.00     0.00   0.00  -0.00
  51   6    -0.00   0.00  -0.00    -0.00   0.00   0.00     0.00  -0.00   0.00
  52   7     0.00  -0.00   0.00     0.00  -0.00   0.00     0.00   0.00  -0.00
  53   6     0.00  -0.00  -0.00     0.00  -0.00   0.00    -0.00   0.00  -0.00
  54   6     0.00  -0.00   0.00     0.00  -0.00  -0.00    -0.00   0.00   0.00
  55   6     0.00   0.00  -0.00    -0.00   0.00  -0.00     0.00  -0.00   0.00
  56   6    -0.00  -0.00   0.00    -0.00   0.00  -0.00     0.00  -0.00  -0.00
  57   6     0.00  -0.00   0.00    -0.00  -0.00   0.00    -0.00   0.00  -0.00
  58   7     0.00  -0.00   0.00     0.00  -0.00   0.00    -0.00   0.00  -0.00
  59   6     0.00  -0.00   0.00     0.00   0.00  -0.00    -0.00   0.00  -0.00
  60   6    -0.00   0.00  -0.00    -0.00   0.00  -0.00     0.00   0.00  -0.00
  61   7     0.00  -0.00   0.00    -0.00  -0.00   0.00    -0.00  -0.00   0.00
  62   1    -0.00  -0.00   0.00    -0.00  -0.00   0.00    -0.00  -0.00   0.00
  63   1     0.00   0.00  -0.00    -0.00  -0.00   0.00    -0.00  -0.00   0.00
  64   1     0.00  -0.00  -0.00    -0.00   0.00   0.00     0.00  -0.00   0.00
  65   1    -0.00   0.00   0.00    -0.00   0.00  -0.00     0.00  -0.00   0.00
  66   1    -0.00   0.00  -0.00    -0.00   0.00  -0.00     0.05  -0.06   0.00
  67   1     0.00   0.00  -0.00     0.00   0.00  -0.00    -0.00  -0.00   0.00
  68   1    -0.00  -0.00   0.00     0.00   0.00  -0.00    -0.00  -0.00   0.00
  69   1    -0.00  -0.00   0.00     0.00   0.00  -0.00    -0.00   0.00  -0.00
  70   1    -0.00  -0.00   0.00     0.00  -0.00  -0.00     0.00   0.00  -0.00
  71   1    -0.00   0.00   0.00     0.00  -0.00  -0.00     0.00  -0.00  -0.00
  72   1    -0.00   0.00  -0.00     0.00  -0.00   0.00     0.00  -0.00   0.00
  73   1    -0.00   0.00  -0.00    -0.00   0.00  -0.00     0.01  -0.01   0.00
  74   1     0.00   0.00  -0.00     0.00  -0.00   0.00    -0.00  -0.00   0.00
  75   6    -0.00   0.00  -0.00    -0.00   0.00  -0.00     0.00  -0.00   0.00
  76   6     0.00  -0.00   0.00     0.00  -0.00   0.00    -0.00   0.00   0.00
  77   6    -0.00   0.00  -0.00    -0.00   0.00   0.00     0.00   0.00  -0.00
  78   6     0.00   0.00  -0.00     0.00   0.00  -0.00    -0.00   0.00   0.00
  79   6    -0.00   0.00   0.00    -0.00   0.00   0.00     0.00  -0.00  -0.00
  80   6     0.00  -0.00   0.00     0.00  -0.00   0.00    -0.00   0.00  -0.00
  81   6     0.00  -0.00   0.00    -0.00   0.00  -0.00    -0.00  -0.00   0.00
  82   6    -0.00   0.00  -0.00     0.00  -0.00   0.00    -0.00   0.00  -0.00
  83   6     0.00   0.00  -0.00    -0.00  -0.00   0.00     0.00  -0.00   0.00
  84   6    -0.00   0.00   0.00     0.00  -0.00   0.00    -0.00  -0.00  -0.00
  85   6     0.00  -0.00  -0.00    -0.00   0.00   0.00     0.00  -0.00  -0.00
  86   6    -0.00   0.00   0.00     0.00  -0.00  -0.00    -0.00   0.00   0.00
  87   6     0.00  -0.00   0.00     0.00   0.00   0.00    -0.00  -0.00   0.00
  88   6    -0.00   0.00  -0.00     0.00   0.00  -0.00    -0.00  -0.00   0.00
  89   6    -0.00   0.00  -0.00    -0.00   0.00  -0.00    -0.00   0.00  -0.00
  90   6    -0.00  -0.00   0.00    -0.00  -0.00   0.00     0.00   0.00  -0.00
  91   6     0.00  -0.00   0.00     0.00  -0.00   0.00    -0.00  -0.00   0.00
  92   6    -0.00   0.00  -0.00    -0.00   0.00  -0.00    -0.00   0.00  -0.00
  93   6    -0.00   0.00  -0.00    -0.00   0.00  -0.00    -0.00   0.00  -0.00
  94   6     0.00  -0.00   0.00     0.00   0.00  -0.00     0.00  -0.00   0.00
  95   7     0.10  -0.12   0.02     0.14  -0.16   0.02    -0.00   0.00  -0.00
  96   6     0.00  -0.00   0.00     0.00  -0.00   0.00    -0.00   0.00  -0.00
  97   6    -0.00   0.00   0.00    -0.00   0.00  -0.00     0.00  -0.00  -0.00
  98   6     0.00  -0.00   0.00    -0.00  -0.00   0.00     0.00   0.00  -0.00
  99   6    -0.00   0.00  -0.00    -0.00  -0.00   0.00     0.00  -0.00   0.00
 100   6    -0.00   0.00  -0.00     0.00  -0.00   0.00     0.00  -0.00  -0.00
 101   7     0.00   0.00  -0.00    -0.00  -0.00   0.00    -0.00   0.00  -0.00
 102   6    -0.00  -0.00   0.00     0.00   0.00  -0.00     0.00  -0.00  -0.00
 103   6     0.00  -0.00   0.00    -0.00   0.00  -0.00     0.00   0.00  -0.00
 104   6    -0.00   0.00  -0.00     0.00  -0.00   0.00     0.00   0.00   0.00
 105   6    -0.00   0.00  -0.00     0.00  -0.00   0.00     0.00  -0.00   0.00
 106   6     0.00  -0.00   0.00    -0.00  -0.00   0.00    -0.00   0.00   0.00
 107   7     0.14  -0.16   0.02    -0.10   0.12  -0.02    -0.00   0.00  -0.00
 108   6     0.00  -0.00   0.00    -0.00  -0.00   0.00    -0.00  -0.00   0.00
 109   6    -0.00   0.00  -0.00     0.00  -0.00   0.00     0.00   0.00  -0.00
 110   7     0.00   0.00  -0.00     0.00   0.00  -0.00     0.00  -0.00   0.00
 111   1     0.00   0.00  -0.00     0.00   0.00  -0.00     0.00   0.00  -0.00
 112   1     0.00   0.00   0.00     0.00   0.00  -0.00     0.00   0.00  -0.00
 113   1    -0.00   0.00  -0.00     0.00  -0.00   0.00     0.00  -0.00   0.00
 114   1    -0.00   0.00  -0.00    -0.00   0.00  -0.00     0.00  -0.00   0.00
 115   1    -0.38   0.42  -0.06    -0.52   0.57  -0.09     0.00  -0.00   0.00
 116   1     0.00   0.00  -0.00     0.00   0.00  -0.00     0.00   0.00  -0.00
 117   1     0.00   0.00  -0.00    -0.00  -0.00   0.00    -0.00  -0.00   0.00
 118   1     0.00   0.00   0.00    -0.00  -0.00   0.00    -0.00  -0.00  -0.00
 119   1    -0.00   0.00  -0.00    -0.00   0.00  -0.00    -0.00   0.00  -0.00
 120   1    -0.00   0.00  -0.00    -0.00   0.00  -0.00    -0.00   0.00  -0.00
 121   1    -0.51   0.58  -0.09     0.38  -0.42   0.06     0.00  -0.00   0.00
 122   1     0.00   0.00  -0.00     0.00   0.00  -0.00     0.00   0.00  -0.00
                    358                    359                    360
                        a                      a                      a 
 Frequencies --  3348.7522              3356.8606              3356.8727
 Red. masses --     1.8928                 1.8871                 1.8871
 Frc consts  --     0.0000                 0.0000                 0.0000
 IR Inten    --    14.4227                 8.1404                 3.6009
 Raman Activ --     0.0000                 0.0000                 0.0000
 Depolar     --     0.0000                 0.0000                 0.0000
 Atom AN      X      Y      Z        X      Y      Z        X      Y      Z
   1   6    -0.00   0.00  -0.00     0.00   0.00   0.00    -0.00  -0.00  -0.00
   2   6    -0.00  -0.00  -0.00     0.00   0.00   0.00    -0.00  -0.00  -0.00
   3   6     0.00  -0.00  -0.00    -0.00   0.00  -0.00     0.00  -0.00   0.00
   4   6     0.00   0.00   0.00    -0.00   0.00   0.00     0.00  -0.00  -0.00
   5   6    -0.00   0.00   0.00    -0.00  -0.00  -0.00     0.00   0.00   0.00
   6   6     0.00  -0.00  -0.00    -0.00   0.00   0.00     0.00  -0.00  -0.00
   7   6     0.00  -0.00  -0.00    -0.00   0.00   0.00     0.00  -0.00  -0.00
   8   6    -0.00   0.00  -0.00     0.00   0.00   0.00    -0.00  -0.00  -0.00
   9   7    -0.01   0.02   0.00     0.04  -0.05  -0.00    -0.01   0.01   0.00
  10   6    -0.00   0.00  -0.00    -0.00   0.00   0.00     0.00  -0.00  -0.00
  11   6     0.00  -0.00  -0.00    -0.00   0.00   0.00     0.00  -0.00  -0.00
  12   6     0.00   0.00   0.00    -0.00  -0.00  -0.00     0.00   0.00   0.00
  13   6     0.00   0.00   0.00    -0.00  -0.00  -0.00     0.00   0.00   0.00
  14   6     0.00  -0.00  -0.00     0.00  -0.00   0.00    -0.00   0.00  -0.00
  15   7     0.00   0.00   0.00    -0.00  -0.00  -0.00     0.00   0.00   0.00
  16   6    -0.00   0.00   0.00    -0.00   0.00   0.00     0.00  -0.00  -0.00
  17   6    -0.00   0.00  -0.00    -0.00   0.00   0.00     0.00  -0.00  -0.00
  18   6     0.00  -0.00  -0.00     0.00  -0.00  -0.00    -0.00   0.00   0.00
  19   6     0.00  -0.00   0.00     0.00  -0.00   0.00    -0.00   0.00  -0.00
  20   6    -0.00   0.00   0.00    -0.00   0.00  -0.00     0.00  -0.00   0.00
  21   7    -0.00   0.00   0.00    -0.16   0.19   0.01     0.03  -0.04  -0.00
  22   6    -0.00   0.00   0.00    -0.00   0.00  -0.00     0.00  -0.00   0.00
  23   6     0.00   0.00   0.00     0.00  -0.00  -0.00    -0.00   0.00   0.00
  24   7    -0.00  -0.00  -0.00     0.00   0.00   0.00    -0.00  -0.00  -0.00
  25   1    -0.00  -0.00  -0.00     0.00   0.00   0.00    -0.00  -0.00  -0.00
  26   1    -0.00  -0.00  -0.00     0.00   0.00   0.00    -0.00  -0.00  -0.00
  27   1     0.00  -0.00   0.00     0.00  -0.00   0.00    -0.00   0.00  -0.00
  28   1     0.00  -0.00  -0.00     0.00  -0.00  -0.00    -0.00   0.00   0.00
  29   1     0.05  -0.06  -0.00    -0.15   0.17   0.01     0.03  -0.03  -0.00
  30   1    -0.00  -0.00  -0.00    -0.00  -0.00  -0.00     0.00   0.00   0.00
  31   1    -0.00  -0.00  -0.00    -0.00  -0.00  -0.00     0.00   0.00   0.00
  32   1     0.00   0.00   0.00    -0.00  -0.00  -0.00     0.00   0.00   0.00
  33   1     0.00   0.00   0.00     0.00   0.00   0.00    -0.00  -0.00  -0.00
  34   1     0.00  -0.00   0.00     0.00  -0.00   0.00    -0.00   0.00  -0.00
  35   1     0.00  -0.00  -0.00     0.00  -0.00  -0.00    -0.00   0.00   0.00
  36   1     0.01  -0.01  -0.00     0.62  -0.68  -0.02    -0.12   0.13   0.00
  37   1    -0.00  -0.00  -0.00    -0.00  -0.00  -0.00     0.00   0.00   0.00
  38   6    -0.00   0.00   0.00     0.00   0.00  -0.00     0.00   0.00  -0.00
  39   6    -0.00  -0.00   0.00     0.00   0.00  -0.00     0.00   0.00  -0.00
  40   6     0.00  -0.00   0.00    -0.00   0.00   0.00    -0.00   0.00   0.00
  41   6     0.00   0.00  -0.00    -0.00   0.00  -0.00    -0.00   0.00  -0.00
  42   6    -0.00   0.00  -0.00    -0.00  -0.00   0.00    -0.00  -0.00   0.00
  43   6     0.00  -0.00   0.00    -0.00   0.00  -0.00    -0.00   0.00  -0.00
  44   6     0.00  -0.00  -0.00    -0.00   0.00  -0.00    -0.00   0.00  -0.00
  45   6    -0.00   0.00   0.00     0.00   0.00  -0.00     0.00   0.00  -0.00
  46   7    -0.17   0.19  -0.01     0.01  -0.01   0.00     0.04  -0.05   0.00
  47   6    -0.00   0.00   0.00    -0.00   0.00  -0.00    -0.00   0.00  -0.00
  48   6     0.00  -0.00   0.00    -0.00   0.00  -0.00    -0.00   0.00  -0.00
  49   6     0.00   0.00  -0.00    -0.00  -0.00   0.00    -0.00  -0.00   0.00
  50   6     0.00   0.00  -0.00    -0.00  -0.00   0.00    -0.00  -0.00   0.00
  51   6     0.00  -0.00   0.00     0.00  -0.00  -0.00     0.00  -0.00  -0.00
  52   7     0.00   0.00  -0.00    -0.00  -0.00   0.00    -0.00  -0.00   0.00
  53   6    -0.00   0.00  -0.00    -0.00   0.00  -0.00    -0.00   0.00  -0.00
  54   6    -0.00   0.00   0.00    -0.00   0.00  -0.00    -0.00   0.00  -0.00
  55   6     0.00  -0.00   0.00     0.00  -0.00   0.00     0.00  -0.00   0.00
  56   6     0.00  -0.00  -0.00     0.00  -0.00  -0.00     0.00  -0.00  -0.00
  57   6    -0.00   0.00  -0.00    -0.00   0.00   0.00    -0.00   0.00   0.00
  58   7    -0.04   0.05  -0.00    -0.03   0.04  -0.00    -0.16   0.19  -0.01
  59   6    -0.00   0.00  -0.00    -0.00   0.00   0.00    -0.00   0.00   0.00
  60   6     0.00   0.00  -0.00     0.00  -0.00   0.00     0.00  -0.00   0.00
  61   7    -0.00  -0.00   0.00     0.00   0.00  -0.00     0.00   0.00  -0.00
  62   1    -0.00  -0.00   0.00     0.00   0.00  -0.00     0.00   0.00  -0.00
  63   1    -0.00  -0.00   0.00     0.00   0.00  -0.00     0.00   0.00  -0.00
  64   1     0.00  -0.00  -0.00     0.00  -0.00  -0.00     0.00  -0.00  -0.00
  65   1     0.00  -0.00   0.00     0.00  -0.00   0.00     0.00  -0.00   0.00
  66   1     0.63  -0.69   0.03    -0.03   0.03  -0.00    -0.15   0.17  -0.01
  67   1    -0.00  -0.00   0.00    -0.00  -0.00   0.00    -0.00  -0.00   0.00
  68   1    -0.00  -0.00   0.00    -0.00  -0.00   0.00    -0.00  -0.00   0.00
  69   1    -0.00   0.00  -0.00    -0.00  -0.00   0.00    -0.00  -0.00   0.00
  70   1     0.00   0.00  -0.00     0.00   0.00  -0.00     0.00   0.00  -0.00
  71   1     0.00  -0.00  -0.00     0.00  -0.00  -0.00     0.00  -0.00  -0.00
  72   1     0.00  -0.00   0.00     0.00  -0.00   0.00     0.00  -0.00   0.00
  73   1     0.15  -0.17   0.01     0.12  -0.13   0.01     0.62  -0.68   0.03
  74   1    -0.00  -0.00   0.00    -0.00  -0.00   0.00    -0.00  -0.00   0.00
  75   6    -0.00   0.00  -0.00     0.00  -0.00   0.00    -0.00   0.00  -0.00
  76   6     0.00  -0.00   0.00    -0.00   0.00  -0.00     0.00  -0.00   0.00
  77   6    -0.00  -0.00  -0.00     0.00   0.00   0.00    -0.00  -0.00  -0.00
  78   6     0.00  -0.00   0.00    -0.00   0.00   0.00     0.00  -0.00  -0.00
  79   6    -0.00   0.00   0.00     0.00  -0.00  -0.00    -0.00   0.00   0.00
  80   6     0.00  -0.00  -0.00    -0.00  -0.00   0.00     0.00   0.00  -0.00
  81   6     0.00  -0.00   0.00    -0.00   0.00  -0.00    -0.00  -0.00  -0.00
  82   6    -0.00   0.00  -0.00     0.00   0.00   0.00     0.00   0.00   0.00
  83   6     0.00  -0.00   0.00    -0.00   0.00   0.00    -0.00   0.00   0.00
  84   6    -0.00  -0.00  -0.00     0.00   0.00  -0.00     0.00   0.00  -0.00
  85   6     0.00  -0.00  -0.00    -0.00   0.00   0.00    -0.00   0.00   0.00
  86   6    -0.00   0.00   0.00     0.00  -0.00  -0.00     0.00  -0.00  -0.00
  87   6    -0.00  -0.00   0.00    -0.00  -0.00   0.00     0.00   0.00  -0.00
  88   6    -0.00   0.00   0.00    -0.00  -0.00   0.00     0.00   0.00  -0.00
  89   6    -0.00  -0.00  -0.00     0.00  -0.00   0.00     0.00   0.00  -0.00
  90   6    -0.00  -0.00   0.00     0.00   0.00  -0.00    -0.00   0.00   0.00
  91   6    -0.00  -0.00   0.00     0.00  -0.00   0.00    -0.00  -0.00   0.00
  92   6    -0.00  -0.00  -0.00    -0.00   0.00  -0.00     0.00  -0.00   0.00
  93   6    -0.00   0.00  -0.00    -0.00   0.00  -0.00     0.00  -0.00   0.00
  94   6    -0.00  -0.00  -0.00     0.00   0.00  -0.00     0.00   0.00  -0.00
  95   7     0.00  -0.00   0.00     0.00  -0.00   0.00     0.00  -0.00   0.00
  96   6     0.00   0.00  -0.00    -0.00   0.00  -0.00    -0.00  -0.00   0.00
  97   6    -0.00  -0.00   0.00     0.00  -0.00   0.00     0.00  -0.00   0.00
  98   6     0.00   0.00  -0.00     0.00   0.00  -0.00    -0.00  -0.00   0.00
  99   6     0.00   0.00  -0.00     0.00   0.00   0.00    -0.00  -0.00   0.00
 100   6     0.00  -0.00   0.00     0.00   0.00   0.00     0.00  -0.00   0.00
 101   7    -0.00   0.00  -0.00    -0.00   0.00  -0.00     0.00   0.00  -0.00
 102   6    -0.00  -0.00  -0.00    -0.00   0.00   0.00     0.00   0.00   0.00
 103   6     0.00   0.00  -0.00    -0.00  -0.00   0.00     0.00   0.00   0.00
 104   6     0.00  -0.00   0.00    -0.00   0.00  -0.00    -0.00   0.00  -0.00
 105   6     0.00  -0.00   0.00    -0.00   0.00  -0.00    -0.00   0.00  -0.00
 106   6    -0.00   0.00  -0.00     0.00   0.00  -0.00     0.00   0.00  -0.00
 107   7     0.00  -0.00   0.00     0.00  -0.00   0.00     0.00  -0.00   0.00
 108   6     0.00   0.00  -0.00    -0.00   0.00  -0.00    -0.00   0.00  -0.00
 109   6    -0.00   0.00   0.00     0.00  -0.00   0.00     0.00  -0.00   0.00
 110   7     0.00  -0.00  -0.00    -0.00   0.00  -0.00    -0.00   0.00  -0.00
 111   1     0.00   0.00  -0.00     0.00   0.00  -0.00    -0.00  -0.00   0.00
 112   1     0.00   0.00  -0.00     0.00   0.00  -0.00    -0.00  -0.00  -0.00
 113   1     0.00  -0.00   0.00     0.00  -0.00   0.00    -0.00   0.00  -0.00
 114   1     0.00  -0.00   0.00     0.00  -0.00   0.00    -0.00   0.00  -0.00
 115   1    -0.00   0.00  -0.00    -0.00   0.00  -0.00    -0.00   0.00  -0.00
 116   1    -0.00  -0.00   0.00    -0.00  -0.00   0.00    -0.00   0.00  -0.00
 117   1     0.00  -0.00   0.00    -0.00  -0.00   0.00     0.00   0.00  -0.00
 118   1    -0.00  -0.00  -0.00    -0.00  -0.00   0.00     0.00   0.00   0.00
 119   1    -0.00   0.00  -0.00     0.00  -0.00  -0.00     0.00  -0.00   0.00
 120   1    -0.00   0.00  -0.00     0.00  -0.00  -0.00     0.00  -0.00   0.00
 121   1    -0.00   0.00  -0.00    -0.00   0.00  -0.00    -0.00   0.00  -0.00
 122   1    -0.00  -0.00   0.00    -0.00   0.00  -0.00    -0.00  -0.00   0.00
