      -----------------------------------------------------------      
     |                   =====================                   |     
     |                           x T B                           |     
     |                   =====================                   |     
     |                         S. Grimme                         |     
     |          Mulliken Center for Theoretical Chemistry        |     
     |                    University of Bonn                     |     
      -----------------------------------------------------------      

   * xtb version 6.4.1 (bd6e46d) compiled by 'conda@4901f00b25ba' on 2021-06-10

   xtb is free software: you can redistribute it and/or modify it under
   the terms of the GNU Lesser General Public License as published by
   the Free Software Foundation, either version 3 of the License, or
   (at your option) any later version.
   
   xtb is distributed in the hope that it will be useful,
   but WITHOUT ANY WARRANTY; without even the implied warranty of
   MERCHANTABILITY or FITNESS FOR A PARTICULAR PURPOSE.  See the
   GNU Lesser General Public License for more details.
   
   Cite this work as:
   * C. Bannwarth, E. Caldeweyher, S. Ehlert, A. Hansen, P. Pracht,
     J. Seibert, S. Spicher, S. Grimme, WIREs Comput. Mol. Sci., 2020, 11,
     e01493. DOI: 10.1002/wcms.1493
   
   for GFN2-xTB:
   * C. Bannwarth, S. Ehlert and S. Grimme., J. Chem. Theory Comput., 2019,
     15, 1652-1671. DOI: 10.1021/acs.jctc.8b01176
   for GFN1-xTB:
   * S. Grimme, C. Bannwarth, P. Shushkov, J. Chem. Theory Comput., 2017,
     13, 1989-2009. DOI: 10.1021/acs.jctc.7b00118
   for GFN0-xTB:
   * P. Pracht, E. Caldeweyher, S. Ehlert, S. Grimme, ChemRxiv, 2019, preprint.
     DOI: 10.26434/chemrxiv.8326202.v1
   for GFN-FF:
   * S. Spicher and S. Grimme, Angew. Chem. Int. Ed., 2020, 59, 15665-15673.
     DOI: 10.1002/anie.202004239
   
   for DFT-D4:
   * E. Caldeweyher, C. Bannwarth and S. Grimme, J. Chem. Phys., 2017,
     147, 034112. DOI: 10.1063/1.4993215
   * E. Caldeweyher, S. Ehlert, A. Hansen, H. Neugebauer, S. Spicher,
     C. Bannwarth and S. Grimme, J. Chem. Phys., 2019, 150, 154122.
     DOI: 10.1063/1.5090222
   * E. Caldeweyher, J.-M. Mewes, S. Ehlert and S. Grimme, Phys. Chem. Chem. Phys.
     2020, 22, 8499-8512. DOI: 10.1039/D0CP00502A
   
   for sTDA-xTB:
   * S. Grimme and C. Bannwarth, J. Chem. Phys., 2016, 145, 054103.
     DOI: 10.1063/1.4959605
   
   in the mass-spec context:
   * V. Asgeirsson, C. Bauer and S. Grimme, Chem. Sci., 2017, 8, 4879.
     DOI: 10.1039/c7sc00601b
   * J. Koopman and S. Grimme, ACS Omega 2019, 4, 12, 15120-15133.
     DOI: 10.1021/acsomega.9b02011
   
   for metadynamics refer to:
   * S. Grimme, J. Chem. Theory Comput., 2019, 155, 2847-2862
     DOI: 10.1021/acs.jctc.9b00143
   
   for SPH calculations refer to:
   * S. Spicher and S. Grimme, J. Chem. Theory Comput., 2021, 17, 1701-1714
     DOI: 10.1021/acs.jctc.0c01306
   
   with help from (in alphabetical order)
   P. Atkinson, C. Bannwarth, F. Bohle, G. Brandenburg, E. Caldeweyher
   M. Checinski, S. Dohm, S. Ehlert, S. Ehrlich, I. Gerasimov, J. Koopman
   C. Lavigne, S. Lehtola, F. März, M. Müller, F. Musil, H. Neugebauer
   J. Pisarek, C. Plett, P. Pracht, J. Seibert, P. Shushkov, S. Spicher
   M. Stahn, M. Steiner, T. Strunk, J. Stückrath, T. Rose, and J. Unsleber
   
 * started run on 2021/11/19 at 15:22:00.022     

           -------------------------------------------------
          |                Calculation Setup                |
           -------------------------------------------------

          program call               : /home/jeff/miniconda3/bin/xtb input_structure_1.xyz --gfn 2 --ohess normal --parallel 1 --etemp 300 --chrg 0 --uhf 0 -I det_control.in
          hostname                   : jelfscompute1
          coordinate file            : input_structure_1.xyz
          omp threads                :                     1
          number of atoms            :                   122
          number of electrons        :                   386
          charge                     :                     0
          spin                       :                   0.0
          first test random number   :      0.13601628685769

   ID    Z sym.   atoms
    1    6 C      1-8, 10-14, 16-20, 22, 23, 38-45, 47-51, 53-57, 59, 60,
                  75-94, 96-100, 102-106, 108, 109
    2    7 N      9, 15, 21, 24, 46, 52, 58, 61, 95, 101, 107, 110
    3    1 H      25-37, 62-74, 111-122

molecular fragmentation (1/2 indicates fragments):
111111111111111111111111111111111111122222222222222222222222222222222222
22222222222222222222222222222222222222222222222222
# atoms in fragment 1/2:    37    85
 fragment masses (1/2) :      309.34      761.81
CMA distance (Bohr)    :  46.088
constraining FC (au)   :  0.0500

           -------------------------------------------------
          |                 G F N 2 - x T B                 |
           -------------------------------------------------

        Reference                      10.1021/acs.jctc.8b01176
      * Hamiltonian:
        H0-scaling (s, p, d)           1.850000    2.230000    2.230000
        zeta-weighting                 0.500000
      * Dispersion:
        s8                             2.700000
        a1                             0.520000
        a2                             5.000000
        s9                             5.000000
      * Repulsion:
        kExp                           1.500000    1.000000
        rExp                           1.000000
      * Coulomb:
        alpha                          2.000000
        third order                    shell-resolved
        anisotropic                    true
        a3                             3.000000
        a5                             4.000000
        cn-shift                       1.200000
        cn-exp                         4.000000
        max-rad                        5.000000


          ...................................................
          :                      SETUP                      :
          :.................................................:
          :  # basis functions                 374          :
          :  # atomic orbitals                 374          :
          :  # shells                          206          :
          :  # electrons                       386          :
          :  max. iterations                   250          :
          :  Hamiltonian                  GFN2-xTB          :
          :  restarted?                      false          :
          :  GBSA solvation                  false          :
          :  PC potential                    false          :
          :  electronic temp.          300.0000000     K    :
          :  accuracy                    1.0000000          :
          :  -> integral cutoff          0.2500000E+02      :
          :  -> integral neglect         0.1000000E-07      :
          :  -> SCF convergence          0.1000000E-05 Eh   :
          :  -> wf. convergence          0.1000000E-03 e    :
          :  Broyden damping             0.4000000          :
          ...................................................

 iter      E             dE          RMSdq      gap      omega  full diag
   1   -210.8201151 -0.210820E+03  0.600E+00    0.00       0.0  T
   2   -204.5249099  0.629521E+01  0.518E+00    0.06       1.0  T
   3   -189.5160272  0.150089E+02  0.698E+00    0.20       1.0  T
   4   -187.4694215  0.204661E+01  0.638E+00    0.02       1.0  T
   5   -201.4359976 -0.139666E+02  0.455E+00    0.20       1.0  T
   6   -205.5551020 -0.411910E+01  0.386E+00    0.14       1.0  T
   7   -208.5290421 -0.297394E+01  0.277E+00    0.03       1.0  T
   8   -210.7518617 -0.222282E+01  0.213E+00    0.42       1.0  T
   9   -210.1428891  0.608973E+00  0.203E+00    0.15       1.0  T
  10   -210.9166128 -0.773724E+00  0.163E+00    0.14       1.0  T
  11   -211.0644551 -0.147842E+00  0.150E+00    0.29       1.0  T
  12   -211.1770337 -0.112579E+00  0.120E+00    0.28       1.0  T
  13   -211.2739523 -0.969186E-01  0.892E-01    0.20       1.0  T
  14   -211.3401589 -0.662066E-01  0.553E-01    0.08       1.0  T
  15   -211.3711200 -0.309611E-01  0.548E-01    0.14       1.0  T
  16   -211.3706715  0.448554E-03  0.516E-01    0.06       1.0  T
  17   -211.3698807  0.790749E-03  0.491E-01    0.14       1.0  T
  18   -211.2150953  0.154785E+00  0.765E-01    0.04       1.0  T
  19   -211.3983492 -0.183254E+00  0.301E-01    0.05       1.0  T
  20   -211.4094973 -0.111480E-01  0.164E-01    0.06       1.0  T
  21   -211.3874289  0.220684E-01  0.316E-01    0.05       1.0  T
  22   -211.3906046 -0.317569E-02  0.301E-01    0.05       1.0  T
  23   -211.3860838  0.452077E-02  0.314E-01    0.05       1.0  T
  24   -211.4096585 -0.235747E-01  0.158E-01    0.08       1.0  T
  25   -211.4135303 -0.387183E-02  0.102E-01    0.09       1.0  T
  26   -211.4144987 -0.968380E-03  0.902E-02    0.10       1.0  T
  27   -211.4155436 -0.104489E-02  0.735E-02    0.10       1.0  T
  28   -211.4164620 -0.918429E-03  0.515E-02    0.09       1.0  T
  29   -211.4172029 -0.740916E-03  0.162E-02    0.09       1.0  T
  30   -211.4172562 -0.532868E-04  0.983E-03    0.09       1.0  T
  31   -211.4172641 -0.792127E-05  0.856E-03    0.09       1.1  T
  32   -211.4172878 -0.236286E-04  0.357E-03    0.09       2.5  T
  33   -211.4172907 -0.291441E-05  0.206E-03    0.09       4.4  T
  34   -211.4172910 -0.294372E-06  0.156E-03    0.09       5.8  T
  35   -211.4172904  0.631039E-06  0.217E-03    0.09       4.2  T
  36   -211.4172903  0.971830E-07  0.210E-03    0.09       4.3  T
  37   -211.4172907 -0.415566E-06  0.167E-03    0.09       5.4  T
  38   -211.4172912 -0.572915E-06  0.869E-04    0.09      10.4  T
  39   -211.4172915 -0.215898E-06  0.298E-04    0.09      30.4  T

   *** convergence criteria satisfied after 39 iterations ***

         #    Occupation            Energy/Eh            Energy/eV
      -------------------------------------------------------------
         1        2.0000           -0.6935940             -18.8737
       ...           ...                  ...                  ...
       187        2.0000           -0.3591008              -9.7716
       188        2.0000           -0.3590965              -9.7715
       189        2.0000           -0.3578900              -9.7387
       190        2.0000           -0.3578764              -9.7383
       191        2.0000           -0.3483500              -9.4791
       192        2.0000           -0.3483350              -9.4787
       193        1.5575           -0.3367363              -9.1631 (HOMO)
       194        0.2223           -0.3335657              -9.0768 (LUMO)
       195        0.2201           -0.3335550              -9.0765
       196                         -0.3128806              -8.5139
       197                         -0.3107120              -8.4549
       198                         -0.3107007              -8.4546
       ...                                ...                  ...
       374                          2.0139661              54.8028
      -------------------------------------------------------------
                  HL-Gap            0.0031706 Eh            0.0863 eV
             Fermi-level           -0.3355407 Eh           -9.1305 eV

 SCC (total)                   0 d,  0 h,  0 min,  1.340 sec
 SCC setup                      ...        0 min,  0.003 sec (  0.192%)
 Dispersion                     ...        0 min,  0.007 sec (  0.526%)
 classical contributions        ...        0 min,  0.001 sec (  0.058%)
 integral evaluation            ...        0 min,  0.047 sec (  3.479%)
 iterations                     ...        0 min,  1.139 sec ( 85.007%)
 molecular gradient             ...        0 min,  0.141 sec ( 10.501%)
 printout                       ...        0 min,  0.003 sec (  0.238%)

         :::::::::::::::::::::::::::::::::::::::::::::::::::::
         ::                     SUMMARY                     ::
         :::::::::::::::::::::::::::::::::::::::::::::::::::::
         :: total energy            -207.330653044144 Eh    ::
         :: gradient norm              0.845848266050 Eh/a0 ::
         :: HOMO-LUMO gap              0.086275998641 eV    ::
         ::.................................................::
         :: SCC energy              -211.417291461683 Eh    ::
         :: -> isotropic ES            0.116741725075 Eh    ::
         :: -> anisotropic ES         -0.002808087703 Eh    ::
         :: -> anisotropic XC          0.165104187585 Eh    ::
         :: -> dispersion             -0.158937373758 Eh    ::
         :: repulsion energy           4.087305165066 Eh    ::
         :: add. restraining           0.000000000000 Eh    ::
         :: total charge              -0.000000000025 e     ::
         :::::::::::::::::::::::::::::::::::::::::::::::::::::

      ----------------------------------------------------------- 
     |                   =====================                   |
     |                        A N C O P T                        |
     |                   =====================                   |
     |               Approximate Normal Coordinate               |
     |                Rational Function Optimizer                |
      ----------------------------------------------------------- 

          ...................................................
          :                      SETUP                      :
          :.................................................:
          :   optimization level            normal          :
          :   max. optcycles                   366          :
          :   ANC micro-cycles                  20          :
          :   degrees of freedom               360          :
          :.................................................:
          :   RF solver                   davidson          :
          :   write xtbopt.log                true          :
          :   linear?                        false          :
          :   energy convergence         0.5000000E-05 Eh   :
          :   grad. convergence          0.1000000E-02 Eh/α :
          :   maximium RF displ.         1.0000000          :
          :   Hlow (freq-cutoff)         0.1000000E-01      :
          :   Hmax (freq-cutoff)         5.0000000          :
          :   S6 in model hess.         20.0000000          :
          ...................................................

generating ANC from model Hessian ...
Using Lindh-Hessian (1995)
 Shifting diagonal of input Hessian by    1.0167592805439522E-002
 Lowest  eigenvalues of input Hessian
    0.010000    0.010025    0.010161    0.010166    0.000000    0.000000
    0.000000    0.000000    0.000000    0.000000    0.010171    0.010175
    0.010178    0.010187    0.010188    0.010194    0.010205    0.010210
 Highest eigenvalues
    2.417617    2.433718    2.672921    2.682860    3.285280    3.328865


........................................................................
.............................. CYCLE    1 ..............................
........................................................................
   1   -211.4172915 -0.211417E+03  0.141E-04    0.09       0.0  T
   2   -211.4172873  0.415629E-05  0.306E-03    0.09       3.0  T
   3   -211.4172915 -0.413408E-05  0.374E-04    0.09      24.2  T
   4   -211.4172915 -0.207510E-07  0.158E-04    0.09      57.1  T
   5   -211.4172915 -0.699683E-08  0.109E-04    0.09      83.3  T
     SCC iter.                  ...        0 min,  0.149 sec
     gradient                   ...        0 min,  0.142 sec
 * total energy  :  -207.3306531 Eh     change       -0.3024829E-07 Eh
   gradient norm :     0.8458437 Eh/α   predicted     0.0000000E+00 (-100.00%)
   displ. norm   :     0.5155451 α      lambda       -0.3485198E+00
   maximum displ.:     0.1469615 α      in ANC's #224, #292, #230, ...

........................................................................
.............................. CYCLE    2 ..............................
........................................................................
   1   -211.4950892 -0.211495E+03  0.382E-01    0.16       0.0  T
   2   -210.9610467  0.534042E+00  0.129E+00    0.01       1.0  T
   3   -211.4932001 -0.532153E+00  0.365E-01    0.07       1.0  T
   4   -211.0929734  0.400227E+00  0.106E+00    0.10       1.0  T
   5   -211.4527338 -0.359760E+00  0.426E-01    0.03       1.0  T
   6   -211.4557151 -0.298134E-02  0.489E-01    0.06       1.0  T
   7   -211.4622420 -0.652684E-02  0.470E-01    0.14       1.0  T
   8   -211.4749776 -0.127356E-01  0.441E-01    0.12       1.0  T
   9   -211.5024153 -0.274377E-01  0.247E-01    0.11       1.0  T
  10   -211.5141474 -0.117321E-01  0.121E-01    0.10       1.0  T
  11   -211.5163581 -0.221074E-02  0.678E-02    0.08       1.0  T
  12   -211.5172230 -0.864857E-03  0.496E-02    0.09       1.0  T
  13   -211.5171476  0.753595E-04  0.521E-02    0.09       1.0  T
  14   -211.5169958  0.151805E-03  0.531E-02    0.09       1.0  T
  15   -211.5177254 -0.729605E-03  0.225E-02    0.09       1.0  T
  16   -211.5178026 -0.771525E-04  0.148E-02    0.08       1.0  T
  17   -211.5178185 -0.159728E-04  0.123E-02    0.08       1.0  T
  18   -211.5178490 -0.304678E-04  0.689E-03    0.08       1.3  T
  19   -211.5178617 -0.126762E-04  0.203E-03    0.08       4.5  T
  20   -211.5178629 -0.119188E-05  0.463E-04    0.08      19.5  T
  21   -211.5178629 -0.240408E-07  0.230E-04    0.08      39.3  T
  22   -211.5178629  0.163567E-09  0.193E-04    0.08      47.0  T
     SCC iter.                  ...        0 min,  0.646 sec
     gradient                   ...        0 min,  0.141 sec
 * total energy  :  -207.5619294 Eh     change       -0.2312763E+00 Eh
   gradient norm :     0.2847218 Eh/α   predicted    -0.2206316E+00 (  -4.60%)
   displ. norm   :     0.5794865 α      lambda       -0.1205780E+00
   maximum displ.:     0.1409916 α      in ANC's #98, #185, #186, ...

........................................................................
.............................. CYCLE    3 ..............................
........................................................................
   1   -211.6026249 -0.211603E+03  0.313E-01    0.11       0.0  T
   2   -211.2736025  0.329022E+00  0.997E-01    0.02       1.0  T
   3   -211.5482444 -0.274642E+00  0.455E-01    0.02       1.0  T
   4   -211.2335982  0.314646E+00  0.101E+00    0.10       1.0  T
   5   -211.5940741 -0.360476E+00  0.272E-01    0.11       1.0  T
   6   -211.4411652  0.152909E+00  0.625E-01    0.01       1.0  T
   7   -211.5820529 -0.140888E+00  0.333E-01    0.07       1.0  T
   8   -211.5638603  0.181926E-01  0.331E-01    0.03       1.0  T
   9   -211.5970088 -0.331485E-01  0.240E-01    0.10       1.0  T
  10   -211.6070547 -0.100459E-01  0.129E-01    0.10       1.0  T
  11   -211.6106087 -0.355400E-02  0.662E-02    0.08       1.0  T
  12   -211.6112358 -0.627137E-03  0.450E-02    0.08       1.0  T
  13   -211.6116515 -0.415672E-03  0.225E-02    0.07       1.0  T
  14   -211.6118481 -0.196589E-03  0.546E-03    0.07       1.7  T
  15   -211.6118458  0.223681E-05  0.593E-03    0.07       1.5  T
  16   -211.6118489 -0.310221E-05  0.495E-03    0.07       1.8  T
  17   -211.6118500 -0.108558E-05  0.450E-03    0.07       2.0  T
  18   -211.6118543 -0.432961E-05  0.251E-03    0.07       3.6  T
  19   -211.6118560 -0.162219E-05  0.968E-04    0.07       9.3  T
  20   -211.6118561 -0.124666E-06  0.687E-04    0.07      13.2  T
  21   -211.6118562 -0.130079E-06  0.253E-04    0.07      35.8  T
     SCC iter.                  ...        0 min,  0.614 sec
     gradient                   ...        0 min,  0.141 sec
 * total energy  :  -207.6494878 Eh     change       -0.8755848E-01 Eh
   gradient norm :     0.1096756 Eh/α   predicted    -0.8053438E-01 (  -8.02%)
   displ. norm   :     0.6886769 α      lambda       -0.5490794E-01
   maximum displ.:     0.2255868 α      in ANC's #98, #74, #32, ...

........................................................................
.............................. CYCLE    4 ..............................
........................................................................
   1   -211.6296537 -0.211630E+03  0.310E-01    0.17       0.0  T
   2   -211.1773421  0.452312E+00  0.120E+00    0.00       1.0  T
   3   -211.5422688 -0.364927E+00  0.561E-01    0.03       1.0  T
   4   -211.2088191  0.333450E+00  0.105E+00    0.13       1.0  T
   5   -211.6352508 -0.426432E+00  0.251E-01    0.11       1.0  T
   6   -211.5781437  0.571070E-01  0.536E-01    0.13       1.0  T
   7   -211.6306232 -0.524795E-01  0.264E-01    0.11       1.0  T
   8   -211.6367218 -0.609851E-02  0.160E-01    0.08       1.0  T
   9   -211.6426148 -0.589306E-02  0.136E-01    0.10       1.0  T
  10   -211.6447612 -0.214640E-02  0.914E-02    0.09       1.0  T
  11   -211.6464196 -0.165833E-02  0.622E-02    0.09       1.0  T
  12   -211.6476414 -0.122181E-02  0.237E-02    0.09       1.0  T
  13   -211.6477373 -0.959605E-04  0.143E-02    0.08       1.0  T
  14   -211.6477393 -0.192882E-05  0.134E-02    0.08       1.0  T
  15   -211.6477699 -0.306334E-04  0.876E-03    0.08       1.0  T
  16   -211.6477854 -0.154768E-04  0.499E-03    0.08       1.8  T
  17   -211.6477906 -0.526771E-05  0.291E-03    0.08       3.1  T
  18   -211.6477923 -0.166661E-05  0.159E-03    0.08       5.7  T
  19   -211.6477931 -0.779722E-06  0.254E-04    0.08      35.7  T
  20   -211.6477931  0.616626E-08  0.237E-04    0.08      38.2  T
     SCC iter.                  ...        0 min,  0.582 sec
     gradient                   ...        0 min,  0.140 sec
 * total energy  :  -207.6927571 Eh     change       -0.4326928E-01 Eh
   gradient norm :     0.0688775 Eh/α   predicted    -0.4047474E-01 (  -6.46%)
   displ. norm   :     0.7985251 α      lambda       -0.3775760E-01
   maximum displ.:     0.2731523 α      in ANC's #32, #37, #98, ...

........................................................................
.............................. CYCLE    5 ..............................
........................................................................
   1   -211.6331893 -0.211633E+03  0.282E-01    0.24       0.0  T
   2   -211.1802791  0.452910E+00  0.115E+00    0.00       1.0  T
   3   -211.6452551 -0.464976E+00  0.156E-01    0.08       1.0  T
   4   -211.5958579  0.493973E-01  0.498E-01    0.09       1.0  T
   5   -211.6174011 -0.215432E-01  0.254E-01    0.05       1.0  T
   6   -211.6019733  0.154278E-01  0.321E-01    0.04       1.0  T
   7   -211.6422557 -0.402824E-01  0.144E-01    0.15       1.0  T
   8   -211.6454403 -0.318464E-02  0.935E-02    0.13       1.0  T
   9   -211.6471616 -0.172129E-02  0.517E-02    0.12       1.0  T
  10   -211.6477116 -0.549951E-03  0.325E-02    0.11       1.0  T
  11   -211.6476840  0.275287E-04  0.309E-02    0.11       1.0  T
  12   -211.6479216 -0.237541E-03  0.158E-02    0.11       1.0  T
  13   -211.6479880 -0.664283E-04  0.686E-03    0.11       1.3  T
  14   -211.6479915 -0.352208E-05  0.572E-03    0.11       1.6  T
  15   -211.6479976 -0.608474E-05  0.355E-03    0.11       2.6  T
  16   -211.6480013 -0.373073E-05  0.816E-04    0.11      11.1  T
  17   -211.6480015 -0.215870E-06  0.241E-04    0.11      37.6  T
  18   -211.6480016 -0.128617E-07  0.211E-04    0.11      42.9  T
     SCC iter.                  ...        0 min,  0.528 sec
     gradient                   ...        0 min,  0.141 sec
 * total energy  :  -207.7262834 Eh     change       -0.3352625E-01 Eh
   gradient norm :     0.0610435 Eh/α   predicted    -0.3091689E-01 (  -7.78%)
   displ. norm   :     0.8996273 α      lambda       -0.3508502E-01
   maximum displ.:     0.3640380 α      in ANC's #37, #32, #98, ...

........................................................................
.............................. CYCLE    6 ..............................
........................................................................
   1   -211.6387278 -0.211639E+03  0.279E-01    0.35       0.0  T
   2   -211.1846530  0.454075E+00  0.107E+00    0.01       1.0  T
   3   -211.6293201 -0.444667E+00  0.304E-01    0.36       1.0  T
   4   -211.6241841  0.513604E-02  0.358E-01    0.27       1.0  T
   5   -211.6450119 -0.208279E-01  0.101E-01    0.23       1.0  T
   6   -211.6458618 -0.849859E-03  0.721E-02    0.19       1.0  T
   7   -211.6462295 -0.367734E-03  0.626E-02    0.18       1.0  T
   8   -211.6467308 -0.501293E-03  0.494E-02    0.18       1.0  T
   9   -211.6470237 -0.292849E-03  0.363E-02    0.17       1.0  T
  10   -211.6471395 -0.115797E-03  0.269E-02    0.16       1.0  T
  11   -211.6473361 -0.196655E-03  0.806E-03    0.17       1.1  T
  12   -211.6473544 -0.182196E-04  0.319E-03    0.16       2.8  T
  13   -211.6473541  0.208181E-06  0.268E-03    0.16       3.4  T
  14   -211.6473566 -0.246651E-05  0.100E-03    0.16       9.1  T
  15   -211.6473568 -0.162894E-06  0.492E-04    0.16      18.4  T
  16   -211.6473568 -0.388504E-07  0.242E-04    0.16      37.4  T
     SCC iter.                  ...        0 min,  0.465 sec
     gradient                   ...        0 min,  0.140 sec
 * total energy  :  -207.7603302 Eh     change       -0.3404679E-01 Eh
   gradient norm :     0.0573912 Eh/α   predicted    -0.3174017E-01 (  -6.77%)
   displ. norm   :     0.9658874 α      lambda       -0.3818039E-01
   maximum displ.:     0.4294099 α      in ANC's #37, #32, #98, ...

........................................................................
.............................. CYCLE    7 ..............................
........................................................................
   1   -211.6355966 -0.211636E+03  0.327E-01    0.53       0.0  T
   2   -211.6065767  0.290199E-01  0.446E-01    0.32       1.0  T
   3   -211.6323550 -0.257783E-01  0.269E-01    0.42       1.0  T
   4   -211.6373803 -0.502535E-02  0.147E-01    0.50       1.0  T
   5   -211.6406696 -0.328924E-02  0.752E-02    0.40       1.0  T
   6   -211.6413604 -0.690836E-03  0.160E-02    0.42       1.0  T
   7   -211.6413679 -0.745296E-05  0.135E-02    0.42       1.0  T
   8   -211.6413807 -0.128545E-04  0.950E-03    0.42       1.0  T
   9   -211.6413930 -0.123079E-04  0.343E-03    0.42       2.6  T
  10   -211.6413941 -0.110798E-05  0.130E-03    0.42       7.0  T
  11   -211.6413943 -0.195192E-06  0.623E-04    0.42      14.5  T
  12   -211.6413944 -0.395946E-07  0.322E-04    0.42      28.1  T
     SCC iter.                  ...        0 min,  0.353 sec
     gradient                   ...        0 min,  0.140 sec
 * total energy  :  -207.7993943 Eh     change       -0.3906417E-01 Eh
   gradient norm :     0.0675570 Eh/α   predicted    -0.3690018E-01 (  -5.54%)
   displ. norm   :     0.9542123 α      lambda       -0.4079686E-01
   maximum displ.:     0.4582028 α      in ANC's #37, #32, #9, ...

........................................................................
.............................. CYCLE    8 ..............................
........................................................................
   1   -211.6251113 -0.211625E+03  0.306E-01    0.77       0.0  T
   2   -211.6172477  0.786360E-02  0.280E-01    0.82       1.0  T
   3   -211.6213205 -0.407287E-02  0.242E-01    0.86       1.0  T
   4   -211.6278002 -0.647963E-02  0.714E-02    0.89       1.0  T
   5   -211.6278762 -0.760050E-04  0.527E-02    0.88       1.0  T
   6   -211.6283621 -0.485965E-03  0.112E-02    0.89       1.0  T
   7   -211.6283771 -0.149269E-04  0.645E-03    0.88       1.4  T
   8   -211.6283814 -0.437741E-05  0.346E-03    0.88       2.6  T
   9   -211.6283823 -0.836347E-06  0.221E-03    0.88       4.1  T
  10   -211.6283829 -0.593194E-06  0.104E-03    0.88       8.7  T
  11   -211.6283829 -0.844630E-07  0.526E-04    0.88      17.2  T
  12   -211.6283830 -0.262501E-07  0.243E-04    0.88      37.3  T
     SCC iter.                  ...        0 min,  0.350 sec
     gradient                   ...        0 min,  0.140 sec
 * total energy  :  -207.8425805 Eh     change       -0.4318618E-01 Eh
   gradient norm :     0.0930796 Eh/α   predicted    -0.3897165E-01 (  -9.76%)
   displ. norm   :     0.9186975 α      lambda       -0.4668865E-01
   maximum displ.:     0.4668862 α      in ANC's #37, #32, #40, ...

........................................................................
.............................. CYCLE    9 ..............................
........................................................................
   1   -211.6143975 -0.211614E+03  0.273E-01    1.00       0.0  T
   2   -211.6119752  0.242232E-02  0.216E-01    1.05       1.0  T
   3   -211.6129044 -0.929170E-03  0.188E-01    1.06       1.0  T
   4   -211.6165429 -0.363854E-02  0.434E-02    1.07       1.0  T
   5   -211.6166020 -0.590989E-04  0.178E-02    1.06       1.0  T
   6   -211.6166438 -0.417615E-04  0.793E-03    1.07       1.1  T
   7   -211.6166509 -0.709058E-05  0.382E-03    1.06       2.4  T
   8   -211.6166518 -0.885580E-06  0.219E-03    1.06       4.1  T
   9   -211.6166520 -0.260834E-06  0.116E-03    1.06       7.8  T
  10   -211.6166521 -0.123650E-06  0.678E-04    1.06      13.4  T
  11   -211.6166522 -0.505087E-07  0.291E-04    1.06      31.1  T
     SCC iter.                  ...        0 min,  0.324 sec
     gradient                   ...        0 min,  0.140 sec
 * total energy  :  -207.8923195 Eh     change       -0.4973898E-01 Eh
   gradient norm :     0.1135888 Eh/α   predicted    -0.4304706E-01 ( -13.45%)
   displ. norm   :     0.8884070 α      lambda       -0.5293628E-01
   maximum displ.:     0.4703400 α      in ANC's #37, #40, #9, ...

........................................................................
.............................. CYCLE   10 ..............................
........................................................................
   1   -211.6109626 -0.211611E+03  0.218E-01    1.07       0.0  T
   2   -211.6098362  0.112642E-02  0.185E-01    1.07       1.0  T
   3   -211.6109032 -0.106694E-02  0.125E-01    1.07       1.0  T
   4   -211.6122393 -0.133619E-02  0.391E-02    1.07       1.0  T
   5   -211.6122925 -0.531300E-04  0.230E-02    1.07       1.0  T
   6   -211.6124093 -0.116806E-03  0.772E-03    1.07       1.2  T
   7   -211.6124149 -0.557998E-05  0.351E-03    1.07       2.6  T
   8   -211.6124157 -0.891355E-06  0.173E-03    1.07       5.2  T
   9   -211.6124159 -0.119684E-06  0.877E-04    1.07      10.3  T
  10   -211.6124159 -0.508437E-07  0.460E-04    1.07      19.7  T
     SCC iter.                  ...        0 min,  0.295 sec
     gradient                   ...        0 min,  0.139 sec
 * total energy  :  -207.9474367 Eh     change       -0.5511723E-01 Eh
   gradient norm :     0.1266634 Eh/α   predicted    -0.4735872E-01 ( -14.08%)
   displ. norm   :     0.8669063 α      lambda       -0.5600376E-01
   maximum displ.:     0.4747667 α      in ANC's #37, #40, #9, ...

........................................................................
.............................. CYCLE   11 ..............................
........................................................................
   1   -211.6152325 -0.211615E+03  0.170E-01    1.04       0.0  T
   2   -211.6140832  0.114934E-02  0.178E-01    1.04       1.0  T
   3   -211.6160999 -0.201667E-02  0.816E-02    1.04       1.0  T
   4   -211.6160360  0.638620E-04  0.386E-02    1.04       1.0  T
   5   -211.6162317 -0.195666E-03  0.163E-02    1.04       1.0  T
   6   -211.6162860 -0.543536E-04  0.610E-03    1.04       1.5  T
   7   -211.6162886 -0.261257E-05  0.324E-03    1.04       2.8  T
   8   -211.6162893 -0.641464E-06  0.134E-03    1.04       6.7  T
   9   -211.6162893 -0.771008E-07  0.789E-04    1.04      11.5  T
  10   -211.6162894 -0.764306E-07  0.274E-04    1.04      33.1  T
     SCC iter.                  ...        0 min,  0.295 sec
     gradient                   ...        0 min,  0.140 sec
 * total energy  :  -207.9984526 Eh     change       -0.5101590E-01 Eh
   gradient norm :     0.1166322 Eh/α   predicted    -0.4904615E-01 (  -3.86%)
   displ. norm   :     0.8231425 α      lambda       -0.6513142E-01
   maximum displ.:     0.4282247 α      in ANC's #37, #40, #9, ...

........................................................................
.............................. CYCLE   12 ..............................
........................................................................
   1   -211.6577547 -0.211658E+03  0.309E-01    0.87       0.0  T
   2   -211.6560606  0.169411E-02  0.240E-01    0.88       1.0  T
   3   -211.6542419  0.181866E-02  0.194E-01    0.88       1.0  T
   4   -211.6587507 -0.450874E-02  0.447E-02    0.88       1.0  T
   5   -211.6590116 -0.260913E-03  0.180E-02    0.88       1.0  T
   6   -211.6590689 -0.573555E-04  0.637E-03    0.88       1.4  T
   7   -211.6590724 -0.347725E-05  0.347E-03    0.88       2.6  T
   8   -211.6590728 -0.354419E-06  0.202E-03    0.88       4.5  T
   9   -211.6590732 -0.427951E-06  0.702E-04    0.88      12.9  T
  10   -211.6590733 -0.651124E-07  0.293E-04    0.88      30.9  T
     SCC iter.                  ...        0 min,  0.295 sec
     gradient                   ...        0 min,  0.140 sec
 * total energy  :  -208.0361673 Eh     change       -0.3771468E-01 Eh
   gradient norm :     0.1157733 Eh/α   predicted    -0.5463106E-01 (  44.85%)
   displ. norm   :     0.6577465 α      lambda       -0.3939700E-01
   maximum displ.:     0.3164820 α      in ANC's #37, #32, #9, ...

........................................................................
.............................. CYCLE   13 ..............................
........................................................................
   1   -211.7105342 -0.211711E+03  0.137E-01    0.91       0.0  T
   2   -211.7104238  0.110452E-03  0.994E-02    0.91       1.0  T
   3   -211.7098509  0.572876E-03  0.810E-02    0.91       1.0  T
   4   -211.7106673 -0.816347E-03  0.239E-02    0.91       1.0  T
   5   -211.7107473 -0.800239E-04  0.513E-03    0.91       1.8  T
   6   -211.7107498 -0.252706E-05  0.307E-03    0.91       2.9  T
   7   -211.7107506 -0.784680E-06  0.178E-03    0.91       5.1  T
   8   -211.7107507 -0.121382E-06  0.103E-03    0.91       8.8  T
   9   -211.7107509 -0.160805E-06  0.380E-04    0.91      23.8  T
  10   -211.7107509 -0.203838E-07  0.143E-04    0.91      63.1  T
     SCC iter.                  ...        0 min,  0.291 sec
     gradient                   ...        0 min,  0.140 sec
 * total energy  :  -208.0702755 Eh     change       -0.3410815E-01 Eh
   gradient norm :     0.0623144 Eh/α   predicted    -0.2822072E-01 ( -17.26%)
   displ. norm   :     0.8642028 α      lambda       -0.3800705E-01
   maximum displ.:     0.4519325 α      in ANC's #37, #9, #40, ...

........................................................................
.............................. CYCLE   14 ..............................
........................................................................
   1   -211.7816460 -0.211782E+03  0.168E-01    0.92       0.0  T
   2   -211.7815300  0.116074E-03  0.112E-01    0.92       1.0  T
   3   -211.7791698  0.236017E-02  0.114E-01    0.92       1.0  T
   4   -211.7817238 -0.255399E-02  0.225E-02    0.92       1.0  T
   5   -211.7817923 -0.685070E-04  0.682E-03    0.92       1.3  T
   6   -211.7817975 -0.522960E-05  0.273E-03    0.92       3.3  T
   7   -211.7817980 -0.513706E-06  0.156E-03    0.92       5.8  T
   8   -211.7817980 -0.293986E-08  0.104E-03    0.92       8.7  T
   9   -211.7817982 -0.175450E-06  0.364E-04    0.92      24.8  T
  10   -211.7817982 -0.185962E-07  0.174E-04    0.92      52.0  T
     SCC iter.                  ...        0 min,  0.296 sec
     gradient                   ...        0 min,  0.140 sec
 * total energy  :  -208.1030499 Eh     change       -0.3277445E-01 Eh
   gradient norm :     0.0447406 Eh/α   predicted    -0.3319624E-01 (   1.29%)
   displ. norm   :     0.9044951 α      lambda       -0.3118165E-01
   maximum displ.:     0.4378415 α      in ANC's #37, #9, #32, ...

........................................................................
.............................. CYCLE   15 ..............................
........................................................................
   1   -211.8410203 -0.211841E+03  0.208E-01    0.92       0.0  T
   2   -211.8408391  0.181221E-03  0.135E-01    0.92       1.0  T
   3   -211.8373790  0.346004E-02  0.145E-01    0.92       1.0  T
   4   -211.8411012 -0.372216E-02  0.206E-02    0.92       1.0  T
   5   -211.8411735 -0.722699E-04  0.744E-03    0.92       1.2  T
   6   -211.8411814 -0.792893E-05  0.312E-03    0.92       2.9  T
   7   -211.8411818 -0.400180E-06  0.192E-03    0.92       4.7  T
   8   -211.8411820 -0.162872E-06  0.129E-03    0.92       7.0  T
   9   -211.8411822 -0.279802E-06  0.308E-04    0.92      29.4  T
  10   -211.8411822 -0.991224E-08  0.162E-04    0.92      55.9  T
     SCC iter.                  ...        0 min,  0.295 sec
     gradient                   ...        0 min,  0.140 sec
 * total energy  :  -208.1275079 Eh     change       -0.2445802E-01 Eh
   gradient norm :     0.0521088 Eh/α   predicted    -0.2834589E-01 (  15.90%)
   displ. norm   :     0.8853238 α      lambda       -0.2857845E-01
   maximum displ.:     0.3898184 α      in ANC's #37, #9, #32, ...

........................................................................
.............................. CYCLE   16 ..............................
........................................................................
   1   -211.8958560 -0.211896E+03  0.216E-01    0.92       0.0  T
   2   -211.8957020  0.153947E-03  0.137E-01    0.92       1.0  T
   3   -211.8920920  0.361004E-02  0.147E-01    0.92       1.0  T
   4   -211.8959254 -0.383341E-02  0.185E-02    0.92       1.0  T
   5   -211.8959834 -0.579683E-04  0.691E-03    0.92       1.3  T
   6   -211.8959897 -0.635760E-05  0.306E-03    0.92       3.0  T
   7   -211.8959900 -0.315530E-06  0.193E-03    0.92       4.7  T
   8   -211.8959903 -0.263136E-06  0.118E-03    0.92       7.7  T
   9   -211.8959905 -0.231089E-06  0.310E-04    0.92      29.2  T
  10   -211.8959905 -0.104545E-07  0.153E-04    0.92      59.1  T
     SCC iter.                  ...        0 min,  0.292 sec
     gradient                   ...        0 min,  0.140 sec
 * total energy  :  -208.1494487 Eh     change       -0.2194074E-01 Eh
   gradient norm :     0.0458209 Eh/α   predicted    -0.2548909E-01 (  16.17%)
   displ. norm   :     0.8372975 α      lambda       -0.2019537E-01
   maximum displ.:     0.3912778 α      in ANC's #9, #32, #37, ...

........................................................................
.............................. CYCLE   17 ..............................
........................................................................
   1   -211.9475272 -0.211948E+03  0.162E-01    0.92       0.0  T
   2   -211.9474088  0.118406E-03  0.107E-01    0.92       1.0  T
   3   -211.9456605  0.174829E-02  0.106E-01    0.92       1.0  T
   4   -211.9475846 -0.192404E-02  0.226E-02    0.92       1.0  T
   5   -211.9476719 -0.873010E-04  0.683E-03    0.92       1.3  T
   6   -211.9476785 -0.663534E-05  0.260E-03    0.92       3.5  T
   7   -211.9476789 -0.379085E-06  0.155E-03    0.92       5.8  T
   8   -211.9476790 -0.123120E-06  0.104E-03    0.92       8.7  T
   9   -211.9476792 -0.165895E-06  0.338E-04    0.92      26.8  T
  10   -211.9476792 -0.148235E-07  0.134E-04    0.92      67.4  T
     SCC iter.                  ...        0 min,  0.295 sec
     gradient                   ...        0 min,  0.141 sec
 * total energy  :  -208.1652210 Eh     change       -0.1577236E-01 Eh
   gradient norm :     0.0556214 Eh/α   predicted    -0.1717687E-01 (   8.90%)
   displ. norm   :     0.8478794 α      lambda       -0.2122290E-01
   maximum displ.:     0.4137290 α      in ANC's #9, #32, #37, ...

........................................................................
.............................. CYCLE   18 ..............................
........................................................................
   1   -211.9972744 -0.211997E+03  0.165E-01    0.93       0.0  T
   2   -211.9969132  0.361147E-03  0.126E-01    0.93       1.0  T
   3   -211.9962602  0.653038E-03  0.987E-02    0.93       1.0  T
   4   -211.9974220 -0.116180E-02  0.327E-02    0.93       1.0  T
   5   -211.9976118 -0.189831E-03  0.980E-03    0.93       1.0  T
   6   -211.9976282 -0.163960E-04  0.304E-03    0.93       3.0  T
   7   -211.9976287 -0.521561E-06  0.189E-03    0.93       4.8  T
   8   -211.9976290 -0.242874E-06  0.111E-03    0.93       8.2  T
   9   -211.9976292 -0.183977E-06  0.360E-04    0.93      25.1  T
  10   -211.9976292 -0.165408E-07  0.125E-04    0.93      72.6  T
     SCC iter.                  ...        0 min,  0.292 sec
     gradient                   ...        0 min,  0.141 sec
 * total energy  :  -208.1800566 Eh     change       -0.1483553E-01 Eh
   gradient norm :     0.0453818 Eh/α   predicted    -0.1824002E-01 (  22.95%)
   displ. norm   :     0.8166348 α      lambda       -0.1522353E-01
   maximum displ.:     0.4292750 α      in ANC's #32, #9, #34, ...

........................................................................
.............................. CYCLE   19 ..............................
........................................................................
   1   -212.0230713 -0.212023E+03  0.155E-01    0.94       0.0  T
   2   -212.0229989  0.723622E-04  0.995E-02    0.94       1.0  T
   3   -212.0214731  0.152584E-02  0.101E-01    0.94       1.0  T
   4   -212.0231211 -0.164796E-02  0.185E-02    0.94       1.0  T
   5   -212.0231774 -0.562992E-04  0.688E-03    0.94       1.3  T
   6   -212.0231851 -0.771064E-05  0.247E-03    0.94       3.7  T
   7   -212.0231855 -0.440083E-06  0.144E-03    0.94       6.3  T
   8   -212.0231856 -0.105813E-06  0.864E-04    0.94      10.5  T
   9   -212.0231857 -0.117582E-06  0.267E-04    0.94      33.9  T
     SCC iter.                  ...        0 min,  0.267 sec
     gradient                   ...        0 min,  0.141 sec
 * total energy  :  -208.1925030 Eh     change       -0.1244647E-01 Eh
   gradient norm :     0.0311737 Eh/α   predicted    -0.1268799E-01 (   1.94%)
   displ. norm   :     0.8755013 α      lambda       -0.1392987E-01
   maximum displ.:     0.4506572 α      in ANC's #32, #9, #34, ...

........................................................................
.............................. CYCLE   20 ..............................
........................................................................
   1   -212.0420207 -0.212042E+03  0.184E-01    0.93       0.0  T
   2   -212.0420246 -0.396944E-05  0.111E-01    0.93       1.0  T
   3   -212.0409907  0.103394E-02  0.771E-02    0.93       1.0  T
   4   -212.0420498 -0.105911E-02  0.153E-02    0.93       1.0  T
   5   -212.0420870 -0.372151E-04  0.560E-03    0.93       1.6  T
   6   -212.0420906 -0.357636E-05  0.239E-03    0.93       3.8  T
   7   -212.0420910 -0.354347E-06  0.135E-03    0.93       6.7  T
   8   -212.0420910 -0.750774E-07  0.730E-04    0.93      12.4  T
   9   -212.0420911 -0.737157E-07  0.201E-04    0.93      45.1  T
     SCC iter.                  ...        0 min,  0.263 sec
     gradient                   ...        0 min,  0.142 sec
 * total energy  :  -208.2036333 Eh     change       -0.1113033E-01 Eh
   gradient norm :     0.0316141 Eh/α   predicted    -0.1230358E-01 (  10.54%)
   displ. norm   :     0.8547784 α      lambda       -0.1184754E-01
   maximum displ.:     0.4769166 α      in ANC's #9, #32, #34, ...
 * RMSD in coord.:     1.1730287 α      energy gain  -0.8729803E+00 Eh

generating ANC from model Hessian ...
Using Lindh-Hessian (1995)
 Shifting diagonal of input Hessian by    9.9945039789967969E-003
 Lowest  eigenvalues of input Hessian
    0.000000    0.000000    0.000000    0.000000    0.000000    0.000000
    0.010000    0.010003    0.010014    0.010019    0.010028    0.010029
    0.010043    0.010061    0.010088    0.010182    0.010679    0.010856
 Highest eigenvalues
    2.237299    2.238422    2.545620    2.557501    2.859398    2.868173


........................................................................
.............................. CYCLE   21 ..............................
........................................................................
   1   -212.0642608 -0.212064E+03  0.170E-01    0.92       0.0  T
   2   -212.0642717 -0.109263E-04  0.101E-01    0.92       1.0  T
   3   -212.0636435  0.628167E-03  0.602E-02    0.92       1.0  T
   4   -212.0642785 -0.635020E-03  0.134E-02    0.92       1.0  T
   5   -212.0643080 -0.294223E-04  0.560E-03    0.92       1.6  T
   6   -212.0643125 -0.455817E-05  0.195E-03    0.92       4.6  T
   7   -212.0643127 -0.228897E-06  0.117E-03    0.92       7.8  T
   8   -212.0643128 -0.718680E-07  0.683E-04    0.92      13.3  T
   9   -212.0643129 -0.680015E-07  0.180E-04    0.92      50.3  T
     SCC iter.                  ...        0 min,  0.267 sec
     gradient                   ...        0 min,  0.141 sec
 * total energy  :  -208.2130601 Eh     change       -0.9426768E-02 Eh
   gradient norm :     0.0340830 Eh/α   predicted     0.0000000E+00 (-100.00%)
   displ. norm   :     0.5726841 α      lambda       -0.7782802E-02
   maximum displ.:     0.3512008 α      in ANC's #15, #17, #27, ...

........................................................................
.............................. CYCLE   22 ..............................
........................................................................
   1   -212.0826167 -0.212083E+03  0.909E-02    0.93       0.0  T
   2   -212.0826176 -0.847593E-06  0.546E-02    0.93       1.0  T
   3   -212.0823869  0.230624E-03  0.392E-02    0.93       1.0  T
   4   -212.0826226 -0.235620E-03  0.770E-03    0.93       1.2  T
   5   -212.0826316 -0.901069E-05  0.253E-03    0.93       3.6  T
   6   -212.0826326 -0.991921E-06  0.112E-03    0.93       8.1  T
   7   -212.0826327 -0.103172E-06  0.605E-04    0.93      15.0  T
   8   -212.0826327 -0.235913E-07  0.278E-04    0.93      32.6  T
     SCC iter.                  ...        0 min,  0.235 sec
     gradient                   ...        0 min,  0.142 sec
 * total energy  :  -208.2200489 Eh     change       -0.6988740E-02 Eh
   gradient norm :     0.0178324 Eh/α   predicted    -0.5168255E-02 ( -26.05%)
   displ. norm   :     0.8599973 α      lambda       -0.9784051E-02
   maximum displ.:     0.5136513 α      in ANC's #15, #27, #17, ...

........................................................................
.............................. CYCLE   23 ..............................
........................................................................
   1   -212.0995036 -0.212100E+03  0.149E-01    0.93       0.0  T
   2   -212.0995104 -0.680363E-05  0.885E-02    0.93       1.0  T
   3   -212.0991603  0.350094E-03  0.466E-02    0.93       1.0  T
   4   -212.0995092 -0.348967E-03  0.117E-02    0.93       1.0  T
   5   -212.0995306 -0.213144E-04  0.325E-03    0.93       2.8  T
   6   -212.0995317 -0.117191E-05  0.170E-03    0.93       5.3  T
   7   -212.0995319 -0.179040E-06  0.959E-04    0.93       9.4  T
   8   -212.0995320 -0.778876E-07  0.412E-04    0.93      22.0  T
     SCC iter.                  ...        0 min,  0.237 sec
     gradient                   ...        0 min,  0.141 sec
 * total energy  :  -208.2283988 Eh     change       -0.8349978E-02 Eh
   gradient norm :     0.0175350 Eh/α   predicted    -0.8510152E-02 (   1.92%)
   displ. norm   :     0.8821645 α      lambda       -0.8780278E-02
   maximum displ.:     0.5303680 α      in ANC's #15, #17, #27, ...

........................................................................
.............................. CYCLE   24 ..............................
........................................................................
   1   -212.1118772 -0.212112E+03  0.158E-01    0.94       0.0  T
   2   -212.1118850 -0.782484E-05  0.931E-02    0.94       1.0  T
   3   -212.1117755  0.109526E-03  0.232E-02    0.94       1.0  T
   4   -212.1118812 -0.105642E-03  0.814E-03    0.94       1.1  T
   5   -212.1118932 -0.120759E-04  0.237E-03    0.94       3.8  T
   6   -212.1118935 -0.229704E-06  0.158E-03    0.94       5.7  T
   7   -212.1118937 -0.203501E-06  0.809E-04    0.94      11.2  T
   8   -212.1118937 -0.835953E-07  0.253E-04    0.94      35.8  T
     SCC iter.                  ...        0 min,  0.235 sec
     gradient                   ...        0 min,  0.142 sec
 * total energy  :  -208.2357643 Eh     change       -0.7365452E-02 Eh
   gradient norm :     0.0216344 Eh/α   predicted    -0.7806649E-02 (   5.99%)
   displ. norm   :     0.8519781 α      lambda       -0.7274196E-02
   maximum displ.:     0.5491263 α      in ANC's #15, #17, #27, ...

........................................................................
.............................. CYCLE   25 ..............................
........................................................................
   1   -212.1262462 -0.212126E+03  0.131E-01    0.94       0.0  T
   2   -212.1262478 -0.156724E-05  0.775E-02    0.94       1.0  T
   3   -212.1260264  0.221371E-03  0.354E-02    0.94       1.0  T
   4   -212.1262576 -0.231225E-03  0.442E-03    0.94       2.0  T
   5   -212.1262602 -0.254930E-05  0.192E-03    0.94       4.7  T
   6   -212.1262603 -0.813696E-07  0.142E-03    0.94       6.4  T
   7   -212.1262604 -0.180565E-06  0.697E-04    0.94      13.0  T
   8   -212.1262605 -0.589678E-07  0.170E-04    0.94      53.1  T
     SCC iter.                  ...        0 min,  0.236 sec
     gradient                   ...        0 min,  0.142 sec
 * total energy  :  -208.2422198 Eh     change       -0.6455514E-02 Eh
   gradient norm :     0.0193445 Eh/α   predicted    -0.6277155E-02 (  -2.76%)
   displ. norm   :     0.8565729 α      lambda       -0.6757020E-02
   maximum displ.:     0.5598224 α      in ANC's #15, #17, #27, ...

........................................................................
.............................. CYCLE   26 ..............................
........................................................................
   1   -212.1461993 -0.212146E+03  0.136E-01    0.94       0.0  T
   2   -212.1461963  0.300320E-05  0.812E-02    0.94       1.0  T
   3   -212.1457833  0.412935E-03  0.500E-02    0.94       1.0  T
   4   -212.1462162 -0.432896E-03  0.487E-03    0.94       1.9  T
   5   -212.1462191 -0.289073E-05  0.241E-03    0.94       3.8  T
   6   -212.1462196 -0.458770E-06  0.146E-03    0.94       6.2  T
   7   -212.1462198 -0.188847E-06  0.773E-04    0.94      11.7  T
   8   -212.1462198 -0.597445E-07  0.266E-04    0.94      34.0  T
     SCC iter.                  ...        0 min,  0.233 sec
     gradient                   ...        0 min,  0.142 sec
 * total energy  :  -208.2479719 Eh     change       -0.5752076E-02 Eh
   gradient norm :     0.0133522 Eh/α   predicted    -0.5857382E-02 (   1.83%)
   displ. norm   :     0.8448370 α      lambda       -0.5880201E-02
   maximum displ.:     0.5917529 α      in ANC's #15, #17, #27, ...

........................................................................
.............................. CYCLE   27 ..............................
........................................................................
   1   -212.1706601 -0.212171E+03  0.121E-01    0.94       0.0  T
   2   -212.1706614 -0.126651E-05  0.726E-02    0.94       1.0  T
   3   -212.1703582  0.303177E-03  0.438E-02    0.94       1.0  T
   4   -212.1706728 -0.314613E-03  0.622E-03    0.94       1.5  T
   5   -212.1706781 -0.533016E-05  0.294E-03    0.94       3.1  T
   6   -212.1706792 -0.103688E-05  0.157E-03    0.94       5.8  T
   7   -212.1706794 -0.231795E-06  0.780E-04    0.94      11.6  T
   8   -212.1706795 -0.453014E-07  0.278E-04    0.94      32.5  T
     SCC iter.                  ...        0 min,  0.238 sec
     gradient                   ...        0 min,  0.142 sec
 * total energy  :  -208.2528793 Eh     change       -0.4907404E-02 Eh
   gradient norm :     0.0118067 Eh/α   predicted    -0.5038596E-02 (   2.67%)
   displ. norm   :     0.8439187 α      lambda       -0.5190417E-02
   maximum displ.:     0.5801328 α      in ANC's #15, #17, #18, ...

........................................................................
.............................. CYCLE   28 ..............................
........................................................................
   1   -212.1895677 -0.212190E+03  0.138E-01    0.93       0.0  T
   2   -212.1895732 -0.552272E-05  0.816E-02    0.93       1.0  T
   3   -212.1894328  0.140359E-03  0.303E-02    0.93       1.0  T
   4   -212.1895773 -0.144470E-03  0.544E-03    0.93       1.7  T
   5   -212.1895813 -0.401314E-05  0.226E-03    0.93       4.0  T
   6   -212.1895817 -0.395080E-06  0.141E-03    0.93       6.4  T
   7   -212.1895819 -0.172771E-06  0.818E-04    0.93      11.1  T
   8   -212.1895820 -0.827296E-07  0.230E-04    0.93      39.3  T
     SCC iter.                  ...        0 min,  0.233 sec
     gradient                   ...        0 min,  0.142 sec
 * total energy  :  -208.2570841 Eh     change       -0.4204840E-02 Eh
   gradient norm :     0.0135394 Eh/α   predicted    -0.4443509E-02 (   5.68%)
   displ. norm   :     0.8158078 α      lambda       -0.4215469E-02
   maximum displ.:     0.5751890 α      in ANC's #15, #17, #27, ...

........................................................................
.............................. CYCLE   29 ..............................
........................................................................
   1   -212.2027642 -0.212203E+03  0.936E-02    0.93       0.0  T
   2   -212.2027688 -0.455197E-05  0.551E-02    0.93       1.0  T
   3   -212.2027268  0.419166E-04  0.150E-02    0.93       1.0  T
   4   -212.2027691 -0.422107E-04  0.422E-03    0.93       2.1  T
   5   -212.2027719 -0.285993E-05  0.143E-03    0.93       6.4  T
   6   -212.2027720 -0.112210E-06  0.904E-04    0.93      10.0  T
   7   -212.2027721 -0.371407E-07  0.600E-04    0.93      15.1  T
     SCC iter.                  ...        0 min,  0.207 sec
     gradient                   ...        0 min,  0.143 sec
 * total energy  :  -208.2608185 Eh     change       -0.3734370E-02 Eh
   gradient norm :     0.0094520 Eh/α   predicted    -0.3510522E-02 (  -5.99%)
   displ. norm   :     0.7948387 α      lambda       -0.3494361E-02
   maximum displ.:     0.5784950 α      in ANC's #15, #17, #13, ...

........................................................................
.............................. CYCLE   30 ..............................
........................................................................
   1   -212.2231665 -0.212223E+03  0.743E-02    0.93       0.0  T
   2   -212.2231699 -0.339725E-05  0.441E-02    0.93       1.0  T
   3   -212.2230968  0.731064E-04  0.206E-02    0.93       1.0  T
   4   -212.2231717 -0.748887E-04  0.436E-03    0.93       2.1  T
   5   -212.2231744 -0.271052E-05  0.160E-03    0.93       5.7  T
   6   -212.2231746 -0.201640E-06  0.995E-04    0.93       9.1  T
   7   -212.2231747 -0.913888E-07  0.508E-04    0.93      17.8  T
     SCC iter.                  ...        0 min,  0.205 sec
     gradient                   ...        0 min,  0.143 sec
 * total energy  :  -208.2639669 Eh     change       -0.3148429E-02 Eh
   gradient norm :     0.0083451 Eh/α   predicted    -0.2850997E-02 (  -9.45%)
   displ. norm   :     0.7957480 α      lambda       -0.3042849E-02
   maximum displ.:     0.5734683 α      in ANC's #15, #17, #18, ...

........................................................................
.............................. CYCLE   31 ..............................
........................................................................
   1   -212.2392464 -0.212239E+03  0.733E-02    0.93       0.0  T
   2   -212.2392493 -0.289433E-05  0.437E-02    0.93       1.0  T
   3   -212.2391428  0.106571E-03  0.245E-02    0.93       1.0  T
   4   -212.2392531 -0.110368E-03  0.444E-03    0.93       2.0  T
   5   -212.2392558 -0.268072E-05  0.181E-03    0.93       5.0  T
   6   -212.2392561 -0.322705E-06  0.101E-03    0.93       9.0  T
   7   -212.2392562 -0.859406E-07  0.529E-04    0.93      17.1  T
   8   -212.2392562 -0.261136E-07  0.208E-04    0.93      43.5  T
     SCC iter.                  ...        0 min,  0.236 sec
     gradient                   ...        0 min,  0.144 sec
 * total energy  :  -208.2667124 Eh     change       -0.2745431E-02 Eh
   gradient norm :     0.0079482 Eh/α   predicted    -0.2484814E-02 (  -9.49%)
   displ. norm   :     0.7860754 α      lambda       -0.2649663E-02
   maximum displ.:     0.5694083 α      in ANC's #15, #17, #13, ...

........................................................................
.............................. CYCLE   32 ..............................
........................................................................
   1   -212.2528582 -0.212253E+03  0.642E-02    0.93       0.0  T
   2   -212.2528605 -0.232744E-05  0.384E-02    0.93       1.0  T
   3   -212.2527560  0.104536E-03  0.249E-02    0.93       1.0  T
   4   -212.2528659 -0.109939E-03  0.385E-03    0.93       2.4  T
   5   -212.2528680 -0.202375E-05  0.135E-03    0.93       6.7  T
   6   -212.2528681 -0.160921E-06  0.709E-04    0.93      12.8  T
   7   -212.2528681 -0.303899E-08  0.542E-04    0.93      16.7  T
     SCC iter.                  ...        0 min,  0.206 sec
     gradient                   ...        0 min,  0.143 sec
 * total energy  :  -208.2691039 Eh     change       -0.2391545E-02 Eh
   gradient norm :     0.0061439 Eh/α   predicted    -0.2143466E-02 ( -10.37%)
   displ. norm   :     0.7763081 α      lambda       -0.2256317E-02
   maximum displ.:     0.5697999 α      in ANC's #15, #17, #13, ...

........................................................................
.............................. CYCLE   33 ..............................
........................................................................
   1   -212.2679706 -0.212268E+03  0.503E-02    0.93       0.0  T
   2   -212.2679717 -0.111810E-05  0.307E-02    0.93       1.0  T
   3   -212.2678761  0.955652E-04  0.242E-02    0.93       1.0  T
   4   -212.2679785 -0.102380E-03  0.359E-03    0.93       2.5  T
   5   -212.2679802 -0.166903E-05  0.139E-03    0.93       6.5  T
   6   -212.2679803 -0.180513E-06  0.745E-04    0.93      12.2  T
   7   -212.2679804 -0.215312E-07  0.505E-04    0.93      17.9  T
     SCC iter.                  ...        0 min,  0.209 sec
     gradient                   ...        0 min,  0.144 sec
 * total energy  :  -208.2711451 Eh     change       -0.2041203E-02 Eh
   gradient norm :     0.0055560 Eh/α   predicted    -0.1808050E-02 ( -11.42%)
   displ. norm   :     0.7640746 α      lambda       -0.1888900E-02
   maximum displ.:     0.5625134 α      in ANC's #15, #17, #13, ...

........................................................................
.............................. CYCLE   34 ..............................
........................................................................
   1   -212.2761811 -0.212276E+03  0.469E-02    0.93       0.0  T
   2   -212.2761834 -0.222357E-05  0.285E-02    0.93       1.0  T
   3   -212.2761000  0.834026E-04  0.227E-02    0.93       1.0  T
   4   -212.2761895 -0.895843E-04  0.402E-03    0.93       2.3  T
   5   -212.2761918 -0.223550E-05  0.154E-03    0.93       5.9  T
   6   -212.2761920 -0.271228E-06  0.727E-04    0.93      12.5  T
   7   -212.2761921 -0.256995E-07  0.494E-04    0.93      18.3  T
     SCC iter.                  ...        0 min,  0.208 sec
     gradient                   ...        0 min,  0.144 sec
 * total energy  :  -208.2728419 Eh     change       -0.1696806E-02 Eh
   gradient norm :     0.0041130 Eh/α   predicted    -0.1495832E-02 ( -11.84%)
   displ. norm   :     0.7405303 α      lambda       -0.1550928E-02
   maximum displ.:     0.5524577 α      in ANC's #15, #17, #13, ...

........................................................................
.............................. CYCLE   35 ..............................
........................................................................
   1   -212.2893457 -0.212289E+03  0.419E-02    0.92       0.0  T
   2   -212.2893472 -0.145061E-05  0.256E-02    0.92       1.0  T
   3   -212.2892794  0.677242E-04  0.205E-02    0.92       1.0  T
   4   -212.2893523 -0.728389E-04  0.361E-03    0.92       2.5  T
   5   -212.2893541 -0.180387E-05  0.138E-03    0.92       6.6  T
   6   -212.2893543 -0.220058E-06  0.638E-04    0.92      14.2  T
   7   -212.2893543 -0.189230E-07  0.429E-04    0.92      21.1  T
     SCC iter.                  ...        0 min,  0.207 sec
     gradient                   ...        0 min,  0.145 sec
 * total energy  :  -208.2742170 Eh     change       -0.1375048E-02 Eh
   gradient norm :     0.0046139 Eh/α   predicted    -0.1200719E-02 ( -12.68%)
   displ. norm   :     0.7102863 α      lambda       -0.1244219E-02
   maximum displ.:     0.5309231 α      in ANC's #15, #17, #13, ...

........................................................................
.............................. CYCLE   36 ..............................
........................................................................
   1   -212.2943288 -0.212294E+03  0.404E-02    0.92       0.0  T
   2   -212.2943301 -0.127086E-05  0.248E-02    0.92       1.0  T
   3   -212.2942615  0.686032E-04  0.204E-02    0.92       1.0  T
   4   -212.2943357 -0.741723E-04  0.376E-03    0.92       2.4  T
   5   -212.2943376 -0.195075E-05  0.162E-03    0.92       5.6  T
   6   -212.2943380 -0.327422E-06  0.694E-04    0.92      13.0  T
   7   -212.2943380 -0.398108E-07  0.390E-04    0.92      23.2  T
     SCC iter.                  ...        0 min,  0.207 sec
     gradient                   ...        0 min,  0.145 sec
 * total energy  :  -208.2753006 Eh     change       -0.1083683E-02 Eh
   gradient norm :     0.0040202 Eh/α   predicted    -0.9359734E-03 ( -13.63%)
   displ. norm   :     0.6658951 α      lambda       -0.9638127E-03
   maximum displ.:     0.5018657 α      in ANC's #15, #17, #13, ...

........................................................................
.............................. CYCLE   37 ..............................
........................................................................
   1   -212.3031245 -0.212303E+03  0.360E-02    0.92       0.0  T
   2   -212.3031251 -0.585071E-06  0.220E-02    0.92       1.0  T
   3   -212.3030712  0.538963E-04  0.182E-02    0.92       1.0  T
   4   -212.3031297 -0.585171E-04  0.310E-03    0.92       2.9  T
   5   -212.3031310 -0.127774E-05  0.135E-03    0.92       6.7  T
   6   -212.3031312 -0.245959E-06  0.559E-04    0.92      16.2  T
   7   -212.3031312 -0.202155E-07  0.341E-04    0.92      26.5  T
     SCC iter.                  ...        0 min,  0.207 sec
     gradient                   ...        0 min,  0.145 sec
 * total energy  :  -208.2761371 Eh     change       -0.8364648E-03 Eh
   gradient norm :     0.0035641 Eh/α   predicted    -0.6955952E-03 ( -16.84%)
   displ. norm   :     0.6132332 α      lambda       -0.7164612E-03
   maximum displ.:     0.4652498 α      in ANC's #15, #17, #13, ...

........................................................................
.............................. CYCLE   38 ..............................
........................................................................
   1   -212.3092198 -0.212309E+03  0.326E-02    0.92       0.0  T
   2   -212.3092195  0.328427E-06  0.200E-02    0.92       1.0  T
   3   -212.3091705  0.489617E-04  0.172E-02    0.92       1.0  T
   4   -212.3092239 -0.533529E-04  0.248E-03    0.92       3.7  T
   5   -212.3092247 -0.782721E-06  0.117E-03    0.92       7.7  T
   6   -212.3092248 -0.161559E-06  0.511E-04    0.92      17.7  T
   7   -212.3092249 -0.191162E-07  0.293E-04    0.92      30.9  T
     SCC iter.                  ...        0 min,  0.208 sec
     gradient                   ...        0 min,  0.145 sec
 * total energy  :  -208.2767597 Eh     change       -0.6225913E-03 Eh
   gradient norm :     0.0030060 Eh/α   predicted    -0.4929462E-03 ( -20.82%)
   displ. norm   :     0.5461565 α      lambda       -0.5166899E-03
   maximum displ.:     0.4171835 α      in ANC's #15, #17, #13, ...

........................................................................
.............................. CYCLE   39 ..............................
........................................................................
   1   -212.3133305 -0.212313E+03  0.290E-02    0.92       0.0  T
   2   -212.3133301  0.441269E-06  0.177E-02    0.92       1.0  T
   3   -212.3132915  0.385525E-04  0.153E-02    0.92       1.0  T
   4   -212.3133336 -0.420888E-04  0.202E-03    0.92       4.5  T
   5   -212.3133341 -0.486489E-06  0.103E-03    0.92       8.8  T
   6   -212.3133342 -0.135419E-06  0.436E-04    0.92      20.8  T
   7   -212.3133342 -0.120443E-07  0.265E-04    0.92      34.1  T
     SCC iter.                  ...        0 min,  0.205 sec
     gradient                   ...        0 min,  0.146 sec
 * total energy  :  -208.2772057 Eh     change       -0.4460308E-03 Eh
   gradient norm :     0.0026361 Eh/α   predicted    -0.3354069E-03 ( -24.80%)
   displ. norm   :     0.4725936 α      lambda       -0.3649336E-03
   maximum displ.:     0.3646524 α      in ANC's #15, #17, #13, ...

........................................................................
.............................. CYCLE   40 ..............................
........................................................................
   1   -212.3173388 -0.212317E+03  0.265E-02    0.92       0.0  T
   2   -212.3173383  0.533112E-06  0.160E-02    0.92       1.0  T
   3   -212.3173065  0.317884E-04  0.137E-02    0.92       1.0  T
   4   -212.3173409 -0.344240E-04  0.157E-03    0.92       5.8  T
   5   -212.3173412 -0.277410E-06  0.827E-04    0.92      10.9  T
   6   -212.3173412 -0.808272E-07  0.369E-04    0.92      24.5  T
     SCC iter.                  ...        0 min,  0.181 sec
     gradient                   ...        0 min,  0.146 sec
 * total energy  :  -208.2775169 Eh     change       -0.3111333E-03 Eh
   gradient norm :     0.0023084 Eh/α   predicted    -0.2232206E-03 ( -28.26%)
   displ. norm   :     0.3946028 α      lambda       -0.2484735E-03
   maximum displ.:     0.3080503 α      in ANC's #15, #17, #13, ...

........................................................................
.............................. CYCLE   41 ..............................
........................................................................
   1   -212.3209521 -0.212321E+03  0.238E-02    0.92       0.0  T
   2   -212.3209517  0.443676E-06  0.144E-02    0.92       1.0  T
   3   -212.3209276  0.240883E-04  0.118E-02    0.92       1.0  T
   4   -212.3209534 -0.257975E-04  0.132E-03    0.92       6.9  T
   5   -212.3209536 -0.200385E-06  0.702E-04    0.92      12.9  T
   6   -212.3209536 -0.578558E-07  0.322E-04    0.92      28.1  T
     SCC iter.                  ...        0 min,  0.176 sec
     gradient                   ...        0 min,  0.146 sec
 * total energy  :  -208.2777282 Eh     change       -0.2113682E-03 Eh
   gradient norm :     0.0018565 Eh/α   predicted    -0.1435830E-03 ( -32.07%)
   displ. norm   :     0.4664120 α      lambda       -0.1598937E-03
   maximum displ.:     0.3709237 α      in ANC's #15, #17, #13, ...

........................................................................
.............................. CYCLE   42 ..............................
........................................................................
   1   -212.3232495 -0.212323E+03  0.306E-02    0.92       0.0  T
   2   -212.3232490  0.540257E-06  0.183E-02    0.92       1.0  T
   3   -212.3232147  0.342802E-04  0.141E-02    0.92       1.0  T
   4   -212.3232513 -0.366574E-04  0.137E-03    0.92       6.6  T
   5   -212.3232515 -0.214610E-06  0.731E-04    0.92      12.4  T
   6   -212.3232516 -0.566737E-07  0.346E-04    0.92      26.2  T
     SCC iter.                  ...        0 min,  0.179 sec
     gradient                   ...        0 min,  0.147 sec
 * total energy  :  -208.2779202 Eh     change       -0.1919459E-03 Eh
   gradient norm :     0.0017806 Eh/α   predicted    -0.8767749E-04 ( -54.32%)
   displ. norm   :     0.3079322 α      lambda       -0.8632919E-04
   maximum displ.:     0.2515314 α      in ANC's #15, #17, #13, ...
 * RMSD in coord.:     1.2990837 α      energy gain  -0.7428682E-01 Eh

generating ANC from model Hessian ...
Using Lindh-Hessian (1995)
 Shifting diagonal of input Hessian by    9.9965253041617921E-003
 Lowest  eigenvalues of input Hessian
    0.000000    0.000000    0.000000    0.000000    0.000000    0.000000
    0.010000    0.010004    0.010009    0.010011    0.010015    0.010018
    0.010043    0.010061    0.010077    0.010198    0.010610    0.010701
 Highest eigenvalues
    2.271056    2.273338    2.690234    2.690569    3.027053    3.027135


........................................................................
.............................. CYCLE   43 ..............................
........................................................................
   1   -212.3269434 -0.212327E+03  0.244E-02    0.92       0.0  T
   2   -212.3269432  0.215137E-06  0.145E-02    0.92       1.0  T
   3   -212.3269248  0.183798E-04  0.101E-02    0.92       1.0  T
   4   -212.3269442 -0.193380E-04  0.123E-03    0.92       7.4  T
   5   -212.3269444 -0.186722E-06  0.638E-04    0.92      14.2  T
   6   -212.3269444 -0.512800E-07  0.283E-04    0.92      32.0  T
     SCC iter.                  ...        0 min,  0.179 sec
     gradient                   ...        0 min,  0.146 sec
 * total energy  :  -208.2780186 Eh     change       -0.9846185E-04 Eh
   gradient norm :     0.0021677 Eh/α   predicted     0.0000000E+00 (-100.00%)
   displ. norm   :     0.0451475 α      lambda       -0.4601225E-05
   maximum displ.:     0.0297130 α      in ANC's #18, #17, #26, ...

........................................................................
.............................. CYCLE   44 ..............................
........................................................................
   1   -212.3273478 -0.212327E+03  0.113E-02    0.92       0.0  T
   2   -212.3273478 -0.298360E-07  0.668E-03    0.92       1.4  T
   3   -212.3273475  0.273458E-06  0.121E-03    0.92       7.5  T
   4   -212.3273478 -0.277147E-06  0.362E-04    0.92      25.0  T
   5   -212.3273478 -0.192811E-07  0.178E-04    0.92      50.8  T
     SCC iter.                  ...        0 min,  0.149 sec
     gradient                   ...        0 min,  0.147 sec
 * total energy  :  -208.2780433 Eh     change       -0.2465223E-04 Eh
   gradient norm :     0.0010128 Eh/α   predicted    -0.1604983E-04 ( -34.90%)
   displ. norm   :     0.2609492 α      lambda       -0.9747473E-04
   maximum displ.:     0.1475683 α      in ANC's #18, #17, #13, ...

........................................................................
.............................. CYCLE   45 ..............................
........................................................................
   1   -212.3287200 -0.212329E+03  0.524E-02    0.92       0.0  T
   2   -212.3287206 -0.631527E-06  0.309E-02    0.92       1.0  T
   3   -212.3287067  0.139805E-04  0.850E-03    0.92       1.1  T
   4   -212.3287210 -0.143048E-04  0.199E-03    0.92       4.6  T
   5   -212.3287215 -0.534852E-06  0.902E-04    0.92      10.0  T
   6   -212.3287215 -0.451113E-07  0.542E-04    0.92      16.7  T
     SCC iter.                  ...        0 min,  0.179 sec
     gradient                   ...        0 min,  0.146 sec
 * total energy  :  -208.2780063 Eh     change        0.3695408E-04 Eh
   gradient norm :     0.0072141 Eh/α   predicted    -0.5021608E-04 (-235.89%)
   displ. norm   :     0.0799851 α      lambda       -0.1665457E-03
   maximum displ.:     0.0435459 α      in ANC's #18, #17, #14, ...

........................................................................
.............................. CYCLE   46 ..............................
........................................................................
   1   -212.3290877 -0.212329E+03  0.260E-02    0.92       0.0  T
   2   -212.3290878 -0.518373E-07  0.155E-02    0.92       1.0  T
   3   -212.3290864  0.136361E-05  0.270E-03    0.92       3.4  T
   4   -212.3290878 -0.142346E-05  0.535E-04    0.92      16.9  T
   5   -212.3290879 -0.194531E-07  0.318E-04    0.92      28.5  T
   6   -212.3290879 -0.328151E-08  0.175E-04    0.92      51.6  T
     SCC iter.                  ...        0 min,  0.176 sec
     gradient                   ...        0 min,  0.146 sec
 * total energy  :  -208.2781124 Eh     change       -0.1060505E-03 Eh
   gradient norm :     0.0052607 Eh/α   predicted    -0.8380582E-04 ( -20.98%)
   displ. norm   :     0.1041046 α      lambda       -0.1565811E-03
   maximum displ.:     0.0602744 α      in ANC's #12, #17, #18, ...

........................................................................
.............................. CYCLE   47 ..............................
........................................................................
   1   -212.3285515 -0.212329E+03  0.422E-02    0.92       0.0  T
   2   -212.3285516 -0.148819E-06  0.253E-02    0.92       1.0  T
   3   -212.3285458  0.589136E-05  0.619E-03    0.92       1.5  T
   4   -212.3285519 -0.616735E-05  0.963E-04    0.92       9.4  T
   5   -212.3285520 -0.895826E-07  0.495E-04    0.92      18.3  T
   6   -212.3285520 -0.104833E-08  0.371E-04    0.92      24.4  T
     SCC iter.                  ...        0 min,  0.179 sec
     gradient                   ...        0 min,  0.146 sec
 * total energy  :  -208.2780606 Eh     change        0.5176061E-04 Eh
   gradient norm :     0.0041922 Eh/α   predicted    -0.7913937E-04 (-252.89%)
   displ. norm   :     0.0717642 α      lambda       -0.2313603E-03
   maximum displ.:     0.0398135 α      in ANC's #12, #18, #11, ...

........................................................................
.............................. CYCLE   48 ..............................
........................................................................
   1   -212.3292344 -0.212329E+03  0.358E-02    0.92       0.0  T
   2   -212.3292344 -0.493773E-08  0.214E-02    0.92       1.0  T
   3   -212.3292303  0.418479E-05  0.515E-03    0.92       1.8  T
   4   -212.3292346 -0.433117E-05  0.675E-04    0.92      13.4  T
   5   -212.3292346 -0.499597E-07  0.387E-04    0.92      23.4  T
   6   -212.3292347 -0.975427E-08  0.189E-04    0.92      47.8  T
     SCC iter.                  ...        0 min,  0.175 sec
     gradient                   ...        0 min,  0.146 sec
 * total energy  :  -208.2781754 Eh     change       -0.1147584E-03 Eh
   gradient norm :     0.0014202 Eh/α   predicted    -0.1162776E-03 (   1.32%)
   displ. norm   :     0.1248995 α      lambda       -0.3901533E-04
   maximum displ.:     0.0663776 α      in ANC's #18, #17, #13, ...

........................................................................
.............................. CYCLE   49 ..............................
........................................................................
   1   -212.3295873 -0.212330E+03  0.263E-02    0.92       0.0  T
   2   -212.3295875 -0.107581E-06  0.156E-02    0.92       1.0  T
   3   -212.3295854  0.209983E-05  0.358E-03    0.92       2.5  T
   4   -212.3295875 -0.219095E-05  0.732E-04    0.92      12.4  T
   5   -212.3295876 -0.452871E-07  0.428E-04    0.92      21.1  T
   6   -212.3295876 -0.741150E-08  0.268E-04    0.92      33.8  T
     SCC iter.                  ...        0 min,  0.179 sec
     gradient                   ...        0 min,  0.146 sec
 * total energy  :  -208.2781877 Eh     change       -0.1229391E-04 Eh
   gradient norm :     0.0022905 Eh/α   predicted    -0.1964653E-04 (  59.81%)
   displ. norm   :     0.1243302 α      lambda       -0.5220803E-04
   maximum displ.:     0.0651920 α      in ANC's #18, #17, #13, ...

........................................................................
.............................. CYCLE   50 ..............................
........................................................................
   1   -212.3298452 -0.212330E+03  0.224E-02    0.92       0.0  T
   2   -212.3298453 -0.812550E-07  0.134E-02    0.92       1.0  T
   3   -212.3298442  0.112229E-05  0.269E-03    0.92       3.4  T
   4   -212.3298454 -0.120300E-05  0.517E-04    0.92      17.5  T
   5   -212.3298454  0.108446E-08  0.387E-04    0.92      23.4  T
   6   -212.3298454 -0.115657E-07  0.190E-04    0.92      47.6  T
     SCC iter.                  ...        0 min,  0.177 sec
     gradient                   ...        0 min,  0.146 sec
 * total energy  :  -208.2782126 Eh     change       -0.2493913E-04 Eh
   gradient norm :     0.0022162 Eh/α   predicted    -0.2651161E-04 (   6.31%)
   displ. norm   :     0.1825149 α      lambda       -0.7452137E-04
   maximum displ.:     0.1172636 α      in ANC's #18, #17, #13, ...

........................................................................
.............................. CYCLE   51 ..............................
........................................................................
   1   -212.3300083 -0.212330E+03  0.358E-02    0.92       0.0  T
   2   -212.3300085 -0.182730E-06  0.211E-02    0.92       1.0  T
   3   -212.3300039  0.458750E-05  0.523E-03    0.92       1.7  T
   4   -212.3300087 -0.481043E-05  0.921E-04    0.92       9.8  T
   5   -212.3300088 -0.763254E-07  0.493E-04    0.92      18.4  T
   6   -212.3300088 -0.834308E-08  0.323E-04    0.92      28.1  T
     SCC iter.                  ...        0 min,  0.178 sec
     gradient                   ...        0 min,  0.146 sec
 * total energy  :  -208.2782506 Eh     change       -0.3800061E-04 Eh
   gradient norm :     0.0011988 Eh/α   predicted    -0.3850617E-04 (   1.33%)
   displ. norm   :     0.1465246 α      lambda       -0.1770636E-04
   maximum displ.:     0.0819652 α      in ANC's #18, #17, #13, ...

........................................................................
.............................. CYCLE   52 ..............................
........................................................................
   1   -212.3308214 -0.212331E+03  0.182E-02    0.92       0.0  T
   2   -212.3308215 -0.714182E-07  0.107E-02    0.92       1.0  T
   3   -212.3308195  0.201790E-05  0.336E-03    0.92       2.7  T
   4   -212.3308216 -0.213689E-05  0.485E-04    0.92      18.7  T
   5   -212.3308216 -0.139252E-07  0.308E-04    0.92      29.4  T
   6   -212.3308216 -0.517616E-08  0.188E-04    0.92      48.1  T
     SCC iter.                  ...        0 min,  0.178 sec
     gradient                   ...        0 min,  0.146 sec
 * total energy  :  -208.2782700 Eh     change       -0.1938747E-04 Eh
   gradient norm :     0.0011679 Eh/α   predicted    -0.8939421E-05 ( -53.89%)
   displ. norm   :     0.2093097 α      lambda       -0.1975233E-04
   maximum displ.:     0.1106216 α      in ANC's #18, #17, #13, ...

........................................................................
.............................. CYCLE   53 ..............................
........................................................................
   1   -212.3317429 -0.212332E+03  0.255E-02    0.92       0.0  T
   2   -212.3317430 -0.118276E-06  0.150E-02    0.92       1.0  T
   3   -212.3317379  0.512446E-05  0.518E-03    0.92       1.7  T
   4   -212.3317433 -0.544160E-05  0.605E-04    0.92      15.0  T
[...]
 121: 10.80 122: 11.17 123: 10.97 124: 10.97 125: 10.86 126: 10.34 127:  9.64 128:  9.61
 129:  9.56 130:  9.59 131:  4.77 132:  4.69 133:  2.78 134: 11.11 135: 11.29 136: 11.29
 137: 11.43 138: 11.72 139: 11.56 140: 11.06 141: 11.06 142: 10.69 143: 10.50 144:  2.24
 145:  2.35 146:  2.08 147: 10.79 148: 10.75 149: 10.87 150: 10.67 151: 10.42 152: 10.41
 153: 11.43 154: 11.22 155: 11.20 156: 11.29 157: 11.31 158: 11.31 159: 11.63 160: 11.58
 161: 11.58 162: 11.59 163:  3.69 164:  3.69 165:  3.85 166:  3.85 167:  3.86 168:  3.88
 169:  4.24 170:  4.24 171:  4.33 172:  4.33 173:  4.42 174:  4.41 175:  3.80 176:  3.80
 177:  3.74 178:  3.74 179:  3.67 180:  3.65 181:  4.02 182:  4.02 183:  3.71 184:  3.70
 185:  3.73 186:  3.74 187:  3.81 188:  3.81 189:  3.43 190:  3.43 191:  3.39 192:  3.38
 193:  3.39 194:  3.37 195: 11.38 196: 11.43 197: 10.99 198: 10.94 199:  7.05 200:  6.77
 201:  6.81 202:  8.79 203:  8.71 204:  8.71 205: 11.00 206: 11.00 207:  8.84 208:  8.89
 209:  8.95 210:  9.11 211:  8.65 212:  8.46 213:  9.09 214:  9.09 215:  8.89 216: 10.66
 217: 10.74 218: 10.25 219:  9.31 220:  9.30 221:  1.78 222:  1.79 223:  1.97 224:  1.86
 225:  1.84 226:  1.93 227:  2.16 228:  2.15 229:  2.15 230:  1.98 231:  1.92 232:  1.92
 233:  7.16 234:  7.17 235:  5.99 236:  5.35 237:  5.39 238:  6.32 239:  6.71 240:  7.18
 241:  7.10 242:  5.64 243:  7.72 244:  7.29 245:  6.95 246:  6.63 247:  6.00 248:  6.49
 249:  7.04 250:  9.88 251:  9.55 252:  9.15 253:  8.87 254:  8.58 255:  8.59 256:  7.89
 257:  8.01 258:  8.11 259:  8.59 260:  8.65 261:  8.65 262: 11.70 263: 11.25 264: 11.59
 265: 10.97 266: 10.98 267: 11.98 268: 11.02 269: 10.70 270: 10.83 271: 11.22 272: 11.23
 273: 10.21 274: 10.62 275: 10.49 276: 11.02 277:  9.60 278:  9.59 279: 10.81 280: 11.26
 281: 11.26 282: 11.51 283: 10.77 284: 10.75 285: 10.67 286: 10.64 287: 10.58 288: 11.53
 289: 11.66 290: 11.60 291: 11.69 292: 11.67 293: 11.44 294: 11.47 295: 11.45 296: 11.79
 297: 11.80 298: 11.75 299: 11.63 300: 11.80 301: 11.64 302: 11.80 303: 11.67 304: 11.68
 305: 11.69 306: 11.46 307: 11.46 308: 11.76 309: 11.69 310: 11.72 311: 11.74 312: 11.66
 313: 11.69 314: 11.62 315: 11.61 316: 11.61 317: 11.69 318: 11.72 319: 11.72 320: 11.77
 321: 11.72 322: 11.72 323: 12.01 324: 12.01 325: 12.01 326: 12.01 327: 12.01 328: 12.01
 329:  1.80 330:  1.80 331:  1.80 332:  1.80 333:  1.80 334:  1.80 335:  1.81 336:  1.81
 337:  1.80 338:  1.80 339:  1.81 340:  1.81 341:  1.81 342:  1.81 343:  1.98 344:  1.98
 345:  1.82 346:  1.82 347:  1.82 348:  1.82 349:  1.82 350:  1.82 351:  1.97 352:  1.97
 353:  1.97 354:  1.97 355:  1.96 356:  1.96 357:  1.96 358:  1.96 359:  1.96 360:  1.96
 361:  1.90 362:  1.89 363:  1.89 364:  1.89 365:  1.89 366:  1.89
 IR intensities (km·mol⁻¹)
   1:  1.93   2:  2.00   3:  0.15   4:  0.22   5:  0.23   6:  0.70   7:  1.12   8:  0.38
   9:  0.03  10:  0.30  11:  0.01  12:  0.06  13:  0.60  14:  0.24  15:  1.29  16:  0.02
  17:  0.01  18:  3.13  19:  9.34  20:  7.73  21:  1.53  22:  9.01  23:  0.39  24:  6.80
  25:  0.02  26: 19.82  27: 24.81  28:  4.01  29:  3.28  30: 14.06  31: 11.49  32:  4.08
  33:  0.95  34:  0.33  35:  0.43  36:  0.99  37:  0.64  38:  0.11  39:  0.01  40:  0.82
  41:  0.02  42:  0.50  43:  2.93  44:  4.82  45:  0.02  46:  3.03  47:  0.63  48:  0.27
  49:  0.11  50:  0.03  51:  1.52  52:  4.88  53: 19.27  54: 13.63  55:  4.87  56:  1.62
  57:  3.50  58:  1.62  59:  1.15  60:  4.20  61:  0.90  62: 12.33  63:  0.19  64:  6.82
  65: 19.32  66:  0.02  67:  4.73  68:  0.43  69:  0.00  70:  0.00  71:  0.67  72:  2.43
  73:  0.02  74: 14.51  75:  0.12  76:  0.20  77:  0.06  78:  0.79  79:  0.29  80:  0.02
  81:  5.93  82:  6.31  83:  6.48  84:  0.06  85: 12.84  86:  0.09  87:  1.99  88:  0.13
  89:  0.03  90:  0.25  91:  0.35  92:  0.00  93:  0.35  94:  0.20  95:  5.96  96:  0.00
  97:  3.12  98:  0.01  99:  0.45 100:  0.46 101:  0.76 102:  0.08 103:  0.34 104:  0.03
 105:  0.02 106: 23.81 107: 18.16 108:  9.65 109:  4.76 110:  0.49 111:  6.35 112: 25.57
 113: 20.40 114:  0.33 115:  0.26 116:  0.03 117:  0.05 118:  0.05 119:  0.04 120:  3.06
 121:  6.04 122:  9.20 123:  2.54 124:  2.32 125:  5.58 126:  0.09 127:  2.63 128:  0.53
 129: 10.46 130:  5.58 131:  1.46 132:  2.37 133:  0.02 134:  4.64 135:  1.35 136:  2.77
 137:  0.01 138:  0.02 139: 16.76 140:  0.13 141:  7.82 142:  6.89 143: 44.31 144:292.03
 145:319.66 146:367.12 147:  1.39 148: 15.64 149:  2.05 150:  1.85 151:  5.31 152:  0.24
 153:  0.09 154: 17.26 155:  0.12 156:  2.60 157: 13.21 158:  0.37 159:  5.49 160:  0.15
 161:  1.53 162:  0.01 163: 19.22 164: 24.63 165: 44.83 166:  1.71 167:  1.61 168:  0.17
 169: 11.78 170: 10.86 171:  0.11 172: 20.10 173:  9.74 174:  9.91 175: 10.09 176:  6.58
 177: 12.29 178: 10.16 179: 56.60 180:  0.02 181: 59.68 182: 65.28 183: 32.30 184: 30.11
 185:  4.55 186:  6.06 187: 73.95 188:  0.09 189:  6.28 190:  6.49 191:  6.81 192:  2.48
 193: 12.82 194:  2.43 195:  7.98 196:  0.00 197:  4.69 198:  0.05 199:  0.07 200: 34.54
 201:  0.47 202:  6.86 203: 33.35 204:  0.47 205: 32.54 206: 50.12 207: 82.88 208:  1.76
 209:  0.00 210: 52.56 211:  2.03 212:  0.00 213: 37.49 214:  0.13 215: 40.58 216:  0.40
 217: 33.34 218:  0.00 219:  0.04 220: 41.62 221:  0.44 222:  8.19 223:  6.95 224:  3.12
 225:  6.97 226:  0.01 227:  1.01 228:  3.10 229: 21.59 230:  0.02 231: 14.40 232: 21.26
 233:  0.02 234:  7.69 235:  0.02 236:  2.71 237:  9.72 238:  0.00 239: 16.83 240:  0.01
 241:271.29 242:  0.04 243:185.29 244:  0.05 245:  0.04 246: 83.04 247:  0.34 248:  5.81
 249:  0.00 250:  8.51 251:  0.02 252: 78.12 253:315.67 254: 75.99 255: 19.99 256: 10.24
 257:  0.03 258:  3.16 259:  0.00 260:  6.00 261:  2.21 262:  0.00 263:  0.28 264:  0.02
 265: 14.49 266:  2.20 267:108.98 268:  0.02 269: 84.21 270:  0.11 271:  9.90 272:  1.93
 273:  0.16 274:301.43 275:  0.02 276: 27.08 277: 86.84 278: 29.68 279:141.18 280: 14.73
 281: 10.62 282:  0.06 283: 87.07 284: 10.02 285:  2.72 286:  0.01 287:  2.09 288:  0.00
 289:  8.55 290:  0.02 291:  0.88 292:  0.02 293:  0.00 294: 34.17 295:  0.02 296: 15.54
 297:  0.04 298: 69.19 299: 62.61 300:  0.27 301:  7.89 302:  0.02 303:  3.72 304:  0.07
 305: 57.93 306: 49.93 307: 11.29 308:  0.01 309: 57.87 310:  3.60 311:135.86 312:  0.45
 313: 50.01 314:  0.18 315: 31.97 316: 20.43 317:379.49 318:105.18 319:  4.01 320:  0.03
 321:137.77 322:  5.56 323:  0.05 324: 41.63 325:  0.87 326:  1.65 327:  0.03 328:  4.53
 329:  8.27 330:  0.02 331:  9.04 332:  7.70 333:  4.72 334:  2.96 335: 22.65 336:  4.35
 337: 21.05 338: 30.27 339: 44.02 340: 42.66 341: 14.02 342: 40.78 343:525.85 344: 50.15
 345: 52.63 346: 55.46 347: 15.84 348: 35.65 349: 10.28 350: 30.65 351: 18.10 352:  6.34
 353: 23.08 354:150.61 355:271.61 356: 75.98 357: 11.28 358: 25.59 359:  9.06 360: 66.84
 361:  2.20 362:  0.05 363: 10.25 364: 14.42 365:  8.14 366:  3.60
 Raman intensities (amu)
   1:  0.00   2:  0.00   3:  0.00   4:  0.00   5:  0.00   6:  0.00   7:  0.00   8:  0.00
   9:  0.00  10:  0.00  11:  0.00  12:  0.00  13:  0.00  14:  0.00  15:  0.00  16:  0.00
  17:  0.00  18:  0.00  19:  0.00  20:  0.00  21:  0.00  22:  0.00  23:  0.00  24:  0.00
  25:  0.00  26:  0.00  27:  0.00  28:  0.00  29:  0.00  30:  0.00  31:  0.00  32:  0.00
  33:  0.00  34:  0.00  35:  0.00  36:  0.00  37:  0.00  38:  0.00  39:  0.00  40:  0.00
  41:  0.00  42:  0.00  43:  0.00  44:  0.00  45:  0.00  46:  0.00  47:  0.00  48:  0.00
  49:  0.00  50:  0.00  51:  0.00  52:  0.00  53:  0.00  54:  0.00  55:  0.00  56:  0.00
  57:  0.00  58:  0.00  59:  0.00  60:  0.00  61:  0.00  62:  0.00  63:  0.00  64:  0.00
  65:  0.00  66:  0.00  67:  0.00  68:  0.00  69:  0.00  70:  0.00  71:  0.00  72:  0.00
  73:  0.00  74:  0.00  75:  0.00  76:  0.00  77:  0.00  78:  0.00  79:  0.00  80:  0.00
  81:  0.00  82:  0.00  83:  0.00  84:  0.00  85:  0.00  86:  0.00  87:  0.00  88:  0.00
  89:  0.00  90:  0.00  91:  0.00  92:  0.00  93:  0.00  94:  0.00  95:  0.00  96:  0.00
  97:  0.00  98:  0.00  99:  0.00 100:  0.00 101:  0.00 102:  0.00 103:  0.00 104:  0.00
 105:  0.00 106:  0.00 107:  0.00 108:  0.00 109:  0.00 110:  0.00 111:  0.00 112:  0.00
 113:  0.00 114:  0.00 115:  0.00 116:  0.00 117:  0.00 118:  0.00 119:  0.00 120:  0.00
 121:  0.00 122:  0.00 123:  0.00 124:  0.00 125:  0.00 126:  0.00 127:  0.00 128:  0.00
 129:  0.00 130:  0.00 131:  0.00 132:  0.00 133:  0.00 134:  0.00 135:  0.00 136:  0.00
 137:  0.00 138:  0.00 139:  0.00 140:  0.00 141:  0.00 142:  0.00 143:  0.00 144:  0.00
 145:  0.00 146:  0.00 147:  0.00 148:  0.00 149:  0.00 150:  0.00 151:  0.00 152:  0.00
 153:  0.00 154:  0.00 155:  0.00 156:  0.00 157:  0.00 158:  0.00 159:  0.00 160:  0.00
 161:  0.00 162:  0.00 163:  0.00 164:  0.00 165:  0.00 166:  0.00 167:  0.00 168:  0.00
 169:  0.00 170:  0.00 171:  0.00 172:  0.00 173:  0.00 174:  0.00 175:  0.00 176:  0.00
 177:  0.00 178:  0.00 179:  0.00 180:  0.00 181:  0.00 182:  0.00 183:  0.00 184:  0.00
 185:  0.00 186:  0.00 187:  0.00 188:  0.00 189:  0.00 190:  0.00 191:  0.00 192:  0.00
 193:  0.00 194:  0.00 195:  0.00 196:  0.00 197:  0.00 198:  0.00 199:  0.00 200:  0.00
 201:  0.00 202:  0.00 203:  0.00 204:  0.00 205:  0.00 206:  0.00 207:  0.00 208:  0.00
 209:  0.00 210:  0.00 211:  0.00 212:  0.00 213:  0.00 214:  0.00 215:  0.00 216:  0.00
 217:  0.00 218:  0.00 219:  0.00 220:  0.00 221:  0.00 222:  0.00 223:  0.00 224:  0.00
 225:  0.00 226:  0.00 227:  0.00 228:  0.00 229:  0.00 230:  0.00 231:  0.00 232:  0.00
 233:  0.00 234:  0.00 235:  0.00 236:  0.00 237:  0.00 238:  0.00 239:  0.00 240:  0.00
 241:  0.00 242:  0.00 243:  0.00 244:  0.00 245:  0.00 246:  0.00 247:  0.00 248:  0.00
 249:  0.00 250:  0.00 251:  0.00 252:  0.00 253:  0.00 254:  0.00 255:  0.00 256:  0.00
Refinement of some symmetry elements was terminated before convergence was reached.
Some symmetry elements may remain unidentified.
Molecule has no symmetry elements
It seems to be the C1 point group
 257:  0.00 258:  0.00 259:  0.00 260:  0.00 261:  0.00 262:  0.00 263:  0.00 264:  0.00
 265:  0.00 266:  0.00 267:  0.00 268:  0.00 269:  0.00 270:  0.00 271:  0.00 272:  0.00
 273:  0.00 274:  0.00 275:  0.00 276:  0.00 277:  0.00 278:  0.00 279:  0.00 280:  0.00
 281:  0.00 282:  0.00 283:  0.00 284:  0.00 285:  0.00 286:  0.00 287:  0.00 288:  0.00
 289:  0.00 290:  0.00 291:  0.00 292:  0.00 293:  0.00 294:  0.00 295:  0.00 296:  0.00
 297:  0.00 298:  0.00 299:  0.00 300:  0.00 301:  0.00 302:  0.00 303:  0.00 304:  0.00
 305:  0.00 306:  0.00 307:  0.00 308:  0.00 309:  0.00 310:  0.00 311:  0.00 312:  0.00
 313:  0.00 314:  0.00 315:  0.00 316:  0.00 317:  0.00 318:  0.00 319:  0.00 320:  0.00
 321:  0.00 322:  0.00 323:  0.00 324:  0.00 325:  0.00 326:  0.00 327:  0.00 328:  0.00
 329:  0.00 330:  0.00 331:  0.00 332:  0.00 333:  0.00 334:  0.00 335:  0.00 336:  0.00
 337:  0.00 338:  0.00 339:  0.00 340:  0.00 341:  0.00 342:  0.00 343:  0.00 344:  0.00
 345:  0.00 346:  0.00 347:  0.00 348:  0.00 349:  0.00 350:  0.00 351:  0.00 352:  0.00
 353:  0.00 354:  0.00 355:  0.00 356:  0.00 357:  0.00 358:  0.00 359:  0.00 360:  0.00
 361:  0.00 362:  0.00 363:  0.00 364:  0.00 365:  0.00 366:  0.00
 output can be read by thermo (or use thermo option).
 writing <g98.out> molden fake output.
 recommended (thermochemical) frequency scaling factor: 1.0
           -------------------------------------------------
          |             Thermodynamic Functions             |
           -------------------------------------------------

c1  symmetry found (for desy threshold:  0.10E+00) used in thermo

          ...................................................
          :                      SETUP                      :
          :.................................................:
          :  # frequencies                         360      :
          :  # imaginary freq.                       0      :
          :  linear?                             false      :
          :  only rotor calc.                    false      :
          :  symmetry                               c1      :
          :  rotational number                       1      :
          :  scaling factor                  1.0000000      :
          :  rotor cutoff                   50.0000000 cm⁻¹ :
          :  imag. cutoff                  -20.0000000 cm⁻¹ :
          :.................................................:

    mode    ω/cm⁻¹     T·S(HO)/kcal·mol⁻¹    T·S(FR)/kcal·mol⁻¹   T·S(vib)
   ------------------------------------------------------------------------
       1      2.26    -3.26976 (  0.00%)    -1.97398 (100.00%)    -1.97398
       2      2.64    -3.17765 (  0.00%)    -1.92792 (100.00%)    -1.92793
       3      5.08    -2.78949 (  0.01%)    -1.73384 ( 99.99%)    -1.73396
       4      6.13    -2.67856 (  0.02%)    -1.67838 ( 99.98%)    -1.67861
       5      7.03    -2.59709 (  0.04%)    -1.63764 ( 99.96%)    -1.63802
       6      8.71    -2.47016 (  0.09%)    -1.57417 ( 99.91%)    -1.57499
       7     13.25    -2.22184 (  0.49%)    -1.44999 ( 99.51%)    -1.45377
       8     18.91    -2.01105 (  2.01%)    -1.34454 ( 97.99%)    -1.35791
       9     21.39    -1.93824 (  3.24%)    -1.30810 ( 96.76%)    -1.32852
      10     26.42    -1.81323 (  7.23%)    -1.24553 ( 92.77%)    -1.28658
      11     28.90    -1.76008 ( 10.04%)    -1.21891 ( 89.96%)    -1.27327
      12     35.22    -1.64313 ( 19.76%)    -1.16032 ( 80.24%)    -1.25574
      13     41.68    -1.54366 ( 32.57%)    -1.11045 ( 67.43%)    -1.25154
      14     42.57    -1.53129 ( 34.44%)    -1.10424 ( 65.56%)    -1.25130
      15     42.76    -1.52860 ( 34.85%)    -1.10289 ( 65.15%)    -1.25124
      16     46.37    -1.48081 ( 42.51%)    -1.07890 ( 57.49%)    -1.24976
      17     52.77    -1.40455 ( 55.37%)    -1.04059 ( 44.63%)    -1.24210
      18     60.52    -1.32387 ( 68.21%)    -1.00000 ( 31.79%)    -1.22092
      19     66.47    -1.26868 ( 75.75%)    -0.97219 ( 24.25%)    -1.19678
      20     73.95    -1.20609 ( 82.72%)    -0.94059 ( 17.28%)    -1.16020
      21     84.70    -1.12666 ( 89.17%)    -0.90039 ( 10.83%)    -1.10216
      22     86.93    -1.11152 ( 90.13%)    -0.89271 (  9.87%)    -1.08993
      23     91.16    -1.08379 ( 91.70%)    -0.87863 (  8.30%)    -1.06676
      24     92.92    -1.07265 ( 92.26%)    -0.87297 (  7.74%)    -1.05720
      25     93.26    -1.07053 ( 92.37%)    -0.87190 (  7.63%)    -1.05537
      26     98.99    -1.03579 ( 93.89%)    -0.85421 (  6.11%)    -1.02470
      27    106.09    -0.99559 ( 95.30%)    -0.83370 (  4.70%)    -0.98798
      28    113.35    -0.95729 ( 96.35%)    -0.81410 (  3.65%)    -0.95207
      29    113.68    -0.95562 ( 96.39%)    -0.81324 (  3.61%)    -0.95048
      30    115.23    -0.94779 ( 96.58%)    -0.80922 (  3.42%)    -0.94304
      31    118.18    -0.93318 ( 96.90%)    -0.80173 (  3.10%)    -0.92910
      32    119.93    -0.92472 ( 97.07%)    -0.79737 (  2.93%)    -0.92098
      33    141.88    -0.82835 ( 98.48%)    -0.74757 (  1.52%)    -0.82713
      34    141.98    -0.82798 ( 98.49%)    -0.74738 (  1.51%)    -0.82676
      35    143.09    -0.82352 ( 98.53%)    -0.74506 (  1.47%)    -0.82237
      36    148.02    -0.80427 ( 98.71%)    -0.73504 (  1.29%)    -0.80338
      37    149.42    -0.79892 ( 98.76%)    -0.73224 (  1.24%)    -0.79810
      38    156.65    -0.77217 ( 98.97%)    -0.71825 (  1.03%)    -0.77162
      39    179.18    -0.69675 ( 99.40%)    -0.67843 (  0.60%)    -0.69664
      40    180.57    -0.69244 ( 99.42%)    -0.67614 (  0.58%)    -0.69235
      41    181.57    -0.68938 ( 99.43%)    -0.67451 (  0.57%)    -0.68929
      42    182.56    -0.68637 ( 99.44%)    -0.67291 (  0.56%)    -0.68630
      43    184.46    -0.68061 ( 99.46%)    -0.66983 (  0.54%)    -0.68056
      44    185.20    -0.67838 ( 99.47%)    -0.66864 (  0.53%)    -0.67833
      45    196.00    -0.64707 ( 99.58%)    -0.65185 (  0.42%)    -0.64709
      46    199.94    -0.63614 ( 99.61%)    -0.64595 (  0.39%)    -0.63617
      47    201.55    -0.63176 ( 99.62%)    -0.64359 (  0.38%)    -0.63180
      48    202.31    -0.62969 ( 99.63%)    -0.64247 (  0.37%)    -0.62973
      49    203.52    -0.62642 ( 99.64%)    -0.64070 (  0.36%)    -0.62647
      50    219.04    -0.58647 ( 99.73%)    -0.61894 (  0.27%)    -0.58656
      51    251.31    -0.51323 ( 99.84%)    -0.57822 (  0.16%)    -0.51333
      52    264.78    -0.48599 ( 99.87%)    -0.56275 (  0.13%)    -0.48609
      53    264.92    -0.48573 ( 99.87%)    -0.56260 (  0.13%)    -0.48583
      54    265.26    -0.48505 ( 99.87%)    -0.56221 (  0.13%)    -0.48515
      55    265.42    -0.48475 ( 99.87%)    -0.56204 (  0.13%)    -0.48485
      56    265.98    -0.48366 ( 99.88%)    -0.56142 (  0.12%)    -0.48376
      57    268.58    -0.47862 ( 99.88%)    -0.55853 (  0.12%)    -0.47872
      58    274.10    -0.46816 ( 99.89%)    -0.55250 (  0.11%)    -0.46825
      59    281.33    -0.45484 ( 99.90%)    -0.54479 (  0.10%)    -0.45493
      60    282.73    -0.45232 ( 99.90%)    -0.54332 (  0.10%)    -0.45240
      61    293.90    -0.43273 ( 99.92%)    -0.53184 (  0.08%)    -0.43281
      62    297.61    -0.42644 ( 99.92%)    -0.52812 (  0.08%)    -0.42652
      63    298.43    -0.42507 ( 99.92%)    -0.52731 (  0.08%)    -0.42515
   ------------------------------------------------------------------------

   temp. (K)  partition function   enthalpy   heat capacity  entropy
                                   cal/mol     cal/K/mol   cal/K/mol   J/K/mol
 298.15  VIB  0.227E+37            41854.178    268.961    268.202
         ROT  0.102E+10              888.752      2.981     44.210
         INT  0.232E+46            42742.931    271.942    312.413
         TR   0.339E+29             1481.254      4.968     46.765
         TOT                       44224.1845   276.9103   359.1780  1502.8006

       T/K    H(0)-H(T)+PV         H(T)/Eh          T*S/Eh         G(T)/Eh
   ------------------------------------------------------------------------
    298.15    0.704757E-01    0.941978E+00    0.170657E+00    0.771321E+00
   ------------------------------------------------------------------------

         :::::::::::::::::::::::::::::::::::::::::::::::::::::
         ::                  THERMODYNAMIC                  ::
         :::::::::::::::::::::::::::::::::::::::::::::::::::::
         :: total free energy        -207.506982718039 Eh   ::
         ::.................................................::
         :: total energy             -208.278303941812 Eh   ::
         :: zero point energy           0.871502545932 Eh   ::
         :: G(RRHO) w/o ZPVE           -0.100181322159 Eh   ::
         :: G(RRHO) contrib.            0.771321223773 Eh   ::
         :::::::::::::::::::::::::::::::::::::::::::::::::::::

optimized geometry written to: xtbopt.xyz


           -------------------------------------------------
          | TOTAL ENERGY             -208.278303941812 Eh   |
          | TOTAL ENTHALPY           -207.336325671866 Eh   |
          | TOTAL FREE ENERGY        -207.506982718039 Eh   |
          | GRADIENT NORM               0.000426743356 Eh/α |
          | HOMO-LUMO GAP               0.923140152116 eV   |
           -------------------------------------------------

------------------------------------------------------------------------
 * finished run on 2021/11/19 at 15:26:32.276     
------------------------------------------------------------------------
 total:
 * wall-time:     0 d,  0 h,  4 min, 32.254 sec
 *  cpu-time:     0 d,  0 h,  4 min, 32.256 sec
 * ratio c/w:     1.000 speedup
 SCF:
 * wall-time:     0 d,  0 h,  0 min,  1.341 sec
 *  cpu-time:     0 d,  0 h,  0 min,  1.341 sec
 * ratio c/w:     1.000 speedup
 ANC optimizer:
 * wall-time:     0 d,  0 h,  0 min, 26.077 sec
 *  cpu-time:     0 d,  0 h,  0 min, 26.077 sec
 * ratio c/w:     1.000 speedup
 analytical hessian:
 * wall-time:     0 d,  0 h,  4 min,  4.462 sec
 *  cpu-time:     0 d,  0 h,  4 min,  4.464 sec
 * ratio c/w:     1.000 speedup

