122
 energy: -207.330653074392 gnorm: 0.845843687138 xtb: 6.4.1 (bd6e46d)
C        14.79883100000000    3.50701900000000    0.78798000000000
C        15.68880900000000    2.56676000000000    0.58978500000000
C        15.02730800000000    1.30668500000000    0.28897800000000
C        15.38574600000000    0.00102300000000    0.00029600000000
C        14.56056700000000   -1.13004900000000   -0.08492000000000
C        15.01613300000000   -2.33877300000000    0.49638700000000
C        14.04343800000000   -3.27132000000000    0.29623200000000
C        13.01234500000000   -2.60361900000000   -0.40675500000000
N        13.34907000000000   -1.32275900000000   -0.62367000000000
C        11.85438400000000   -3.32973400000000   -0.73847300000000
C        10.53628300000000   -2.88703800000000   -0.62493800000000
C         9.22393700000000   -3.48917200000000   -0.72191700000000
C         8.30230900000000   -2.54252500000000   -0.51583200000000
C         8.99919500000000   -1.29669400000000   -0.27910100000000
N        10.32026800000000   -1.57644600000000   -0.35878700000000
C         8.59995300000000    0.00530300000000   -0.01109800000000
C         9.43256500000000    1.14197900000000    0.06481100000000
C         8.99842200000000    2.34396900000000   -0.54533000000000
C         9.99393500000000    3.26035700000000   -0.35337400000000
C        11.00808600000000    2.58711400000000    0.37055700000000
N        10.64288900000000    1.31929200000000    0.60938100000000
C        12.17772700000000    3.29407000000000    0.69205700000000
C        13.49298000000000    2.89054600000000    0.62204100000000
N        13.68260300000000    1.57944200000000    0.32563900000000
H        14.96609600000000    4.53556300000000    1.02657000000000
H        16.75906800000000    2.69009700000000    0.63880300000000
H        15.97665400000000   -2.52447600000000    1.01496400000000
H        14.08032000000000   -4.32792900000000    0.62155900000000
H        12.74578500000000   -0.55534900000000   -1.17118900000000
H        11.94277500000000   -4.36516100000000   -1.11681900000000
H         9.02526100000000   -4.54987300000000   -0.93066200000000
H         7.23289900000000   -2.73445900000000   -0.53506500000000
H         7.52501000000000    0.09457200000000    0.12664700000000
H         8.04476700000000    2.53552600000000   -1.07412700000000
H         9.97951300000000    4.31058600000000   -0.69981500000000
H        11.23621400000000    0.56184800000000    1.18137800000000
H        12.10921900000000    4.35147500000000    1.04877300000000
C        43.87816900000000   -3.49660300000000    0.82435000000000
C        42.98819200000000   -2.55845300000000    0.61640000000000
C        43.64969300000000   -1.30157100000000    0.30252200000000
C        43.29125500000000    0.00102300000000    0.00029600000000
C        44.11643300000000    1.13114900000000   -0.09666300000000
C        43.66086800000000    2.34584500000000    0.47206000000000
C        44.63356200000000    3.27626300000000    0.26223000000000
C        45.66465600000000    2.60129600000000   -0.43378500000000
N        45.32793100000000    1.31825300000000   -0.63738500000000
C        46.82261700000000    3.32392800000000   -0.77302500000000
C        48.14071700000000    2.88243500000000   -0.65489900000000
C        49.45306400000000    3.48352900000000   -0.75812700000000
C        50.37469200000000    2.53907300000000   -0.54222100000000
C        49.67780600000000    1.29576900000000   -0.29256400000000
N        48.35673200000001    1.57467800000000   -0.37515100000000
C        50.07704800000000   -0.00337500000000   -0.01105300000000
C        49.24443600000000   -1.13920200000000    0.07665700000000
C        49.67857900000001   -2.34746300000000   -0.52096700000000
C        48.68306600000000   -3.26180800000000   -0.31950400000000
C        47.66891500000000   -2.58108300000000    0.39739600000000
N        48.03411200000000   -1.31084900000000    0.62304000000000
C        46.49927300000001   -3.28466200000000    0.72622100000000
C        45.18402000000000   -2.88188600000000    0.65201800000000
N        44.99439700000000   -1.57393200000000    0.34201500000000
H        43.71090500000000   -4.52261400000000    1.07360900000000
H        41.91793300000000   -2.68127500000000    0.66669700000000
H        42.70034600000000    2.53692400000000    0.98868000000000
H        44.59668000000000    4.33619400000000    0.57656600000000
H        45.93121600000001    0.54519800000000   -1.17690400000000
H        46.73422600000000    4.35537000000000   -1.16210600000000
H        49.65173900000001    4.54200500000000   -0.97787600000000
H        51.44410100000000    2.73079700000000   -0.56344700000000
H        51.15199100000000   -0.09120900000000    0.12761200000000
H        50.63223300000001   -2.54450200000000   -1.04774600000000
H        48.69748700000001   -4.31557900000000   -0.65501900000000
H        47.44078700000001   -0.54750600000000    1.18713900000000
H        46.56778100000000   -4.33830500000000    1.09389900000000
C        18.30250200000000    0.01282300000000    0.00458100000000
C        19.51803500000000   -0.01252000000000   -0.00589900000000
C        20.93955200000000   -0.03394400000000   -0.01007500000000
C        22.14811400000000   -0.03615500000000   -0.00997000000000
C        23.56918900000000   -0.01719500000000   -0.01059700000000
C        24.78033100000000    0.01282300000000    0.00458100000000
C        33.89522900000001    0.01282300000000    0.00458100000000
C        35.11076200000000   -0.01252000000000   -0.00589900000000
C        36.53227900000000   -0.03394400000000   -0.01007500000000
C        37.74084000000000   -0.03615500000000   -0.00997000000000
C        39.16191600000001   -0.01719500000000   -0.01059700000000
C        40.37305800000000    0.01282300000000    0.00458100000000
C        26.54386500000000   -3.59565000000000   -0.00024500000000
C        25.66931500000000   -2.60074600000000   -0.01054700000000
C        26.34077900000000   -1.32196300000000    0.00264300000000
C        25.94374800000000   -0.00637700000000   -0.00213600000000
C        26.75494000000000    1.13794600000000   -0.15626200000000
C        26.27591400000000    2.19046300000000   -0.96832800000000
C        27.26299900000000    3.13321500000000   -0.95979600000000
C        28.31027100000000    2.63142000000000   -0.14699400000000
N        27.97141800000000    1.42505300000000    0.32575200000000
C        29.47064800000000    3.40940300000000    0.00735600000000
C        30.79163700000000    2.95153000000000   -0.02203700000000
C        32.10420700000000    3.57966300000000   -0.08316500000000
C        33.01831900000000    2.62459900000000   -0.08574800000000
C        32.34477300000000    1.33772600000000   -0.02655800000000
N        31.03271400000000    1.62632400000000    0.00823100000000
C        32.74705600000000   -0.00637700000000   -0.00213600000000
C        31.91490200000000   -1.12016600000000    0.18014500000000
C        32.35486000000000   -2.15182300000000    1.04345600000000
C        31.35667800000000   -3.07516400000000    1.04807700000000
C        30.33376300000000   -2.59522600000000    0.19464800000000
N        30.70094000000000   -1.41397900000000   -0.31586000000000
C        29.17685300000000   -3.37063400000000    0.03757900000000
C        27.85607800000000   -2.95115600000000    0.02089400000000
N        27.67968700000000   -1.61295200000000    0.02179400000000
H        26.37534600000000   -4.65781800000000   -0.00564700000000
H        24.58148700000000   -2.78678200000000   -0.02757400000000
H        25.31183700000000    2.26583400000000   -1.50264400000000
H        27.22485300000000    4.10433000000000   -1.49223900000000
H        28.57909600000000    0.78795300000000    1.01438200000000
H        29.41554800000000    4.49566500000000    0.15147200000000
H        32.32263400000000    4.64765600000000   -0.12149500000000
H        34.09463400000001    2.77064300000000   -0.12537500000000
H        33.30887000000000   -2.21623500000000    1.60100400000000
H        31.38209700000000   -4.02048100000000    1.62339700000000
H        30.11386400000000   -0.79452300000000   -1.03951000000000
H        29.23757100000000   -4.48237400000000   -0.07655000000000
122
 energy: -207.561929364833 gnorm: 0.284721784813 xtb: 6.4.1 (bd6e46d)
C        14.79149543066886    3.50868577495835    0.79053269618464
C        15.70420156139700    2.55891778343444    0.58487629095496
C        15.02184185399385    1.30794907641651    0.28413221174758
C        15.38443673674010    0.01628770348354    0.00231206345289
C        14.58145740480006   -1.11901403595724   -0.07890212515703
C        15.02582229050550   -2.34242298045331    0.49701761187889
C        14.05065362743074   -3.27498511739438    0.28650154377847
C        13.00480153800040   -2.61620103863154   -0.41435006991277
N        13.34805580951264   -1.31902603021577   -0.62436343691317
C        11.83851637215948   -3.33335657986247   -0.74664181820129
C        10.53347125566251   -2.86776160636425   -0.63434192977993
C         9.22508133197047   -3.49794231810385   -0.72772833367889
C         8.29827007556604   -2.54667763787807   -0.51378118894359
C         9.01473582412380   -1.30341303993096   -0.26832648152262
N        10.33683700835135   -1.56181245784685   -0.35458312436914
C         8.59520624905407   -0.00992686062849   -0.00656779606117
C         9.41784337653099    1.13479967278709    0.06309381901463
C         8.99082529059794    2.34720593162404   -0.53833359478156
C         9.98822940983887    3.26510006507372   -0.34502256595745
C        11.01561664612329    2.60275363672521    0.37458590549869
N        10.64991430841501    1.31483506090205    0.60093829324700
C        12.18832856205724    3.30609073002679    0.70279919208211
C        13.49434952893025    2.86906346380376    0.62660401404425
N        13.67810135544521    1.56345798995228    0.32678705024082
H        14.96166426009581    4.53908263795242    1.02792381305078
H        16.76725324318214    2.68499514268793    0.63718383998099
H        15.96887937355735   -2.51756511940301    1.01126068183635
H        14.07560731208383   -4.31484075721949    0.61557332306310
H        12.76486795032506   -0.58264735812443   -1.14543642256796
H        11.94434444320282   -4.36464939327014   -1.09867689932502
H         9.02945020297974   -4.54628495506097   -0.93049550827214
H         7.23367294244627   -2.72735822482166   -0.53304799552593
H         7.52347457621290    0.10134711453142    0.11393546226586
H         8.05495949651322    2.52789944090239   -1.06820273564707
H         9.98441253999719    4.29796207208638   -0.69449073418302
H        11.21724004721317    0.58785027157435    1.15278574016988
H        12.10270335857984    4.35119138954120    1.03415773350721
C        43.88550446032573   -3.49823026121223    0.82692099953434
C        42.97278047510783   -2.55064844627491    0.61140901599252
C        43.65510696596511   -1.30282213697335    0.29768407320251
C        43.29257600861266   -0.01404394708472    0.00241498992839
C        44.09560158873961    1.12021308971661   -0.09054170410044
C        43.65119347953958    2.34951586459605    0.47265262695059
C        44.62635255503992    3.27983296214792    0.25246813656974
C        45.67221537252286    2.61381143993504   -0.44151219419482
N        45.32898599276250    1.31452804843466   -0.63803812552130
C        46.83848815387042    3.32747239808144   -0.78123391270686
C        48.14353117261173    2.86306346270892   -0.66410290152098
C        49.45192060231182    3.49223943305956   -0.76402729672490
C        50.37873093803249    2.54324693575518   -0.54021312602540
C        49.66226517171708    1.30259980322570   -0.28185981879032
N        48.34016320251348    1.56008992671080   -0.37079421561156
C        50.08179427597277    0.01190111357766   -0.00668249539324
C        49.25915795934817   -1.13204037890586    0.07486422337255
C        49.68617519324206   -2.35062698490147   -0.51393744788769
C        48.68877003476977   -3.26646421421981   -0.31110390205954
C        47.66138233881149   -2.59667892316135    0.40158694130794
N        48.02708753026957   -1.30648023316973    0.61455232246270
C        46.48866426957591   -3.29656468401063    0.73707959277922
C        45.18263734282554   -2.86033848300497    0.65634611760509
N        44.99885996562598   -1.55791411912626    0.34299570654535
H        43.71534020138908   -4.52611429873363    1.07499455017331
H        41.90975162831011   -2.67621321177690    0.66502551850268
H        42.70812829261693    2.52997504599428    0.98504057667755
H        44.60139271937054    4.32304846242158    0.57071731460548
H        45.91214244302600    0.57276689181172   -1.15144182862490
H        46.73265819278406    4.35505121538965   -1.14395911827714
H        49.64755019980011    4.53841928147754   -0.97767122167692
H        51.44332739234758    2.72371757085269   -0.56135631324687
H        51.15352609590884   -0.09811575607114    0.11497049962639
H        50.62203984182807   -2.53681414395739   -1.04190308576985
H        48.69258695154224   -4.30289996301915   -0.64982847282545
H        47.45976092022773   -0.57380316729599    1.15881657923397
H        46.57429333699741   -4.33816990024333    1.07927687196024
C        18.29868172211561    0.01061859716569    0.00522094725021
C        19.52263230384954   -0.01366086007173   -0.00531313214580
C        20.91471250698658   -0.03330485659763   -0.01014819991209
C        22.13692850590620   -0.03515006160562   -0.00833864247677
C        23.49030151371075   -0.01311059319446   -0.00943775800350
C        24.69316621790685    0.02253183309108   -0.00243887509490
C        33.98764072214481    0.00669796198535    0.01101041269084
C        35.19137870181115   -0.02017270910228   -0.00572216492574
C        36.54298107332323   -0.03241623864143   -0.01245230711161
C        37.76525483450748   -0.03431658448765   -0.01025105964130
C        39.15626706803364   -0.01726680952464   -0.00991313494241
C        40.37959782147632    0.01330367593257    0.00558184130447
C        26.55538406493385   -3.59938690489551   -0.00264103646100
C        25.65981334665477   -2.60289880696224   -0.00881190136149
C        26.38128917302120   -1.34594244928337    0.01055140594674
C        25.98995555760028   -0.01520340577397   -0.00009218372264
C        26.76614683124586    1.13803290847955   -0.16124660849950
C        26.27761939034313    2.19347641718970   -0.96334353283528
C        27.26297446974029    3.14525449302913   -0.95336181882387
C        28.32014843702095    2.65178687896606   -0.14636598645721
N        27.98688883472582    1.42611924584760    0.32166406977147
C        29.49035117642502    3.41928951963019    0.01436789983458
C        30.79177062460977    2.94661760532067   -0.01159786990497
C        32.09913248350406    3.59246352412445   -0.07920632393614
C        33.02272461727019    2.62198242928177   -0.08748966206926
C        32.30194082239991    1.35760991160510   -0.03569087259823
N        31.00105779151844    1.61480627793801    0.00488214972075
C        32.69377343624147    0.00839999931559   -0.00441845805598
C        31.90023933168517   -1.12061771361927    0.18554107352594
C        32.35506596331965   -2.15350508961560    1.03815832678042
C        31.35813351922187   -3.08849796035267    1.04352116935155
C        30.32590655461445   -2.61720972926694    0.19476115197534
N        30.68481729972426   -1.41473413687210   -0.31177323893377
C        29.16356617267030   -3.39047356401603    0.02877627332520
C        27.86130216039200   -2.94446206688730    0.01047841571382
N        27.69612288351161   -1.60722556362236    0.02427554168592
H        26.37935484685710   -4.65803223968697   -0.00596362023934
H        24.58469220565888   -2.77587874861935   -0.02703103560009
H        25.32489841784333    2.25779922320507   -1.49369644972976
H        27.23046348893606    4.09555628689519   -1.48525553022853
H        28.56267597800323    0.80931946638128    0.98382216131883
H        29.41153363084493    4.49679536440162    0.13702112640730
H        32.31605881712490    4.64892658439000   -0.12097814829552
H        34.09326528006716    2.76426733945327   -0.12590883543284
H        33.29626334995905   -2.20792811138306    1.59122536053337
H        31.37589692026518   -4.01354390264006    1.61635313629000
H        30.12956819383177   -0.81552639293836   -1.00778359767674
H        29.24562507591170   -4.48092618401925   -0.06270147958340
122
 energy: -207.649487841698 gnorm: 0.109675619607 xtb: 6.4.1 (bd6e46d)
C        14.78414741507698    3.49996771667107    0.79500242232241
C        15.71660968437905    2.55271979370925    0.57515539506067
C        15.01734227025260    1.31079666804856    0.27590692690784
C        15.38560999562558    0.02944002073517    0.00428220044317
C        14.60937415231590   -1.11355458345479   -0.07208926298433
C        15.03936065599104   -2.34920079367622    0.49215673091074
C        14.06428846703358   -3.27887066755924    0.26667360935312
C        13.00522077602517   -2.63067824510912   -0.42593065712774
N        13.35804417131937   -1.32306991810232   -0.61912373934911
C        11.82661086319623   -3.33351131149716   -0.75820078711537
C        10.53553233154677   -2.84043446658713   -0.65055993817642
C         9.23210125521176   -3.49849287554481   -0.73833529166840
C         8.30252232568849   -2.54833924809958   -0.50615894721220
C         9.03573490253136   -1.30891159621351   -0.24824242997740
N        10.35712590456938   -1.54283047327479   -0.34856558565335
C         8.59075864627350   -0.02426929022557    0.00235901498003
C         9.40087398195735    1.13108954753525    0.06170040934148
C         8.97972538937561    2.35300980741498   -0.52129024360269
C         9.97666120034650    3.27140086637684   -0.32584090672566
C        11.01997031210617    2.62138816473585    0.37920043002589
N        10.65424487349750    1.31658168197460    0.57921851847293
C        12.19826340378263    3.31598680731502    0.71614191773717
C        13.49444485737228    2.83768444468749    0.63906402588133
N        13.67275842566766    1.53982579755070    0.33623489913592
H        14.95168596068164    4.53478814388011    1.02982578381326
H        16.77814602544306    2.67692702205043    0.63107288776503
H        15.96567947524840   -2.50914261543449    1.00965391976979
H        14.06999015549992   -4.30197543379117    0.60390685654166
H        12.79314900588295   -0.61984229506387   -1.10221890753352
H        11.94480289447173   -4.37083196898324   -1.06043963332176
H         9.04237932160646   -4.53984710907569   -0.93423537175761
H         7.23858247258347   -2.71109293308421   -0.52547530487072
H         7.51912596314944    0.11236999392071    0.08465621896819
H         8.06249361249881    2.51724922031269   -1.05950334186797
H         9.99008953206142    4.28626518418216   -0.68473242315002
H        11.19436876681028    0.62264455032168    1.10197129752601
H        12.09587483759598    4.35848386819644    1.00312688597866
C        43.89283537814806   -3.48941375366992    0.83129821319299
C        42.96033165223887   -2.54451107324889    0.60162202858553
C        43.65949975529269   -1.30566377917773    0.28947543754126
C        43.29137774031845   -0.02703050514239    0.00444270824593
C        44.06771781306649    1.11488221272225   -0.08370612364024
C        43.63767377238061    2.35628703301870    0.46772494106338
C        44.61273033008592    3.28354249162946    0.23260573706375
C        45.67182001117625    2.62819640898579   -0.45324251486410
N        45.31903704590967    1.31865588951163   -0.63284693793016
C        46.85040756280284    3.32752464976596   -0.79279596329778
C        48.14147959968407    2.83557255948956   -0.68004213611806
C        49.44490778820576    3.49268089823295   -0.77464197007376
C        50.37448287978203    2.54498753708919   -0.53261036436724
C        49.64126750048472    1.30830682638657   -0.26183581154467
N        48.31987539092727    1.54117571104702   -0.36458003565962
C        50.08624155791946    0.02633584386154    0.00209286191364
C        49.27612711067069   -1.12834398480558    0.07343275884034
C        49.69727105354818   -2.35625464164556   -0.49683268452511
C        48.70032926821476   -3.27256290762455   -0.29185580004138
C        47.65701581910627   -2.61525170860454    0.40638884650650
N        48.02275653242064   -1.30844673779719    0.59285302049088
C        46.47869212103098   -3.30627938753643    0.75050232391350
C        45.18250283131064   -2.82876084594881    0.66845554085711
N        45.00410855956770   -1.53409708363326    0.35219576204712
H        43.72531783587493   -4.52176034127515    1.07683922291287
H        41.89883731574832   -2.66824229604999    0.65882856605561
H        42.71133236858756    2.52154267640669    0.98349534466334
H        44.60701878174820    4.31008936811501    0.55918362447777
H        45.88388175917569    0.61042422959257   -1.10862377283237
H        46.73221025249792    4.36164291177236   -1.10579467574014
H        49.63462527981385    4.53194335232299   -0.98134700567835
H        51.43842137191195    2.70753042061880   -0.55361796339343
H        51.15787432084484   -0.10944200447688    0.08580444465698
H        50.61450162475312   -2.52607672082932   -1.03331433641592
H        48.68690450938394   -4.29109982024788   -0.64019118175217
H        47.48263241796663   -0.60911678612256    1.10836527894460
H        46.58108898031271   -4.34574798503496    1.04830922970702
C        18.28330598916674    0.00556364600709    0.00708465260820
C        19.51241145723460   -0.01562498645069   -0.00401306909866
C        20.87382790351286   -0.03085141625988   -0.01013213367374
C        22.10308151597672   -0.03203375208047   -0.00444944007830
C        23.42596226795223   -0.00971685637492   -0.00925642789805
C        24.64486783480016    0.03561279302087   -0.02144305304635
C        34.03383438780669   -0.00503906328828    0.02790601737551
C        35.25349286850605   -0.03049603502381   -0.00371761411318
C        36.57607437488345   -0.03174747961982   -0.01613810480187
C        37.80582642903963   -0.03209435622628   -0.01121634786304
C        39.16634033726751   -0.01662185521906   -0.00868377631983
C        40.39556004898716    0.01420946092490    0.00828175060669
C        26.57185281109947   -3.59729111960314   -0.01035795980815
C        25.65704133220474   -2.60502780278787   -0.00290063370407
C        26.40859758599475   -1.35976235564136    0.02758390069191
C        25.98886359192974   -0.02520083114978    0.00325342121782
C        26.75635200995354    1.13802166223029   -0.16435362960727
C        26.27702937184227    2.20366247447490   -0.95233929419922
C        27.25940420341383    3.16211957468541   -0.93847781472885
C        28.32544777484199    2.67808755297711   -0.14440323971056
N        27.99537925212850    1.43042439655866    0.30324021975418
C        29.50589094340010    3.43515849823594    0.02578111189823
C        30.78791407298897    2.94000656037584    0.00605139319087
C        32.09006171746096    3.59828824233971   -0.06869657882249
C        33.01790514240171    2.61790974427908   -0.09280433752093
C        32.26924406365409    1.36775854794831   -0.05406949569080
N        30.96888903434630    1.60124410582812   -0.00315249804874
C        32.69197279771340    0.02635833956144   -0.00766304727694
C        31.91037361443829   -1.12053544692562    0.18911553250000
C        32.35932029001415   -2.16185010482094    1.02758153817481
C        31.36573942478633   -3.10699447655385    1.03083385002769
C        30.32496838332240   -2.64609003381094    0.19371614228954
N        30.67711315688880   -1.41872500452808   -0.29272821790134
C        29.15631308932045   -3.41655211103393    0.01474968728373
C        27.87244696419332   -2.93595131190230   -0.00803801318774
N        27.71149204430069   -1.59722532194119    0.02781384435542
H        26.39094215575177   -4.65521338359759   -0.00949321119438
H        24.59098061093121   -2.75739969031765   -0.02353814282989
H        25.33971593409052    2.24916228243153   -1.48284630149671
H        27.23955704630174    4.09261806462600   -1.47474603802475
H        28.54409313585765    0.83845182236112    0.93067691464354
H        29.40422366719470    4.50904736919087    0.10496635333772
H        32.29956588115272    4.65011678541426   -0.11595422739382
H        34.08507470380775    2.75148311239720   -0.12893347091885
H        33.28355793711136   -2.19809719974558    1.58002361997529
H        31.36695370509485   -4.01318156799268    1.60621393326648
H        30.14761374564639   -0.84435766416846   -0.95247553311578
H        29.25972321168742   -4.49220294134308   -0.03309942377472
122
 energy: -207.692757121351 gnorm: 0.068877542074 xtb: 6.4.1 (bd6e46d)
C        14.77528927315307    3.48250747814197    0.80182988125585
C        15.72162902512497    2.54666493718290    0.56183005821832
C        15.01755868910139    1.30801467582028    0.27018971636169
C        15.39520145094765    0.03083438327957    0.00726598733193
C        14.64353047630344   -1.12145677642912   -0.06677451514649
C        15.06201448783704   -2.36462143770728    0.48329293974906
C        14.08745441903481   -3.28968135873971    0.24421472290523
C        13.02072776365276   -2.64619790105558   -0.43639093965522
N        13.38244025384070   -1.33664936877162   -0.61069842542538
C        11.82915585808498   -3.33088617377100   -0.76382564373120
C        10.54916606078947   -2.81251008287618   -0.66349616230818
C         9.24925522833522   -3.48618949109756   -0.75077454364634
C         8.31866950208867   -2.54232905361724   -0.49269139132758
C         9.05822762488653   -1.30498133964827   -0.22797651234144
N        10.37839817035980   -1.52212954790900   -0.34217685509078
C         8.58856646869363   -0.02692406921272    0.00731052668356
C         9.38493679562882    1.13673733896440    0.05858431175698
C         8.96259093716826    2.36672928226059   -0.49931147507923
C         9.95797469494515    3.28443074819915   -0.30190944631239
C        11.01769290666211    2.63923517639133    0.37940284596879
N        10.65319242845070    1.32558308070206    0.54927551094843
C        12.20244484867131    3.31915692788466    0.72213375993705
C        13.49019021874144    2.80460020136517    0.65708021773238
N        13.66979596869251    1.51226697741708    0.35793693349676
H        14.93392571440066    4.52074934998624    1.03421057519242
H        16.78521718362540    2.66666984888403    0.61436851655389
H        15.97898674748960   -2.50968057710305    1.01264006888427
H        14.07248365656621   -4.30483142223144    0.58747310649140
H        12.81295630421115   -0.63906268072999   -1.05870160428032
H        11.94432147443230   -4.38353650127537   -1.00509114985810
H         9.06834814458646   -4.52692936329225   -0.94756319541710
H         7.25232219316401   -2.68579520253193   -0.50712380863948
H         7.51503815706782    0.12514240729717    0.04092121983555
H         8.05465101836921    2.51454921358790   -1.04769719545055
H         9.98770081893633    4.29027084306629   -0.66914114043577
H        11.18947187352675    0.63818091798523    1.04735577850214
H        12.09435206933645    4.37247721403987    0.95431327875199
C        43.90166786604137   -3.47182850346173    0.83783940270170
C        42.95527200897994   -2.53854594502578    0.58817521876415
C        43.65921327722844   -1.30287765666283    0.28372129004870
C        43.28174105983143   -0.02832773659045    0.00752766664764
C        44.03358481175477    1.12289064470663   -0.07844197620725
C        43.61504904989890    2.37167294923856    0.45874113564574
C        44.58959221397773    3.29417029484359    0.21008429584550
C        45.65633516488259    2.64365891712173   -0.46383767624066
N        45.29465941403537    1.33237589064829   -0.62455392707958
C        46.84788265584772    3.32488619334516   -0.79835649813015
C        48.12786168243066    2.80753554318863   -0.69266265020392
C        49.42776912000435    3.48026579418779   -0.78691047127216
C        50.35834732498471    2.53912703676530   -0.51905704923916
C        49.61878083050792    1.30459492840556   -0.24153097476740
N        48.29860716719335    1.52056114543297   -0.35796917681588
C        50.08843600601006    0.02904634178858    0.00699238637064
C        49.29206302513724   -1.13402084322210    0.07033187976701
C        49.71439338859020   -2.36973328295247   -0.47477732889676
C        48.71899284226782   -3.28532843027551   -0.26787389483233
C        47.65927102222859   -2.63307796280043    0.40669311759159
N        48.02380696879892   -1.31775480669689    0.56295708030324
C        46.47445894256693   -3.30933567253121    0.75642028125685
C        45.18671634302934   -2.79541881797144    0.68602771755924
N        45.00699611653429   -1.50623718913257    0.37354043875532
H        43.74306573201465   -4.50762989005895    1.08094488104441
H        41.89172318809503   -2.65819579729865    0.64195228015515
H        42.69803170780195    2.52212580024089    0.98647919098159
H        44.60455842364154    4.31282150092132    0.54278599898605
H        45.86408361960861    0.63015202744446   -1.06532907397675
H        46.73271892742295    4.37497884147392   -1.05051333439696
H        49.60866894209115    4.51890913610432   -0.99447746914034
H        51.42469305136783    2.68243154680011   -0.53497725362880
H        51.16196367175390   -0.12266880054648    0.04217959294732
H        50.62233205280485   -2.52323979928949   -1.02160339294969
H        48.68927258802458   -4.29492264895364   -0.62466133937532
H        47.48753086713175   -0.62522404168477    1.05388039697679
H        46.58254342636729   -4.36020479933841    0.99951608575265
C        18.23317633133412   -0.00359328653556    0.01148850078893
C        19.46691270461983   -0.01730893070319   -0.00283039968320
C        20.81378115654862   -0.02745019552752   -0.00747075105607