      -----------------------------------------------------------      
     |                   =====================                   |     
     |                           x T B                           |     
     |                   =====================                   |     
     |                         S. Grimme                         |     
     |          Mulliken Center for Theoretical Chemistry        |     
     |                    University of Bonn                     |     
      -----------------------------------------------------------      

   * xtb version 6.4.1 (bd6e46d) compiled by 'conda@4901f00b25ba' on 2021-06-10

   xtb is free software: you can redistribute it and/or modify it under
   the terms of the GNU Lesser General Public License as published by
   the Free Software Foundation, either version 3 of the License, or
   (at your option) any later version.
   
   xtb is distributed in the hope that it will be useful,
   but WITHOUT ANY WARRANTY; without even the implied warranty of
   MERCHANTABILITY or FITNESS FOR A PARTICULAR PURPOSE.  See the
   GNU Lesser General Public License for more details.
   
   Cite this work as:
   * C. Bannwarth, E. Caldeweyher, S. Ehlert, A. Hansen, P. Pracht,
     J. Seibert, S. Spicher, S. Grimme, WIREs Comput. Mol. Sci., 2020, 11,
     e01493. DOI: 10.1002/wcms.1493
   
   for GFN2-xTB:
   * C. Bannwarth, S. Ehlert and S. Grimme., J. Chem. Theory Comput., 2019,
     15, 1652-1671. DOI: 10.1021/acs.jctc.8b01176
   for GFN1-xTB:
   * S. Grimme, C. Bannwarth, P. Shushkov, J. Chem. Theory Comput., 2017,
     13, 1989-2009. DOI: 10.1021/acs.jctc.7b00118
   for GFN0-xTB:
   * P. Pracht, E. Caldeweyher, S. Ehlert, S. Grimme, ChemRxiv, 2019, preprint.
     DOI: 10.26434/chemrxiv.8326202.v1
   for GFN-FF:
   * S. Spicher and S. Grimme, Angew. Chem. Int. Ed., 2020, 59, 15665-15673.
     DOI: 10.1002/anie.202004239
   
   for DFT-D4:
   * E. Caldeweyher, C. Bannwarth and S. Grimme, J. Chem. Phys., 2017,
     147, 034112. DOI: 10.1063/1.4993215
   * E. Caldeweyher, S. Ehlert, A. Hansen, H. Neugebauer, S. Spicher,
     C. Bannwarth and S. Grimme, J. Chem. Phys., 2019, 150, 154122.
     DOI: 10.1063/1.5090222
   * E. Caldeweyher, J.-M. Mewes, S. Ehlert and S. Grimme, Phys. Chem. Chem. Phys.
     2020, 22, 8499-8512. DOI: 10.1039/D0CP00502A
   
   for sTDA-xTB:
   * S. Grimme and C. Bannwarth, J. Chem. Phys., 2016, 145, 054103.
     DOI: 10.1063/1.4959605
   
   in the mass-spec context:
   * V. Asgeirsson, C. Bauer and S. Grimme, Chem. Sci., 2017, 8, 4879.
     DOI: 10.1039/c7sc00601b
   * J. Koopman and S. Grimme, ACS Omega 2019, 4, 12, 15120-15133.
     DOI: 10.1021/acsomega.9b02011
   
   for metadynamics refer to:
   * S. Grimme, J. Chem. Theory Comput., 2019, 155, 2847-2862
     DOI: 10.1021/acs.jctc.9b00143
   
   for SPH calculations refer to:
   * S. Spicher and S. Grimme, J. Chem. Theory Comput., 2021, 17, 1701-1714
     DOI: 10.1021/acs.jctc.0c01306
   
   with help from (in alphabetical order)
   P. Atkinson, C. Bannwarth, F. Bohle, G. Brandenburg, E. Caldeweyher
   M. Checinski, S. Dohm, S. Ehlert, S. Ehrlich, I. Gerasimov, J. Koopman
   C. Lavigne, S. Lehtola, F. März, M. Müller, F. Musil, H. Neugebauer
   J. Pisarek, C. Plett, P. Pracht, J. Seibert, P. Shushkov, S. Spicher
   M. Stahn, M. Steiner, T. Strunk, J. Stückrath, T. Rose, and J. Unsleber
   
 * started run on 2021/11/19 at 10:39:24.609     

           -------------------------------------------------
          |                Calculation Setup                |
           -------------------------------------------------

          program call               : /home/jeff/miniconda3/bin/xtb input_structure_1.xyz --gfn 2 --ohess normal --parallel 1 --etemp 300 --chrg 0 --uhf 0 -I det_control.in
          hostname                   : jelfscompute1
          coordinate file            : input_structure_1.xyz
          omp threads                :                     1
          number of atoms            :                    74
          number of electrons        :                   252
          charge                     :                     0
          spin                       :                   0.0
          first test random number   :      0.73222190060613

   ID    Z sym.   atoms
    1   29 Cu     1, 39
    2    6 C      2-9, 11-15, 17-21, 23, 24, 37, 38, 40-47, 49-53, 55-59, 61,
                  62
    3    7 N      10, 16, 22, 25, 48, 54, 60, 63
    4    1 H      26-36, 64-74

           -------------------------------------------------
          |                 G F N 2 - x T B                 |
           -------------------------------------------------

        Reference                      10.1021/acs.jctc.8b01176
      * Hamiltonian:
        H0-scaling (s, p, d)           1.850000    2.230000    2.230000
        zeta-weighting                 0.500000
      * Dispersion:
        s8                             2.700000
        a1                             0.520000
        a2                             5.000000
        s9                             5.000000
      * Repulsion:
        kExp                           1.500000    1.000000
        rExp                           1.000000
      * Coulomb:
        alpha                          2.000000
        third order                    shell-resolved
        anisotropic                    true
        a3                             3.000000
        a5                             4.000000
        cn-shift                       1.200000
        cn-exp                         4.000000
        max-rad                        5.000000


          ...................................................
          :                      SETUP                      :
          :.................................................:
          :  # basis functions                 242          :
          :  # atomic orbitals                 240          :
          :  # shells                          128          :
          :  # electrons                       252          :
          :  max. iterations                   250          :
          :  Hamiltonian                  GFN2-xTB          :
          :  restarted?                      false          :
          :  GBSA solvation                  false          :
          :  PC potential                    false          :
          :  electronic temp.          300.0000000     K    :
          :  accuracy                    1.0000000          :
          :  -> integral cutoff          0.2500000E+02      :
          :  -> integral neglect         0.1000000E-07      :
          :  -> SCF convergence          0.1000000E-05 Eh   :
          :  -> wf. convergence          0.1000000E-03 e    :
          :  Broyden damping             0.4000000          :
          ...................................................

 iter      E             dE          RMSdq      gap      omega  full diag
   1   -134.3854336 -0.134385E+03  0.481E+00    0.70       0.0  T
   2   -134.2113426  0.174091E+00  0.274E+00    0.12       1.0  T
   3   -127.9528721  0.625847E+01  0.627E+00    0.01       1.0  T
   4   -134.0952702 -0.614240E+01  0.262E+00    0.77       1.0  T
   5   -133.0651434  0.103013E+01  0.270E+00    0.01       1.0  T
   6   -134.4293693 -0.136423E+01  0.957E-01    0.62       1.0  T
   7   -134.4321818 -0.281253E-02  0.696E-01    0.35       1.0  T
   8   -134.4898088 -0.576270E-01  0.384E-01    0.41       1.0  T
   9   -134.4913802 -0.157144E-02  0.311E-01    0.39       1.0  T
  10   -134.4954564 -0.407622E-02  0.344E-01    0.37       1.0  T
  11   -134.5014222 -0.596572E-02  0.215E-01    0.37       1.0  T
  12   -134.5008191  0.603033E-03  0.208E-01    0.37       1.0  T
  13   -134.5022312 -0.141212E-02  0.170E-01    0.37       1.0  T
  14   -134.5022421 -0.108457E-04  0.167E-01    0.36       1.0  T
  15   -134.5029620 -0.719891E-03  0.132E-01    0.36       1.0  T
  16   -134.5035191 -0.557090E-03  0.109E-01    0.35       1.0  T
  17   -134.5038158 -0.296740E-03  0.872E-02    0.34       1.0  T
  18   -134.5042020 -0.386219E-03  0.506E-02    0.33       1.0  T
  19   -134.5043247 -0.122721E-03  0.363E-02    0.33       1.0  T
  20   -134.5043836 -0.588717E-04  0.310E-02    0.32       1.0  T
  21   -134.5044132 -0.295470E-04  0.270E-02    0.32       1.0  T
  22   -134.5044256 -0.123885E-04  0.243E-02    0.32       1.0  T
  23   -134.5044522 -0.266908E-04  0.166E-02    0.31       1.0  T
  24   -134.5044670 -0.147503E-04  0.936E-03    0.31       1.2  T
  25   -134.5044739 -0.695034E-05  0.341E-03    0.31       3.4  T
  26   -134.5044750 -0.101335E-05  0.117E-03    0.31       9.9  T
  27   -134.5044750 -0.291099E-07  0.115E-03    0.31      10.1  T
  28   -134.5044751 -0.101205E-06  0.179E-04    0.31      64.9  T
  29   -134.5044751  0.203133E-08  0.182E-04    0.31      64.0  T

   *** convergence criteria satisfied after 29 iterations ***

         #    Occupation            Energy/Eh            Energy/eV
      -------------------------------------------------------------
         1        2.0000           -0.6930189             -18.8580
       ...           ...                  ...                  ...
       120        2.0000           -0.3564001              -9.6981
       121        2.0000           -0.3560412              -9.6884
       122        2.0000           -0.3520408              -9.5795
       123        2.0000           -0.3509777              -9.5506
       124        2.0000           -0.3497160              -9.5163
       125        2.0000           -0.3464385              -9.4271
       126        1.9947           -0.3341510              -9.0927 (HOMO)
       127        0.0053           -0.3228665              -8.7856 (LUMO)
       128        0.0000           -0.3147330              -8.5643
       129                         -0.3052225              -8.3055
       130                         -0.2996268              -8.1533
       131                         -0.2820733              -7.6756
       ...                                ...                  ...
       240                          4.2342383             115.2195
      -------------------------------------------------------------
                  HL-Gap            0.0112845 Eh            0.3071 eV
             Fermi-level           -0.3285088 Eh           -8.9392 eV

 SCC (total)                   0 d,  0 h,  0 min,  0.425 sec
 SCC setup                      ...        0 min,  0.001 sec (  0.244%)
 Dispersion                     ...        0 min,  0.002 sec (  0.507%)
 classical contributions        ...        0 min,  0.000 sec (  0.094%)
 integral evaluation            ...        0 min,  0.025 sec (  5.775%)
 iterations                     ...        0 min,  0.319 sec ( 74.929%)
 molecular gradient             ...        0 min,  0.077 sec ( 18.224%)
 printout                       ...        0 min,  0.001 sec (  0.224%)

         :::::::::::::::::::::::::::::::::::::::::::::::::::::
         ::                     SUMMARY                     ::
         :::::::::::::::::::::::::::::::::::::::::::::::::::::
         :: total energy            -131.479630007993 Eh    ::
         :: gradient norm              2.244772776833 Eh/a0 ::
         :: HOMO-LUMO gap              0.307065939969 eV    ::
         ::.................................................::
         :: SCC energy              -134.504475087875 Eh    ::
         :: -> isotropic ES            0.071403693113 Eh    ::
         :: -> anisotropic ES          0.020748039511 Eh    ::
         :: -> anisotropic XC          0.053429512948 Eh    ::
         :: -> dispersion             -0.118509170285 Eh    ::
         :: repulsion energy           3.024803585597 Eh    ::
         :: add. restraining           0.000000000000 Eh    ::
         :: total charge              -0.000000000000 e     ::
         :::::::::::::::::::::::::::::::::::::::::::::::::::::

      ----------------------------------------------------------- 
     |                   =====================                   |
     |                        A N C O P T                        |
     |                   =====================                   |
     |               Approximate Normal Coordinate               |
     |                Rational Function Optimizer                |
      ----------------------------------------------------------- 

          ...................................................
          :                      SETUP                      :
          :.................................................:
          :   optimization level            normal          :
          :   max. optcycles                   222          :
          :   ANC micro-cycles                  20          :
          :   degrees of freedom               216          :
          :.................................................:
          :   RF solver                   davidson          :
          :   write xtbopt.log                true          :
          :   linear?                        false          :
          :   energy convergence         0.5000000E-05 Eh   :
          :   grad. convergence          0.1000000E-02 Eh/α :
          :   maximium RF displ.         1.0000000          :
          :   Hlow (freq-cutoff)         0.1000000E-01      :
          :   Hmax (freq-cutoff)         5.0000000          :
          :   S6 in model hess.         20.0000000          :
          ...................................................

generating ANC from model Hessian ...
Using Lindh-Hessian (1995)
 Shifting diagonal of input Hessian by    1.0007019626338471E-002
 Lowest  eigenvalues of input Hessian
    0.010000    0.000000    0.000000    0.000000    0.000000    0.000000
    0.000000    0.010132    0.010269    0.010799    0.011142    0.011514
    0.011745    0.011948    0.012578    0.013098    0.014195    0.014484
 Highest eigenvalues
    2.226785    2.661895    3.220586    3.589358    4.083715    4.498012


........................................................................
.............................. CYCLE    1 ..............................
........................................................................
   1   -134.5044751 -0.134504E+03  0.999E-05    0.31       0.0  T
   2   -134.5044751  0.159253E-07  0.335E-04    0.31      34.7  T
   3   -134.5044751 -0.170626E-07  0.802E-05    0.31     145.0  T
     SCC iter.                  ...        0 min,  0.031 sec
     gradient                   ...        0 min,  0.077 sec
 * total energy  :  -131.4796300 Eh     change       -0.3850232E-08 Eh
   gradient norm :     2.2447734 Eh/α   predicted     0.0000000E+00 (-100.00%)
   displ. norm   :     0.5424585 α      lambda       -0.1083759E+01
   maximum displ.:     0.3763882 α      in ANC's #216, #166, #121, ...

........................................................................
.............................. CYCLE    2 ..............................
........................................................................
   1   -134.5200885 -0.134520E+03  0.682E-01    0.17       0.0  T
   2   -134.3675124  0.152576E+00  0.966E-01    0.47       1.0  T
   3   -134.4021169 -0.346044E-01  0.766E-01    0.29       1.0  T
   4   -134.4326407 -0.305238E-01  0.671E-01    0.46       1.0  T
   5   -134.5341805 -0.101540E+00  0.239E-01    0.27       1.0  T
   6   -134.5421091 -0.792861E-02  0.145E-01    0.21       1.0  T
   7   -134.5449803 -0.287120E-02  0.622E-02    0.21       1.0  T
   8   -134.5433624  0.161792E-02  0.964E-02    0.23       1.0  T
   9   -134.5452874 -0.192508E-02  0.319E-02    0.22       1.0  T
  10   -134.5440743  0.121317E-02  0.747E-02    0.21       1.0  T
  11   -134.5453537 -0.127939E-02  0.164E-02    0.21       1.0  T
  12   -134.5452228  0.130810E-03  0.273E-02    0.22       1.0  T
  13   -134.5453726 -0.149731E-03  0.811E-03    0.21       1.4  T
  14   -134.5453679  0.470770E-05  0.738E-03    0.21       1.6  T
  15   -134.5453751 -0.723371E-05  0.405E-03    0.21       2.9  T
  16   -134.5453754 -0.310636E-06  0.215E-03    0.21       5.4  T
  17   -134.5453755 -0.707267E-07  0.128E-03    0.21       9.1  T
  18   -134.5453756 -0.133187E-06  0.663E-04    0.21      17.5  T
  19   -134.5453755  0.157584E-06  0.926E-04    0.21      12.6  T
     SCC iter.                  ...        0 min,  0.189 sec
     gradient                   ...        0 min,  0.077 sec
 * total energy  :  -132.0089340 Eh     change       -0.5293040E+00 Eh
   gradient norm :     0.5549857 Eh/α   predicted    -0.7013498E+00 (  32.50%)
   displ. norm   :     0.6026133 α      lambda       -0.2712301E+00
   maximum displ.:     0.1774374 α      in ANC's #121, #166, #73, ...

........................................................................
.............................. CYCLE    3 ..............................
........................................................................
   1   -134.4741164 -0.134474E+03  0.586E-01    0.20       0.0  T
   2   -134.4611412  0.129753E-01  0.508E-01    0.24       1.0  T
   3   -134.3639420  0.971992E-01  0.767E-01    0.45       1.0  T
   4   -134.3359214  0.280206E-01  0.840E-01    0.26       1.0  T
   5   -134.4615488 -0.125627E+00  0.355E-01    0.32       1.0  T
   6   -134.4841221 -0.225733E-01  0.112E-01    0.23       1.0  T
   7   -134.4841072  0.148633E-04  0.898E-02    0.24       1.0  T
   8   -134.4842878 -0.180628E-03  0.619E-02    0.23       1.0  T
   9   -134.4843945 -0.106687E-03  0.391E-02    0.22       1.0  T
  10   -134.4843099  0.845803E-04  0.382E-02    0.22       1.0  T
  11   -134.4846139 -0.304008E-03  0.165E-02    0.22       1.0  T
  12   -134.4846152 -0.125924E-05  0.117E-02    0.22       1.0  T
  13   -134.4845809  0.343091E-04  0.146E-02    0.22       1.0  T
  14   -134.4846216 -0.406653E-04  0.564E-03    0.22       2.1  T
  15   -134.4846179  0.366128E-05  0.662E-03    0.22       1.8  T
  16   -134.4846228 -0.493538E-05  0.445E-03    0.22       2.6  T
  17   -134.4846251 -0.227370E-05  0.284E-03    0.22       4.1  T
  18   -134.4846262 -0.105028E-05  0.145E-03    0.22       8.0  T
  19   -134.4846265 -0.307651E-06  0.445E-04    0.22      26.1  T
  20   -134.4846265 -0.167142E-07  0.222E-04    0.22      52.3  T
     SCC iter.                  ...        0 min,  0.201 sec
     gradient                   ...        0 min,  0.077 sec
 * total energy  :  -132.1690796 Eh     change       -0.1601456E+00 Eh
   gradient norm :     0.3102232 Eh/α   predicted    -0.1848627E+00 (  15.43%)
   displ. norm   :     0.5949903 α      lambda       -0.9854363E-01
   maximum displ.:     0.1797386 α      in ANC's #73, #71, #80, ...

........................................................................
.............................. CYCLE    4 ..............................
........................................................................
   1   -134.4969733 -0.134497E+03  0.526E-01    0.20       0.0  T
   2   -134.2091492  0.287824E+00  0.106E+00    0.46       1.0  T
   3   -134.4289954 -0.219846E+00  0.630E-01    0.42       1.0  T
   4   -134.5005776 -0.715822E-01  0.320E-01    0.21       1.0  T
   5   -134.5128949 -0.123172E-01  0.200E-01    0.19       1.0  T
   6   -134.5093863  0.350861E-02  0.182E-01    0.21       1.0  T
   7   -134.5146993 -0.531302E-02  0.799E-02    0.20       1.0  T
   8   -134.5141496  0.549664E-03  0.999E-02    0.20       1.0  T
   9   -134.5154701 -0.132051E-02  0.542E-02    0.20       1.0  T
  10   -134.5151992  0.270914E-03  0.661E-02    0.20       1.0  T
  11   -134.5158735 -0.674301E-03  0.323E-02    0.20       1.0  T
  12   -134.5159398 -0.663337E-04  0.244E-02    0.20       1.0  T
  13   -134.5160324 -0.925325E-04  0.136E-02    0.20       1.0  T
  14   -134.5160581 -0.257410E-04  0.925E-03    0.20       1.3  T
  15   -134.5160698 -0.117010E-04  0.402E-03    0.20       2.9  T
  16   -134.5160632  0.661235E-05  0.573E-03    0.20       2.0  T
  17   -134.5160705 -0.730853E-05  0.197E-03    0.20       5.9  T
  18   -134.5160704  0.593093E-07  0.166E-03    0.20       7.0  T
  19   -134.5160709 -0.480063E-06  0.524E-04    0.20      22.2  T
  20   -134.5160710 -0.423321E-07  0.152E-04    0.20      76.2  T
     SCC iter.                  ...        0 min,  0.198 sec
     gradient                   ...        0 min,  0.077 sec
 * total energy  :  -132.2462927 Eh     change       -0.7721302E-01 Eh
   gradient norm :     0.1761796 Eh/α   predicted    -0.6671476E-01 ( -13.60%)
   displ. norm   :     0.6809417 α      lambda       -0.6317507E-01
   maximum displ.:     0.2114983 α      in ANC's #51, #34, #73, ...

........................................................................
.............................. CYCLE    5 ..............................
........................................................................
   1   -134.5154524 -0.134515E+03  0.597E-01    0.20       0.0  T
   2   -134.1242338  0.391219E+00  0.125E+00    0.57       1.0  T
   3   -134.4750790 -0.350845E+00  0.574E-01    0.29       1.0  T
   4   -134.4105448  0.645341E-01  0.749E-01    0.24       1.0  T
   5   -134.5466035 -0.136059E+00  0.200E-01    0.15       1.0  T
   6   -134.5016444  0.449591E-01  0.441E-01    0.23       1.0  T
   7   -134.5412244 -0.395800E-01  0.161E-01    0.18       1.0  T
   8   -134.5390849  0.213956E-02  0.197E-01    0.17       1.0  T
   9   -134.5462036 -0.711878E-02  0.101E-01    0.17       1.0  T
  10   -134.5473240 -0.112038E-02  0.597E-02    0.16       1.0  T
  11   -134.5481595 -0.835490E-03  0.173E-02    0.17       1.0  T
  12   -134.5481315  0.280142E-04  0.191E-02    0.17       1.0  T
  13   -134.5481738 -0.423067E-04  0.999E-03    0.17       1.2  T
  14   -134.5481839 -0.100676E-04  0.543E-03    0.17       2.1  T
  15   -134.5481867 -0.278420E-05  0.348E-03    0.17       3.3  T
  16   -134.5481858  0.893622E-06  0.320E-03    0.17       3.6  T
  17   -134.5481868 -0.980208E-06  0.203E-03    0.17       5.7  T
  18   -134.5481869 -0.122617E-06  0.181E-03    0.17       6.4  T
  19   -134.5481874 -0.523610E-06  0.962E-04    0.17      12.1  T
  20   -134.5481875 -0.116837E-06  0.528E-04    0.17      22.0  T
     SCC iter.                  ...        0 min,  0.198 sec
     gradient                   ...        0 min,  0.077 sec
 * total energy  :  -132.2948583 Eh     change       -0.4856568E-01 Eh
   gradient norm :     0.0836532 Eh/α   predicted    -0.4623412E-01 (  -4.80%)
   displ. norm   :     0.6988801 α      lambda       -0.3492025E-01
   maximum displ.:     0.2478762 α      in ANC's #34, #51, #6, ...

........................................................................
.............................. CYCLE    6 ..............................
........................................................................
   1   -134.5373945 -0.134537E+03  0.532E-01    0.18       0.0  T
   2   -134.1448979  0.392497E+00  0.123E+00    0.57       1.0  T
   3   -134.5244557 -0.379558E+00  0.439E-01    0.19       1.0  T
   4   -134.4036873  0.120768E+00  0.785E-01    0.23       1.0  T
   5   -134.5653525 -0.161665E+00  0.187E-01    0.13       1.0  T
   6   -134.5243567  0.409958E-01  0.405E-01    0.19       1.0  T
   7   -134.5633966 -0.390400E-01  0.119E-01    0.15       1.0  T
   8   -134.5571115  0.628516E-02  0.194E-01    0.14       1.0  T
   9   -134.5649811 -0.786959E-02  0.963E-02    0.14       1.0  T
  10   -134.5651206 -0.139532E-03  0.864E-02    0.14       1.0  T
  11   -134.5669349 -0.181426E-02  0.268E-02    0.14       1.0  T
  12   -134.5670559 -0.121009E-03  0.171E-02    0.14       1.0  T
  13   -134.5670223  0.335356E-04  0.197E-02    0.14       1.0  T
  14   -134.5671207 -0.984118E-04  0.409E-03    0.14       2.8  T
  15   -134.5671206  0.157945E-06  0.392E-03    0.14       3.0  T
  16   -134.5671227 -0.210559E-05  0.255E-03    0.14       4.6  T
  17   -134.5671225  0.222842E-06  0.271E-03    0.14       4.3  T
  18   -134.5671239 -0.145605E-05  0.138E-03    0.14       8.4  T
  19   -134.5671236  0.327535E-06  0.168E-03    0.14       6.9  T
  20   -134.5671244 -0.751189E-06  0.169E-04    0.14      68.7  T
  21   -134.5671243  0.602253E-08  0.210E-04    0.14      55.4  T
     SCC iter.                  ...        0 min,  0.211 sec
     gradient                   ...        0 min,  0.077 sec
 * total energy  :  -132.3225096 Eh     change       -0.2765126E-01 Eh
   gradient norm :     0.0555321 Eh/α   predicted    -0.2598826E-01 (  -6.01%)
   displ. norm   :     0.7182583 α      lambda       -0.2222087E-01
   maximum displ.:     0.2678320 α      in ANC's #6, #34, #13, ...

........................................................................
.............................. CYCLE    7 ..............................
........................................................................
   1   -134.5583446 -0.134558E+03  0.439E-01    0.15       0.0  T
   2   -134.1987459  0.359599E+00  0.116E+00    0.61       1.0  T
   3   -134.5503181 -0.351572E+00  0.352E-01    0.14       1.0  T
   4   -134.4187414  0.131577E+00  0.758E-01    0.19       1.0  T
   5   -134.5771592 -0.158418E+00  0.169E-01    0.12       1.0  T
   6   -134.5541759  0.229834E-01  0.298E-01    0.15       1.0  T
   7   -134.5787275 -0.245517E-01  0.397E-02    0.12       1.0  T
   8   -134.5733190  0.540858E-02  0.139E-01    0.12       1.0  T
   9   -134.5778770 -0.455803E-02  0.619E-02    0.12       1.0  T
  10   -134.5770757  0.801262E-03  0.782E-02    0.12       1.0  T
  11   -134.5785623 -0.148659E-02  0.306E-02    0.12       1.0  T
  12   -134.5787116 -0.149251E-03  0.208E-02    0.12       1.0  T
  13   -134.5787588 -0.472020E-04  0.165E-02    0.12       1.0  T
  14   -134.5788310 -0.722489E-04  0.478E-03    0.12       2.4  T
  15   -134.5788326 -0.152984E-05  0.403E-03    0.12       2.9  T
  16   -134.5788366 -0.400930E-05  0.108E-03    0.12      10.7  T
  17   -134.5788354  0.111623E-05  0.224E-03    0.12       5.2  T
  18   -134.5788352  0.269855E-06  0.244E-03    0.12       4.8  T
  19   -134.5788366 -0.139917E-05  0.901E-04    0.12      12.9  T
  20   -134.5788368 -0.214872E-06  0.233E-04    0.12      49.9  T
  21   -134.5788368  0.494614E-08  0.258E-04    0.12      45.1  T
     SCC iter.                  ...        0 min,  0.207 sec
     gradient                   ...        0 min,  0.077 sec
 * total energy  :  -132.3406242 Eh     change       -0.1811461E-01 Eh
   gradient norm :     0.0455007 Eh/α   predicted    -0.1684227E-01 (  -7.02%)
   displ. norm   :     0.7425923 α      lambda       -0.1569905E-01
   maximum displ.:     0.3542640 α      in ANC's #6, #10, #13, ...

........................................................................
.............................. CYCLE    8 ..............................
........................................................................
   1   -134.5759086 -0.134576E+03  0.353E-01    0.12       0.0  T
   2   -134.2417968  0.334112E+00  0.111E+00    0.56       1.0  T
   3   -134.5727306 -0.330934E+00  0.268E-01    0.11       1.0  T
   4   -134.4487347  0.123996E+00  0.697E-01    0.16       1.0  T
   5   -134.5853299 -0.136595E+00  0.162E-01    0.10       1.0  T
   6   -134.5799720  0.535787E-02  0.174E-01    0.11       1.0  T
   7   -134.5874579 -0.748594E-02  0.669E-02    0.10       1.0  T
   8   -134.5881258 -0.667829E-03  0.453E-02    0.10       1.0  T
   9   -134.5886457 -0.519995E-03  0.135E-02    0.10       1.0  T
  10   -134.5883129  0.332832E-03  0.350E-02    0.10       1.0  T
  11   -134.5879776  0.335293E-03  0.475E-02    0.10       1.0  T
  12   -134.5886252 -0.647558E-03  0.117E-02    0.10       1.0  T
  13   -134.5886133  0.118938E-04  0.131E-02    0.10       1.0  T
  14   -134.5886216 -0.827248E-05  0.118E-02    0.10       1.0  T
  15   -134.5886615 -0.399349E-04  0.144E-03    0.10       8.1  T
  16   -134.5886617 -0.243760E-06  0.525E-04    0.10      22.1  T
  17   -134.5886609  0.794261E-06  0.170E-03    0.10       6.8  T
  18   -134.5886611 -0.198006E-06  0.147E-03    0.10       7.9  T
  19   -134.5886618 -0.607626E-06  0.232E-04    0.10      50.1  T
     SCC iter.                  ...        0 min,  0.189 sec
     gradient                   ...        0 min,  0.077 sec
 * total energy  :  -132.3536926 Eh     change       -0.1306841E-01 Eh
   gradient norm :     0.0327439 Eh/α   predicted    -0.1217812E-01 (  -6.81%)
   displ. norm   :     0.7723267 α      lambda       -0.1175982E-01
   maximum displ.:     0.4346803 α      in ANC's #6, #10, #13, ...

........................................................................
.............................. CYCLE    9 ..............................
........................................................................
   1   -134.5925389 -0.134593E+03  0.282E-01    0.09       0.0  T
   2   -134.2858416  0.306697E+00  0.104E+00    0.45       1.0  T
   3   -134.5849072 -0.299066E+00  0.247E-01    0.09       1.0  T
   4   -134.4588308  0.126076E+00  0.685E-01    0.15       1.0  T
   5   -134.5960668 -0.137236E+00  0.109E-01    0.08       1.0  T
   6   -134.5900275  0.603929E-02  0.172E-01    0.09       1.0  T
   7   -134.5975164 -0.748884E-02  0.707E-02    0.08       1.0  T
   8   -134.5987596 -0.124317E-02  0.254E-02    0.08       1.0  T
   9   -134.5988156 -0.560451E-04  0.161E-02    0.08       1.0  T
  10   -134.5986937  0.121873E-03  0.248E-02    0.08       1.0  T
  11   -134.5981233  0.570380E-03  0.492E-02    0.08       1.0  T
  12   -134.5988090 -0.685702E-03  0.143E-02    0.08       1.0  T
  13   -134.5988679 -0.588221E-04  0.245E-03    0.08       4.8  T
  14   -134.5988473  0.206200E-04  0.832E-03    0.08       1.4  T
  15   -134.5988567 -0.943476E-05  0.619E-03    0.08       1.9  T
  16   -134.5988608 -0.413544E-05  0.492E-03    0.08       2.4  T
  17   -134.5988662 -0.537224E-05  0.258E-03    0.08       4.5  T
  18   -134.5988673 -0.105768E-05  0.174E-03    0.08       6.7  T
  19   -134.5988681 -0.837880E-06  0.484E-04    0.08      24.0  T
  20   -134.5988681 -0.528154E-07  0.259E-04    0.08      44.8  T
     SCC iter.                  ...        0 min,  0.200 sec
     gradient                   ...        0 min,  0.078 sec
 * total energy  :  -132.3637164 Eh     change       -0.1002382E-01 Eh
   gradient norm :     0.0242170 Eh/α   predicted    -0.9387225E-02 (  -6.35%)
   displ. norm   :     0.8013221 α      lambda       -0.9381625E-02
   maximum displ.:     0.5089561 α      in ANC's #6, #10, #13, ...

........................................................................
.............................. CYCLE   10 ..............................
........................................................................
   1   -134.6062186 -0.134606E+03  0.232E-01    0.07       0.0  T
   2   -134.3726786  0.233540E+00  0.883E-01    0.23       1.0  T
   3   -134.5311002 -0.158422E+00  0.510E-01    0.12       1.0  T
   4   -134.5246866  0.641368E-02  0.537E-01    0.11       1.0  T
   5   -134.5619174 -0.372308E-01  0.379E-01    0.08       1.0  T
   6   -134.6066977 -0.447803E-01  0.573E-02    0.07       1.0  T
   7   -134.6066279  0.697865E-04  0.496E-02    0.07       1.0  T
   8   -134.5945588  0.120691E-01  0.199E-01    0.07       1.0  T
   9   -134.6071431 -0.125843E-01  0.172E-02    0.07       1.0  T
  10   -134.6070118  0.131267E-03  0.253E-02    0.07       1.0  T
  11   -134.6071525 -0.140633E-03  0.129E-02    0.07       1.0  T
  12   -134.6071849 -0.324552E-04  0.693E-03    0.07       1.7  T
  13   -134.6071964 -0.114708E-04  0.247E-03    0.07       4.7  T
  14   -134.6071937  0.265312E-05  0.358E-03    0.07       3.2  T
  15   -134.6071966 -0.287139E-05  0.152E-03    0.07       7.6  T
  16   -134.6071968 -0.250705E-06  0.111E-03    0.07      10.5  T
  17   -134.6071961  0.755430E-06  0.185E-03    0.07       6.3  T
  18   -134.6071971 -0.101860E-05  0.164E-04    0.07      70.8  T
  19   -134.6071971  0.435291E-07  0.400E-04    0.07      29.1  T
  20   -134.6071971 -0.469214E-07  0.879E-05    0.07     132.3  T
     SCC iter.                  ...        0 min,  0.200 sec
     gradient                   ...        0 min,  0.077 sec
 * total energy  :  -132.3719081 Eh     change       -0.8191690E-02 Eh
   gradient norm :     0.0222025 Eh/α   predicted    -0.7702865E-02 (  -5.97%)
   displ. norm   :     0.8166040 α      lambda       -0.7923456E-02
   maximum displ.:     0.5528192 α      in ANC's #6, #10, #13, ...

........................................................................
.............................. CYCLE   11 ..............................
........................................................................
   1   -134.6135576 -0.134614E+03  0.222E-01    0.05       0.0  T
   2   -134.4436839  0.169874E+00  0.758E-01    0.22       1.0  T
   3   -134.5533432 -0.109659E+00  0.463E-01    0.08       1.0  T
   4   -134.6021102 -0.487670E-01  0.229E-01    0.06       1.0  T
   5   -134.6140290 -0.119189E-01  0.549E-02    0.06       1.0  T
   6   -134.6143631 -0.334120E-03  0.314E-02    0.05       1.0  T
   7   -134.6139136  0.449517E-03  0.423E-02    0.05       1.0  T
   8   -134.6143216 -0.407995E-03  0.157E-02    0.05       1.0  T
   9   -134.6143727 -0.511073E-04  0.698E-03    0.05       1.7  T
  10   -134.6143790 -0.631376E-05  0.386E-03    0.05       3.0  T
  11   -134.6143748  0.419399E-05  0.430E-03    0.05       2.7  T
  12   -134.6143700  0.485985E-05  0.573E-03    0.05       2.0  T
  13   -134.6143712 -0.122866E-05  0.529E-03    0.05       2.2  T
  14   -134.6143793 -0.805249E-05  0.156E-03    0.05       7.4  T
  15   -134.6143798 -0.511169E-06  0.529E-04    0.05      22.0  T
  16   -134.6143792  0.586134E-06  0.144E-03    0.05       8.1  T
  17   -134.6143798 -0.587266E-06  0.386E-04    0.05      30.1  T
     SCC iter.                  ...        0 min,  0.170 sec
     gradient                   ...        0 min,  0.077 sec
 * total energy  :  -132.3788861 Eh     change       -0.6977936E-02 Eh
   gradient norm :     0.0205540 Eh/α   predicted    -0.6603583E-02 (  -5.36%)
   displ. norm   :     0.8283005 α      lambda       -0.7058703E-02
   maximum displ.:     0.5902376 α      in ANC's #6, #5, #13, ...

........................................................................
.............................. CYCLE   12 ..............................
........................................................................
   1   -134.6090182 -0.134609E+03  0.272E-01    0.04       0.0  T
   2   -134.3481270  0.260891E+00  0.100E+00    0.59       1.0  T
   3   -134.5287505 -0.180623E+00  0.552E-01    0.11       1.0  T
   4   -134.3856658  0.143085E+00  0.879E-01    0.22       1.0  T
   5   -134.5769606 -0.191295E+00  0.365E-01    0.06       1.0  T
   6   -134.5475889  0.293717E-01  0.474E-01    0.09       1.0  T
   7   -134.6146722 -0.670834E-01  0.123E-01    0.05       1.0  T
   8   -134.6169662 -0.229396E-02  0.804E-02    0.04       1.0  T
   9   -134.6188026 -0.183638E-02  0.168E-02    0.04       1.0  T
  10   -134.6166485  0.215406E-02  0.840E-02    0.05       1.0  T
  11   -134.6181799 -0.153144E-02  0.460E-02    0.04       1.0  T
  12   -134.6188108 -0.630860E-03  0.128E-02    0.04       1.0  T
  13   -134.6188259 -0.150644E-04  0.107E-02    0.04       1.1  T
  14   -134.6188618 -0.359077E-04  0.129E-03    0.04       9.0  T
  15   -134.6188614  0.342832E-06  0.158E-03    0.04       7.4  T
  16   -134.6188597  0.176806E-05  0.282E-03    0.04       4.1  T
  17   -134.6188622 -0.249548E-05  0.248E-04    0.04      46.8  T
  18   -134.6188620  0.205356E-06  0.830E-04    0.04      14.0  T
  19   -134.6188622 -0.214173E-06  0.746E-05    0.04     155.8  T
     SCC iter.                  ...        0 min,  0.189 sec
     gradient                   ...        0 min,  0.077 sec
 * total energy  :  -132.3849829 Eh     change       -0.6096803E-02 Eh
   gradient norm :     0.0176967 Eh/α   predicted    -0.5950777E-02 (  -2.40%)
   displ. norm   :     0.8242885 α      lambda       -0.6283011E-02
   maximum displ.:     0.6104634 α      in ANC's #6, #5, #10, ...

........................................................................
.............................. CYCLE   13 ..............................
........................................................................
   1   -134.6041132 -0.134604E+03  0.308E-01    0.04       0.0  T
   2   -134.3093607  0.294752E+00  0.110E+00    0.73       1.0  T
   3   -134.4368720 -0.127511E+00  0.786E-01    0.20       1.0  T
   4   -134.5854623 -0.148590E+00  0.365E-01    0.06       1.0  T
   5   -134.5913095 -0.584720E-02  0.326E-01    0.05       1.0  T
   6   -134.5903008  0.100871E-02  0.321E-01    0.06       1.0  T
   7   -134.6122754 -0.219746E-01  0.181E-01    0.04       1.0  T
   8   -134.6222341 -0.995867E-02  0.219E-02    0.03       1.0  T
   9   -134.6220739  0.160140E-03  0.268E-02    0.03       1.0  T
  10   -134.6200760  0.199793E-02  0.836E-02    0.04       1.0  T
  11   -134.6222720 -0.219605E-02  0.657E-03    0.04       1.8  T
  12   -134.6219236  0.348402E-03  0.337E-02    0.03       1.0  T
  13   -134.6222767 -0.353025E-03  0.369E-03    0.04       3.1  T
  14   -134.6222701  0.654623E-05  0.584E-03    0.04       2.0  T
  15   -134.6222700  0.826285E-07  0.580E-03    0.04       2.0  T
  16   -134.6222481  0.219646E-04  0.102E-02    0.04       1.1  T
  17   -134.6222797 -0.315993E-04  0.156E-03    0.04       7.5  T
  18   -134.6222803 -0.653140E-06  0.387E-04    0.04      30.0  T
  19   -134.6222802  0.855947E-07  0.633E-04    0.04      18.4  T
     SCC iter.                  ...        0 min,  0.191 sec
     gradient                   ...        0 min,  0.077 sec
 * total energy  :  -132.3905123 Eh     change       -0.5529411E-02 Eh
   gradient norm :     0.0154315 Eh/α   predicted    -0.5276010E-02 (  -4.58%)
   displ. norm   :     0.8217250 α      lambda       -0.5441823E-02
   maximum displ.:     0.6305450 α      in ANC's #6, #5, #13, ...

........................................................................
.............................. CYCLE   14 ..............................
........................................................................
   1   -134.5906791 -0.134591E+03  0.377E-01    0.05       0.0  T
   2   -134.2447180  0.345961E+00  0.125E+00    0.56       1.0  T
   3   -134.4010182 -0.156300E+00  0.871E-01    0.35       1.0  T
   4   -134.5712021 -0.170184E+00  0.428E-01    0.07       1.0  T
   5   -134.4138376  0.157365E+00  0.830E-01    0.17       1.0  T
   6   -134.6088127 -0.194975E+00  0.232E-01    0.04       1.0  T
   7   -134.6023264  0.648633E-02  0.268E-01    0.05       1.0  T
   8   -134.6243185 -0.219922E-01  0.440E-02    0.03       1.0  T
   9   -134.6179557  0.636281E-02  0.147E-01    0.04       1.0  T
  10   -134.6096846  0.827115E-02  0.220E-01    0.04       1.0  T
  11   -134.6228243 -0.131398E-01  0.788E-02    0.03       1.0  T
  12   -134.6246941 -0.186975E-02  0.153E-02    0.03       1.0  T
  13   -134.6247368 -0.426866E-04  0.979E-03    0.03       1.2  T
  14   -134.6247651 -0.283347E-04  0.207E-03    0.03       5.6  T
  15   -134.6247625  0.255541E-05  0.349E-03    0.03       3.3  T
  16   -134.6247267  0.358505E-04  0.113E-02    0.03       1.0  T
  17   -134.6247657 -0.390419E-04  0.113E-03    0.03      10.3  T
  18   -134.6247638  0.197629E-05  0.276E-03    0.03       4.2  T
  19   -134.6247641 -0.344342E-06  0.254E-03    0.03       4.6  T
  20   -134.6247661 -0.199691E-05  0.809E-05    0.03     143.7  T
  21   -134.6247660  0.134103E-06  0.658E-04    0.03      17.7  T
  22   -134.6247661 -0.104135E-06  0.312E-04    0.03      37.2  T
     SCC iter.                  ...        0 min,  0.216 sec
     gradient                   ...        0 min,  0.077 sec
 * total energy  :  -132.3954374 Eh     change       -0.4925085E-02 Eh
   gradient norm :     0.0141232 Eh/α   predicted    -0.4558159E-02 (  -7.45%)
   displ. norm   :     0.8334049 α      lambda       -0.5056988E-02
   maximum displ.:     0.6523543 α      in ANC's #6, #5, #13, ...

........................................................................
.............................. CYCLE   15 ..............................
........................................................................
   1   -134.5803931 -0.134580E+03  0.422E-01    0.05       0.0  T
   2   -134.1812894  0.399104E+00  0.136E+00    0.27       1.0  T
   3   -134.3883440 -0.207055E+00  0.904E-01    0.43       1.0  T
   4   -134.5138832 -0.125539E+00  0.611E-01    0.10       1.0  T
   5   -134.3874824  0.126401E+00  0.896E-01    0.23       1.0  T
   6   -134.4424878 -0.550055E-01  0.771E-01    0.15       1.0  T
   7   -134.5915477 -0.149060E+00  0.335E-01    0.05       1.0  T
   8   -134.6232769 -0.317292E-01  0.981E-02    0.03       1.0  T
   9   -134.6246332 -0.135630E-02  0.693E-02    0.03       1.0  T
  10   -134.6160052  0.862803E-02  0.179E-01    0.03       1.0  T
  11   -134.6259584 -0.995320E-02  0.101E-02    0.02       1.1  T
  12   -134.6254427  0.515685E-03  0.420E-02    0.02       1.0  T
  13   -134.6259505 -0.507783E-03  0.901E-03    0.02       1.3  T
  14   -134.6258449  0.105602E-03  0.203E-02    0.02       1.0  T
  15   -134.6259500 -0.105153E-03  0.833E-03    0.02       1.4  T
  16   -134.6259691 -0.191022E-04  0.252E-03    0.02       4.6  T
  17   -134.6259695 -0.392708E-06  0.211E-03    0.02       5.5  T
  18   -134.6259667  0.285419E-05  0.369E-03    0.02       3.2  T
  19   -134.6259702 -0.353668E-05  0.144E-03    0.02       8.0  T
  20   -134.6259703 -0.103934E-06  0.131E-03    0.02       8.9  T
  21   -134.6259706 -0.271027E-06  0.906E-04    0.02      12.8  T
  22   -134.6259708 -0.248179E-06  0.128E-04    0.02      90.5  T
     SCC iter.                  ...        0 min,  0.219 sec
     gradient                   ...        0 min,  0.077 sec
 * total energy  :  -132.3997988 Eh     change       -0.4361411E-02 Eh
   gradient norm :     0.0130329 Eh/α   predicted    -0.4284701E-02 (  -1.76%)
   displ. norm   :     0.8390244 α      lambda       -0.4570821E-02
   maximum displ.:     0.6584125 α      in ANC's #6, #5, #13, ...

........................................................................
.............................. CYCLE   16 ..............................
........................................................................
   1   -134.5802830 -0.134580E+03  0.420E-01    0.05       0.0  T
   2   -134.1617750  0.418508E+00  0.138E+00    0.23       1.0  T
   3   -134.3832531 -0.221478E+00  0.910E-01    0.42       1.0  T
   4   -134.5464941 -0.163241E+00  0.514E-01    0.07       1.0  T
   5   -134.3814156  0.165079E+00  0.911E-01    0.25       1.0  T
   6   -134.4294978 -0.480822E-01  0.798E-01    0.16       1.0  T
   7   -134.6009897 -0.171492E+00  0.280E-01    0.04       1.0  T
   8   -134.6236570 -0.226673E-01  0.650E-02    0.02       1.0  T
   9   -134.6247505 -0.109344E-02  0.175E-02    0.02       1.0  T
  10   -134.6236802  0.107032E-02  0.597E-02    0.02       1.0  T
  11   -134.6245296 -0.849401E-03  0.278E-02    0.02       1.0  T
  12   -134.6245216  0.798810E-05  0.284E-02    0.02       1.0  T
  13   -134.6247578 -0.236216E-03  0.449E-03    0.02       2.6  T
  14   -134.6247515  0.626672E-05  0.590E-03    0.02       2.0  T
  15   -134.6247584 -0.684025E-05  0.338E-03    0.02       3.4  T
  16   -134.6247592 -0.853518E-06  0.286E-03    0.02       4.1  T
  17   -134.6247542  0.498079E-05  0.495E-03    0.02       2.4  T
  18   -134.6247615 -0.728486E-05  0.650E-04    0.02      17.9  T
  19   -134.6247614  0.102687E-06  0.822E-04    0.02      14.1  T
  20   -134.6247604  0.973786E-06  0.197E-03    0.02       5.9  T
  21   -134.6247616 -0.117902E-05  0.594E-05    0.02     195.9  T
  22   -134.6247616 -0.445965E-09  0.267E-05    0.02     435.1  T
     SCC iter.                  ...        0 min,  0.217 sec
     gradient                   ...        0 min,  0.077 sec
 * total energy  :  -132.4036390 Eh     change       -0.3840213E-02 Eh
   gradient norm :     0.0116921 Eh/α   predicted    -0.3894244E-02 (   1.41%)
   displ. norm   :     0.8275947 α      lambda       -0.3618516E-02
   maximum displ.:     0.6671194 α      in ANC's #6, #5, #13, ...

........................................................................
.............................. CYCLE   17 ..............................
........................................................................
   1   -134.5922884 -0.134592E+03  0.364E-01    0.04       0.0  T
   2   -134.2224236  0.369865E+00  0.129E+00    0.42       1.0  T
   3   -134.3847113 -0.162288E+00  0.903E-01    0.35       1.0  T
   4   -134.5771689 -0.192458E+00  0.404E-01    0.05       1.0  T
   5   -134.3874272  0.189742E+00  0.896E-01    0.23       1.0  T
   6   -134.4574595 -0.700323E-01  0.739E-01    0.13       1.0  T
   7   -134.6026807 -0.145221E+00  0.267E-01    0.04       1.0  T
   8   -134.6221399 -0.194593E-01  0.883E-02    0.02       1.0  T
   9   -134.6243661 -0.222615E-02  0.168E-02    0.01       1.0  T
  10   -134.6229301  0.143601E-02  0.697E-02    0.02       1.0  T
  11   -134.6243091 -0.137900E-02  0.186E-02    0.01       1.0  T
  12   -134.6242968  0.122550E-04  0.195E-02    0.01       1.0  T
  13   -134.6243627 -0.658334E-04  0.125E-02    0.01       1.0  T
  14   -134.6244081 -0.453999E-04  0.248E-03    0.01       4.7  T
  15   -134.6243917  0.163534E-04  0.767E-03    0.01       1.5  T
  16   -134.6244076 -0.158454E-04  0.257E-03    0.01       4.5  T
  17   -134.6244093 -0.172123E-05  0.822E-04    0.01      14.1  T
  18   -134.6244087  0.569022E-06  0.157E-03    0.01       7.4  T
  19   -134.6244094 -0.745388E-06  0.132E-04    0.01      88.3  T
  20   -134.6244094  0.790820E-07  0.521E-04    0.01      22.3  T
     SCC iter.                  ...        0 min,  0.199 sec
     gradient                   ...        0 min,  0.076 sec
 * total energy  :  -132.4067875 Eh     change       -0.3148488E-02 Eh
   gradient norm :     0.0137390 Eh/α   predicted    -0.3048442E-02 (  -3.18%)
   displ. norm   :     0.8307928 α      lambda       -0.3196471E-02
   maximum displ.:     0.6529215 α      in ANC's #6, #5, #13, ...

........................................................................
.............................. CYCLE   18 ..............................
........................................................................
   1   -134.5974475 -0.134597E+03  0.340E-01    0.04       0.0  T
   2   -134.2393324  0.358115E+00  0.125E+00    0.50       1.0  T
   3   -134.3865653 -0.147233E+00  0.895E-01    0.30       1.0  T
   4   -134.6234852 -0.236920E+00  0.101E-01    0.01       1.0  T
   5   -134.6239635 -0.478359E-03  0.431E-02    0.01       1.0  T
   6   -134.6222200  0.174357E-02  0.792E-02    0.01       1.0  T
   7   -134.6234031 -0.118309E-02  0.504E-02    0.01       1.0  T
   8   -134.6207974  0.260571E-02  0.105E-01    0.01       1.0  T
   9   -134.6240903 -0.329291E-02  0.107E-02    0.01       1.1  T
  10   -134.6240740  0.162243E-04  0.128E-02    0.01       1.0  T
  11   -134.6234670  0.607074E-03  0.463E-02    0.01       1.0  T
  12   -134.6240777 -0.610765E-03  0.117E-02    0.01       1.0  T
  13   -134.6241157 -0.380065E-04  0.376E-03    0.01       3.1  T
  14   -134.6241182 -0.247973E-05  0.227E-03    0.01       5.1  T
  15   -134.6241197 -0.151802E-05  0.503E-04    0.01      23.1  T
  16   -134.6241183  0.143538E-05  0.223E-03    0.01       5.2  T
  17   -134.6241191 -0.819985E-06  0.150E-03    0.01       7.8  T
  18   -134.6241198 -0.656493E-06  0.276E-04    0.01      42.0  T
  19   -134.6241198 -0.209441E-07  0.793E-05    0.01     146.6  T
     SCC iter.                  ...        0 min,  0.187 sec
     gradient                   ...        0 min,  0.076 sec
 * total energy  :  -132.4094246 Eh     change       -0.2637100E-02 Eh
   gradient norm :     0.0139325 Eh/α   predicted    -0.2701363E-02 (   2.44%)
   displ. norm   :     0.7930496 α      lambda       -0.2812727E-02
   maximum displ.:     0.6408643 α      in ANC's #6, #5, #34, ...

........................................................................
.............................. CYCLE   19 ..............................
........................................................................
   1   -134.6172973 -0.134617E+03  0.261E-01    0.03       0.0  T
   2   -134.2989792  0.318318E+00  0.114E+00    0.71       1.0  T
   3   -134.4273856 -0.128406E+00  0.824E-01    0.17       1.0  T
   4   -134.6208045 -0.193419E+00  0.201E-01    0.02       1.0  T
   5   -134.6304846 -0.968009E-02  0.468E-02    0.01       1.0  T
   6   -134.6117971  0.186875E-01  0.251E-01    0.03       1.0  T
   7   -134.6255311 -0.137340E-01  0.133E-01    0.02       1.0  T
   8   -134.6253663  0.164796E-03  0.136E-01    0.02       1.0  T
   9   -134.6293489 -0.398261E-02  0.716E-02    0.01       1.0  T
  10   -134.6308160 -0.146709E-02  0.178E-02    0.01       1.0  T
  11   -134.6308824 -0.663874E-04  0.917E-03    0.01       1.3  T
  12   -134.6308556  0.267222E-04  0.132E-02    0.01       1.0  T
  13   -134.6308024  0.532731E-04  0.186E-02    0.01       1.0  T
  14   -134.6308986 -0.961970E-04  0.543E-03    0.01       2.1  T
  15   -134.6309029 -0.434694E-05  0.387E-03    0.01       3.0  T
  16   -134.6309056 -0.268328E-05  0.243E-03    0.01       4.8  T
  17   -134.6309072 -0.158018E-05  0.846E-04    0.01      13.7  T
  18   -134.6309072 -0.138038E-07  0.812E-04    0.01      14.3  T
  19   -134.6309074 -0.200497E-06  0.583E-05    0.01     199.2  T
     SCC iter.                  ...        0 min,  0.187 sec
     gradient                   ...        0 min,  0.077 sec
 * total energy  :  -132.4116824 Eh     change       -0.2257864E-02 Eh
   gradient norm :     0.0146652 Eh/α   predicted    -0.2290865E-02 (   1.46%)
   displ. norm   :     0.7761299 α      lambda       -0.2370241E-02
   maximum displ.:     0.5901831 α      in ANC's #6, #5, #34, ...

........................................................................
.............................. CYCLE   20 ..............................
........................................................................
   1   -134.6254926 -0.134625E+03  0.182E-01    0.01       0.0  T
   2   -134.3565090  0.268984E+00  0.985E-01    0.48       1.0  T
   3   -134.6285576 -0.272049E+00  0.889E-02    0.00       1.0  T
   4   -134.5361030  0.924546E-01  0.555E-01    0.07       1.0  T
   5   -134.5844527 -0.483497E-01  0.381E-01    0.05       1.0  T
   6   -134.6284413 -0.439886E-01  0.260E-02    0.00       1.0  T
   7   -134.6246529  0.378843E-02  0.114E-01    0.01       1.0  T
   8   -134.6281807 -0.352778E-02  0.370E-02    0.01       1.0  T
   9   -134.6274441  0.736619E-03  0.616E-02    0.01       1.0  T
  10   -134.6281915 -0.747416E-03  0.363E-02    0.00       1.0  T
  11   -134.6285805 -0.389006E-03  0.590E-03    0.00       2.0  T
  12   -134.6285841 -0.366549E-05  0.477E-03    0.00       2.4  T
  13   -134.6285819  0.223357E-05  0.544E-03    0.00       2.1  T
  14   -134.6285890 -0.710829E-05  0.247E-03    0.00       4.7  T
  15   -134.6285885  0.514528E-06  0.279E-03    0.00       4.2  T
  16   -134.6285902 -0.170683E-05  0.146E-03    0.00       8.0  T
  17   -134.6285908 -0.572302E-06  0.467E-04    0.00      24.9  T
  18   -134.6285908 -0.562610E-07  0.166E-04    0.00      70.0  T
     SCC iter.                  ...        0 min,  0.177 sec
     gradient                   ...        0 min,  0.076 sec
 * total energy  :  -132.4134497 Eh     change       -0.1767278E-02 Eh
   gradient norm :     0.0169550 Eh/α   predicted    -0.1899026E-02 (   7.45%)
   displ. norm   :     0.7132086 α      lambda       -0.2160625E-02
   maximum displ.:     0.5323565 α      in ANC's #6, #5, #34, ...
 * RMSD in coord.:     1.3868860 α      energy gain  -0.9338197E+00 Eh

generating ANC from model Hessian ...
Using Lindh-Hessian (1995)
 Shifting diagonal of input Hessian by    1.0024248388970636E-002
 Lowest  eigenvalues of input Hessian
    0.010000    0.010008    0.000000    0.000000    0.000000    0.000000
    0.000000    0.000000    0.010120    0.010381    0.011208    0.011388
    0.011714    0.011859    0.012464    0.012758    0.013289    0.013581
 Highest eigenvalues
    2.146761    2.149516    2.149804    2.154339    2.157972    2.651605


........................................................................
.............................. CYCLE   21 ..............................
........................................................................
   1   -134.6362722 -0.134636E+03  0.156E-01    0.01       0.0  T
   2   -134.3750485  0.261224E+00  0.960E-01    0.44       1.0  T
   3   -134.6375297 -0.262481E+00  0.917E-02    0.01       1.0  T
   4   -134.6382295 -0.699791E-03  0.254E-02    0.00       1.0  T
   5   -134.6369959  0.123362E-02  0.654E-02    0.01       1.0  T
   6   -134.6329543  0.404156E-02  0.132E-01    0.02       1.0  T
   7   -134.6382438 -0.528953E-02  0.123E-02    0.00       1.0  T
   8   -134.6382343  0.953737E-05  0.126E-02    0.00       1.0  T
   9   -134.6380807  0.153619E-03  0.254E-02    0.00       1.0  T
  10   -134.6382076 -0.126952E-03  0.152E-02    0.00       1.0  T
  11   -134.6382173 -0.965970E-05  0.141E-02    0.00       1.0  T
  12   -134.6382774 -0.601082E-04  0.995E-04    0.00      11.7  T
  13   -134.6382622  0.152091E-04  0.708E-03    0.00       1.6  T
  14   -134.6382774 -0.152671E-04  0.516E-04    0.00      22.5  T
  15   -134.6382772  0.204872E-06  0.908E-04    0.00      12.8  T
  16   -134.6382766  0.611161E-06  0.167E-03    0.00       6.9  T
  17   -134.6382770 -0.402820E-06  0.122E-03    0.00       9.5  T
  18   -134.6382774 -0.345201E-06  0.586E-04    0.00      19.8  T
     SCC iter.                  ...        0 min,  0.177 sec
     gradient                   ...        0 min,  0.076 sec
 * total energy  :  -132.4150090 Eh     change       -0.1559264E-02 Eh
   gradient norm :     0.0185317 Eh/α   predicted     0.0000000E+00 (-100.00%)
   displ. norm   :     0.2003913 α      lambda       -0.1028476E-02
   maximum displ.:     0.1545946 α      in ANC's #6, #12, #14, ...

........................................................................
.............................. CYCLE   22 ..............................
........................................................................
   1   -134.6390873 -0.134639E+03  0.547E-02    0.00       0.0  T
   2   -134.5254018  0.113686E+00  0.613E-01    0.09       1.0  T
   3   -134.6337883 -0.108387E+00  0.137E-01    0.02       1.0  T
   4   -134.6374291 -0.364080E-02  0.756E-02    0.01       1.0  T
   5   -134.6391534 -0.172422E-02  0.735E-03    0.00       1.6  T
   6   -134.6391492  0.419175E-05  0.724E-03    0.00       1.6  T
   7   -134.6391597 -0.105424E-04  0.370E-03    0.00       3.1  T
   8   -134.6391610 -0.133699E-05  0.261E-03    0.00       4.5  T
   9   -134.6391617 -0.690563E-06  0.190E-03    0.00       6.1  T
  10   -134.6391627 -0.100524E-05  0.426E-04    0.00      27.3  T
  11   -134.6391627  0.765256E-07  0.594E-04    0.00      19.6  T
  12   -134.6391628 -0.822682E-07  0.218E-04    0.00      53.3  T
     SCC iter.                  ...        0 min,  0.119 sec
     gradient                   ...        0 min,  0.076 sec
 * total energy  :  -132.4158367 Eh     change       -0.8277557E-03 Eh
   gradient norm :     0.0089277 Eh/α   predicted    -0.5349211E-03 ( -35.38%)
   displ. norm   :     0.4047064 α      lambda       -0.1231484E-02
   maximum displ.:     0.3141533 α      in ANC's #6, #12, #14, ...

........................................................................
.............................. CYCLE   23 ..............................
........................................................................
   1   -134.6396199 -0.134640E+03  0.104E-01    0.01       0.0  T
   2   -134.3952319  0.244388E+00  0.907E-01    0.23       1.0  T
   3   -134.6239603 -0.228728E+00  0.238E-01    0.03       1.0  T
   4   -134.5786563  0.453041E-01  0.448E-01    0.06       1.0  T
   5   -134.6399196 -0.612634E-01  0.287E-02    0.00       1.0  T
   6   -134.6400157 -0.960543E-04  0.221E-02    0.00       1.0  T
   7   -134.6397457  0.269941E-03  0.365E-02    0.00       1.0  T
   8   -134.6396307  0.115070E-03  0.416E-02    0.01       1.0  T
   9   -134.6397258 -0.950887E-04  0.373E-02    0.01       1.0  T
  10   -134.6401465 -0.420723E-03  0.382E-03    0.00       3.0  T
  11   -134.6401480 -0.149345E-05  0.303E-03    0.00       3.8  T
  12   -134.6401491 -0.112075E-05  0.231E-03    0.00       5.0  T
  13   -134.6401494 -0.289020E-06  0.205E-03    0.00       5.7  T
  14   -134.6401503 -0.951449E-06  0.101E-03    0.00      11.5  T
  15   -134.6401501  0.191698E-06  0.127E-03    0.00       9.1  T
  16   -134.6401505 -0.372783E-06  0.598E-04    0.00      19.4  T
  17   -134.6401506 -0.103562E-06  0.146E-04    0.00      79.9  T
     SCC iter.                  ...        0 min,  0.167 sec
     gradient                   ...        0 min,  0.077 sec
 * total energy  :  -132.4167514 Eh     change       -0.9146949E-03 Eh
   gradient norm :     0.0086012 Eh/α   predicted    -0.7165931E-03 ( -21.66%)
   displ. norm   :     0.3690229 α      lambda       -0.7076664E-03
   maximum displ.:     0.2940759 α      in ANC's #6, #12, #14, ...

........................................................................
.............................. CYCLE   24 ..............................
........................................................................
   1   -134.6411807 -0.134641E+03  0.847E-02    0.01       0.0  T
   2   -134.4350598  0.206121E+00  0.829E-01    0.16       1.0  T
   3   -134.6286623 -0.193603E+00  0.211E-01    0.03       1.0  T
   4   -134.6222071  0.645517E-02  0.251E-01    0.03       1.0  T
   5   -134.6414128 -0.192056E-01  0.715E-03    0.00       1.6  T
   6   -134.6413380  0.747475E-04  0.168E-02    0.00       1.0  T
   7   -134.6414005 -0.624924E-04  0.787E-03    0.00       1.5  T
   8   -134.6413939  0.658615E-05  0.883E-03    0.00       1.3  T
   9   -134.6413906  0.334834E-05  0.925E-03    0.00       1.3  T
  10   -134.6414157 -0.251017E-04  0.188E-03    0.00       6.2  T
  11   -134.6414146  0.106812E-05  0.262E-03    0.00       4.4  T
  12   -134.6414165 -0.190058E-05  0.783E-04    0.00      14.9  T
  13   -134.6414165 -0.188853E-07  0.723E-04    0.00      16.1  T
  14   -134.6414166 -0.746601E-07  0.519E-04    0.00      22.4  T
     SCC iter.                  ...        0 min,  0.140 sec
     gradient                   ...        0 min,  0.076 sec
 * total energy  :  -132.4173423 Eh     change       -0.5908664E-03 Eh
   gradient norm :     0.0110097 Eh/α   predicted    -0.4020201E-03 ( -31.96%)
   displ. norm   :     0.3498912 α      lambda       -0.6319292E-03
   maximum displ.:     0.2799336 α      in ANC's #6, #5, #14, ...

........................................................................
.............................. CYCLE   25 ..............................
........................................................................
   1   -134.6441377 -0.134644E+03  0.723E-02    0.00       0.0  T
   2   -134.5837114  0.604262E-01  0.449E-01    0.06       1.0  T
   3   -134.6342970 -0.505856E-01  0.185E-01    0.02       1.0  T
   4   -134.6440437 -0.974672E-02  0.220E-02    0.00       1.0  T
   5   -134.6441532 -0.109434E-03  0.914E-03    0.00       1.3  T
   6   -134.6441684 -0.152635E-04  0.471E-03    0.00       2.5  T
   7   -134.6441666  0.181365E-05  0.439E-03    0.00       2.6  T
   8   -134.6441702 -0.356643E-05  0.201E-03    0.00       5.8  T
   9   -134.6441708 -0.660741E-06  0.935E-04    0.00      12.4  T
  10   -134.6441709 -0.960202E-07  0.559E-04    0.00      20.8  T
     SCC iter.                  ...        0 min,  0.099 sec
     gradient                   ...        0 min,  0.077 sec
 * total energy  :  -132.4178939 Eh     change       -0.5515721E-03 Eh
   gradient norm :     0.0084796 Eh/α   predicted    -0.3546468E-03 ( -35.70%)
   displ. norm   :     0.3895646 α      lambda       -0.6378057E-03
   maximum displ.:     0.3115820 α      in ANC's #6, #5, #7, ...

........................................................................
.............................. CYCLE   26 ..............................
........................................................................
   1   -134.6461394 -0.134646E+03  0.957E-02    0.01       0.0  T
   2   -134.3955647  0.250575E+00  0.926E-01    0.32       1.0  T
   3   -134.6470043 -0.251440E+00  0.484E-02    0.00       1.0  T
   4   -134.6437232  0.328108E-02  0.106E-01    0.01       1.0  T
   5   -134.6435002  0.222967E-03  0.109E-01    0.01       1.0  T
   6   -134.6470571 -0.355691E-02  0.969E-03    0.00       1.2  T
   7   -134.6468553  0.201890E-03  0.275E-02    0.01       1.0  T
   8   -134.6470587 -0.203454E-03  0.865E-03    0.00       1.3  T
   9   -134.6470652 -0.649597E-05  0.714E-03    0.00       1.6  T
  10   -134.6470693 -0.408651E-05  0.607E-03    0.00       1.9  T
  11   -134.6470798 -0.105411E-04  0.141E-03    0.00       8.3  T
  12   -134.6470801 -0.277573E-06  0.101E-03    0.00      11.5  T
  13   -134.6470804 -0.260873E-06  0.344E-04    0.00      33.8  T
  14   -134.6470803  0.453811E-07  0.505E-04    0.00      23.0  T
     SCC iter.                  ...        0 min,  0.140 sec
     gradient                   ...        0 min,  0.076 sec
 * total energy  :  -132.4184346 Eh     change       -0.5407683E-03 Eh
   gradient norm :     0.0045302 Eh/α   predicted    -0.3673141E-03 ( -32.08%)
   displ. norm   :     0.4069318 α      lambda       -0.5178144E-03
   maximum displ.:     0.3229893 α      in ANC's #6, #5, #7, ...

........................................................................
.............................. CYCLE   27 ..............................
........................................................................
   1   -134.6453671 -0.134645E+03  0.129E-01    0.01       0.0  T
   2   -134.3724885  0.272879E+00  0.990E-01    0.52       1.0  T
   3   -134.6269548 -0.254466E+00  0.270E-01    0.03       1.0  T
   4   -134.5028122  0.124143E+00  0.699E-01    0.10       1.0  T
   5   -134.6368149 -0.134003E+00  0.194E-01    0.02       1.0  T
   6   -134.6293733  0.744162E-02  0.251E-01    0.03       1.0  T
   7   -134.6484519 -0.190786E-01  0.112E-02    0.00       1.0  T
   8   -134.6479925  0.459357E-03  0.407E-02    0.01       1.0  T
   9   -134.6484577 -0.465189E-03  0.100E-02    0.00       1.2  T
  10   -134.6484714 -0.136490E-04  0.721E-03    0.00       1.6  T
  11   -134.6484698  0.152834E-05  0.756E-03    0.00       1.5  T
  12   -134.6484864 -0.165837E-04  0.997E-04    0.00      11.7  T
  13   -134.6484866 -0.173375E-06  0.435E-04    0.00      26.7  T
  14   -134.6484859  0.711478E-06  0.158E-03    0.00       7.3  T
  15   -134.6484866 -0.749412E-06  0.146E-04    0.00      79.7  T
     SCC iter.                  ...        0 min,  0.149 sec
     gradient                   ...        0 min,  0.077 sec
 * total energy  :  -132.4188700 Eh     change       -0.4353670E-03 Eh
   gradient norm :     0.0039252 Eh/α   predicted    -0.3017842E-03 ( -30.68%)
   displ. norm   :     0.3766386 α      lambda       -0.3790583E-03
   maximum displ.:     0.2942432 α      in ANC's #6, #5, #7, ...

........................................................................
.............................. CYCLE   28 ..............................
........................................................................
   1   -134.6458580 -0.134646E+03  0.119E-01    0.01       0.0  T
   2   -134.3745313  0.271327E+00  0.984E-01    0.51       1.0  T
   3   -134.6313299 -0.256799E+00  0.242E-01    0.03       1.0  T
   4   -134.5198008  0.111529E+00  0.657E-01    0.09       1.0  T
   5   -134.6436698 -0.123869E+00  0.127E-01    0.01       1.0  T
   6   -134.6329886  0.106812E-01  0.227E-01    0.03       1.0  T
   7   -134.6486297 -0.156411E-01  0.837E-03    0.00       1.4  T
   8   -134.6483524  0.277323E-03  0.315E-02    0.01       1.0  T
   9   -134.6486066 -0.254230E-03  0.120E-02    0.00       1.0  T
  10   -134.6486489 -0.422615E-04  0.125E-03    0.00       9.3  T
  11   -134.6486471  0.177478E-05  0.272E-03    0.00       4.3  T
  12   -134.6486492 -0.205074E-05  0.617E-04    0.00      18.8  T
  13   -134.6486493 -0.847803E-07  0.269E-04    0.00      43.2  T
  14   -134.6486488  0.432400E-06  0.122E-03    0.00       9.5  T
  15   -134.6486493 -0.446360E-06  0.925E-05    0.00     125.6  T
     SCC iter.                  ...        0 min,  0.148 sec
     gradient                   ...        0 min,  0.076 sec
 * total energy  :  -132.4191955 Eh     change       -0.3255191E-03 Eh
   gradient norm :     0.0045913 Eh/α   predicted    -0.2164164E-03 ( -33.52%)
   displ. norm   :     0.3565955 α      lambda       -0.3131570E-03
   maximum displ.:     0.2714098 α      in ANC's #6, #5, #7, ...

........................................................................
.............................. CYCLE   29 ..............................
........................................................................
   1   -134.6471786 -0.134647E+03  0.960E-02    0.01       0.0  T
   2   -134.3863611  0.260818E+00  0.952E-01    0.40       1.0  T
   3   -134.6468686 -0.260508E+00  0.861E-02    0.01       1.0  T
   4   -134.5722063  0.746623E-01  0.506E-01    0.07       1.0  T
   5   -134.6472365 -0.750302E-01  0.702E-02    0.01       1.0  T
   6   -134.6478173 -0.580847E-03  0.542E-02    0.01       1.0  T
   7   -134.6485534 -0.736022E-03  0.219E-02    0.00       1.0  T
   8   -134.6486875 -0.134105E-03  0.505E-03    0.00       2.3  T
   9   -134.6486626  0.248625E-04  0.104E-02    0.00       1.1  T
  10   -134.6486791 -0.164657E-04  0.715E-03    0.00       1.6  T
  11   -134.6486942 -0.151563E-04  0.967E-04    0.00      12.0  T
  12   -134.6486945 -0.249537E-06  0.284E-04    0.00      41.0  T
  13   -134.6486945 -0.212432E-07  0.802E-05    0.00     145.0  T
     SCC iter.                  ...        0 min,  0.127 sec
     gradient                   ...        0 min,  0.076 sec
 * total energy  :  -132.4194692 Eh     change       -0.2736489E-03 Eh
   gradient norm :     0.0044202 Eh/α   predicted    -0.1764936E-03 ( -35.50%)
   displ. norm   :     0.3739705 α      lambda       -0.2964013E-03
   maximum displ.:     0.2773403 α      in ANC's #6, #7, #5, ...

........................................................................
.............................. CYCLE   30 ..............................
........................................................................
   1   -134.6478653 -0.134648E+03  0.802E-02    0.01       0.0  T
   2   -134.4035731  0.244292E+00  0.910E-01    0.26       1.0  T
   3   -134.6478380 -0.244265E+00  0.607E-02    0.01       1.0  T
   4   -134.6470080  0.829974E-03  0.699E-02    0.01       1.0  T
   5   -134.6436906  0.331743E-02  0.126E-01    0.01       1.0  T
   6   -134.6484271 -0.473654E-02  0.152E-02    0.00       1.0  T
   7   -134.6484538 -0.266438E-04  0.111E-02    0.00       1.0  T
   8   -134.6484879 -0.341140E-04  0.222E-03    0.00       5.2  T
   9   -134.6484878  0.108523E-06  0.192E-03    0.00       6.0  T
  10   -134.6484777  0.101028E-04  0.606E-03    0.00       1.9  T
  11   -134.6484881 -0.104174E-04  0.153E-03    0.00       7.6  T
  12   -134.6484887 -0.639583E-06  0.478E-04    0.00      24.3  T
  13   -134.6484888 -0.645505E-07  0.894E-05    0.00     130.0  T
     SCC iter.                  ...        0 min,  0.129 sec
     gradient                   ...        0 min,  0.076 sec
 * total energy  :  -132.4197261 Eh     change       -0.2569264E-03 Eh
   gradient norm :     0.0037415 Eh/α   predicted    -0.1689286E-03 ( -34.25%)
   displ. norm   :     0.4010722 α      lambda       -0.2722025E-03
   maximum displ.:     0.2922546 α      in ANC's #6, #7, #1, ...

........................................................................
.............................. CYCLE   31 ..............................
........................................................................
   1   -134.6479826 -0.134648E+03  0.740E-02    0.00       0.0  T
   2   -134.5029606  0.145022E+00  0.695E-01    0.11       1.0  T
   3   -134.6420851 -0.139124E+00  0.147E-01    0.02       1.0  T
   4   -134.6453620 -0.327695E-02  0.951E-02    0.01       1.0  T
   5   -134.6480309 -0.266891E-02  0.160E-02    0.00       1.0  T
   6   -134.6479867  0.441948E-04  0.194E-02    0.00       1.0  T
   7   -134.6480892 -0.102498E-03  0.484E-03    0.00       2.4  T
   8   -134.6480736  0.156623E-04  0.800E-03    0.00       1.5  T
   9   -134.6480925 -0.188917E-04  0.706E-04    0.00      16.5  T
  10   -134.6480915  0.925670E-06  0.182E-03    0.00       6.4  T
  11   -134.6480925 -0.972306E-06  0.241E-04    0.00      48.2  T
  12   -134.6480925  0.540599E-07  0.467E-04    0.00      24.9  T
     SCC iter.                  ...        0 min,  0.118 sec
     gradient                   ...        0 min,  0.076 sec
 * total energy  :  -132.4199548 Eh     change       -0.2286505E-03 Eh
   gradient norm :     0.0032301 Eh/α   predicted    -0.1579981E-03 ( -30.90%)
   displ. norm   :     0.3875983 α      lambda       -0.2074208E-03
   maximum displ.:     0.2815379 α      in ANC's #6, #1, #7, ...

........................................................................
.............................. CYCLE   32 ..............................
........................................................................
   1   -134.6478051 -0.134648E+03  0.679E-02    0.00       0.0  T
   2   -134.6472912  0.513927E-03  0.589E-02    0.01       1.0  T
   3   -134.4347535  0.212538E+00  0.843E-01    0.17       1.0  T
   4   -134.6467694 -0.212016E+00  0.596E-02    0.01       1.0  T
   5   -134.6477675 -0.998084E-03  0.139E-02    0.00       1.0  T
   6   -134.6477132  0.542915E-04  0.184E-02    0.00       1.0  T
   7   -134.6477283 -0.151011E-04  0.166E-02    0.00       1.0  T
   8   -134.6477984 -0.700767E-04  0.572E-03    0.00       2.0  T
   9   -134.6478063 -0.794992E-05  0.255E-03    0.00       4.6  T
  10   -134.6478076 -0.129764E-05  0.143E-03    0.00       8.2  T
  11   -134.6478079 -0.298445E-06  0.993E-04    0.00      11.7  T
  12   -134.6478082 -0.238113E-06  0.432E-04    0.00      26.9  T
     SCC iter.                  ...        0 min,  0.122 sec
     gradient                   ...        0 min,  0.076 sec
 * total energy  :  -132.4201231 Eh     change       -0.1683941E-03 Eh
   gradient norm :     0.0027790 Eh/α   predicted    -0.1192939E-03 ( -29.16%)
   displ. norm   :     0.3268886 α      lambda       -0.1330747E-03
   maximum displ.:     0.2384875 α      in ANC's #6, #1, #7, ...

........................................................................
.............................. CYCLE   33 ..............................
........................................................................
   1   -134.6479141 -0.134648E+03  0.559E-02    0.00       0.0  T
   2   -134.6464978  0.141630E-02  0.764E-02    0.01       1.0  T
   3   -134.5287527  0.117745E+00  0.629E-01    0.09       1.0  T
   4   -134.6474563 -0.118704E+00  0.396E-02    0.01       1.0  T
   5   -134.6479144 -0.458078E-03  0.628E-03    0.00       1.9  T
   6   -134.6478837  0.307308E-04  0.112E-02    0.00       1.0  T
   7   -134.6479155 -0.318458E-04  0.288E-03    0.00       4.0  T
   8   -134.6479117  0.388174E-05  0.411E-03    0.00       2.8  T
   9   -134.6479161 -0.439317E-05  0.130E-03    0.00       9.0  T
  10   -134.6479163 -0.276673E-06  0.791E-04    0.00      14.7  T
  11   -134.6479163  0.124043E-07  0.765E-04    0.00      15.2  T
     SCC iter.                  ...        0 min,  0.109 sec
     gradient                   ...        0 min,  0.076 sec
 * total energy  :  -132.4202308 Eh     change       -0.1076603E-03 Eh
   gradient norm :     0.0022732 Eh/α   predicted    -0.7364773E-04 ( -31.59%)
   displ. norm   :     0.2639570 α      lambda       -0.9031874E-04
   maximum displ.:     0.1931329 α      in ANC's #6, #1, #5, ...

........................................................................
.............................. CYCLE   34 ..............................
........................................................................
   1   -134.6484425 -0.134648E+03  0.443E-02    0.00       0.0  T
   2   -134.5789602  0.694823E-01  0.480E-01    0.06       1.0  T
   3   -134.6468431 -0.678829E-01  0.778E-02    0.01       1.0  T
   4   -134.6484210 -0.157793E-02  0.150E-02    0.00       1.0  T
   5   -134.6484729 -0.519037E-04  0.628E-03    0.00       1.9  T
   6   -134.6484773 -0.437326E-05  0.397E-03    0.00       2.9  T
   7   -134.6484794 -0.210986E-05  0.207E-03    0.00       5.6  T
   8   -134.6484795 -0.107147E-06  0.125E-03    0.00       9.3  T
   9   -134.6484796 -0.293319E-07  0.102E-03    0.00      11.4  T
  10   -134.6484798 -0.252361E-06  0.326E-04    0.00      35.6  T
  11   -134.6484797  0.117601E-06  0.653E-04    0.00      17.8  T
     SCC iter.                  ...        0 min,  0.110 sec
     gradient                   ...        0 min,  0.076 sec
 * total energy  :  -132.4203070 Eh     change       -0.7616394E-04 Eh
   gradient norm :     0.0019584 Eh/α   predicted    -0.4830664E-04 ( -36.58%)
   displ. norm   :     0.3765601 α      lambda       -0.8437574E-04
   maximum displ.:     0.2708572 α      in ANC's #6, #1, #5, ...

........................................................................
.............................. CYCLE   35 ..............................
........................................................................
   1   -134.6491416 -0.134649E+03  0.627E-02    0.00       0.0  T
   2   -134.4793291  0.169813E+00  0.752E-01    0.12       1.0  T
   3   -134.6472429 -0.167914E+00  0.892E-02    0.01       1.0  T
   4   -134.6482856 -0.104270E-02  0.578E-02    0.01       1.0  T
   5   -134.6490806 -0.795035E-03  0.266E-02    0.00       1.0  T
   6   -134.6492612 -0.180628E-03  0.100E-02    0.00       1.2  T
   7   -134.6492774 -0.161398E-04  0.662E-03    0.00       1.8  T
   8   -134.6492844 -0.700028E-05  0.416E-03    0.00       2.8  T
   9   -134.6492891 -0.467372E-05  0.125E-03    0.00       9.3  T
  10   -134.6492876  0.142541E-05  0.246E-03    0.00       4.7  T
  11   -134.6492893 -0.167086E-05  0.715E-04    0.00      16.3  T
  12   -134.6492890  0.281703E-06  0.117E-03    0.00      10.0  T
  13   -134.6492893 -0.268958E-06  0.683E-04    0.00      17.0  T
  14   -134.6492892  0.512913E-07  0.792E-04    0.00      14.7  T
     SCC iter.                  ...        0 min,  0.137 sec
     gradient                   ...        0 min,  0.076 sec
 * total energy  :  -132.4204098 Eh     change       -0.1028115E-03 Eh
   gradient norm :     0.0021587 Eh/α   predicted    -0.4484697E-04 ( -56.38%)
   displ. norm   :     0.2467833 α      lambda       -0.8227360E-04
   maximum displ.:     0.1677478 α      in ANC's #6, #1, #2, ...

........................................................................
.............................. CYCLE   36 ..............................
........................................................................
   1   -134.6494930 -0.134649E+03  0.440E-02    0.00       0.0  T
   2   -134.4739143  0.175579E+00  0.764E-01    0.13       1.0  T
   3   -134.6493196 -0.175405E+00  0.399E-02    0.00       1.0  T
   4   -134.6495807 -0.261112E-03  0.161E-02    0.00       1.0  T
   5   -134.6495093  0.713566E-04  0.218E-02    0.00       1.0  T
   6   -134.6496474 -0.138097E-03  0.395E-03    0.00       2.9  T
   7   -134.6496311  0.163448E-04  0.821E-03    0.00       1.4  T
   8   -134.6496503 -0.192215E-04  0.181E-03    0.00       6.4  T
   9   -134.6496511 -0.769310E-06  0.813E-04    0.00      14.3  T
  10   -134.6496509  0.139639E-06  0.103E-03    0.00      11.3  T
  11   -134.6496511 -0.237221E-06  0.512E-04    0.00      22.7  T
     SCC iter.                  ...        0 min,  0.107 sec
     gradient                   ...        0 min,  0.077 sec
 * total energy  :  -132.4204839 Eh     change       -0.7412539E-04 Eh
   gradient norm :     0.0022286 Eh/α   predicted    -0.4364304E-04 ( -41.12%)
   displ. norm   :     0.3900790 α      lambda       -0.1313717E-03
   maximum displ.:     0.2559668 α      in ANC's #1, #6, #2, ...

........................................................................
.............................. CYCLE   37 ..............................
........................................................................
   1   -134.6498012 -0.134650E+03  0.658E-02    0.00       0.0  T
   2   -134.4492584  0.200543E+00  0.819E-01    0.15       1.0  T
   3   -134.6484595 -0.199201E+00  0.802E-02    0.01       1.0  T
   4   -134.6484215  0.379813E-04  0.729E-02    0.01       1.0  T
   5   -134.6491224 -0.700941E-03  0.548E-02    0.01       1.0  T
   6   -134.6500084 -0.885988E-03  0.847E-03    0.00       1.4  T
   7   -134.6499260  0.823908E-04  0.184E-02    0.00       1.0  T
   8   -134.6500172 -0.911500E-04  0.569E-03    0.00       2.0  T
   9   -134.6500220 -0.484045E-05  0.408E-03    0.00       2.8  T
  10   -134.6500250 -0.296754E-05  0.261E-03    0.00       4.5  T
  11   -134.6500265 -0.150377E-05  0.136E-03    0.00       8.5  T
  12   -134.6500269 -0.423188E-06  0.649E-04    0.00      17.9  T
  13   -134.6500270 -0.103037E-06  0.243E-04    0.00      47.9  T
     SCC iter.                  ...        0 min,  0.128 sec
     gradient                   ...        0 min,  0.076 sec
 * total energy  :  -132.4205943 Eh     change       -0.1104264E-03 Eh
   gradient norm :     0.0020541 Eh/α   predicted    -0.7568567E-04 ( -31.46%)
   displ. norm   :     0.4001857 α      lambda       -0.1133837E-03
   maximum displ.:     0.2702210 α      in ANC's #1, #6, #7, ...

........................................................................
.............................. CYCLE   38 ..............................
........................................................................
   1   -134.6497528 -0.134650E+03  0.734E-02    0.01       0.0  T
   2   -134.4115643  0.238188E+00  0.897E-01    0.23       1.0  T
   3   -134.6497181 -0.238154E+00  0.552E-02    0.01       1.0  T
   4   -134.6496854  0.326847E-04  0.430E-02    0.01       1.0  T
   5   -134.6484919  0.119345E-02  0.759E-02    0.01       1.0  T
   6   -134.6502010 -0.170908E-02  0.110E-02    0.00       1.1  T
   7   -134.6502268 -0.257683E-04  0.510E-03    0.00       2.3  T
   8   -134.6502118  0.150043E-04  0.838E-03    0.00       1.4  T
   9   -134.6502301 -0.183102E-04  0.314E-03    0.00       3.7  T
  10   -134.6502313 -0.119200E-05  0.240E-03    0.00       4.9  T
  11   -134.6502326 -0.138653E-05  0.104E-03    0.00      11.1  T
  12   -134.6502321  0.591504E-06  0.174E-03    0.00       6.7  T
  13   -134.6502330 -0.905170E-06  0.165E-04    0.00      70.4  T
  14   -134.6502328  0.172122E-06  0.764E-04    0.00      15.2  T
     SCC iter.                  ...        0 min,  0.140 sec
     gradient                   ...        0 min,  0.076 sec
 * total energy  :  -132.4206845 Eh     change       -0.9018094E-04 Eh
   gradient norm :     0.0018328 Eh/α   predicted    -0.6577551E-04 ( -27.06%)
   displ. norm   :     0.4411729 α      lambda       -0.6900208E-04
   maximum displ.:     0.3083440 α      in ANC's #1, #6, #7, ...

........................................................................
.............................. CYCLE   39 ..............................
........................................................................
   1   -134.6504968 -0.134650E+03  0.763E-02    0.01       0.0  T
   2   -134.4203331  0.230164E+00  0.880E-01    0.20       1.0  T
   3   -134.6490612 -0.228728E+00  0.873E-02    0.01       1.0  T
   4   -134.6459944  0.306675E-02  0.127E-01    0.02       1.0  T
   5   -134.6479714 -0.197696E-02  0.983E-02    0.01       1.0  T
   6   -134.6508558 -0.288447E-02  0.102E-02    0.00       1.1  T
   7   -134.6507327  0.123147E-03  0.224E-02    0.00       1.0  T
   8   -134.6508608 -0.128098E-03  0.888E-03    0.00       1.3  T
[...]
    46   6 C       47   6 C                                       1.4353798
    44   6 C       48   7 N                                       1.3531209
    47   6 C       48   7 N                                       1.3602941
    47   6 C       49   6 C                                       1.3836126
    49   6 C       50   6 C                                       1.3834213
    50   6 C       51   6 C                                       1.4378741
    51   6 C       52   6 C                                       1.3525521
    52   6 C       53   6 C                                       1.4380405 (max)
    50   6 C       54   7 N                                       1.3568471
    53   6 C       54   7 N                                       1.3567522
    53   6 C       55   6 C                                       1.3839955
    55   6 C       56   6 C                                       1.3841213
    56   6 C       57   6 C                                       1.4379093
    57   6 C       58   6 C                                       1.3525575
    58   6 C       59   6 C                                       1.4378334
    56   6 C       60   7 N                                       1.3568589
    59   6 C       60   7 N                                       1.3570632
    59   6 C       61   6 C                                       1.3835136
    40   6 C       62   6 C                                       1.4354035
    61   6 C       62   6 C                                       1.3836604
    42   6 C       63   7 N                                       1.3530094
    62   6 C       63   7 N                                       1.3603910
    40   6 C       64   1 H                                       1.0729131
    41   6 C       65   1 H                                       1.0726560
    45   6 C       66   1 H                                       1.0725594
    46   6 C       67   1 H                                       1.0728370
    49   6 C       68   1 H                                       1.0805369
    51   6 C       69   1 H                                       1.0729958
    52   6 C       70   1 H                                       1.0730231
    55   6 C       71   1 H                                       1.0803285
    57   6 C       72   1 H                                       1.0730313
    58   6 C       73   1 H                                       1.0730255
    61   6 C       74   1 H                                       1.0805715

 * 3 distinct bonds (by element types)

   Z      Z             #   av. dist./Å        max./Å        min./Å
   1 H    6 C          22     1.0749515     1.0805715     1.0725404
   6 C    6 C          41     1.3959659     1.4380405     1.2125334
   6 C    7 N          16     1.3567958     1.3603910     1.3529501

           -------------------------------------------------
          |               Frequency Printout                |
           -------------------------------------------------
 projected vibrational frequencies (cm⁻¹)
eigval :       -0.00    -0.00    -0.00    -0.00     0.00     0.00
eigval :        6.03    10.02    11.23    26.83    38.57    39.21
eigval :       45.82    62.99    71.34    72.40    83.72    91.75
eigval :      117.85   120.46   125.70   132.12   147.39   165.12
eigval :      165.53   180.25   184.83   185.55   201.19   206.98
eigval :      207.83   210.21   211.48   211.56   217.57   218.63
eigval :      219.99   240.20   255.95   259.72   261.75   307.21
eigval :      322.09   322.36   324.44   350.38   351.14   354.30
eigval :      360.91   369.68   372.91   378.66   384.91   392.42
eigval :      392.76   393.57   394.55   401.65   426.64   427.34
eigval :      427.49   429.30   461.64   462.21   500.43   514.75
eigval :      598.74   611.98   613.06   618.14   619.68   622.38
eigval :      622.61   642.43   642.70   643.37   643.64   651.21
eigval :      651.25   657.39   657.45   667.69   671.40   719.35
eigval :      720.11   723.13   723.32   755.83   758.47   762.73
eigval :      765.77   776.49   777.24   778.74   779.20   792.04
eigval :      797.59   797.85   802.47   804.61   805.83   810.25
eigval :      812.15   818.10   819.89   826.18   827.37   832.77
eigval :      834.74   836.48   837.55   841.77   842.27   843.05
eigval :      843.14   844.32   844.98   849.67   851.70   888.71
eigval :      960.92  1000.64  1001.07  1003.17  1003.88  1021.81
eigval :     1025.53  1027.34  1029.27  1034.19  1034.68  1039.91
eigval :     1040.86  1041.45  1044.35  1062.86  1063.69  1066.70
eigval :     1067.59  1069.75  1072.78  1076.49  1078.01  1097.17
eigval :     1143.03  1154.56  1154.61  1164.40  1171.95  1174.47
eigval :     1175.93  1191.14  1225.86  1228.28  1239.65  1241.58
eigval :     1286.78  1289.99  1294.95  1301.34  1301.50  1303.06
eigval :     1318.80  1319.84  1333.46  1333.80  1335.95  1344.39
eigval :     1344.91  1345.12  1355.69  1367.58  1367.68  1367.76
eigval :     1372.69  1450.71  1453.17  1454.30  1464.66  1478.06
eigval :     1488.90  1503.20  1503.58  1510.00  1510.55  1522.58
eigval :     1524.68  1526.46  1534.85  1537.17  1537.62  1552.73
eigval :     1553.50  1559.89  1560.09  1569.25  1570.49  1603.40
eigval :     1603.77  2266.32  3083.87  3084.19  3084.22  3084.46
eigval :     3086.12  3086.39  3147.74  3148.09  3148.41  3148.49
eigval :     3152.08  3152.62  3152.85  3153.15  3161.48  3161.83
eigval :     3162.08  3162.22  3166.49  3167.48  3168.02  3168.98
 reduced masses (amu)
   1: 14.30   2: 18.30   3: 20.27   4: 20.25   5: 19.31   6: 18.16   7: 11.35   8: 11.27
   9: 11.37  10: 12.68  11: 10.95  12: 11.77  13: 11.06  14: 13.69  15: 20.11  16: 20.77
  17: 32.94  18: 24.48  19: 11.10  20: 10.79  21: 10.85  22: 11.34  23: 12.26  24: 12.14
  25: 12.09  26: 13.00  27: 11.88  28: 11.89  29: 12.59  30: 27.34  31: 39.46  32: 12.80
  33: 23.46  34: 20.81  35: 50.24  36: 51.82  37: 50.98  38: 23.26  39: 15.45  40: 10.47
  41: 10.50  42: 12.89  43: 11.81  44: 12.16  45: 11.94  46: 10.59  47: 12.03  48: 11.92
  49: 11.50  50: 11.97  51: 12.73  52: 13.16  53: 13.35  54:  9.96  55: 11.92  56: 10.21
  57: 12.03  58: 12.14  59:  9.97  60: 10.19  61:  9.99  62: 10.31  63: 11.83  64: 11.81
  65: 11.65  66: 11.63  67: 11.71  68: 11.15  69: 11.18  70: 10.90  71: 10.98  72: 10.91
  73: 10.93  74: 10.79  75: 10.80  76: 11.21  77: 11.22  78: 11.13  79: 11.13  80: 11.31
  81: 11.33  82: 11.47  83: 11.39  84: 11.06  85: 11.13  86: 10.98  87: 10.96  88: 11.18
  89: 11.17  90: 11.24  91: 11.31  92: 11.41  93: 11.37  94: 11.09  95: 11.04  96: 11.69
  97:  3.77  98:  3.82  99: 11.56 100:  3.91 101:  3.85 102:  4.04 103:  3.98 104:  4.35
 105:  4.27 106:  3.83 107:  3.87 108:  3.82 109:  3.91 110:  4.04 111:  4.15 112:  3.47
 113:  3.47 114:  3.49 115:  3.48 116:  3.52 117:  3.54 118:  3.38 119:  3.33 120: 11.20
 121: 11.43 122: 11.80 123: 11.19 124: 11.73 125: 11.85 126: 11.36 127: 10.54 128:  7.28
 129:  7.30 130: 10.60 131: 10.57 132:  8.89 133:  8.87 134:  9.15 135:  9.21 136:  2.13
 137:  1.89 138:  1.65 139:  1.87 140:  1.88 141:  1.87 142:  2.39 143:  3.20 144:  8.48
 145:  5.46 146:  5.46 147:  5.46 148:  6.32 149:  6.38 150:  7.07 151:  7.08 152:  8.31
 153:  8.84 154:  8.88 155:  8.67 156:  8.86 157:  9.73 158:  9.48 159: 11.11 160:  9.97
 161: 10.02 162: 10.90 163: 11.49 164: 11.49 165: 11.60 166: 11.94 167: 11.97 168:  9.58
 169:  9.62 170: 12.16 171: 10.70 172:  9.25 173:  9.25 174:  9.46 175: 10.40 176: 11.50
 177: 11.50 178: 11.48 179: 11.47 180: 11.73 181: 11.82 182: 11.76 183: 11.74 184: 11.47
 185: 11.45 186: 11.83 187: 11.85 188: 11.72 189: 11.82 190: 11.68 191: 11.68 192: 11.61
 193: 11.62 194: 11.59 195: 11.59 196: 11.61 197: 11.62 198: 11.78 199: 11.78 200: 12.01
 201:  1.81 202:  1.81 203:  1.81 204:  1.81 205:  1.81 206:  1.81 207:  1.81 208:  1.81
 209:  1.81 210:  1.81 211:  1.81 212:  1.81 213:  1.82 214:  1.82 215:  1.98 216:  1.98
 217:  1.98 218:  1.98 219:  1.97 220:  1.96 221:  1.96 222:  1.96
 IR intensities (km·mol⁻¹)
   1:120.37   2: 32.65   3:309.75   4: 76.17   5: 94.35   6:278.17   7: 91.34   8:  0.42
   9:  0.01  10:  0.07  11:  5.04  12: 14.21  13:  0.34  14: 11.05  15:  2.53  16:  0.56
  17:  9.43  18:  0.42  19: 49.30  20:173.87  21:  0.48  22:  0.79  23:320.77  24:  5.11
  25:  5.16  26:199.53  27: 57.86  28:  0.96  29:  1.00  30: 54.18  31:  0.41  32: 61.19
  33:  0.46  34:  3.66  35:  3.50  36:  8.48  37:  0.46  38:  0.02  39: 89.64  40:109.59
  41:  0.07  42:  1.69  43:645.69  44:  2.16  45:  0.79  46: 10.47  47:  0.17  48: 82.25
  49:  1.64  50:  0.09  51:  0.38  52:  1.33  53: 47.52  54:  0.16  55: 30.65  56:594.30
  57: 12.21  58:  0.02  59:  1.65  60:  8.11  61:  2.73  62:  0.31  63:  1.28  64:  3.31
  65:  5.97  66:  2.70  67:401.09  68:351.88  69:  1.49  70:127.68  71:  0.97  72: 23.06
  73:  0.00  74:  0.84  75:  3.98  76:562.51  77:  1.15  78: 10.73  79:731.18  80: 56.43
  81:  3.41  82:  6.67  83:104.98  84:******  85:  0.02  86:  2.96  87:  1.27  88:  1.24
  89: 15.27  90:  0.08  91:596.14  92:  3.87  93:  2.29  94:  1.52  95:126.59  96:  1.80
  97: 29.54  98:  3.79  99:  7.99 100:204.71 101:  0.96 102: 22.22 103:  3.81 104:157.39
 105:  0.23 106: 28.23 107:  1.56 108:317.58 109:  0.67 110:146.79 111:  0.94 112:160.70
 113: 28.47 114:  0.96 115:  0.34 116:  4.84 117: 18.42 118:  0.23 119:  2.60 120:  0.01
 121:  6.69 122:  0.89 123:  2.01 124: 10.81 125: 99.81 126:  0.15 127:  0.07 128:  3.32
 129:  3.17 130:  9.42 131:  0.98 132:481.64 133:  1.66 134: 12.19 135: 12.57 136:306.26
 137:113.40 138:  9.37 139:  2.95 140:  0.13 141: 18.61 142:  0.43 143:****** 144:  0.00
 145:843.96 146:  1.20 147:  6.13 148:  0.02 149:483.26 150:  0.13 151:  2.24 152:  0.15
 153:  2.02 154:  4.99 155: 12.50 156:  0.09 157:  2.59 158: 24.61 159: 11.81 160:  2.22
 161:  5.92 162:  0.91 163:  3.53 164:  1.76 165:  0.05 166:  2.23 167:670.19 168:  0.28
 169:  9.30 170:  0.09 171:844.46 172:  0.18 173:  0.05 174:  0.16 175:  5.42 176:  0.18
 177:  4.87 178:  5.38 179: 32.26 180:  0.22 181:462.65 182: 15.35 183:****** 184:  0.98
Refinement of some symmetry elements was terminated before convergence was reached.
Some symmetry elements may remain unidentified.
Molecule has the following symmetry elements: (C2) 
It seems to be the C2 point group
 185:  3.86 186:  8.84 187:  7.75 188:  0.04 189:596.86 190:  6.81 191: 57.85 192:******
 193:  2.03 194:  0.19 195:  0.59 196: 72.97 197:  0.25 198:  0.84 199:  4.33 200:  0.00
 201:****** 202:503.70 203:****** 204:890.82 205:****** 206:119.01 207:  2.18 208: 10.26
 209:  5.05 210:  3.74 211:140.42 212: 33.39 213:666.04 214:971.54 215: 17.06 216: 11.82
 217: 41.50 218:  3.95 219: 21.28 220:  5.10 221:354.19 222:770.72
 Raman intensities (amu)
   1:  0.00   2:  0.00   3:  0.00   4:  0.00   5:  0.00   6:  0.00   7:  0.00   8:  0.00
   9:  0.00  10:  0.00  11:  0.00  12:  0.00  13:  0.00  14:  0.00  15:  0.00  16:  0.00
  17:  0.00  18:  0.00  19:  0.00  20:  0.00  21:  0.00  22:  0.00  23:  0.00  24:  0.00
  25:  0.00  26:  0.00  27:  0.00  28:  0.00  29:  0.00  30:  0.00  31:  0.00  32:  0.00
  33:  0.00  34:  0.00  35:  0.00  36:  0.00  37:  0.00  38:  0.00  39:  0.00  40:  0.00
  41:  0.00  42:  0.00  43:  0.00  44:  0.00  45:  0.00  46:  0.00  47:  0.00  48:  0.00
  49:  0.00  50:  0.00  51:  0.00  52:  0.00  53:  0.00  54:  0.00  55:  0.00  56:  0.00
  57:  0.00  58:  0.00  59:  0.00  60:  0.00  61:  0.00  62:  0.00  63:  0.00  64:  0.00
  65:  0.00  66:  0.00  67:  0.00  68:  0.00  69:  0.00  70:  0.00  71:  0.00  72:  0.00
  73:  0.00  74:  0.00  75:  0.00  76:  0.00  77:  0.00  78:  0.00  79:  0.00  80:  0.00
  81:  0.00  82:  0.00  83:  0.00  84:  0.00  85:  0.00  86:  0.00  87:  0.00  88:  0.00
  89:  0.00  90:  0.00  91:  0.00  92:  0.00  93:  0.00  94:  0.00  95:  0.00  96:  0.00
  97:  0.00  98:  0.00  99:  0.00 100:  0.00 101:  0.00 102:  0.00 103:  0.00 104:  0.00
 105:  0.00 106:  0.00 107:  0.00 108:  0.00 109:  0.00 110:  0.00 111:  0.00 112:  0.00
 113:  0.00 114:  0.00 115:  0.00 116:  0.00 117:  0.00 118:  0.00 119:  0.00 120:  0.00
 121:  0.00 122:  0.00 123:  0.00 124:  0.00 125:  0.00 126:  0.00 127:  0.00 128:  0.00
 129:  0.00 130:  0.00 131:  0.00 132:  0.00 133:  0.00 134:  0.00 135:  0.00 136:  0.00
 137:  0.00 138:  0.00 139:  0.00 140:  0.00 141:  0.00 142:  0.00 143:  0.00 144:  0.00
 145:  0.00 146:  0.00 147:  0.00 148:  0.00 149:  0.00 150:  0.00 151:  0.00 152:  0.00
 153:  0.00 154:  0.00 155:  0.00 156:  0.00 157:  0.00 158:  0.00 159:  0.00 160:  0.00
 161:  0.00 162:  0.00 163:  0.00 164:  0.00 165:  0.00 166:  0.00 167:  0.00 168:  0.00
 169:  0.00 170:  0.00 171:  0.00 172:  0.00 173:  0.00 174:  0.00 175:  0.00 176:  0.00
 177:  0.00 178:  0.00 179:  0.00 180:  0.00 181:  0.00 182:  0.00 183:  0.00 184:  0.00
 185:  0.00 186:  0.00 187:  0.00 188:  0.00 189:  0.00 190:  0.00 191:  0.00 192:  0.00
 193:  0.00 194:  0.00 195:  0.00 196:  0.00 197:  0.00 198:  0.00 199:  0.00 200:  0.00
 201:  0.00 202:  0.00 203:  0.00 204:  0.00 205:  0.00 206:  0.00 207:  0.00 208:  0.00
 209:  0.00 210:  0.00 211:  0.00 212:  0.00 213:  0.00 214:  0.00 215:  0.00 216:  0.00
 217:  0.00 218:  0.00 219:  0.00 220:  0.00 221:  0.00 222:  0.00
 output can be read by thermo (or use thermo option).
 writing <g98.out> molden fake output.
 recommended (thermochemical) frequency scaling factor: 1.0
           -------------------------------------------------
          |             Thermodynamic Functions             |
           -------------------------------------------------

c2  symmetry found (for desy threshold:  0.10E+00) used in thermo

          ...................................................
          :                      SETUP                      :
          :.................................................:
          :  # frequencies                         216      :
          :  # imaginary freq.                       0      :
          :  linear?                             false      :
          :  only rotor calc.                    false      :
          :  symmetry                               c2      :
          :  rotational number                       2      :
          :  scaling factor                  1.0000000      :
          :  rotor cutoff                   50.0000000 cm⁻¹ :
          :  imag. cutoff                  -20.0000000 cm⁻¹ :
          :.................................................:

    mode    ω/cm⁻¹     T·S(HO)/kcal·mol⁻¹    T·S(FR)/kcal·mol⁻¹   T·S(vib)
   ------------------------------------------------------------------------
       1      6.03    -2.68850 (  0.02%)    -1.68331 ( 99.98%)    -1.68353
       2     10.02    -2.38722 (  0.16%)    -1.53267 ( 99.84%)    -1.53405
       3     11.23    -2.31968 (  0.25%)    -1.49890 ( 99.75%)    -1.50098
       4     26.83    -1.80417 (  7.65%)    -1.24099 ( 92.35%)    -1.28409
       5     38.57    -1.58944 ( 26.16%)    -1.13340 ( 73.84%)    -1.25269
       6     39.21    -1.57983 ( 27.43%)    -1.12858 ( 72.57%)    -1.25238
       7     45.82    -1.48779 ( 41.36%)    -1.08241 ( 58.64%)    -1.25007
       8     62.99    -1.30029 ( 71.58%)    -0.98812 ( 28.42%)    -1.21158
       9     71.34    -1.22720 ( 80.56%)    -0.95125 ( 19.44%)    -1.17356
      10     72.40    -1.21857 ( 81.47%)    -0.94690 ( 18.53%)    -1.16822
      11     83.72    -1.13345 ( 88.72%)    -0.90383 ( 11.28%)    -1.10754
      12     91.75    -1.08001 ( 91.90%)    -0.87671 (  8.10%)    -1.06354
      13    117.85    -0.93478 ( 96.86%)    -0.80255 (  3.14%)    -0.93064
      14    120.46    -0.92216 ( 97.12%)    -0.79606 (  2.88%)    -0.91853
      15    125.70    -0.89765 ( 97.56%)    -0.78344 (  2.44%)    -0.89486
      16    132.12    -0.86909 ( 97.99%)    -0.76869 (  2.01%)    -0.86708
      17    147.39    -0.80669 ( 98.69%)    -0.73630 (  1.31%)    -0.80577
      18    165.12    -0.74248 ( 99.17%)    -0.70264 (  0.83%)    -0.74215
      19    165.53    -0.74110 ( 99.17%)    -0.70191 (  0.83%)    -0.74078
      20    180.25    -0.69344 ( 99.41%)    -0.67667 (  0.59%)    -0.69334
      21    184.83    -0.67950 ( 99.47%)    -0.66924 (  0.53%)    -0.67945
      22    185.55    -0.67736 ( 99.48%)    -0.66809 (  0.52%)    -0.67731
      23    201.19    -0.63272 ( 99.62%)    -0.64411 (  0.38%)    -0.63277
      24    206.98    -0.61721 ( 99.66%)    -0.63571 (  0.34%)    -0.61728
      25    207.83    -0.61497 ( 99.67%)    -0.63449 (  0.33%)    -0.61503
      26    210.21    -0.60878 ( 99.68%)    -0.63112 (  0.32%)    -0.60885
      27    211.48    -0.60549 ( 99.69%)    -0.62933 (  0.31%)    -0.60556
      28    211.56    -0.60530 ( 99.69%)    -0.62923 (  0.31%)    -0.60538
      29    217.57    -0.59011 ( 99.72%)    -0.62093 (  0.28%)    -0.59020
      30    218.63    -0.58749 ( 99.73%)    -0.61949 (  0.27%)    -0.58757
      31    219.99    -0.58413 ( 99.73%)    -0.61765 (  0.27%)    -0.58422
      32    240.20    -0.53709 ( 99.81%)    -0.59162 (  0.19%)    -0.53720
      33    255.95    -0.50365 ( 99.85%)    -0.57280 (  0.15%)    -0.50375
      34    259.72    -0.49601 ( 99.86%)    -0.56846 (  0.14%)    -0.49611
      35    261.75    -0.49197 ( 99.87%)    -0.56616 (  0.13%)    -0.49206
   ------------------------------------------------------------------------

   temp. (K)  partition function   enthalpy   heat capacity  entropy
                                   cal/mol     cal/K/mol   cal/K/mol   J/K/mol
 298.15  VIB  0.564E+18            23771.239    158.203    146.378
         ROT  0.642E+08              888.752      2.981     38.708
         INT  0.362E+26            24659.991    161.184    185.086
         TR   0.205E+29             1481.254      4.968     45.765
         TOT                       26141.2448   166.1521   230.8512   965.8816

       T/K    H(0)-H(T)+PV         H(T)/Eh          T*S/Eh         G(T)/Eh
   ------------------------------------------------------------------------
    298.15    0.416587E-01    0.560622E+00    0.109685E+00    0.450937E+00
   ------------------------------------------------------------------------

         :::::::::::::::::::::::::::::::::::::::::::::::::::::
         ::                  THERMODYNAMIC                  ::
         :::::::::::::::::::::::::::::::::::::::::::::::::::::
         :: total free energy        -131.971546871731 Eh   ::
         ::.................................................::
         :: total energy             -132.422484179176 Eh   ::
         :: zero point energy           0.518963458979 Eh   ::
         :: G(RRHO) w/o ZPVE           -0.068026151535 Eh   ::
         :: G(RRHO) contrib.            0.450937307444 Eh   ::
         :::::::::::::::::::::::::::::::::::::::::::::::::::::

optimized geometry written to: xtbopt.xyz


           -------------------------------------------------
          | TOTAL ENERGY             -132.422484179176 Eh   |
          | TOTAL ENTHALPY           -131.861861994868 Eh   |
          | TOTAL FREE ENERGY        -131.971546871731 Eh   |
          | GRADIENT NORM               0.000482195525 Eh/α |
          | HOMO-LUMO GAP               0.001103552307 eV   |
           -------------------------------------------------

------------------------------------------------------------------------
 * finished run on 2021/11/19 at 10:41:12.904     
------------------------------------------------------------------------
 total:
 * wall-time:     0 d,  0 h,  1 min, 48.295 sec
 *  cpu-time:     0 d,  0 h,  1 min, 48.297 sec
 * ratio c/w:     1.000 speedup
 SCF:
 * wall-time:     0 d,  0 h,  0 min,  0.426 sec
 *  cpu-time:     0 d,  0 h,  0 min,  0.426 sec
 * ratio c/w:     1.000 speedup
 ANC optimizer:
 * wall-time:     0 d,  0 h,  0 min, 20.544 sec
 *  cpu-time:     0 d,  0 h,  0 min, 20.544 sec
 * ratio c/w:     1.000 speedup
 analytical hessian:
 * wall-time:     0 d,  0 h,  1 min, 16.600 sec
 *  cpu-time:     0 d,  0 h,  1 min, 16.601 sec
 * ratio c/w:     1.000 speedup

