74
 energy: -131.479630011843 gnorm: 2.244773497591 xtb: 6.4.1 (bd6e46d)
Cu        9.61674700000000    0.02433600000000   -0.00470500000000
C        11.94573800000000   -3.12245800000000    1.31798400000000
C        12.86184500000000   -2.17825000000000    1.26770200000000
C        12.45066600000000   -1.12434600000000    0.34641000000000
C        13.06953600000000    0.00000000000000    0.00000000000000
C        12.36549400000000    1.21994800000000   -0.36410500000000
C        12.69360400000000    2.18000300000000   -1.21157900000000
C        11.65882500000000    3.19628900000000   -1.22847700000000
C        10.72255700000000    2.81982700000000   -0.38158500000000
N        11.12454700000000    1.58681600000000    0.18223200000000
C         9.46148200000000    3.46482600000000   -0.00243300000000
C         8.36626500000000    2.83004300000000    0.34832700000000
C         7.29264000000000    3.14799900000000    1.31735500000000
C         6.45507700000000    2.15124500000000    1.24018900000000
C         6.89337400000000    1.14756200000000    0.25973700000000
N         7.99831200000000    1.58641500000000   -0.22455600000000
C         6.28253900000000   -0.10570900000000   -0.15381100000000
C         6.94670000000000   -1.21021500000000   -0.40823600000000
C         6.57285100000000   -2.27315700000000   -1.36576300000000
C         7.52159800000000   -3.16691200000000   -1.27674400000000
C         8.50732200000000   -2.72946300000000   -0.29386600000000
N         8.15427600000000   -1.58365700000000    0.20293100000000
C         9.73821000000000   -3.38553300000000    0.15185500000000
C        10.86125200000000   -2.73967200000000    0.41897600000000
N        11.18985200000000   -1.49223100000000   -0.17942800000000
H        12.00600000000000   -4.03223800000000    1.93553000000000
H        13.77817300000000   -2.21819900000000    1.84575000000000
H        13.62097000000000    2.19679900000000   -1.81272200000000
H        11.67572400000000    4.10097700000000   -1.84109800000000
H         9.41376000000000    4.55962900000000   -0.00621100000000
H         7.23981800000000    4.02672400000000    1.94234700000000
H         5.54344600000000    2.11557600000000    1.85751300000000
H         5.18428900000000   -0.10279800000000   -0.25308200000000
H         5.70399500000000   -2.32562200000000   -2.01471300000000
H         7.51875200000000   -4.08322100000000   -1.87550300000000
H         9.70272800000000   -4.48133400000000    0.26378000000000
C        14.04471100000000    0.00000000000000    0.00000000000000
C        15.26091700000000    0.00000000000000    0.00000000000000
Cu       19.72483700000000   -0.00926700000000   -0.16365300000000
C        17.17896800000000    3.22807700000000    1.12819700000000
C        16.25260800000000    2.30090300000000    0.98365000000000
C        16.85462100000000    1.13212300000000    0.32690600000000
C        16.26166900000000    0.00000000000000    0.00000000000000
C        16.89398300000000   -1.31318700000000   -0.02189100000000
C        16.37332000000000   -2.53274800000000    0.09962100000000
C        17.40886700000000   -3.53403100000000    0.01105400000000
C        18.56224200000000   -2.87856200000000   -0.16665800000000
N        18.27578900000000   -1.50783700000000   -0.19098400000000
C        19.90386600000000   -3.45018400000000   -0.31499700000000
C        21.04606000000000   -2.84495400000000   -0.14565100000000
C        22.32477200000000   -3.26380600000000    0.49090500000000
C        23.12464800000000   -2.25815800000000    0.35269600000000
C        22.47628600000000   -1.13258800000000   -0.35664800000000
N        21.28615700000000   -1.53013100000000   -0.61496100000000
C        22.98561100000000    0.18176500000000   -0.74347000000000
C        22.32622900000000    1.31092600000000   -0.64654000000000
C        22.72403600000000    2.59563200000000   -1.26695000000000
C        21.81683900000000    3.45875700000000   -0.92580900000000
C        20.81028100000000    2.79054400000000   -0.08741500000000
N        21.14020500000000    1.55184600000000    0.05002200000000
C        19.61483300000000    3.36180400000000    0.52614500000000
C        18.44821000000000    2.75141800000000    0.58563900000000
N        18.19719500000000    1.44905400000000    0.10130900000000
H        16.98734400000000    4.21027900000000    1.59597300000000
H        15.21029300000000    2.42575500000000    1.31558600000000
H        15.28730400000000   -2.69977300000000    0.24779800000000
H        17.23679100000000   -4.59554100000000    0.08059900000000
H        19.96479400000000   -4.51830000000000   -0.60107600000000
H        22.47792100000000   -4.22712500000000    0.95200800000000
H        24.14695400000000   -2.26091500000000    0.71966400000000
H        24.01967700000000    0.14843600000000   -1.14041600000000
H        23.60010100000000    2.79831100000000   -1.88991800000000
H        21.85649100000000    4.50999700000000   -1.24743700000000
H        19.70143100000000    4.35147900000000    0.95670400000000
74
 energy: -132.008934049195 gnorm: 0.554985670954 xtb: 6.4.1 (bd6e46d)
Cu        9.62024846453997    0.02591442919949   -0.00353593329623
C        11.94236567990133   -3.13290006056234    1.31416323382039
C        12.86484825035010   -2.17396199967389    1.26660535144353
C        12.38703299407133   -1.15472961640798    0.35159736591095
C        12.90953943897073    0.01228664201340   -0.00099290740057
C        12.31559772231495    1.23356519705197   -0.36049098593088
C        12.69684943362701    2.19653380898907   -1.22304103664465
C        11.67569781238315    3.20148027605223   -1.23761267731624
C        10.71376189833502    2.81247904460252   -0.37586484234428
N        11.10384557356608    1.58119682669816    0.18252852639599
C         9.47358685206557    3.46770853523505   -0.00459484335072
C         8.35634826677786    2.81996490496502    0.34951156964226
C         7.29726614186265    3.15347525723190    1.30941996225157
C         6.43934930189243    2.14430233982559    1.24322663765893
C         6.88783121712218    1.14843278722376    0.26819232068673
N         8.01855961320511    1.57839785123620   -0.21941245926285
C         6.27475280913449   -0.09138218186261   -0.14981631345273
C         6.94976805592942   -1.21621509026395   -0.41141422363158
C         6.56651884787843   -2.26968878860162   -1.35921424390664
C         7.52854283064534   -3.17909446188692   -1.27745282689582
C         8.51230327326382   -2.73630885629700   -0.29811054237883
N         8.15943571645096   -1.57031996994486    0.19319238236569
C         9.72625911413308   -3.39205793093702    0.14851770001955
C        10.86520282743638   -2.73572564717636    0.42123672480852
N        11.18014950199384   -1.49662173987183   -0.16475346870091
H        12.00290319850611   -4.02977749186247    1.93204625763684
H        13.77837463036781   -2.21238649758540    1.84379006070791
H        13.61825402436079    2.19800055635545   -1.81142530722031
H        11.67788287878751    4.09950617016670   -1.84133165488570
H         9.41917703002524    4.55853478403919   -0.00386436258764
H         7.24242638691092    4.02586371560850    1.94028883451924
H         5.54297236922575    2.11171461719672    1.85616274216068
H         5.18593094178473   -0.10019339468848   -0.25527346955414
H         5.70507017957804   -2.32176179970286   -2.01166000224409
H         7.52316384999801   -4.08375106940092   -1.87351817238669
H         9.70077227740835   -4.47940476938503    0.26491176360314
C        14.12882816640885    0.00520425121138   -0.00190130284454
C        15.19676219483205   -0.00581280978995   -0.00370304516827
Cu       19.72083581380214   -0.00983950949121   -0.16492594606808
C        17.18239427150992    3.23779124226938    1.13003540049855
C        16.25091280827790    2.29653054381694    0.98215164836255
C        16.91395111296109    1.16440371377805    0.33157169053397
C        16.40702493529439   -0.01401376995607   -0.00164939287424
C        16.94299538489590   -1.32511923946368   -0.02277229952637
C        16.36814620430048   -2.54788831153013    0.10013194603453
C        17.39292292404972   -3.53584191198436    0.01142899789857
C        18.56953787208267   -2.87016874486113   -0.17429381811556
N        18.29283121197221   -1.50668501016127   -0.18920034976396
C        19.88872396348721   -3.45562600814718   -0.31600468281744
C        21.05815907952686   -2.83341816950218   -0.14806490172018
C        22.31512324585931   -3.27000925341320    0.48201707640203
C        23.13979164239577   -2.24737059862977    0.35119403025811
C        22.48263798130999   -1.13455961952759   -0.35185040614673
N        21.26788347929627   -1.52293445020032   -0.60537835272284
C        22.99390239466043    0.16633833993833   -0.74301080087991
C        22.32470731320617    1.31693038219811   -0.64967959940270
C        22.73118685708328    2.58914266871954   -1.26564690159166
C        21.80899289698901    3.47132937236384   -0.92225179659880
C        20.80830170374284    2.79802019202885   -0.08712845600891
N        21.13713563703988    1.53931401567680    0.04447546085565
C        19.62536093916956    3.36587502414396    0.52409620044929
C        18.44107651711444    2.74444253334774    0.58877085140429
N        18.20554745924723    1.45561986585805    0.10440382699960
H        16.99131660047523    4.20783535240662    1.59406480634591
H        15.21411611426739    2.41999970509275    1.31178945290350
H        15.29225575280408   -2.70160445267488    0.24729800533506
H        17.23543941935387   -4.59571925643160    0.08046860907127
H        19.95938295761638   -4.51811800598535   -0.59195351728995
H        22.47566323735045   -4.22610949219248    0.95116862438518
H        24.14972408279180   -2.25713598837573    0.72020571813658
H        24.01719873860713    0.14899798386086   -1.13936406002197
H        23.59819604492892    2.79383718622795   -1.88772004735302
H        21.85181827550979    4.50922966478206   -1.24431434021196
H        19.70245036097511    4.35405418701731    0.95353351101200
74
 energy: -132.169079640560 gnorm: 0.310223221029 xtb: 6.4.1 (bd6e46d)
Cu        9.62206742091044    0.02743156687157    0.00000267849595
C        11.93788803219942   -3.15182406732765    1.30275382974962
C        12.85986602451883   -2.17617851163054    1.26078749576031
C        12.30893950917600   -1.17766276468391    0.36471127062375
C        12.79611423926188    0.02941247360602   -0.00135796921887
C        12.24121825467241    1.25026385969988   -0.36348007994097
C        12.69105465365939    2.22430024945353   -1.23364034066327
C        11.69681351930948    3.21270094648109   -1.24294840779346
C        10.69903350387824    2.80842950327633   -0.37540390135562
N        11.04294885504275    1.57521548836626    0.16836951256195
C         9.48692273987040    3.46825116638911   -0.00558451455247
C         8.35127470420048    2.80345938309408    0.35151625476036
C         7.29644377961130    3.15658985557653    1.28970946565410
C         6.41709719432616    2.13955784065700    1.24215300114429
C         6.88541299777057    1.14871037523653    0.28510816309504
N         8.05460301839281    1.55366438665115   -0.19098295074266
C         6.26751532913742   -0.07224241288131   -0.14312875318236
C         6.95310486040431   -1.21475589807968   -0.41787023425304
C         6.56022096111261   -2.27121634308550   -1.34186870486266
C         7.53336349938071   -3.19593093414274   -1.27363561207193
C         8.51823045480227   -2.74268556409576   -0.30941177549570
N         8.17559227112011   -1.54504355701708    0.15843252352412
C         9.70401785216305   -3.40712286756698    0.14493694861098
C        10.85316485952426   -2.74496516819652    0.42908671809134
N        11.12974442201335   -1.51076082786907   -0.12500171577766
H        11.99392378423210   -4.03110750374990    1.92432434123846
H        13.77542352839860   -2.19462547573366    1.83488166658365
H        13.61055177537179    2.20215868433829   -1.80765094032650
H        11.68586813518739    4.10139415626145   -1.84397274631205
H         9.43443724830689    4.55568272474934    0.00134446418637
H         7.25033494709202    4.02255183868107    1.93030121425070
H         5.53524748837278    2.10089421718626    1.85482372173344
H         5.18723339291087   -0.09029370459383   -0.26005694892076
H         5.70701333863416   -2.31112583192614   -2.00080765392466
H         7.53552059040599   -4.09024814630848   -1.86932771551145
H         9.69041030958901   -4.48307866501617    0.26690720550826
C        14.05008230808266    0.01583523245027   -0.00619734629125
C        15.26837929671628   -0.01741033595614   -0.00628182158983
Cu       19.71716041788078   -0.00792084071122   -0.16913553555837
C        17.19193374294177    3.25125829589794    1.13118454465141
C        16.26223828000650    2.29596773854343    0.97331376843561
C        16.98783964371092    1.19187947765216    0.33738277108262
C        16.52128868074891   -0.03398260575321    0.00576590506518
C        17.01791028973412   -1.34042874867840   -0.02641996160190
C        16.37473915271632   -2.56717916546290    0.09552705734187
C        17.37505960046898   -3.53791187117368    0.00580799539950
C        18.58215376512287   -2.86807170245271   -0.19015694119093
N        18.34281900493970   -1.51350421901475   -0.18331275586097
C        19.87227128270426   -3.45990443980082   -0.31594833267348
C        21.06472165039964   -2.81625110428774   -0.15471207200052
C        22.30638754402609   -3.26997634832733    0.45763765230593
C        23.15842762723713   -2.23676938389393    0.34203931649338
C        22.48750579445340   -1.13669752859568   -0.34083385830491
N        21.23873365767098   -1.50251635444558   -0.57200169864004
C        23.00307664758357    0.14590097195010   -0.73952202819499
C        22.32338461538074    1.31606277200161   -0.65820499844198
C        22.73564334020482    2.58293713764860   -1.25691346764492
C        21.80327108336658    3.48389496048707   -0.91201423545732
C        20.80885155392689    2.80434040899023   -0.08759417815050
N        21.12803211193148    1.52161966408571    0.02165093253100
C        19.64403454433040    3.37722463841710    0.52255123941881
C        18.44900695089878    2.74760437391668    0.59898999456885
N        18.24729113920005    1.47694829375544    0.11651827151874
H        17.00294067767906    4.20822896551819    1.59173575979755
H        15.22758924667991    2.40057409387079    1.29827649974640
H        15.30702493620911   -2.70481367251803    0.24529710684604
H        17.22977899454980   -4.59710564108245    0.08003417211786
H        19.94358676899934   -4.52101453019494   -0.56370629748708
H        22.46703980150214   -4.21959678486869    0.94372229487721
H        24.15967558524569   -2.24647097622824    0.72102254179763
H        24.01592781914177    0.14784828706644   -1.13572547124706
H        23.59439787582445    2.78108164365074   -1.88139394795567
H        21.83818847290591    4.51152959798836   -1.23480664184586
H        19.70881359991821    4.36698722688464    0.94240725547538
74
 energy: -132.246292662801 gnorm: 0.176179653807 xtb: 6.4.1 (bd6e46d)
Cu        9.61190547913658    0.02803069928442    0.00604879532644
C        11.92908221200989   -3.17797426609706    1.28540938379289
C        12.84461419556158   -2.17883241956596    1.25493006252498
C        12.26421102671665   -1.18717343908900    0.38092077058914
C        12.76366879196955    0.04722328089096   -0.00252380577204
C        12.18275462161127    1.26474243754445   -0.36857224009912
C        12.67731014939697    2.25368081147659   -1.23865835212121
C        11.71410138654950    3.23555181006841   -1.23886168867772
C        10.67413756601758    2.81385122519482   -0.38409474486937
N        10.96793143074764    1.56434712599098    0.11800724133851
C         9.49484491114218    3.46993034578051   -0.00674571284897
C         8.35508043919796    2.77963843154728    0.36413010526838
C         7.29353612918686    3.15483835590380    1.26431740809825
C         6.39228428939485    2.13870506294215    1.23068413985456
C         6.88928750808829    1.14198639169463    0.31165975899123
N         8.10212216221690    1.51635584701153   -0.13649881335363
C         6.26754989623427   -0.05383815680665   -0.13539375109170
C         6.96366502154056   -1.20467731903163   -0.43560432857635
C         6.55438904053894   -2.27368166738846   -1.31989415901407
C         7.53013700359865   -3.21413923602172   -1.26325763572596
C         8.52237810016712   -2.74701916220349   -0.32945862764863
N         8.20175117948992   -1.51132180185234    0.10097062177069
C         9.67055292934781   -3.43200095173867    0.14413029808329
C        10.82387535892619   -2.76753846104349    0.44844585865713
N        11.06623912368565   -1.51873641058912   -0.05315442628344
H        11.98100478441830   -4.04745162649045    1.90707467113194
H        13.76470836309595   -2.16890843729798    1.81713616193659
H        13.59704199743438    2.21116103356379   -1.79716912749883
H        11.69644786174323    4.11750373184157   -1.84164988749167
H         9.44928443625592    4.55350474926151    0.00400424353254
H         7.25911483828263    4.01907180182714    1.90621330838640
H         5.51783860474314    2.08619658871728    1.84517188040701
H         5.19172665502436   -0.07529556193993   -0.26064243568388
H         5.70429836560461   -2.29647174382885   -1.97823177042016
H         7.54924732023701   -4.10480897009858   -1.85761725160082
H         9.66294434614464   -4.50092679023928    0.26653016661740
C        14.04655957995569    0.02535668986262   -0.01053263519528
C        15.26216280813183   -0.02995950717789   -0.00445298921550
Cu       19.71648588515145   -0.00538373230644   -0.17596317590974
C        17.21398481759041    3.26677867709476    1.12986461415807
C        16.28730698688653    2.29645316999845    0.96242023071174
C        17.02536792575640    1.20855726352096    0.33719998869775
C        16.55221164326989   -0.05595984172933    0.02094111439151
C        17.07854520356024   -1.35271692301950   -0.03065633371191
C        16.39286500865849   -2.58551797347213    0.08352799631799
C        17.36622524360313   -3.54396900872437   -0.01038274636492
C        18.60363458720259   -2.87696865669956   -0.20596310084667
N        18.39499468061097   -1.52799611495273   -0.17150557083380
C        19.86174150060018   -3.46639717594323   -0.31047336159135
C        21.06507348050319   -2.79381266055594   -0.15711269190001
C        22.29741732445774   -3.26173447974762    0.42264769835588
C        23.17532470496023   -2.22764056314151    0.31870962079916
C        22.48833902660043   -1.13254869304408   -0.32192482521931
N        21.20564672355870   -1.47402861515241   -0.52119238761046
C        23.00789744969372    0.12721824183436   -0.73166477360270
C        22.31587411691267    1.31046762351505   -0.67511851670002
C        22.73686601547340    2.57436525638340   -1.24455035714428
C        21.80463482989236    3.49198612885245   -0.89278797352169
C        20.81332730049337    2.80884464591787   -0.09095688518323
N        21.11234759980574    1.50160168604542   -0.01644168147994
C        19.67439823984742    3.39772590207445    0.52222812459261
C        18.47346095747558    2.76240003315266    0.61620219146143
N        18.28900808391312    1.49860834771670    0.14040853102536
H        17.02805628471204    4.21679284235719    1.58755579786551
H        15.25391899064549    2.37108533296211    1.27349507138260
H        15.33364854294312   -2.70858005088851    0.23994924641141
H        17.22738110046513   -4.60272678110603    0.07323604485868
H        19.92659267155151   -4.53193935854233   -0.51015375095823
H        22.45393819916679   -4.20622056608078    0.92066892257393
H        24.17174845100864   -2.23031378635739    0.71244708498795
H        24.01783643585622    0.14592643204482   -1.12051904019553
H        23.59148507290133    2.76023478472734   -1.86992404227617
H        21.82034098488565    4.51613312745573   -1.21265611564191
H        19.72810901584176    4.39835299390529    0.91567755898128
74
 energy: -132.294858341688 gnorm: 0.083653254998 xtb: 6.4.1 (bd6e46d)
Cu        9.58401607274776    0.02516007506903    0.01037458532313
C        11.91331221431205   -3.19697593794593    1.27354182006796
C        12.81585796025869   -2.17652352860226    1.24405120004927
C        12.20794942157995   -1.17369154125051    0.41045394444702
C        12.73362952728631    0.06153027881742   -0.00380692708726
C        12.11568932880914    1.25645414794200   -0.38506682291569
C        12.65489806447206    2.27061469455806   -1.23498765381264
C        11.72155847182258    3.26224149220749   -1.23091416543373
C        10.63682988365252    2.82262115922282   -0.40327963666767
N        10.88925472121769    1.55209858612805    0.05081228879686
C         9.48913120824839    3.47759447912756   -0.00886749712722
C         8.36355072640470    2.75223852436789    0.39168420789560
C         7.29037921230773    3.14873955241011    1.24753077396981
C         6.37136964167923    2.13987646032183    1.21511315128558
C         6.89464304893911    1.12806912415151    0.34194081922557
N         8.14198184909134    1.48332062450589   -0.07560316469858
C         6.27552544278013   -0.04196926179142   -0.12804426152605
C         6.98364537462298   -1.18968394594278   -0.46702216924252
C         6.55102824445239   -2.27209310991690   -1.30774396940107
C         7.51695872036606   -3.23001981538654   -1.24879607130764
C         8.52316989254350   -2.75043038530080   -0.35137129237356
N         8.22613229378421   -1.48107088511168    0.04129288227253
C         9.63559787382991   -3.45399436935613    0.14454412553714
C        10.78248638155204   -2.78112246792779    0.48437400675990
N        10.98796505553938   -1.51301272624176    0.02241834562876
H        11.97346322802733   -4.07469708752639    1.88170988872795
H        13.74882834509340   -2.13991274066542    1.78174853713866
H        13.58427960505128    2.21412283713594   -1.77203121302645
H        11.70656250936579    4.14876739810914   -1.82818299970363
H         9.44735318001338    4.55713640074357   -0.00198843445417
H         7.26011682485289    4.02225389582892    1.87387185730093
H         5.49158636176026    2.07466620139237    1.82087407976991
H         5.20009489302197   -0.06671594193218   -0.24686082795181
H         5.69213657169593   -2.28301883152161   -1.95135748190985
H         7.55310015964813   -4.12704816207944   -1.83312016349340
H         9.63129152517922   -4.52354923949854    0.25211505244930
C        14.04678899712451    0.03251026265867   -0.01415608298515
C        15.25071315854283   -0.04289546911776    0.00221661800730
Cu       19.73336704178867   -0.00701891757229   -0.17296854092392
C        17.24499732425970    3.27493588897008    1.12833145837833
C        16.32829391008930    2.28841812664424    0.94868558353231
C        17.06635998500678    1.20600861515876    0.34247569791737
C        16.57374507293571   -0.07632005732508    0.04522062609765
C        17.14042772003897   -1.34989881927014   -0.02818319963959
C        16.42061138797630   -2.58893602703476    0.06673426630360
C        17.36752741057572   -3.55255936327484   -0.03173772738438
C        18.63282336799368   -2.89227087635329   -0.21300071534173
N        18.44845190740865   -1.54212881501174   -0.16002234250616
C        19.86568293251143   -3.48138173258874   -0.29497761430290
C        21.06448093188962   -2.77019885147797   -0.14779373916177
C        22.29188243636312   -3.25004040475521    0.39401974718211
C        23.18770156870078   -2.22076548717776    0.29105440430293
C        22.48862796044185   -1.12167495685340   -0.30140156242771
N        21.18246171652664   -1.45195281529452   -0.47779908407171
C        23.00715048532742    0.11616153839254   -0.72049118703807
C        22.29976552742772    1.30580390277438   -0.70078803293524
C        22.73641778208593    2.56539948433316   -1.23883618565650
C        21.81592585811270    3.49690836900986   -0.87011106556619
C        20.81940854586945    2.81447012248513   -0.09767035895973
N        21.09549189929640    1.48644713293062   -0.05759378505310
C        19.70758436411553    3.42115166213982    0.51752700483545
C        18.50666827467035    2.77491910534357    0.63713335594047
N        18.34234856206036    1.50532964178069    0.17025383514906
H        17.05848411786635    4.22707704409072    1.58163309980356
H        15.28967614530312    2.33283332417263    1.23607428690195
H        15.36381963309579   -2.69724236207667    0.22918031693131
H        17.23217727877659   -4.61236423517784    0.05637740252769
H        19.92614956136254   -4.55036824356966   -0.44930923751668
H        22.44723741170289   -4.19647973242994    0.88452419537955
H        24.18401107588664   -2.21417133951698    0.68767852239194
H        24.02416192377998    0.14843423862458   -1.08779730745416
H        23.59507097694597    2.73740859137417   -1.85925789425768
H        21.81048524789875    4.52435369893356   -1.17769494769488
H        19.75347166223309    4.43811980201814    0.87306637478171
74
 energy: -132.322509601248 gnorm: 0.055532297978 xtb: 6.4.1 (bd6e46d)
Cu        9.55232947064744    0.01544042924556    0.01667897001449
C        11.89114864301398   -3.20447726101281    1.27020130839988
C        12.78043976452152   -2.17044806501530    1.23649361399771
C        12.15349352949030   -1.14816669239599    0.44713054271844
C        12.70920462688690    0.06930936406265   -0.00404345661127
C        12.06309465453200    1.23876407196534   -0.41311551386362
C        12.63240880074482    2.27918531017511   -1.23013308277826
C        11.71690157502774    3.28267685869555   -1.22615304235750
C        10.59934677049996    2.82685460261801   -0.43293258295485
N        10.82631233767592    1.53743113924141   -0.02063494202419
C         9.47072558557727    3.48704845785417   -0.00889812336117
C         8.36634413547739    2.73449129339008    0.42257325183895
C         7.27566292953188    3.14678941717948    1.24020198275208
C         6.35251417316337    2.14160286168627    1.20504011603609
C         6.89846385594396    1.10964972658252    0.37385331919126
N         8.16322145979474    1.45956678485680   -0.01702722128828
C         6.28313903027030   -0.04001619185204   -0.12222674637306
C         6.99677529285754   -1.17861865545963   -0.49979532796363
C         6.54019134974997   -2.27193553011506   -1.30669074506330
C         7.49299926071612   -3.24321423937568   -1.23946734305962
C         8.51786070074833   -2.75501400349114   -0.37495953195349
N         8.23914169905795   -1.46612945686545   -0.01112207359853
C         9.60510791784524   -3.46789344194214    0.14389295842842
C        10.73749261752596   -2.78247543885945    0.52676634947658
N        10.91774175868799   -1.49550244704783    0.09629823108693
H        11.97268999832574   -4.10830083714514    1.84217626335463
H        13.73198418722354   -2.11761341603669    1.73864965037843
H        13.57663992565266    2.22226025019551   -1.73994258244174
H        11.72156095406593    4.18954040800723   -1.79687310647957
H         9.43010508998911    4.56446165958699   -0.00758012141549
H         7.24199991648161    4.03899235181626    1.83690039240472
H         5.45267005893720    2.07318263961591    1.78304390291054
H         5.20659864163394   -0.06364797385720   -0.22444386258930
H         5.66323710183828   -2.27672480820230   -1.92401642360059
H         7.53416285771365   -4.15874214383274   -1.79638948894829
H         9.59697453711460   -4.54227758222514    0.22548069146101
C        14.04471110856031    0.03647215324504   -0.01452753900559
C        15.24169443370773   -0.05222214202401    0.01385757044846
Cu       19.75482745801297   -0.00655976540093   -0.15951910147376
C        17.27929524587273    3.27521082795918    1.12721627619468
C        16.37217071330371    2.27915015313760    0.93851569459924
C        17.10524894071819    1.19107831100451    0.35755589248113
C        16.58603033476678   -0.08913985767483    0.07306222808161
C        17.18322750960200   -1.34230616660255   -0.02272954308894
C        16.44870665975404   -2.58494839429632    0.04840737108478
C        17.37895440925887   -3.55952975400350   -0.05332615801327
C        18.65799472680966   -2.90482603788784   -0.21331790895596
N        18.48822068123568   -1.55016435950428   -0.14853860200904
C        19.88484900161556   -3.50035343879900   -0.27186277936244
C        21.06949525648715   -2.75649153685944   -0.13224053102134
C        22.30418794054802   -3.24386318081903    0.37181916667571
C        23.20192461408877   -2.21707760000584    0.26711801800038
C        22.48982467678923   -1.10705216393662   -0.28230440143203
N        21.17227080999507   -1.43662458014833   -0.43863478308798
C        23.00627676405187    0.11617382184786   -0.71103194029347
C        22.28768398040724    1.30466259026322   -0.72633753415326
C        22.74389551143677    2.56171379501026   -1.24032101329472
C        21.83855345332523    3.50160978081961   -0.85435527710794
C        20.82816160410530    2.82090061165581   -0.11007819085839
N        21.08454059237355    1.48180376951023   -0.09543528420935
C        19.73594676019629    3.43966275925559    0.50686290884293
C        18.54170997230210    2.77757292115550    0.65786212643897
N        18.39046888146334    1.49580207092681    0.20621106837203
H        17.09354982903007    4.23509223507398    1.56921641598652
H        15.32624947484288    2.30102722989542    1.19570233079476
H        15.39172165501333   -2.68191470242980    0.21079539613942
H        17.24268644546353   -4.62052004384406    0.02625074003169
H        19.94448016589302   -4.57612533039874   -0.37559913772799
H        22.45972167395115   -4.20003255406502    0.83647157537805
H        24.20502874921611   -2.20207901445429    0.64584262046610
H        24.03678938126771    0.15442211074046   -1.04166922039142