74
 energy: -132.422484184241 gnorm: 0.000482423134 xtb: 6.4.1 (bd6e46d)
Cu        9.20051701627502   -0.06382693219190    0.06263766972972
C        11.73269376373140   -3.37554561115852    0.92607844170413
C        12.68393727384664   -2.44494563183183    0.67623356671430
C        11.99441843688107   -1.23268139049423    0.33735412784331
C        12.63856254183475   -0.03365346754293    0.00365665647349
C        11.96140666020923    1.14955668339277   -0.32111468869537
C        12.61716124438789    2.36758542868002   -0.70334386291813
C        11.64113174295448    3.27647792261691   -0.93733170827529
C        10.39132984305746    2.61173933195228   -0.69987614551028
N        10.61944391118778    1.32186818882788   -0.33265098331264
C         9.15468560778084    3.21912693442711   -0.82750207305170
C         7.93549192285687    2.60069150391282   -0.61515123363891
C         6.66239600914519    3.25517367513141   -0.75020286046464
C         5.71686903274404    2.32877546828755   -0.47214919286529
C         6.41106176624098    1.10662456695631   -0.16828365546301
N         7.75023325612130    1.30396018505357   -0.26061552605319
C         5.78590652610455   -0.08379473432212    0.15991162234788
C         6.44291463745678   -1.26754105601889    0.44704832848909
C         5.78148050507239   -2.49858215971486    0.78527358535714
C         6.75182577204451   -3.41659281565435    0.99765783458493
C         8.00730446074702   -2.74744053540126    0.79007869272674
N         7.78736414174875   -1.45059617373684    0.45668020689174
C         9.24322484084245   -3.35404993886208    0.92635501634067
C        10.46406846313854   -2.72825005195858    0.74723638745837
N        10.65695004898014   -1.42938644144619    0.39175404769912
H        11.85889786707719   -4.40271042493667    1.20908492801752
H        13.75069832244389   -2.54535731425949    0.72399700798150
H        13.67984189302783    2.48518172270832   -0.78988050767860
H        11.73904241516957    4.29981347409075   -1.24420116584527
H         9.14122310632548    4.26006619951692   -1.11703275845457
H         6.53352085511061    4.28544107515450   -1.02124561523766
H         4.64950330453298    2.43896233317739   -0.46871112306501
H         4.70609323018523   -0.08993450656418    0.19233633461944
H         4.71714858672220   -2.62003162375759    0.84710334443472
H         6.65081638610464   -4.44944080576360    1.27034695748662
H         9.25732253343597   -4.39841021162885    1.20316155381436
C        14.04148889557400   -0.01690313397837   -0.00751053318301
C        15.25391007580892   -0.00089796010527   -0.01149116496720
Cu       20.09504871283366    0.06303785778381   -0.06368609848167
C        17.57591591811285    3.34268158402693    0.94576150265725
C        16.62114750461720    2.41434976287097    0.70018680226184
C        17.30542005025419    1.21273135576632    0.31573603634411
C        16.65684300023018    0.01667210550326   -0.02034729022357
C        17.32966160131935   -1.16401067426415   -0.36278834946638
C        16.66889150341245   -2.38686713231452   -0.71990521641299
C        17.64167807811738   -3.29391647320353   -0.97344417541437
C        18.89474758259702   -2.62158267239502   -0.77825354265609
N        18.67157880890230   -1.33105051540233   -0.41066337808870
C        20.12974645630656   -3.22027480787398   -0.95355135434393
C        21.35163101265170   -2.58913416365291   -0.80350467309287
C        22.62266839755490   -3.22984613941390   -1.00705846630049
C        23.57160562877799   -2.29262515325864   -0.78226521849996
C        22.88148958504072   -1.07828516830331   -0.44009745369629
N        21.54155078689928   -1.29027784491239   -0.46008548245988
C        23.51028740751254    0.11771047648489   -0.14067943609643
C        22.85678205884108    1.29111940444471    0.19373655722027
C        23.52232219617307    2.52487493138309    0.51387233917311
C        22.55527419329389    3.42749468358419    0.79584334288753
C        21.29750832400576    2.74706560853496    0.64615624488741
N        21.51301069585385    1.45830358810441    0.27972501861335
C        20.06406839129415    3.33790390616297    0.85507250424752
C        18.84126373764856    2.70612655438051    0.71321936772374
N        18.64321633423779    1.41396751498993    0.33670133954667
H        17.45413028299143    4.36234787750153    1.25655311759190
H        15.55561891984848    2.50885121171671    0.77961740750914
H        15.60488800485314   -2.50947346908580   -0.77689541104848
H        17.53957264630271   -4.32005343451692   -1.26941152824426
H        20.13916685504875   -4.26230831112639   -1.23927408794329
H        22.74760445684253   -4.25856406174227   -1.28535752667253
H        24.63868603344757   -2.39091828270839   -0.83755055071038
H        24.59013119059206    0.13605940824419   -0.16733199106172
H        24.58702484915946    2.65825396543340    0.51768523094291
H        22.65994077892972    4.45720033296814    1.07892461173108
H        20.05381609746179    4.37628687475765    1.15388761081976
