 Entering Gaussian System
 *********************************************
 Gaussian 98:
 frequency output generated by the xtb code
 *********************************************
                         Standard orientation:
 --------------------------------------------------------------------
  Center     Atomic     Atomic              Coordinates (Angstroms)
  Number     Number      Type              X           Y           Z
 --------------------------------------------------------------------
    1         27             0        9.228865   -0.046495    0.012600
    2          6             0       11.631743   -3.372952    1.008180
    3          6             0       12.608437   -2.467536    0.775471
    4          6             0       11.953846   -1.257324    0.381633
    5          6             0       12.649455   -0.095859    0.045648
    6          6             0       11.993950    1.095126   -0.268425
    7          6             0       12.691171    2.304392   -0.585870
    8          6             0       11.746558    3.256724   -0.755791
    9          6             0       10.482086    2.616014   -0.556136
   10          7             0       10.644142    1.286344   -0.269501
   11          6             0        9.279112    3.282496   -0.645540
   12          6             0        8.056786    2.659615   -0.518777
   13          6             0        6.807335    3.348474   -0.661307
   14          6             0        5.839053    2.413820   -0.548328
   15          6             0        6.504023    1.162678   -0.326912
   16          7             0        7.860747    1.324161   -0.301496
   17          6             0        5.832199   -0.030543   -0.169518
   18          6             0        6.470354   -1.223688    0.093092
   19          6             0        5.770364   -2.457899    0.301301
   20          6             0        6.706673   -3.384762    0.598346
   21          6             0        7.972262   -2.712040    0.559863
   22          7             0        7.818532   -1.391730    0.240578
   23          6             0        9.168883   -3.339816    0.828741
   24          6             0       10.390739   -2.707167    0.751189
   25          7             0       10.598496   -1.403985    0.383151
   26          1             0       11.720510   -4.395271    1.320563
   27          1             0       13.670832   -2.579414    0.868336
   28          1             0       13.757373    2.387041   -0.666609
   29          1             0       11.871497    4.294131   -0.998180
   30          1             0        9.296241    4.343052   -0.845790
   31          1             0        6.712059    4.403383   -0.831882
   32          1             0        4.774340    2.533566   -0.603268
   33          1             0        4.755026   -0.027176   -0.236934
   34          1             0        4.705790   -2.570894    0.231237
   35          1             0        6.579494   -4.426085    0.823094
   36          1             0        9.150694   -4.384158    1.101113
   37          6             0       14.052604   -0.112136    0.054745
   38          6             0       15.264487   -0.113154    0.072873
   39         27             0       20.066949    0.046722   -0.018346
   40          6             0       17.553159    3.158987    1.281428
   41          6             0       16.609592    2.249725    0.945663
   42          6             0       17.309481    1.099096    0.460743
   43          6             0       16.666762   -0.086586    0.097535
   44          6             0       17.379736   -1.259733   -0.154349
   45          6             0       16.751468   -2.531956   -0.340911
   46          6             0       17.747288   -3.444781   -0.410785
   47          6             0       18.975578   -2.715994   -0.312513
   48          7             0       18.737805   -1.376666   -0.155770
   49          6             0       20.217467   -3.302031   -0.442892
   50          6             0       21.383617   -2.574867   -0.554212
   51          6             0       22.650205   -3.160770   -0.883922
   52          6             0       23.515078   -2.136602   -1.053307
   53          6             0       22.781543   -0.933866   -0.785278
   54          7             0       21.479141   -1.213104   -0.481714
   55          6             0       23.357033    0.319843   -0.770147
   56          6             0       22.690091    1.441321   -0.322883
   57          6             0       23.327862    2.709022   -0.115724
   58          6             0       22.409384    3.511135    0.466322
   59          6             0       21.204290    2.741698    0.572385
   60          7             0       21.386949    1.477592    0.086595
   61          6             0       20.013338    3.253208    1.043218
   62          6             0       18.818615    2.568872    0.965491
   63          7             0       18.657288    1.297499    0.481190
   64          1             0       17.424681    4.143256    1.687956
   65          1             0       15.543073    2.318999    1.034988
   66          1             0       15.691392   -2.682505   -0.399906
   67          1             0       17.678264   -4.507725   -0.537281
   68          1             0       20.270056   -4.376071   -0.536871
   69          1             0       22.823616   -4.214539   -0.986628
   70          1             0       24.554814   -2.167824   -1.316028
   71          1             0       24.395019    0.414294   -1.050272
   72          1             0       24.347466    2.924753   -0.370346
   73          1             0       22.509056    4.530767    0.784864
   74          1             0       20.001914    4.262219    1.426437
 --------------------------------------------------------------------
     1 basis functions        1 primitive gaussians
     1 alpha electrons        1 beta electrons

 Harmonic frequencies (cm**-1), IR intensities (km*mol⁻¹),
 Raman scattering activities (A**4/amu), Raman depolarization ratios,
 reduced masses (AMU), force constants (mDyne/A) and normal coordinates:
                      1                      2                      3
                        a                      a                      a 
 Frequencies --    -9.9183                 8.6712                10.0715
 Red. masses --    11.3127                11.2264                11.4212
 Frc consts  --     0.0000                 0.0000                 0.0000
 IR Inten    --    23.5853                39.8412                34.3365
 Raman Activ --     0.0000                 0.0000                 0.0000
 Depolar     --     0.0000                 0.0000                 0.0000
 Atom AN      X      Y      Z        X      Y      Z        X      Y      Z
   1  27     0.00   0.01   0.05     0.00  -0.00  -0.00     0.02   0.00  -0.04
   2   6     0.01   0.08   0.24    -0.01  -0.04  -0.11    -0.08  -0.05   0.03
   3   6     0.01   0.06   0.14    -0.01  -0.03  -0.06    -0.06  -0.07   0.06
   4   6     0.01   0.04   0.07    -0.00  -0.02  -0.02    -0.02  -0.05   0.05
   5   6    -0.00   0.03   0.03     0.00  -0.01   0.01     0.01  -0.06   0.07
   6   6    -0.01   0.04   0.07     0.00   0.00   0.05     0.04  -0.05   0.05
   7   6    -0.02   0.06   0.15     0.00   0.01   0.09     0.07  -0.07   0.06
   8   6    -0.03   0.07   0.25     0.01   0.02   0.14     0.09  -0.06   0.01
   9   6    -0.02   0.05   0.20     0.01   0.02   0.13     0.08  -0.03  -0.02
  10   7    -0.01   0.03   0.11     0.00   0.01   0.08     0.05  -0.03   0.01
  11   6    -0.03   0.04   0.21     0.01   0.04   0.19     0.09  -0.01  -0.06
  12   6    -0.02  -0.00   0.06     0.01   0.03   0.17     0.08   0.02  -0.08
  13   6    -0.03  -0.04  -0.05     0.01   0.05   0.23     0.09   0.04  -0.11
  14   6    -0.01  -0.09  -0.26     0.01   0.04   0.17     0.07   0.07  -0.10
  15   6     0.00  -0.08  -0.25     0.00   0.02   0.07     0.04   0.06  -0.07
  16   7    -0.01  -0.03  -0.07     0.01   0.02   0.09     0.05   0.03  -0.06
  17   6     0.03  -0.10  -0.37     0.00   0.01  -0.03     0.01   0.08  -0.06
  18   6     0.03  -0.07  -0.24     0.00  -0.01  -0.11    -0.02   0.06  -0.04
  19   6     0.05  -0.08  -0.24     0.00  -0.02  -0.21    -0.05   0.08  -0.04
  20   6     0.04  -0.02  -0.03    -0.00  -0.04  -0.25    -0.07   0.06  -0.04
  21   6     0.02   0.01   0.07    -0.00  -0.03  -0.18    -0.06   0.03  -0.03
  22   7     0.02  -0.02  -0.06    -0.00  -0.02  -0.11    -0.03   0.04  -0.03
  23   6     0.01   0.06   0.22    -0.01  -0.04  -0.18    -0.07   0.00  -0.02
  24   6     0.01   0.06   0.20    -0.01  -0.03  -0.11    -0.06  -0.02   0.00
  25   7     0.01   0.04   0.11    -0.00  -0.02  -0.06    -0.03  -0.03   0.02
  26   1     0.01   0.03   0.09    -0.00  -0.02  -0.04    -0.03  -0.02   0.01
  27   1     0.00   0.02   0.04    -0.00  -0.01  -0.01    -0.02  -0.03   0.02
  28   1    -0.01   0.02   0.04     0.00   0.00   0.02     0.02  -0.03   0.03
  29   1    -0.01   0.03   0.09     0.00   0.01   0.05     0.03  -0.02  -0.00
  30   1    -0.01   0.02   0.09     0.00   0.01   0.07     0.03  -0.00  -0.02
  31   1    -0.01  -0.01   0.00     0.00   0.02   0.09     0.03   0.01  -0.04
  32   1    -0.00  -0.04  -0.12     0.00   0.01   0.05     0.02   0.03  -0.03
  33   1     0.01  -0.04  -0.15     0.00   0.00  -0.01     0.00   0.03  -0.02
  34   1     0.02  -0.04  -0.11     0.00  -0.01  -0.07    -0.01   0.03  -0.01
  35   1     0.01  -0.00   0.01    -0.00  -0.02  -0.09    -0.03   0.02  -0.01
  36   1     0.00   0.02   0.09    -0.00  -0.02  -0.07    -0.03   0.00  -0.01
  37   6    -0.00   0.03   0.01     0.00  -0.01   0.02     0.01  -0.09   0.11
  38   6    -0.00   0.03  -0.01     0.00  -0.01   0.02     0.01  -0.09   0.13
  39  27    -0.00  -0.02  -0.05    -0.00   0.00  -0.00    -0.02   0.01   0.03
  40   6     0.03   0.00   0.01    -0.00   0.05  -0.12    -0.02  -0.08   0.17
  41   6     0.02   0.01   0.01    -0.00   0.02  -0.06    -0.01  -0.09   0.17
  42   6     0.01   0.01  -0.01    -0.00   0.01  -0.02    -0.01  -0.06   0.12
  43   6    -0.00   0.02  -0.01     0.00  -0.01   0.02     0.01  -0.07   0.12
  44   6    -0.01   0.01  -0.02     0.00  -0.01   0.06     0.02  -0.06   0.13
  45   6    -0.02   0.02  -0.02     0.01  -0.02   0.12     0.05  -0.09   0.19
  46   6    -0.03   0.01  -0.03     0.01  -0.02   0.17     0.07  -0.06   0.19
  47   6    -0.02   0.00  -0.03     0.01  -0.02   0.14     0.06  -0.03   0.12
  48   7    -0.01   0.00  -0.03     0.00  -0.01   0.08     0.03  -0.03   0.10
  49   6    -0.03  -0.01  -0.04     0.01  -0.02   0.19     0.07   0.01   0.06
  50   6    -0.02  -0.01  -0.04     0.01  -0.02   0.16     0.04   0.05  -0.05
  51   6    -0.03  -0.02  -0.04     0.02  -0.04   0.20     0.03   0.09  -0.15
  52   6    -0.02  -0.03  -0.04     0.01  -0.04   0.14    -0.02   0.12  -0.25
  53   6    -0.01  -0.02  -0.04     0.00  -0.03   0.05    -0.04   0.09  -0.20
  54   7    -0.01  -0.02  -0.04     0.00  -0.02   0.08    -0.01   0.05  -0.09
  55   6    -0.00  -0.03  -0.04    -0.01  -0.03  -0.04    -0.08   0.11  -0.24
  56   6     0.01  -0.02  -0.03    -0.01   0.00  -0.11    -0.08   0.08  -0.16
  57   6     0.02  -0.03  -0.03    -0.02   0.02  -0.20    -0.10   0.10  -0.17
  58   6     0.02  -0.03  -0.02    -0.02   0.05  -0.24    -0.07   0.05  -0.07
  59   6     0.02  -0.02  -0.02    -0.01   0.05  -0.18    -0.04   0.01   0.00
  60   7     0.01  -0.02  -0.03    -0.01   0.02  -0.11    -0.05   0.04  -0.06
  61   6     0.03  -0.01  -0.01    -0.01   0.06  -0.18    -0.03  -0.03   0.09
  62   6     0.02  -0.00  -0.00    -0.00   0.04  -0.12    -0.02  -0.05   0.12
  63   7     0.01   0.00  -0.01    -0.00   0.02  -0.06    -0.01  -0.04   0.10
  64   1     0.01  -0.00   0.00    -0.00   0.02  -0.05    -0.01  -0.03   0.06
  65   1     0.01   0.00   0.00    -0.00   0.01  -0.01    -0.00  -0.03   0.06
  66   1    -0.01   0.01  -0.01     0.00  -0.01   0.03     0.02  -0.03   0.07
  67   1    -0.01   0.00  -0.01     0.00  -0.01   0.06     0.03  -0.02   0.07
  68   1    -0.01  -0.00  -0.01     0.00  -0.01   0.07     0.03   0.00   0.02
  69   1    -0.01  -0.01  -0.01     0.01  -0.01   0.08     0.02   0.03  -0.04
  70   1    -0.01  -0.01  -0.01     0.00  -0.02   0.04    -0.01   0.04  -0.10
  71   1    -0.00  -0.01  -0.01    -0.00  -0.01  -0.01    -0.03   0.04  -0.10
  72   1     0.00  -0.01  -0.01    -0.01   0.00  -0.07    -0.04   0.04  -0.07
  73   1     0.01  -0.01  -0.01    -0.01   0.02  -0.09    -0.02   0.01  -0.01
  74   1     0.01  -0.00  -0.00    -0.00   0.02  -0.07    -0.01  -0.01   0.04
                      4                      5                      6
                        a                      a                      a 
 Frequencies --    16.4966                25.8664                28.9224
 Red. masses --    11.5372                10.9813                11.5615
 Frc consts  --     0.0000                 0.0000                 0.0000
 IR Inten    --    20.5582                 5.4740                40.4967
 Raman Activ --     0.0000                 0.0000                 0.0000
 Depolar     --     0.0000                 0.0000                 0.0000
 Atom AN      X      Y      Z        X      Y      Z        X      Y      Z
   1  27     0.00   0.02   0.05     0.01   0.01  -0.00    -0.02  -0.04   0.04
   2   6    -0.08  -0.05   0.04    -0.01   0.07   0.23    -0.08  -0.04   0.14
   3   6    -0.06  -0.10  -0.06    -0.01   0.06   0.18    -0.06  -0.03   0.24
   4   6    -0.03  -0.08  -0.06    -0.00   0.02   0.06    -0.03  -0.03   0.20
   5   6    -0.00  -0.11  -0.10    -0.00  -0.01  -0.07    -0.01  -0.04   0.21
   6   6     0.03  -0.08  -0.05    -0.00  -0.04  -0.15     0.02  -0.05   0.11
   7   6     0.06  -0.09  -0.02    -0.01  -0.07  -0.27     0.04  -0.08   0.05
   8   6     0.08  -0.05   0.07    -0.00  -0.05  -0.22     0.06  -0.09  -0.06
   9   6     0.07  -0.01   0.09     0.00  -0.02  -0.09     0.04  -0.06  -0.07
  10   7     0.04  -0.03   0.02     0.00  -0.02  -0.07     0.02  -0.04   0.03
  11   6     0.09   0.03   0.14     0.01   0.01   0.04     0.06  -0.04  -0.12
  12   6     0.07   0.05   0.09     0.01   0.02   0.14     0.05  -0.01  -0.06
  13   6     0.09   0.08   0.06     0.01   0.04   0.25     0.06   0.02  -0.05
  14   6     0.07   0.09  -0.04     0.00   0.04   0.21     0.04   0.05   0.03
  15   6     0.04   0.07  -0.05     0.01   0.02   0.09     0.01   0.04   0.04
  16   7     0.04   0.05   0.02     0.01   0.01   0.07     0.02   0.01  -0.01
  17   6     0.01   0.08  -0.09     0.01  -0.00  -0.03    -0.01   0.05   0.03
  18   6    -0.02   0.07  -0.03     0.02  -0.02  -0.11    -0.03   0.03  -0.04
  19   6    -0.06   0.10   0.02     0.02  -0.04  -0.21    -0.05   0.02  -0.13
  20   6    -0.09   0.10   0.12     0.02  -0.03  -0.16    -0.06  -0.01  -0.19
  21   6    -0.07   0.07   0.12     0.01  -0.01  -0.05    -0.05  -0.02  -0.12
  22   7    -0.04   0.06   0.04     0.01  -0.00  -0.05    -0.03  -0.00  -0.04
  23   6    -0.09   0.05   0.15     0.00   0.02   0.06    -0.07  -0.04  -0.08
  24   6    -0.07  -0.00   0.08    -0.00   0.04   0.13    -0.06  -0.04   0.04
  25   7    -0.04  -0.03   0.02    -0.00   0.02   0.05    -0.04  -0.03   0.10
  26   1    -0.03  -0.01   0.02    -0.00   0.03   0.09    -0.03  -0.01   0.04
  27   1    -0.02  -0.04  -0.04    -0.00   0.02   0.06    -0.02  -0.01   0.10
  28   1     0.02  -0.04  -0.02    -0.00  -0.03  -0.10     0.01  -0.03   0.03
  29   1     0.03  -0.01   0.03    -0.00  -0.02  -0.08     0.02  -0.03  -0.04
  30   1     0.03   0.01   0.06     0.00   0.00   0.02     0.02  -0.02  -0.05
  31   1     0.03   0.02   0.03     0.00   0.02   0.10     0.02   0.00  -0.02
  32   1     0.02   0.03  -0.03     0.00   0.01   0.08     0.01   0.02   0.02
  33   1     0.00   0.03  -0.04     0.00  -0.00  -0.01    -0.00   0.02   0.01
  34   1    -0.02   0.03  -0.01     0.01  -0.02  -0.08    -0.01   0.01  -0.04
  35   1    -0.04   0.03   0.05     0.01  -0.01  -0.06    -0.02  -0.01  -0.08
  36   1    -0.04   0.02   0.06    -0.00   0.01   0.03    -0.03  -0.02  -0.04
  37   6    -0.00  -0.14  -0.13    -0.00  -0.02  -0.08    -0.01  -0.05   0.25
  38   6    -0.00  -0.14  -0.12    -0.00  -0.02  -0.08    -0.01  -0.02   0.22
  39  27    -0.00  -0.00  -0.04    -0.01  -0.00   0.00     0.02   0.04  -0.05
  40   6    -0.14  -0.08  -0.09    -0.04   0.03  -0.15     0.00   0.07  -0.10
  41   6    -0.10  -0.12  -0.10    -0.03   0.04  -0.20     0.00   0.02   0.04
  42   6    -0.05  -0.09  -0.08    -0.02   0.01  -0.11    -0.00   0.01   0.08
  43   6    -0.00  -0.11  -0.10    -0.00  -0.01  -0.06    -0.01  -0.01   0.15
  44   6     0.04  -0.08  -0.10     0.01  -0.03   0.05    -0.01   0.01   0.06
  45   6     0.08  -0.10  -0.13     0.02  -0.05   0.15    -0.03   0.02   0.01
  46   6     0.11  -0.07  -0.12     0.03  -0.04   0.18    -0.03   0.03  -0.16
  47   6     0.09  -0.03  -0.08     0.02  -0.02   0.10    -0.02   0.03  -0.18
  48   7     0.05  -0.05  -0.07     0.01  -0.01   0.04    -0.01   0.02  -0.05
  49   6     0.11   0.00  -0.04     0.02  -0.00   0.04    -0.03   0.03  -0.25
  50   6     0.09   0.03   0.03     0.00   0.02  -0.06    -0.02   0.01  -0.15
  51   6     0.13   0.07   0.10    -0.01   0.03  -0.15    -0.01  -0.00  -0.10
  52   6     0.11   0.09   0.16    -0.03   0.05  -0.18     0.04  -0.02   0.07
  53   6     0.07   0.07   0.12    -0.02   0.03  -0.10     0.05  -0.02   0.11
  54   7     0.06   0.04   0.05    -0.01   0.02  -0.04     0.02   0.00  -0.02
  55   6     0.03   0.09   0.13    -0.02   0.03  -0.03     0.08  -0.03   0.20
  56   6    -0.03   0.08   0.08     0.00   0.00   0.07     0.06  -0.02   0.11
  57   6    -0.08   0.10   0.07     0.02  -0.02   0.17     0.06  -0.01   0.09
  58   6    -0.13   0.09   0.01     0.02  -0.05   0.21     0.02   0.05  -0.07
  59   6    -0.11   0.05  -0.02     0.00  -0.03   0.12     0.00   0.06  -0.11
  60   7    -0.05   0.05   0.02    -0.00  -0.01   0.06     0.03   0.03  -0.01
  61   6    -0.14   0.01  -0.06    -0.02  -0.03   0.06    -0.01   0.10  -0.19
  62   6    -0.11  -0.03  -0.07    -0.03   0.00  -0.04    -0.00   0.08  -0.13
  63   7    -0.06  -0.04  -0.07    -0.02   0.00  -0.04    -0.00   0.04  -0.02
  64   1    -0.05  -0.02  -0.03    -0.02   0.01  -0.05     0.00   0.03  -0.05
  65   1    -0.03  -0.05  -0.03    -0.01   0.02  -0.08     0.00   0.00   0.03
  66   1     0.03  -0.04  -0.05     0.01  -0.02   0.05    -0.01   0.01   0.02
  67   1     0.04  -0.02  -0.04     0.01  -0.01   0.07    -0.01   0.01  -0.07
  68   1     0.04   0.00  -0.01     0.01  -0.00   0.02    -0.02   0.01  -0.10
  69   1     0.05   0.02   0.03    -0.00   0.01  -0.05    -0.01   0.00  -0.05
  70   1     0.04   0.03   0.06    -0.01   0.02  -0.07     0.02  -0.01   0.05
  71   1     0.01   0.03   0.05    -0.01   0.01  -0.01     0.03  -0.02   0.09
  72   1    -0.02   0.04   0.03     0.01  -0.01   0.06     0.03  -0.01   0.05
  73   1    -0.05   0.03  -0.00     0.01  -0.02   0.08    -0.00   0.02  -0.04
  74   1    -0.05   0.01  -0.02    -0.01  -0.01   0.03    -0.01   0.04  -0.08
                      7                      8                      9
                        a                      a                      a 
 Frequencies --    35.6389                60.6042                67.8747
 Red. masses --    11.1729                13.2176                13.6247
 Frc consts  --     0.0000                 0.0000                 0.0000
 IR Inten    --    20.9382                 7.3149                 1.0903
 Raman Activ --     0.0000                 0.0000                 0.0000
 Depolar     --     0.0000                 0.0000                 0.0000
 Atom AN      X      Y      Z        X      Y      Z        X      Y      Z
   1  27     0.02   0.03  -0.01    -0.01   0.14   0.04    -0.02   0.00   0.15
   2   6     0.03   0.09   0.19     0.09   0.12   0.00    -0.04  -0.03   0.07
   3   6     0.02   0.09   0.16     0.06   0.17   0.07    -0.03  -0.02   0.16
   4   6     0.01   0.05   0.07     0.02   0.15   0.07    -0.02  -0.01   0.16
   5   6     0.00   0.03  -0.02     0.00   0.17   0.07    -0.01  -0.02   0.16
   6   6    -0.00   0.01  -0.10    -0.02   0.16   0.08     0.01  -0.01   0.16
   7   6    -0.01  -0.01  -0.19    -0.06   0.18   0.09     0.02  -0.02   0.16
   8   6    -0.01  -0.02  -0.21    -0.09   0.14   0.03     0.03  -0.03   0.07
   9   6    -0.01  -0.01  -0.12    -0.08   0.09  -0.01     0.02  -0.02   0.02
  10   7    -0.00   0.01  -0.08    -0.04   0.11   0.04     0.01  -0.01   0.11
  11   6    -0.01   0.00  -0.06    -0.10   0.04  -0.10     0.03  -0.03  -0.11
  12   6    -0.00   0.01   0.04    -0.08   0.01  -0.09     0.02  -0.02  -0.12
  13   6    -0.01   0.02   0.13    -0.10  -0.04  -0.11     0.03  -0.01  -0.18
  14   6    -0.01   0.01   0.15    -0.08  -0.05  -0.01     0.02   0.02  -0.06
  15   6     0.00   0.00   0.07    -0.04  -0.02   0.05    -0.00   0.03   0.05
  16   7     0.00   0.01   0.03    -0.05   0.02  -0.00     0.00   0.01   0.01
  17   6     0.02  -0.01   0.01    -0.01  -0.03   0.11    -0.02   0.05   0.12
  18   6     0.03  -0.02  -0.06     0.03  -0.02   0.06    -0.02   0.03   0.06
  19   6     0.04  -0.04  -0.13     0.07  -0.05   0.01    -0.03   0.01  -0.04
  20   6     0.05  -0.03  -0.11     0.10  -0.05  -0.09    -0.03  -0.03  -0.18
  21   6     0.04  -0.00  -0.04     0.08  -0.01  -0.08    -0.03  -0.03  -0.12
  22   7     0.03  -0.00  -0.02     0.04   0.01   0.00    -0.02   0.00   0.01
  23   6     0.03   0.02   0.05     0.10   0.02  -0.10    -0.03  -0.05  -0.12
  24   6     0.02   0.05   0.11     0.07   0.08  -0.03    -0.03  -0.03   0.02
  25   7     0.02   0.04   0.05     0.03   0.11   0.03    -0.02  -0.01   0.10
  26   1     0.01   0.03   0.07     0.03   0.03  -0.01    -0.02  -0.01   0.01
  27   1     0.01   0.03   0.06     0.02   0.06   0.03    -0.01  -0.00   0.06
  28   1    -0.00  -0.01  -0.06    -0.02   0.06   0.04     0.01  -0.01   0.06
  29   1    -0.01  -0.01  -0.08    -0.04   0.04   0.01     0.01  -0.01   0.01
  30   1    -0.00  -0.00  -0.02    -0.04   0.01  -0.04     0.01  -0.01  -0.06
  31   1    -0.01   0.01   0.05    -0.04  -0.01  -0.05     0.01  -0.01  -0.09
  32   1    -0.00   0.00   0.06    -0.02  -0.02   0.00     0.00   0.01  -0.01
  33   1     0.00  -0.00   0.00    -0.00  -0.02   0.04    -0.01   0.02   0.05
  34   1     0.01  -0.02  -0.05     0.02  -0.02   0.01    -0.01   0.01  -0.01
  35   1     0.02  -0.01  -0.04     0.04  -0.02  -0.05    -0.01  -0.01  -0.08
  36   1     0.01   0.01   0.02     0.04   0.00  -0.05    -0.01  -0.02  -0.06
  37   6     0.00   0.03  -0.03     0.00   0.13   0.04    -0.00  -0.03   0.07
  38   6     0.00   0.01  -0.03     0.00  -0.14   0.01    -0.00   0.01  -0.12
  39  27    -0.02  -0.03   0.02     0.01  -0.13  -0.02    -0.01   0.04  -0.17
  40   6     0.02  -0.12   0.28    -0.11  -0.12  -0.07     0.00  -0.02  -0.05
  41   6     0.01  -0.10   0.24    -0.07  -0.16  -0.04    -0.00   0.03  -0.18
  42   6     0.00  -0.05   0.11    -0.03  -0.15  -0.02    -0.00   0.04  -0.19
  43   6     0.00  -0.01  -0.02     0.00  -0.17   0.01     0.00   0.04  -0.21
  44   6    -0.00   0.01  -0.12     0.03  -0.16   0.03     0.01   0.04  -0.19
  45   6    -0.01   0.03  -0.24     0.08  -0.19   0.07     0.02   0.03  -0.17
  46   6    -0.01   0.02  -0.23     0.11  -0.15   0.04     0.02   0.02  -0.03
  47   6    -0.01   0.00  -0.10     0.09  -0.10  -0.01     0.02   0.02   0.02
  48   7    -0.01  -0.01  -0.06     0.04  -0.11   0.00     0.01   0.04  -0.10
  49   6    -0.00  -0.01   0.00     0.11  -0.05  -0.06     0.03   0.01   0.19
  50   6     0.01  -0.01   0.10     0.08  -0.01  -0.06     0.03   0.01   0.17
  51   6     0.03  -0.02   0.19     0.10   0.03  -0.06     0.04   0.01   0.22
  52   6     0.03  -0.01   0.17     0.08   0.06  -0.00     0.00   0.02   0.04
  53   6    -0.00  -0.01   0.06     0.05   0.03   0.03    -0.02   0.03  -0.09
  54   7    -0.01  -0.01   0.04     0.05  -0.01  -0.01    -0.00   0.03  -0.01
  55   6    -0.04   0.01  -0.06     0.02   0.04   0.07    -0.05   0.04  -0.18
  56   6    -0.06   0.03  -0.13    -0.02   0.02   0.05    -0.02   0.02  -0.09
  57   6    -0.09   0.06  -0.23    -0.07   0.05   0.05    -0.00  -0.01   0.03
  58   6    -0.07   0.04  -0.17    -0.11   0.03  -0.01     0.04  -0.08   0.20
  59   6    -0.03   0.00  -0.04    -0.09  -0.00  -0.03     0.03  -0.07   0.14
  60   7    -0.04   0.00  -0.04    -0.04  -0.01   0.00    -0.00  -0.01  -0.02
  61   6    -0.00  -0.05   0.09    -0.12  -0.03  -0.07     0.03  -0.09   0.16
  62   6     0.01  -0.08   0.17    -0.09  -0.08  -0.06     0.01  -0.03   0.00
  63   7     0.00  -0.05   0.09    -0.04  -0.11  -0.03     0.00   0.01  -0.12
  64   1     0.01  -0.05   0.11    -0.04  -0.03  -0.03     0.00  -0.01  -0.00
  65   1     0.00  -0.03   0.08    -0.02  -0.06  -0.01    -0.00   0.02  -0.07
  66   1    -0.00   0.01  -0.09     0.02  -0.07   0.03     0.01   0.01  -0.07
  67   1    -0.01   0.01  -0.09     0.04  -0.04   0.02     0.01   0.00   0.01
  68   1    -0.00  -0.00   0.00     0.04  -0.01  -0.02     0.01   0.00   0.09
  69   1     0.01  -0.01   0.08     0.04   0.01  -0.03     0.02   0.00   0.11
  70   1     0.01  -0.00   0.06     0.03   0.03   0.00    -0.00   0.00   0.00
  71   1    -0.01   0.01  -0.02     0.01   0.02   0.03    -0.02   0.02  -0.07
  72   1    -0.03   0.03  -0.09    -0.02   0.02   0.02    -0.00   0.00   0.00
  73   1    -0.02   0.02  -0.06    -0.05   0.01  -0.01     0.02  -0.04   0.10
  74   1     0.00  -0.02   0.04    -0.05  -0.01  -0.03     0.01  -0.04   0.08
                     10                     11                     12
                        a                      a                      a 
 Frequencies --    83.0475               101.2543               103.6435
 Red. masses --    19.2181                28.6618                26.4237
 Frc consts  --     0.0000                 0.0000                 0.0000
 IR Inten    --     1.5901                10.4826                 3.2466
 Raman Activ --     0.0000                 0.0000                 0.0000
 Depolar     --     0.0000                 0.0000                 0.0000
 Atom AN      X      Y      Z        X      Y      Z        X      Y      Z
   1  27     0.27   0.01   0.07     0.08  -0.10  -0.42    -0.03  -0.09  -0.40
   2   6     0.12  -0.03  -0.02     0.02   0.05   0.17    -0.04   0.06   0.20
   3   6     0.10  -0.00  -0.00     0.01   0.06   0.16    -0.03   0.05   0.19
   4   6     0.06  -0.01   0.02     0.01  -0.00  -0.01    -0.01   0.00   0.01
   5   6     0.03   0.00   0.01    -0.00  -0.00  -0.02     0.01  -0.01  -0.01
   6   6     0.06   0.01   0.02     0.02   0.01  -0.02     0.01  -0.01   0.00
   7   6     0.10  -0.01   0.01     0.04   0.04   0.16     0.00   0.04   0.18
   8   6     0.12   0.02   0.01     0.04   0.05   0.17    -0.00   0.04   0.21
   9   6     0.11   0.05   0.01     0.03   0.02   0.00    -0.00  -0.01   0.03
  10   7     0.08   0.05   0.02     0.02  -0.01  -0.11     0.00  -0.04  -0.09
  11   6     0.12   0.05  -0.01     0.03   0.02   0.00    -0.01  -0.02   0.00
  12   6     0.13   0.02  -0.02     0.04  -0.00  -0.02    -0.01  -0.02  -0.04
  13   6     0.12  -0.00  -0.07     0.03   0.02   0.12    -0.01   0.01   0.08
  14   6     0.13  -0.01  -0.05     0.04   0.02   0.15    -0.02   0.03   0.13
  15   6     0.15   0.01   0.00     0.04  -0.00   0.01    -0.03   0.00   0.02
  16   7     0.16   0.03   0.01     0.05  -0.02  -0.11    -0.02  -0.03  -0.10
  17   6     0.16   0.01   0.03     0.04   0.00   0.04    -0.04   0.02   0.07
  18   6     0.15   0.00   0.03     0.03  -0.00   0.02    -0.04   0.01   0.03
  19   6     0.13   0.01   0.01     0.02   0.03   0.16    -0.05   0.03   0.15
  20   6     0.12  -0.02  -0.03     0.02   0.02   0.13    -0.04   0.02   0.08
  21   6     0.13  -0.03  -0.01     0.03  -0.02  -0.02    -0.02  -0.00  -0.06
  22   7     0.16  -0.02   0.02     0.05  -0.04  -0.11    -0.03  -0.02  -0.11
  23   6     0.12  -0.06  -0.03     0.03  -0.02  -0.00    -0.02   0.01  -0.02
  24   6     0.11  -0.05  -0.01     0.02  -0.01  -0.00    -0.02   0.02   0.01
  25   7     0.08  -0.04   0.03     0.02  -0.04  -0.11    -0.01  -0.01  -0.10
  26   1     0.04  -0.01  -0.01     0.01   0.03   0.08    -0.02   0.03   0.10
  27   1     0.03   0.01   0.00     0.00   0.03   0.08    -0.01   0.02   0.09
  28   1     0.03  -0.01  -0.00     0.01   0.02   0.08     0.00   0.02   0.08
  29   1     0.04   0.00   0.00     0.02   0.02   0.09    -0.00   0.02   0.10
  30   1     0.03   0.01  -0.01     0.01   0.01   0.03    -0.00  -0.00   0.02
  31   1     0.03  -0.00  -0.03     0.01   0.01   0.06    -0.00   0.01   0.04
  32   1     0.04  -0.01  -0.02     0.01   0.01   0.07    -0.01   0.02   0.07
  33   1     0.05   0.00   0.01     0.01   0.01   0.04    -0.01   0.01   0.05
  34   1     0.04   0.01   0.00     0.00   0.02   0.08    -0.02   0.02   0.08
  35   1     0.03  -0.01  -0.02     0.00   0.01   0.06    -0.01   0.01   0.04
  36   1     0.03  -0.02  -0.02     0.01   0.00   0.02    -0.01   0.01   0.01
  37   6     0.01  -0.00  -0.01    -0.01   0.00   0.02     0.01  -0.01   0.01
  38   6    -0.00   0.00  -0.02    -0.01  -0.00   0.02     0.02  -0.01  -0.02
  39  27    -0.25  -0.03   0.13    -0.13   0.09  -0.40     0.09  -0.09   0.38
  40   6    -0.13   0.06  -0.09    -0.02  -0.06   0.15    -0.01   0.08  -0.19
  41   6    -0.11   0.03  -0.08    -0.02  -0.06   0.15     0.00   0.06  -0.18
  42   6    -0.06   0.02  -0.01    -0.03   0.00  -0.01     0.02  -0.00  -0.01
  43   6    -0.02   0.01  -0.01    -0.02   0.00  -0.01     0.02  -0.01   0.00
  44   6    -0.06  -0.01  -0.02    -0.03  -0.00  -0.01     0.03  -0.00  -0.01
  45   6    -0.10   0.02  -0.08    -0.04  -0.02   0.15     0.03   0.02  -0.19
  46   6    -0.13  -0.01  -0.08    -0.04  -0.02   0.16     0.03   0.02  -0.20
  47   6    -0.11  -0.05  -0.01    -0.03  -0.00   0.00     0.03  -0.01  -0.01
  48   7    -0.08  -0.05   0.03    -0.04   0.01  -0.10     0.03  -0.02   0.09
  49   6    -0.12  -0.06  -0.01    -0.03   0.00   0.00     0.03  -0.01   0.02
  50   6    -0.13  -0.04   0.00    -0.04   0.01  -0.02     0.03  -0.01   0.05
  51   6    -0.13  -0.01  -0.05    -0.01  -0.01   0.12     0.01   0.01  -0.08
  52   6    -0.15   0.00  -0.05     0.00  -0.01   0.14    -0.02   0.02  -0.14
  53   6    -0.16  -0.01   0.01    -0.02  -0.00   0.01    -0.00   0.01  -0.03
  54   7    -0.15  -0.04   0.04    -0.06   0.02  -0.10     0.03  -0.02   0.11
  55   6    -0.16  -0.01   0.02    -0.01  -0.01   0.04    -0.03   0.02  -0.08
  56   6    -0.15  -0.01   0.03    -0.01   0.00   0.01    -0.01   0.01  -0.02
  57   6    -0.13  -0.01  -0.00     0.02  -0.04   0.15    -0.04   0.04  -0.13
  58   6    -0.12   0.01  -0.02     0.01  -0.04   0.12    -0.01   0.03  -0.07
  59   6    -0.12   0.03   0.01    -0.03   0.00  -0.03     0.02  -0.01   0.05
  60   7    -0.15   0.01   0.05    -0.05   0.03  -0.10     0.03  -0.03   0.10
  61   6    -0.12   0.07  -0.02    -0.03  -0.00  -0.01     0.01   0.01   0.02
  62   6    -0.11   0.06  -0.02    -0.03  -0.00  -0.01     0.01   0.01  -0.02
  63   7    -0.08   0.04   0.03    -0.03   0.03  -0.10     0.02  -0.03   0.08
  64   1    -0.05   0.02  -0.04    -0.00  -0.03   0.07    -0.01   0.04  -0.09
  65   1    -0.03   0.00  -0.03    -0.00  -0.03   0.07    -0.00   0.03  -0.08
  66   1    -0.03   0.02  -0.04    -0.01  -0.01   0.07     0.01   0.01  -0.09
  67   1    -0.04   0.00  -0.03    -0.01  -0.01   0.08     0.01   0.01  -0.09
  68   1    -0.03  -0.02  -0.01    -0.01  -0.00   0.02     0.01  -0.00  -0.01
  69   1    -0.04  -0.00  -0.03    -0.00  -0.00   0.06     0.00   0.00  -0.04
  70   1    -0.05   0.01  -0.02     0.01  -0.01   0.07    -0.01   0.01  -0.07
  71   1    -0.05  -0.00  -0.00     0.01  -0.01   0.04    -0.02   0.01  -0.05
  72   1    -0.04  -0.01  -0.01     0.02  -0.02   0.08    -0.02   0.02  -0.07
  73   1    -0.03   0.01  -0.01     0.01  -0.02   0.06    -0.01   0.01  -0.04
  74   1    -0.03   0.02  -0.02    -0.00  -0.01   0.02    -0.00   0.01  -0.01
                     13                     14                     15
                        a                      a                      a 
 Frequencies --   115.1421               119.6600               124.6265
 Red. masses --    11.4238                10.5867                10.6477
 Frc consts  --     0.0000                 0.0000                 0.0000
 IR Inten    --    64.7278               159.5659                 2.6968
 Raman Activ --     0.0000                 0.0000                 0.0000
 Depolar     --     0.0000                 0.0000                 0.0000
 Atom AN      X      Y      Z        X      Y      Z        X      Y      Z
   1  27     0.02   0.02  -0.06     0.00   0.01  -0.01     0.02  -0.00  -0.01
   2   6     0.03  -0.04  -0.18     0.00  -0.01  -0.05     0.00  -0.02  -0.02
   3   6     0.02   0.01  -0.05     0.01  -0.07  -0.22     0.01  -0.07  -0.20
   4   6     0.00   0.04   0.08     0.00  -0.03  -0.10     0.00  -0.04  -0.11
   5   6    -0.00   0.08   0.18     0.00   0.00   0.02     0.00  -0.01  -0.01
   6   6     0.00   0.05   0.07     0.01   0.03   0.12     0.01   0.02   0.10
   7   6    -0.01   0.02  -0.06     0.01   0.06   0.22     0.02   0.05   0.22
   8   6    -0.02  -0.01  -0.19     0.01   0.01   0.02     0.02   0.02   0.07
   9   6    -0.01   0.00  -0.09    -0.00  -0.02  -0.14     0.01  -0.02  -0.09
  10   7    -0.00   0.03   0.01     0.00  -0.00  -0.05     0.01  -0.01  -0.04
  11   6    -0.02   0.02   0.02    -0.01  -0.05  -0.26     0.01  -0.04  -0.22
  12   6    -0.01   0.02   0.10    -0.00  -0.02  -0.12     0.01  -0.02  -0.13
  13   6    -0.02   0.03   0.21    -0.01   0.00   0.05     0.00   0.00   0.01
  14   6    -0.01  -0.01   0.04    -0.02   0.03   0.23    -0.00   0.03   0.20
  15   6     0.01  -0.03  -0.11    -0.01   0.01   0.11     0.00   0.02   0.11
  16   7     0.01  -0.01  -0.05    -0.00  -0.01  -0.04     0.01  -0.01  -0.04
  17   6     0.02  -0.05  -0.22     0.00  -0.01  -0.01     0.01   0.00   0.02
  18   6     0.02  -0.03  -0.10     0.01  -0.03  -0.12     0.02  -0.02  -0.09
  19   6     0.01   0.01   0.05     0.03  -0.05  -0.22     0.03  -0.04  -0.19
  20   6     0.00   0.05   0.21     0.01  -0.00  -0.02     0.01  -0.01  -0.04
  21   6     0.01   0.03   0.10    -0.00   0.04   0.13    -0.00   0.02   0.10
  22   7     0.02  -0.01  -0.05     0.00   0.01   0.03     0.01   0.01   0.04
  23   6     0.02   0.01   0.00    -0.02   0.07   0.25    -0.01   0.05   0.22
  24   6     0.02  -0.02  -0.10    -0.01   0.04   0.12    -0.01   0.02   0.11
  25   7     0.01   0.02   0.01    -0.00   0.02   0.05    -0.00   0.00   0.03
  26   1     0.01  -0.02  -0.09     0.00  -0.00  -0.01     0.00  -0.00  -0.00
  27   1     0.00   0.01  -0.01     0.00  -0.03  -0.11     0.00  -0.03  -0.10
  28   1    -0.00   0.01  -0.02     0.01   0.03   0.12     0.01   0.02   0.10
  29   1    -0.01  -0.01  -0.09     0.00   0.00   0.00     0.01   0.01   0.03
  30   1    -0.01   0.01   0.01    -0.00  -0.02  -0.10     0.00  -0.02  -0.09
  31   1    -0.01   0.01   0.11    -0.00   0.00   0.02     0.00  -0.00  -0.00
  32   1    -0.00  -0.01   0.01    -0.01   0.02   0.12    -0.00   0.02   0.10
  33   1     0.01  -0.02  -0.08     0.00  -0.00  -0.00     0.00   0.00   0.01
  34   1     0.00   0.00   0.02     0.01  -0.03  -0.11     0.01  -0.02  -0.10
  35   1    -0.00   0.02   0.11     0.00   0.00  -0.00     0.00  -0.00  -0.01
  36   1     0.01   0.00   0.00    -0.01   0.03   0.10    -0.01   0.02   0.09
  37   6    -0.00   0.07   0.28     0.00  -0.00   0.02     0.00  -0.01  -0.02
  38   6    -0.00  -0.06   0.28     0.00  -0.03   0.02     0.00   0.03  -0.01
  39  27    -0.05  -0.02  -0.06    -0.01   0.03   0.01    -0.02  -0.04  -0.00
  40   6    -0.02   0.07  -0.19    -0.02  -0.01   0.01     0.01   0.03  -0.05
  41   6    -0.02   0.02  -0.09    -0.01  -0.08   0.18     0.01   0.10  -0.22
  42   6    -0.01  -0.03   0.05    -0.01  -0.04   0.10     0.00   0.05  -0.11
  43   6    -0.00  -0.07   0.18     0.00  -0.03   0.01    -0.00   0.03  -0.01
  44   6    -0.01  -0.05   0.09     0.01   0.00  -0.09    -0.02  -0.01   0.11
  45   6     0.01  -0.04  -0.03     0.02   0.02  -0.21    -0.03  -0.02   0.23
  46   6     0.02  -0.02  -0.19     0.02   0.00  -0.06    -0.03  -0.01   0.06
  47   6     0.01  -0.02  -0.11     0.02  -0.01   0.10    -0.03   0.00  -0.11
  48   7    -0.00  -0.03   0.00     0.01  -0.00   0.05    -0.02  -0.00  -0.05
  49   6     0.03  -0.01  -0.02     0.03  -0.02   0.22    -0.04   0.01  -0.25
  50   6     0.03   0.00   0.08     0.01  -0.01   0.12    -0.02   0.00  -0.13
  51   6     0.07   0.01   0.21    -0.02   0.00  -0.01     0.02  -0.00   0.02
  52   6     0.03   0.03   0.08    -0.07   0.01  -0.19     0.06  -0.01   0.21
  53   6    -0.03   0.03  -0.09    -0.04   0.01  -0.11     0.03  -0.01   0.11
  54   7    -0.01   0.02  -0.05    -0.01  -0.00   0.04    -0.00  -0.00  -0.04
  55   6    -0.07   0.05  -0.21    -0.01  -0.01  -0.03    -0.01   0.01   0.02
  56   6    -0.05   0.02  -0.12     0.03  -0.03   0.08    -0.05   0.03  -0.09
  57   6    -0.02  -0.01   0.01     0.07  -0.07   0.18    -0.09   0.07  -0.20
  58   6     0.04  -0.08   0.19     0.04  -0.02   0.05    -0.04   0.01  -0.04
  59   6     0.01  -0.06   0.11    -0.01   0.04  -0.09     0.01  -0.05   0.12
  60   7    -0.03  -0.01  -0.04    -0.00   0.02  -0.04    -0.01  -0.02   0.05
  61   6     0.00  -0.03   0.04    -0.04   0.08  -0.20     0.04  -0.08   0.23
  62   6    -0.02   0.02  -0.08    -0.03   0.05  -0.12     0.02  -0.04   0.11
  63   7    -0.01  -0.02   0.02    -0.02   0.02  -0.04     0.01  -0.01   0.04
  64   1    -0.01   0.03  -0.09    -0.01  -0.00  -0.00     0.00   0.01  -0.02
  65   1    -0.00   0.01  -0.03    -0.00  -0.04   0.09    -0.00   0.05  -0.11
  66   1     0.00  -0.02  -0.00     0.01   0.01  -0.11    -0.01  -0.01   0.11
  67   1     0.01  -0.00  -0.09     0.01   0.00  -0.02    -0.01  -0.00   0.02
  68   1     0.01  -0.00  -0.00     0.01  -0.01   0.09    -0.01   0.01  -0.10
  69   1     0.04   0.00   0.11    -0.01  -0.00   0.00     0.01   0.00   0.00
  70   1     0.01   0.01   0.03    -0.03   0.00  -0.10     0.03  -0.00   0.11
  71   1    -0.03   0.02  -0.08    -0.00  -0.01  -0.01    -0.00   0.01   0.01
  72   1    -0.01  -0.00  -0.00     0.03  -0.03   0.09    -0.04   0.04  -0.10
  73   1     0.02  -0.04   0.10     0.01  -0.01   0.02    -0.01   0.00  -0.01
  74   1     0.00  -0.01   0.02    -0.02   0.03  -0.08     0.02  -0.03   0.09
                     16                     17                     18
                        a                      a                      a 
 Frequencies --   138.4615               189.8376               190.1279
 Red. masses --    11.2637                12.4176                12.5787
 Frc consts  --     0.0000                 0.0000                 0.0000
 IR Inten    --    82.7799               111.4102                65.4644
 Raman Activ --     0.0000                 0.0000                 0.0000
 Depolar     --     0.0000                 0.0000                 0.0000
 Atom AN      X      Y      Z        X      Y      Z        X      Y      Z
   1  27    -0.02   0.02   0.04    -0.01  -0.01  -0.03    -0.02   0.01   0.07
   2   6    -0.00   0.06   0.15     0.09  -0.07   0.02    -0.12   0.14  -0.04
   3   6     0.00   0.01  -0.06     0.14  -0.11   0.04    -0.07   0.09  -0.03
   4   6    -0.00  -0.03  -0.18     0.19  -0.08   0.04     0.00   0.12  -0.03
   5   6     0.00  -0.06  -0.26     0.13  -0.06   0.03     0.13   0.05  -0.01
   6   6    -0.00  -0.04  -0.19    -0.01  -0.13   0.04     0.19   0.08  -0.00
   7   6    -0.00  -0.01  -0.06    -0.08  -0.10   0.02     0.14   0.11  -0.02
   8   6     0.00   0.04   0.15    -0.13  -0.15   0.03     0.09   0.06  -0.03
   9   6     0.00   0.02   0.10    -0.10  -0.19   0.04     0.12  -0.00  -0.01
  10   7     0.00  -0.02  -0.08    -0.03  -0.20   0.05     0.20   0.02   0.01
  11   6    -0.00   0.01   0.07    -0.07  -0.13   0.03     0.06  -0.13   0.02
  12   6    -0.01  -0.01  -0.04    -0.13   0.01  -0.00     0.08  -0.19   0.04
  13   6    -0.00  -0.03  -0.20    -0.10   0.08  -0.01     0.11  -0.14   0.04
  14   6    -0.01  -0.01  -0.08    -0.15   0.12  -0.02     0.07  -0.09   0.01
  15   6    -0.01   0.02   0.10    -0.20   0.09  -0.03    -0.00  -0.12   0.01
  16   7    -0.01   0.02   0.08    -0.21   0.03  -0.02     0.02  -0.20   0.04
  17   6    -0.02   0.03   0.20    -0.13   0.06  -0.02    -0.13  -0.06  -0.01
  18   6    -0.01   0.02   0.11     0.00   0.13  -0.03    -0.20  -0.08   0.01
  19   6     0.01  -0.02  -0.06     0.07   0.10  -0.01    -0.15  -0.11   0.02
  20   6     0.03  -0.05  -0.19     0.12   0.14  -0.02    -0.10  -0.07   0.01
  21   6     0.01  -0.01  -0.05     0.09   0.19  -0.04    -0.13  -0.00  -0.01
  22   7    -0.00   0.02   0.08     0.03   0.20  -0.05    -0.21  -0.02  -0.01
  23   6     0.01   0.02   0.06     0.06   0.12  -0.03    -0.06   0.13  -0.05
  24   6    -0.00   0.04   0.09     0.13  -0.01   0.01    -0.09   0.19  -0.05
  25   7    -0.00  -0.01  -0.08     0.20  -0.03   0.02    -0.02   0.20  -0.04
  26   1    -0.00   0.03   0.09     0.01  -0.02   0.00    -0.05   0.04  -0.01
  27   1     0.00   0.00  -0.03     0.04  -0.04   0.02    -0.02   0.01  -0.01
  28   1    -0.00  -0.00  -0.03    -0.02  -0.01   0.00     0.04   0.04  -0.01
  29   1     0.00   0.02   0.09    -0.05  -0.04   0.01     0.01   0.02  -0.01
  30   1    -0.00   0.01   0.03     0.01  -0.04   0.01    -0.01  -0.04   0.00
  31   1     0.00  -0.02  -0.10    -0.01   0.02  -0.00     0.05  -0.04   0.01
  32   1    -0.00  -0.01  -0.04    -0.04   0.05  -0.01     0.02  -0.01  -0.00
  33   1    -0.01   0.01   0.07    -0.04  -0.01   0.00    -0.04   0.01  -0.01
  34   1     0.01  -0.01  -0.03     0.02   0.01   0.00    -0.04  -0.05   0.01
  35   1     0.01  -0.03  -0.10     0.05   0.04  -0.00    -0.01  -0.02   0.00
  36   1     0.00   0.01   0.02    -0.01   0.04  -0.01     0.01   0.04  -0.01
  37   6     0.00  -0.05  -0.16     0.13   0.03  -0.01     0.13  -0.03  -0.00
  38   6    -0.00  -0.05   0.15     0.13   0.01  -0.03     0.13   0.01  -0.03
  39  27    -0.05   0.01  -0.03    -0.03   0.01  -0.07    -0.03   0.02  -0.06
  40   6     0.00   0.10  -0.13    -0.02   0.03   0.02    -0.00   0.02   0.01
  41   6     0.00   0.02   0.07     0.03  -0.01   0.01     0.05  -0.02  -0.00
  42   6    -0.01  -0.03   0.19     0.09   0.02   0.00     0.10   0.01  -0.01
  43   6    -0.00  -0.05   0.25     0.13   0.01  -0.01     0.13   0.00  -0.02
  44   6    -0.01  -0.04   0.18     0.09  -0.02  -0.01     0.08  -0.03  -0.02
  45   6    -0.00  -0.02   0.05     0.03   0.01   0.01     0.02  -0.00   0.01
  46   6     0.01   0.00  -0.17    -0.01  -0.04   0.01    -0.03  -0.05   0.00
  47   6     0.00  -0.00  -0.10     0.02  -0.09  -0.02     0.00  -0.11  -0.02
  48   7    -0.00  -0.02   0.08     0.09  -0.08  -0.02     0.07  -0.10  -0.03
  49   6     0.01   0.01  -0.07     0.00  -0.13  -0.04    -0.01  -0.13  -0.03
  50   6     0.02   0.01   0.04    -0.02  -0.09  -0.02    -0.04  -0.08  -0.01
  51   6     0.05   0.00   0.19     0.01  -0.03   0.01    -0.01  -0.02   0.01
  52   6     0.02   0.01   0.08    -0.03   0.01   0.03    -0.05   0.02   0.03
  53   6    -0.03   0.02  -0.10    -0.09  -0.02   0.01    -0.11  -0.01   0.02
  54   7    -0.02   0.02  -0.08    -0.09  -0.09  -0.02    -0.11  -0.08   0.00
  55   6    -0.05   0.03  -0.19    -0.13  -0.01   0.01    -0.13  -0.00   0.02
  56   6    -0.02   0.01  -0.10    -0.10   0.01   0.02    -0.09   0.03   0.02
  57   6     0.04  -0.05   0.06    -0.03  -0.02   0.02    -0.02  -0.00   0.01
  58   6     0.08  -0.08   0.17     0.01   0.03   0.02     0.03   0.04   0.02
  59   6     0.03  -0.02   0.03    -0.03   0.09   0.02    -0.01   0.10   0.03
  60   7    -0.01   0.01  -0.09    -0.10   0.08   0.02    -0.08   0.09   0.04
  61   6     0.02   0.03  -0.06    -0.01   0.13   0.02     0.00   0.13   0.03
  62   6    -0.00   0.06  -0.08     0.01   0.09   0.02     0.03   0.09   0.02
  63   7    -0.01  -0.00   0.09     0.08   0.09   0.02     0.10   0.08   0.01
  64   1     0.00   0.05  -0.08    -0.02   0.01   0.01    -0.01   0.00   0.01
  65   1     0.00   0.00   0.03     0.01  -0.02  -0.00     0.01  -0.02  -0.00
  66   1    -0.00  -0.01   0.03     0.01   0.02   0.01     0.00   0.01   0.01
  67   1     0.00   0.01  -0.09    -0.02  -0.01   0.01    -0.02  -0.01   0.01
  68   1     0.00   0.00  -0.03     0.00  -0.04  -0.01     0.00  -0.04  -0.01
  69   1     0.03  -0.00   0.10     0.02  -0.01   0.00     0.01  -0.00   0.00
  70   1     0.01   0.00   0.04    -0.01   0.02   0.02    -0.01   0.02   0.01
  71   1    -0.02   0.01  -0.07    -0.04  -0.00   0.01    -0.04  -0.00   0.00
  72   1     0.02  -0.02   0.03    -0.01  -0.02   0.01    -0.00  -0.02   0.00
  73   1     0.04  -0.04   0.09     0.02   0.01   0.01     0.02   0.01   0.01
  74   1     0.01   0.01  -0.03    -0.00   0.04   0.00    -0.00   0.04   0.01
                     19                     20                     21
                        a                      a                      a 
 Frequencies --   193.2125               215.4289               224.9864
 Red. masses --    12.1995                14.6256                12.8560
 Frc consts  --     0.0000                 0.0000                 0.0000
 IR Inten    --    21.1245                 1.9587                52.9505
 Raman Activ --     0.0000                 0.0000                 0.0000
 Depolar     --     0.0000                 0.0000                 0.0000
 Atom AN      X      Y      Z        X      Y      Z        X      Y      Z
   1  27     0.00  -0.01  -0.00    -0.01  -0.03  -0.16     0.02  -0.01   0.00
   2   6     0.01  -0.02   0.00     0.01   0.02   0.01    -0.01   0.01   0.03
   3   6     0.01  -0.01   0.00     0.00   0.01  -0.04    -0.00  -0.00   0.00
   4   6     0.00  -0.02  -0.00    -0.00  -0.01  -0.11     0.01  -0.01  -0.05
   5   6    -0.01  -0.01  -0.00     0.01   0.02   0.03     0.00   0.00  -0.00
   6   6    -0.02  -0.01  -0.01     0.01  -0.02  -0.11     0.00   0.01   0.05
   7   6    -0.01  -0.01   0.00     0.00   0.01  -0.04    -0.00  -0.00  -0.01
   8   6    -0.01  -0.01   0.00    -0.01   0.01   0.02    -0.01  -0.01  -0.03
   9   6    -0.01  -0.00  -0.00    -0.00  -0.01  -0.02    -0.00   0.00   0.03
  10   7    -0.02  -0.01  -0.01     0.01  -0.04  -0.18     0.00   0.02   0.09
  11   6    -0.00   0.01   0.00    -0.00   0.01   0.14    -0.00  -0.00  -0.02
  12   6    -0.01   0.02  -0.00    -0.00   0.01   0.11    -0.00   0.00   0.01
  13   6    -0.01   0.01  -0.01     0.00  -0.01  -0.08     0.00  -0.01  -0.04
  14   6    -0.01   0.01  -0.00     0.00  -0.01  -0.13    -0.00   0.00   0.01
  15   6     0.00   0.01   0.00    -0.01   0.02   0.08     0.00   0.01   0.05
  16   7    -0.00   0.02   0.00    -0.01   0.03   0.17    -0.00   0.01   0.07
  17   6     0.01   0.01   0.00    -0.01   0.02   0.11     0.00   0.00   0.00
  18   6     0.02   0.01   0.00    -0.00   0.02   0.09     0.00  -0.01  -0.05
  19   6     0.01   0.01  -0.01     0.02  -0.03  -0.12    -0.01   0.00  -0.00
  20   6     0.01   0.01  -0.00     0.03  -0.02  -0.09    -0.01   0.01   0.04
  21   6     0.01   0.00   0.01     0.00   0.03   0.11    -0.00  -0.00  -0.01
  22   7     0.02   0.00   0.01    -0.01   0.04   0.17     0.00  -0.02  -0.08
  23   6     0.00  -0.01   0.01     0.00   0.04   0.13    -0.01   0.01   0.01
  24   6     0.01  -0.02   0.00     0.01   0.01  -0.02    -0.00  -0.00  -0.02
  25   7     0.00  -0.02  -0.00     0.00  -0.03  -0.17     0.01  -0.02  -0.07
  26   1     0.00  -0.00   0.00     0.00   0.01   0.02    -0.00   0.01   0.03
  27   1     0.00  -0.00   0.00     0.00   0.01  -0.01    -0.00   0.00   0.01
  28   1    -0.00  -0.00   0.00     0.00   0.01  -0.01    -0.00  -0.00  -0.01
  29   1    -0.00  -0.00   0.00    -0.00   0.01   0.03    -0.00  -0.01  -0.03
  30   1     0.00   0.00   0.00     0.00   0.01   0.07    -0.00  -0.00  -0.02
  31   1    -0.00   0.00  -0.00     0.00  -0.01  -0.06     0.00  -0.00  -0.03
  32   1    -0.00   0.00  -0.00     0.00  -0.01  -0.08     0.00  -0.00  -0.00
  33   1     0.00  -0.00  -0.00    -0.00   0.00   0.02     0.00   0.00   0.00
  34   1     0.00   0.00  -0.01     0.01  -0.02  -0.08    -0.00   0.00   0.01
  35   1     0.00   0.00  -0.00     0.01  -0.01  -0.06    -0.01   0.01   0.03
  36   1    -0.00  -0.00   0.00     0.00   0.02   0.06    -0.00   0.01   0.02
  37   6    -0.01   0.00  -0.00     0.00   0.07   0.34     0.01   0.01  -0.01
  38   6    -0.01   0.04   0.01     0.00  -0.06   0.35     0.00   0.04  -0.01
  39  27     0.01  -0.01   0.05     0.06   0.03  -0.17     0.04  -0.13  -0.03
  40   6     0.16  -0.15  -0.05    -0.01  -0.02  -0.00    -0.02   0.08  -0.14
  41   6     0.15  -0.12  -0.07     0.00  -0.02  -0.03     0.00   0.02  -0.02
  42   6     0.13  -0.14  -0.07     0.01   0.02  -0.10     0.02  -0.06   0.21
  43   6    -0.01  -0.08  -0.02     0.01  -0.02   0.04     0.01   0.01   0.00
  44   6    -0.14  -0.16  -0.00     0.00   0.01  -0.12    -0.01   0.04  -0.20
  45   6    -0.15  -0.16  -0.00     0.00  -0.00  -0.02    -0.02   0.02   0.01
  46   6    -0.14  -0.15  -0.04     0.00  -0.00   0.02    -0.02   0.00   0.16
  47   6    -0.15  -0.14  -0.02     0.00   0.01  -0.05    -0.02   0.02  -0.07
  48   7    -0.16  -0.16  -0.01     0.00   0.03  -0.22    -0.02   0.05  -0.31
  49   6    -0.09   0.00   0.00     0.01  -0.02   0.13     0.00   0.02   0.08
  50   6    -0.15   0.13   0.06     0.01  -0.03   0.12    -0.02   0.03  -0.06
  51   6    -0.15   0.14   0.06    -0.03  -0.02  -0.07     0.04   0.01   0.20
  52   6    -0.16   0.14   0.03    -0.05  -0.01  -0.13     0.00   0.01  -0.00
  53   6    -0.14   0.14   0.04    -0.00  -0.02   0.07    -0.04   0.04  -0.24
  54   7    -0.16   0.15   0.06     0.02  -0.04   0.17    -0.07   0.05  -0.35
  55   6     0.01   0.08   0.01    -0.01  -0.02   0.10     0.01   0.01  -0.00
  56   6     0.14   0.16   0.02    -0.01  -0.02   0.10     0.06  -0.05   0.22
  57   6     0.16   0.16   0.02    -0.07   0.05  -0.11    -0.01   0.01   0.04
  58   6     0.14   0.16  -0.00    -0.06   0.04  -0.07    -0.07   0.08  -0.16
  59   6     0.15   0.14  -0.00     0.00  -0.02   0.12    -0.00  -0.00   0.04
  60   7     0.16   0.16   0.01     0.02  -0.04   0.20     0.08  -0.09   0.29
  61   6     0.09  -0.01  -0.02    -0.00  -0.03   0.12    -0.02   0.05  -0.07
  62   6     0.16  -0.14  -0.05    -0.01   0.01  -0.04     0.00  -0.01   0.10
  63   7     0.15  -0.15  -0.06     0.01   0.05  -0.17     0.03  -0.11   0.34
  64   1     0.05  -0.04  -0.01    -0.00  -0.01   0.02    -0.01   0.05  -0.11
  65   1     0.04  -0.03  -0.02     0.00  -0.01  -0.00    -0.00   0.02  -0.04
  66   1    -0.04  -0.04   0.00     0.00  -0.00   0.01    -0.01  -0.00   0.03
  67   1    -0.04  -0.04  -0.02     0.00  -0.00   0.03    -0.01  -0.01   0.11
  68   1     0.02   0.00  -0.00     0.00  -0.01   0.07     0.01  -0.00   0.11
  69   1    -0.04   0.04   0.02    -0.02  -0.00  -0.05     0.03  -0.00   0.14
  70   1    -0.05   0.04   0.01    -0.03  -0.00  -0.09     0.01  -0.00   0.03
  71   1     0.00  -0.02  -0.01    -0.01   0.00   0.01     0.00   0.01   0.01
  72   1     0.05   0.04   0.01    -0.04   0.03  -0.08    -0.01   0.01  -0.01
  73   1     0.04   0.05  -0.00    -0.03   0.03  -0.06    -0.05   0.05  -0.12
  74   1    -0.02  -0.00   0.00    -0.00  -0.01   0.05    -0.02   0.04  -0.10
                     22                     23                     24
                        a                      a                      a 
 Frequencies --   226.4447               230.7308               231.6690
 Red. masses --    12.2206                14.5321                14.2190
 Frc consts  --     0.0000                 0.0000                 0.0000
 IR Inten    --    65.5991                26.8525                36.5153
 Raman Activ --     0.0000                 0.0000                 0.0000
 Depolar     --     0.0000                 0.0000                 0.0000
 Atom AN      X      Y      Z        X      Y      Z        X      Y      Z
   1  27     0.07  -0.04   0.02    -0.01   0.03   0.09    -0.05  -0.05   0.21
   2   6    -0.03   0.05   0.15    -0.00  -0.01   0.01     0.02   0.01   0.02
   3   6    -0.02   0.01   0.04    -0.01  -0.00   0.01    -0.00   0.09   0.25
   4   6     0.00  -0.06  -0.20    -0.02  -0.00   0.02    -0.00  -0.00  -0.04
   5   6     0.00   0.00  -0.00    -0.02  -0.02  -0.05    -0.00  -0.00  -0.06
   6   6    -0.00   0.06   0.19    -0.02  -0.00   0.01    -0.00  -0.01  -0.06
   7   6    -0.02   0.01  -0.02    -0.01  -0.01   0.01     0.01   0.07   0.25
   8   6    -0.03  -0.02  -0.15    -0.00   0.00   0.01    -0.00   0.02   0.05
   9   6    -0.02   0.02   0.08    -0.01   0.02  -0.00    -0.01  -0.06  -0.25
  10   7    -0.00   0.08   0.31    -0.02   0.02   0.03    -0.01  -0.07  -0.30
  11   6    -0.02   0.01  -0.07    -0.01   0.02  -0.06     0.00  -0.03  -0.14
  12   6    -0.02   0.03   0.07    -0.01   0.02  -0.05     0.00   0.03   0.15
  13   6    -0.02  -0.02  -0.20    -0.02   0.02   0.04     0.01   0.03   0.07
  14   6    -0.01  -0.01   0.00    -0.01   0.00   0.05     0.01   0.01  -0.10
  15   6     0.01   0.04   0.24     0.02  -0.00  -0.04     0.00   0.02   0.01
  16   7    -0.00   0.08   0.36     0.02   0.02  -0.08    -0.01   0.05   0.24
  17   6     0.02   0.00  -0.01     0.03  -0.01  -0.05     0.03  -0.01  -0.19
  18   6     0.03  -0.04  -0.23     0.02  -0.01  -0.02     0.01   0.03   0.03
  19   6    -0.01   0.01  -0.02     0.00   0.01   0.05     0.01   0.01  -0.11
  20   6    -0.05   0.05   0.19    -0.01  -0.00   0.03    -0.03   0.03   0.06
  21   6    -0.01  -0.02  -0.05     0.01  -0.03  -0.04    -0.02   0.03   0.18
  22   7     0.03  -0.09  -0.32     0.02  -0.03  -0.05    -0.01   0.05   0.29
  23   6    -0.02   0.01   0.06     0.00  -0.05  -0.05     0.01  -0.06  -0.14
  24   6    -0.01  -0.03  -0.10    -0.01  -0.02   0.02     0.02  -0.09  -0.25
  25   7     0.01  -0.10  -0.34    -0.02  -0.00   0.06     0.01  -0.09  -0.27
  26   1    -0.01   0.04   0.12     0.00  -0.00  -0.00     0.01   0.01   0.04
  27   1    -0.01   0.01   0.05    -0.00   0.00   0.00    -0.00   0.06   0.16
  28   1    -0.01  -0.00  -0.04    -0.00  -0.00   0.01     0.01   0.04   0.16
  29   1    -0.01  -0.02  -0.11     0.00   0.00   0.00    -0.00   0.01   0.06
  30   1    -0.00  -0.01  -0.10     0.00   0.01  -0.02     0.00  -0.01  -0.06
  31   1    -0.01  -0.02  -0.14    -0.01   0.01   0.03     0.01   0.01   0.02
  32   1    -0.00  -0.01  -0.03    -0.00  -0.00   0.03     0.01  -0.00  -0.07
  33   1     0.01   0.00  -0.01     0.01  -0.00  -0.01     0.01  -0.02  -0.15
  34   1    -0.01   0.01   0.02    -0.00   0.01   0.03     0.01  -0.01  -0.09
  35   1    -0.03   0.03   0.14    -0.01   0.00   0.02    -0.01   0.01   0.00
  36   1    -0.01   0.02   0.10     0.00  -0.02  -0.03     0.00  -0.02  -0.07
  37   6     0.00   0.01  -0.00    -0.01  -0.04  -0.14     0.00   0.01  -0.04
  38   6     0.01  -0.01  -0.00    -0.01  -0.00  -0.06     0.00   0.03  -0.13
  39  27     0.00   0.03   0.01     0.15   0.02   0.18     0.00  -0.03   0.10
  40   6     0.00  -0.02   0.03    -0.03  -0.02   0.02    -0.00   0.00   0.00
  41   6     0.00  -0.01   0.01    -0.01  -0.11   0.23     0.00  -0.01   0.02
  42   6     0.00   0.01  -0.04    -0.00   0.00  -0.03     0.00  -0.00   0.01
  43   6     0.01  -0.00  -0.00    -0.01   0.01  -0.06     0.00   0.02  -0.05
  44   6     0.01  -0.01   0.04    -0.00   0.01  -0.05     0.01   0.00  -0.00
  45   6     0.01  -0.00   0.01    -0.02  -0.03   0.25     0.00   0.00   0.01
  46   6     0.01  -0.00  -0.03    -0.02  -0.00   0.05    -0.00   0.00   0.02
  47   6     0.01  -0.01   0.00    -0.01   0.03  -0.26     0.00  -0.00   0.00
  48   7     0.01  -0.02   0.05    -0.00   0.04  -0.30     0.01  -0.01   0.03
  49   6     0.00  -0.02  -0.02    -0.02  -0.01  -0.16     0.00  -0.00  -0.06
  50   6     0.01  -0.02   0.02     0.03  -0.05   0.14     0.00  -0.00  -0.04
  51   6    -0.00  -0.01  -0.04     0.03  -0.02   0.08     0.02   0.00   0.03
  52   6    -0.00  -0.00  -0.00    -0.03  -0.00  -0.08     0.02   0.01   0.04
  53   6     0.00  -0.01   0.06    -0.03  -0.02   0.00    -0.00   0.01  -0.03
  54   7     0.01  -0.02   0.09     0.03  -0.05   0.22    -0.01   0.00  -0.05
  55   6    -0.02  -0.00  -0.00    -0.10   0.02  -0.19    -0.02   0.01  -0.05
  56   6    -0.02   0.01  -0.05    -0.03  -0.02   0.02    -0.01   0.00  -0.02
  57   6     0.00  -0.00  -0.01    -0.03  -0.00  -0.09     0.01  -0.02   0.03
  58   6     0.02  -0.02   0.04     0.05  -0.02   0.06     0.02  -0.01   0.03
  59   6     0.00   0.01  -0.01     0.05  -0.01   0.16    -0.00   0.01  -0.02
  60   7    -0.02   0.03  -0.06     0.05  -0.05   0.27    -0.01   0.01  -0.03
  61   6     0.00   0.00   0.01    -0.02   0.09  -0.13    -0.01   0.03  -0.05
  62   6     0.00   0.01  -0.02    -0.03   0.10  -0.22    -0.00   0.01  -0.01
  63   7    -0.00   0.03  -0.08    -0.01   0.10  -0.23     0.00  -0.00   0.03
  64   1     0.00  -0.01   0.03    -0.01  -0.02   0.04    -0.00   0.00  -0.00
  65   1     0.00  -0.01   0.01     0.00  -0.07   0.15     0.00  -0.01   0.01
  66   1     0.00   0.00  -0.00    -0.01  -0.02   0.17    -0.00   0.00   0.01
  67   1     0.00   0.00  -0.02    -0.01  -0.01   0.05    -0.00  -0.00   0.01
  68   1    -0.00  -0.00  -0.03    -0.01  -0.00  -0.07    -0.00   0.00  -0.02
  69   1    -0.00  -0.00  -0.03     0.01  -0.01   0.03     0.01   0.00   0.02
  70   1    -0.00   0.00  -0.01    -0.02   0.01  -0.06     0.01   0.00   0.03
  71   1    -0.01  -0.00  -0.01    -0.06   0.02  -0.14    -0.00   0.00  -0.01
  72   1     0.00  -0.00   0.00    -0.02   0.01  -0.07     0.01  -0.01   0.02
  73   1     0.01  -0.01   0.03     0.02  -0.00   0.01     0.01  -0.01   0.02
  74   1     0.00  -0.01   0.02    -0.02   0.04  -0.06    -0.00   0.01  -0.03
                     25                     26                     27
                        a                      a                      a 
 Frequencies --   244.1777               247.1908               249.3389
 Red. masses --    10.8091                11.0172                13.0886
 Frc consts  --     0.0000                 0.0000                 0.0000
 IR Inten    --     3.5650                 2.2206               134.7408
 Raman Activ --     0.0000                 0.0000                 0.0000
 Depolar     --     0.0000                 0.0000                 0.0000
 Atom AN      X      Y      Z        X      Y      Z        X      Y      Z
   1  27     0.03  -0.00  -0.00    -0.04   0.01  -0.01     0.02   0.05   0.12
   2   6    -0.01   0.05   0.18     0.01  -0.02  -0.08     0.02  -0.03  -0.13
   3   6     0.01  -0.08  -0.22    -0.00   0.03   0.09     0.02   0.01   0.01
   4   6     0.01  -0.05  -0.14    -0.01   0.02   0.07     0.02   0.06   0.19
   5   6    -0.00  -0.00   0.00    -0.01   0.00   0.00     0.01  -0.01  -0.05
   6   6     0.01   0.04   0.15    -0.01  -0.02  -0.07     0.02  -0.06  -0.24
   7   6     0.01   0.06   0.24    -0.00  -0.03  -0.11     0.03   0.00   0.02
   8   6    -0.02  -0.04  -0.18     0.01   0.02   0.07     0.02   0.03   0.19
   9   6    -0.02  -0.06  -0.24     0.00   0.03   0.10     0.02  -0.05  -0.08
  10   7    -0.00  -0.03  -0.11    -0.01   0.02   0.03     0.02  -0.10  -0.32
  11   6    -0.01  -0.01   0.00     0.00   0.02   0.01     0.01  -0.07  -0.03
  12   6    -0.01   0.04   0.26     0.00  -0.00  -0.10     0.00  -0.05   0.06
  13   6    -0.00   0.03   0.15    -0.00  -0.01  -0.08     0.03  -0.05  -0.13
  14   6     0.01  -0.03  -0.24    -0.00   0.01   0.09    -0.00   0.00   0.02
  15   6     0.01  -0.01  -0.11     0.00   0.01   0.06    -0.04   0.01   0.19
  16   7    -0.01   0.03   0.16     0.01   0.00  -0.05    -0.04  -0.00   0.29
  17   6    -0.00   0.00  -0.00     0.01  -0.00   0.01    -0.04  -0.01  -0.05
  18   6    -0.01   0.03   0.11     0.01  -0.02  -0.06    -0.01  -0.04  -0.23
  19   6    -0.01   0.05   0.23     0.01  -0.02  -0.09     0.00   0.01   0.04
  20   6     0.02  -0.03  -0.15    -0.01   0.01   0.07     0.02   0.07   0.18
  21   6     0.03  -0.05  -0.24    -0.01   0.01   0.09     0.02   0.04  -0.11
  22   7     0.02  -0.03  -0.15     0.00  -0.01   0.03     0.01  -0.02  -0.35
  23   6     0.00   0.01  -0.00    -0.00  -0.01   0.01     0.02   0.04  -0.07
  24   6    -0.01   0.07   0.23     0.00  -0.03  -0.08     0.02   0.04   0.05
  25   7     0.00   0.03   0.10    -0.01  -0.01  -0.01     0.02   0.11   0.29
  26   1    -0.01   0.02   0.09     0.00  -0.01  -0.04     0.00  -0.03  -0.10
  27   1     0.01  -0.04  -0.13    -0.00   0.02   0.05     0.01  -0.01  -0.02
  28   1     0.01   0.04   0.14    -0.00  -0.02  -0.06     0.01   0.01   0.05
  29   1    -0.01  -0.02  -0.09     0.01   0.01   0.04     0.01   0.03   0.14
  30   1    -0.00  -0.00  -0.01     0.00   0.01   0.01    -0.00  -0.02  -0.01
  31   1    -0.00   0.01   0.07    -0.00  -0.01  -0.04     0.02  -0.02  -0.10
  32   1     0.01  -0.02  -0.15    -0.00   0.01   0.06     0.00   0.00  -0.02
  33   1    -0.00   0.00  -0.00     0.00   0.00   0.01    -0.01  -0.01  -0.02
  34   1    -0.01   0.03   0.14     0.00  -0.01  -0.05    -0.00   0.00   0.06
  35   1     0.01  -0.02  -0.07    -0.01   0.01   0.04     0.01   0.04   0.14
  36   1    -0.00   0.00   0.01     0.00  -0.00   0.00    -0.00   0.01  -0.03
  37   6    -0.00  -0.01   0.00    -0.00  -0.00   0.00    -0.00  -0.03  -0.05
  38   6    -0.01  -0.01  -0.00    -0.00  -0.02   0.01    -0.01  -0.03   0.05
  39  27    -0.01  -0.00   0.01     0.03   0.01  -0.01    -0.03   0.04  -0.06
  40   6    -0.00   0.02  -0.07    -0.00   0.05  -0.15    -0.01  -0.02   0.02
  41   6     0.00  -0.04   0.08     0.01  -0.10   0.21    -0.02   0.01  -0.01
  42   6    -0.01  -0.02   0.04     0.01  -0.06   0.11    -0.03   0.02  -0.04
  43   6    -0.01  -0.01  -0.00     0.01  -0.02   0.00    -0.02  -0.01   0.05
  44   6    -0.01   0.00  -0.05     0.01   0.01  -0.12    -0.03  -0.01   0.08
  45   6    -0.00   0.01  -0.09     0.00   0.03  -0.25    -0.02  -0.01   0.02
  46   6    -0.01  -0.01   0.07    -0.01  -0.02   0.16    -0.01   0.01  -0.07
  47   6    -0.01  -0.01   0.10    -0.01  -0.04   0.26    -0.02   0.02  -0.00
  48   7    -0.01  -0.00   0.06     0.00  -0.03   0.15    -0.03   0.01   0.07
  49   6    -0.01   0.01  -0.00    -0.02  -0.02   0.01    -0.01   0.04   0.04
  50   6    -0.03   0.02  -0.10    -0.06   0.01  -0.25    -0.01   0.05   0.04
  51   6    -0.02   0.01  -0.05    -0.04   0.01  -0.14    -0.03   0.01   0.04
  52   6     0.02  -0.00   0.10     0.06  -0.01   0.23    -0.02  -0.01  -0.05
  53   6     0.02   0.01   0.04     0.02   0.00   0.09     0.02   0.01  -0.04
  54   7    -0.01   0.02  -0.07    -0.05   0.01  -0.19     0.01   0.05  -0.03
  55   6     0.01   0.01   0.00    -0.01   0.02   0.01     0.06  -0.01   0.03
  56   6    -0.00   0.01  -0.04    -0.03   0.04  -0.08     0.05  -0.03   0.07
  57   6    -0.03   0.03  -0.09    -0.06   0.08  -0.21    -0.01   0.01  -0.02
  58   6     0.02  -0.02   0.05     0.06  -0.03   0.13    -0.05   0.00  -0.06
  59   6     0.03  -0.04   0.09     0.08  -0.06   0.24     0.00  -0.06   0.02
  60   7     0.03  -0.03   0.06     0.05  -0.04   0.17     0.05  -0.07   0.09
  61   6     0.01  -0.01  -0.00     0.02   0.02   0.01    -0.00  -0.06   0.03
  62   6    -0.01   0.03  -0.10    -0.01   0.09  -0.23    -0.02  -0.02  -0.01
  63   7    -0.01   0.01  -0.05     0.01   0.05  -0.14    -0.04   0.01  -0.08
  64   1     0.00   0.01  -0.03    -0.00   0.02  -0.07     0.00  -0.01   0.02
  65   1     0.00  -0.02   0.05     0.01  -0.06   0.13    -0.01   0.00   0.00
  66   1     0.00   0.01  -0.06     0.00   0.02  -0.15    -0.00  -0.00   0.00
  67   1    -0.00  -0.00   0.03    -0.01  -0.01   0.07     0.00   0.01  -0.05
  68   1    -0.00   0.00   0.00    -0.00  -0.01   0.01     0.00   0.01   0.02
  69   1    -0.01   0.00  -0.02    -0.01   0.00  -0.06    -0.02   0.00   0.02
  70   1     0.02  -0.00   0.06     0.04  -0.01   0.15    -0.01  -0.01  -0.02
  71   1     0.00   0.00   0.00    -0.00   0.00   0.00     0.02  -0.00   0.01
  72   1    -0.02   0.02  -0.05    -0.04   0.05  -0.14    -0.01   0.02  -0.02
  73   1     0.01  -0.01   0.02     0.02  -0.01   0.05    -0.03   0.01  -0.04
  74   1     0.00  -0.00  -0.00     0.00   0.01  -0.00     0.00  -0.02   0.01
                     28                     29                     30
                        a                      a                      a 
 Frequencies --   250.0266               250.5997               252.6167
 Red. masses --    22.8735                12.0894                15.7224
 Frc consts  --     0.0000                 0.0000                 0.0000
 IR Inten    --    85.5228                43.6356                 5.4046
 Raman Activ --     0.0000                 0.0000                 0.0000
 Depolar     --     0.0000                 0.0000                 0.0000
 Atom AN      X      Y      Z        X      Y      Z        X      Y      Z
   1  27     0.04   0.15   0.34    -0.03  -0.01  -0.01    -0.13   0.03   0.08
   2   6     0.00   0.05   0.14    -0.01   0.00   0.04    -0.04  -0.03   0.00
   3   6     0.02   0.01   0.05    -0.02  -0.00  -0.01    -0.07  -0.00  -0.01
   4   6     0.03  -0.05  -0.15    -0.02  -0.02  -0.04    -0.09   0.00   0.04
   5   6     0.02  -0.06  -0.16    -0.01   0.00   0.00    -0.06  -0.01  -0.05
   6   6     0.02  -0.01   0.02    -0.02   0.01   0.04    -0.09  -0.02  -0.08
   7   6     0.02  -0.00   0.05    -0.02   0.00   0.00    -0.07  -0.00   0.02
   8   6     0.01  -0.01   0.03    -0.01   0.00  -0.04    -0.03   0.04   0.06
   9   6     0.01  -0.02   0.01    -0.02   0.03   0.00    -0.06   0.06  -0.06
  10   7     0.03   0.01   0.11    -0.03   0.03   0.06    -0.10   0.04  -0.13
  11   6    -0.01  -0.07  -0.16    -0.01   0.05  -0.01    -0.02   0.16  -0.07
  12   6    -0.01  -0.05  -0.12    -0.01   0.05  -0.02    -0.03   0.18  -0.03
  13   6    -0.01  -0.00   0.13    -0.03   0.03   0.03    -0.09   0.08  -0.01
  14   6    -0.03   0.01   0.11    -0.00  -0.00  -0.00    -0.01  -0.01   0.02
  15   6    -0.03  -0.04  -0.15     0.03   0.01  -0.04     0.10   0.04   0.01
  16   7    -0.03  -0.07  -0.21     0.03   0.04  -0.06     0.08   0.17   0.01
  17   6    -0.04  -0.04  -0.16     0.05   0.00   0.00     0.18  -0.01  -0.04
  18   6    -0.02   0.01   0.00     0.02  -0.00   0.05     0.10  -0.05  -0.04
  19   6     0.00   0.01   0.10    -0.00   0.00   0.00    -0.01   0.02   0.05
  20   6     0.04   0.02   0.02    -0.02  -0.03  -0.03    -0.09  -0.07   0.05
  21   6     0.02   0.03  -0.08    -0.01  -0.05   0.02    -0.02  -0.19  -0.03
  22   7    -0.01   0.05   0.01     0.02  -0.03   0.07     0.09  -0.19  -0.07
  23   6     0.02  -0.00  -0.16    -0.01  -0.05   0.02    -0.02  -0.17  -0.01
  24   6     0.02  -0.00  -0.07    -0.02  -0.02   0.00    -0.06  -0.06   0.06
  25   7     0.03  -0.03  -0.16    -0.03  -0.03  -0.05    -0.11  -0.03   0.12
  26   1    -0.00   0.03   0.10    -0.00   0.00   0.02     0.00  -0.01  -0.01
  27   1     0.00   0.01   0.05    -0.01   0.00   0.00    -0.02   0.00  -0.02
  28   1     0.00   0.00   0.01    -0.01  -0.00  -0.00    -0.02  -0.00   0.03
  29   1     0.00  -0.00   0.00    -0.00  -0.00  -0.03     0.00   0.02   0.05
  30   1    -0.00  -0.02  -0.07     0.00   0.01  -0.00     0.01   0.04  -0.02
  31   1    -0.00   0.01   0.10    -0.02   0.01   0.02    -0.05   0.02  -0.01
  32   1    -0.01   0.01   0.08    -0.00  -0.01   0.00    -0.01  -0.03   0.01
  33   1    -0.01  -0.02  -0.05     0.01   0.00   0.00     0.05  -0.00  -0.01
  34   1    -0.00   0.00   0.06    -0.00   0.01  -0.01    -0.01   0.04   0.03
  35   1     0.02   0.01   0.01    -0.01  -0.01  -0.02    -0.06  -0.01   0.03
  36   1     0.00  -0.00  -0.06     0.00  -0.01   0.01     0.01  -0.05  -0.01
  37   6     0.01  -0.09  -0.17    -0.00   0.00   0.00    -0.01  -0.02  -0.05
  38   6    -0.00  -0.09   0.17     0.00   0.00  -0.01     0.01  -0.00   0.04
  39  27    -0.04   0.13  -0.30     0.01  -0.00  -0.04     0.07   0.02  -0.22
  40   6    -0.00   0.04  -0.08     0.02  -0.06   0.18     0.05   0.06  -0.05
  41   6    -0.01   0.03  -0.02     0.01   0.02  -0.03     0.08   0.04  -0.06
  42   6    -0.03  -0.02   0.07     0.01   0.10  -0.24     0.09  -0.01   0.08
  43   6    -0.02  -0.05   0.16     0.01   0.01   0.00     0.06  -0.01   0.06
  44   6    -0.02  -0.02   0.06     0.03  -0.04   0.26     0.09  -0.00  -0.02
  45   6    -0.01  -0.02  -0.04     0.03   0.00   0.02     0.08   0.00  -0.05
  46   6    -0.00   0.00  -0.08     0.03   0.01  -0.20     0.05  -0.03  -0.00
  47   6    -0.02   0.01   0.02     0.03  -0.03   0.05     0.07  -0.07   0.01
  48   7    -0.03   0.01   0.01     0.04  -0.07   0.34     0.10  -0.06  -0.05
  49   6    -0.00   0.03   0.15     0.02  -0.05  -0.01     0.04  -0.17   0.05
  50   6    -0.02   0.04   0.10     0.01  -0.05  -0.06     0.04  -0.18   0.01
  51   6    -0.08   0.00  -0.06     0.08  -0.03   0.17     0.08  -0.07  -0.08
  52   6    -0.05  -0.03  -0.09     0.01   0.00  -0.02    -0.01   0.01  -0.03
  53   6     0.03  -0.01   0.06    -0.08   0.00  -0.23    -0.09  -0.05   0.07
  54   7     0.03   0.04   0.09    -0.09  -0.03  -0.31    -0.06  -0.18   0.06
  55   6     0.08  -0.03   0.13    -0.04  -0.02   0.01    -0.15  -0.02   0.09
  56   6     0.05  -0.02   0.06     0.03  -0.06   0.23    -0.10   0.05   0.02
  57   6    -0.04   0.05  -0.10    -0.00  -0.01   0.03     0.00   0.00  -0.01
  58   6    -0.04   0.01  -0.06    -0.04   0.09  -0.16     0.08   0.09   0.00
  59   6     0.02  -0.07   0.09     0.01   0.04   0.06     0.02   0.17   0.04
  60   7     0.06  -0.06   0.09     0.05  -0.05   0.30    -0.10   0.17   0.00
  61   6     0.03  -0.09   0.13     0.00   0.05   0.03     0.04   0.13   0.11
  62   6    -0.01  -0.02   0.00     0.01   0.03  -0.03     0.08   0.05   0.09
  63   7    -0.03  -0.01   0.00     0.01   0.13  -0.30     0.11   0.01   0.15
  64   1     0.00   0.02  -0.05     0.01  -0.05   0.13     0.00   0.03  -0.05
  65   1    -0.00   0.01  -0.01     0.01  -0.01   0.01     0.02   0.02  -0.05
  66   1    -0.00  -0.01  -0.02     0.01   0.01  -0.03     0.02   0.01  -0.02
  67   1     0.01   0.00  -0.05     0.01   0.01  -0.14     0.00  -0.01   0.00
  68   1     0.01   0.01   0.06     0.00  -0.02  -0.01    -0.00  -0.05   0.03
  69   1    -0.04   0.00  -0.04     0.05  -0.01   0.13     0.04  -0.01  -0.05
  70   1    -0.02  -0.02  -0.06     0.01   0.01   0.02    -0.00   0.03  -0.02
  71   1     0.02  -0.01   0.04    -0.01  -0.00   0.00    -0.04  -0.01   0.03
  72   1    -0.02   0.04  -0.07    -0.01  -0.00  -0.02     0.00  -0.02  -0.01
  73   1    -0.03   0.01  -0.04    -0.03   0.05  -0.12     0.05   0.02   0.00
  74   1     0.01  -0.03   0.05    -0.00   0.01   0.01    -0.01   0.04   0.04
                     31                     32                     33
                        a                      a                      a 
 Frequencies --   266.7987               267.9520               271.7629
 Red. masses --    43.5544                43.7246                42.7069
 Frc consts  --     0.0000                 0.0000                 0.0000
 IR Inten    --     0.4311                18.2723                 9.0109
 Raman Activ --     0.0000                 0.0000                 0.0000
 Depolar     --     0.0000                 0.0000                 0.0000
 Atom AN      X      Y      Z        X      Y      Z        X      Y      Z
   1  27     0.05   0.79  -0.19    -0.82   0.05  -0.03    -0.00  -0.10  -0.06
   2   6    -0.09  -0.08   0.02     0.16   0.02   0.02     0.01   0.00  -0.03
   3   6    -0.04  -0.13   0.06     0.09   0.07  -0.03    -0.00   0.02   0.00
   4   6     0.01  -0.11   0.01    -0.01   0.01  -0.03    -0.01   0.03   0.03
   5   6    -0.00  -0.11   0.03     0.00  -0.01   0.01     0.00   0.02   0.02
   6   6    -0.02  -0.11   0.02    -0.01  -0.02   0.05     0.01   0.03   0.03
   7   6     0.02  -0.13   0.05     0.09  -0.09   0.03    -0.00   0.03   0.01
   8   6     0.06  -0.08   0.02     0.16  -0.03  -0.02    -0.02   0.01  -0.03
   9   6     0.02  -0.00  -0.02     0.12   0.04   0.00    -0.01   0.00  -0.01
  10   7    -0.01  -0.01  -0.03    -0.00   0.04   0.05     0.01   0.01   0.01
  11   6    -0.01  -0.00   0.01     0.11   0.00  -0.01    -0.00   0.01   0.01
  12   6    -0.04   0.03   0.04     0.12  -0.03   0.02    -0.00   0.01   0.02
  13   6    -0.11  -0.08   0.01     0.16   0.02  -0.00    -0.00   0.01  -0.01
  14   6    -0.04  -0.16   0.00     0.10   0.07  -0.01    -0.00   0.01  -0.02
  15   6     0.02  -0.11   0.04    -0.01   0.02   0.00    -0.00   0.02   0.01
  16   7     0.01   0.02   0.07     0.00  -0.02   0.02    -0.01   0.01   0.03
  17   6     0.01  -0.11   0.02     0.01  -0.01  -0.01     0.01   0.01   0.02
  18   6    -0.02  -0.11   0.03    -0.01  -0.04  -0.02     0.01   0.01   0.01
  19   6     0.03  -0.15   0.02     0.10  -0.09   0.04     0.00   0.01  -0.02
  20   6     0.08  -0.09   0.03     0.17  -0.02   0.03    -0.01   0.00  -0.01
  21   6     0.02   0.01   0.02     0.13   0.03  -0.02    -0.00  -0.00   0.03
  22   7    -0.01   0.00   0.03     0.01   0.01  -0.06     0.01  -0.00   0.03
  23   6    -0.00  -0.01  -0.01     0.11  -0.00   0.01    -0.00  -0.01   0.02
  24   6    -0.03  -0.00  -0.04     0.12  -0.04   0.01    -0.00  -0.00   0.00
  25   7     0.01  -0.01  -0.06     0.00  -0.04  -0.02    -0.01   0.01   0.02
  26   1    -0.05  -0.02   0.01     0.06   0.01   0.01     0.01  -0.00  -0.02
  27   1    -0.01  -0.05   0.03     0.03   0.05  -0.01    -0.00   0.01  -0.00
  28   1     0.01  -0.05   0.02     0.03  -0.05   0.01    -0.00   0.01   0.00
  29   1     0.04  -0.03   0.01     0.07  -0.01  -0.02    -0.01   0.00  -0.02
  30   1    -0.00  -0.00  -0.00     0.02  -0.00  -0.01    -0.00   0.00   0.00
  31   1    -0.06  -0.03  -0.01     0.06   0.01  -0.00     0.00   0.00  -0.01
  32   1    -0.01  -0.07  -0.01     0.03   0.05  -0.01    -0.00   0.00  -0.02
  33   1     0.00  -0.02  -0.01     0.00  -0.00   0.00     0.00   0.00   0.00
  34   1     0.01  -0.06   0.00     0.03  -0.05   0.03     0.00   0.00  -0.02
  35   1     0.05  -0.03   0.01     0.07  -0.01   0.02    -0.01   0.00  -0.01
  36   1     0.00  -0.00  -0.00     0.02   0.00   0.01     0.00  -0.00   0.00
  37   6     0.00  -0.12   0.05     0.00  -0.01   0.00     0.00  -0.03  -0.02
  38   6     0.00  -0.05  -0.00     0.00  -0.00   0.00     0.01  -0.11  -0.05
  39  27     0.01   0.06   0.09    -0.01   0.01   0.01    -0.01   0.79   0.15
  40   6    -0.00  -0.02   0.02     0.00  -0.00   0.00    -0.08  -0.07  -0.04
  41   6    -0.00  -0.00  -0.02    -0.00   0.00  -0.01    -0.02  -0.12  -0.08
  42   6    -0.00   0.00  -0.03    -0.00   0.00  -0.01     0.03  -0.12   0.01
  43   6     0.00  -0.00  -0.03    -0.00  -0.00  -0.00     0.01  -0.11  -0.02
  44   6     0.01   0.00  -0.03    -0.00  -0.00   0.00    -0.01  -0.11  -0.02
  45   6     0.01   0.00  -0.01     0.00  -0.00   0.01     0.03  -0.15  -0.01
  46   6     0.00  -0.00   0.02     0.00  -0.00  -0.00     0.08  -0.08  -0.01
  47   6     0.00   0.00   0.00     0.00   0.00  -0.01     0.02   0.01  -0.03
  48   7     0.01   0.01  -0.02    -0.00   0.00  -0.00    -0.01   0.00  -0.03
  49   6    -0.01  -0.01  -0.02     0.00   0.00  -0.00    -0.01  -0.01  -0.02
  50   6    -0.01  -0.00  -0.03    -0.00   0.00   0.00    -0.04   0.01  -0.04
  51   6    -0.01  -0.01   0.01    -0.00   0.00   0.00    -0.09  -0.10   0.02
  52   6     0.00  -0.01   0.03    -0.00  -0.00  -0.00    -0.02  -0.16   0.01
  53   6    -0.01  -0.01  -0.02    -0.00   0.00  -0.00     0.02  -0.11  -0.05
  54   7    -0.02   0.00  -0.04     0.00   0.00   0.00    -0.00   0.01  -0.09
  55   6    -0.01  -0.01  -0.02     0.00  -0.00  -0.00     0.00  -0.11  -0.01
  56   6    -0.00  -0.01  -0.01     0.00  -0.00   0.00    -0.02  -0.12  -0.00
  57   6     0.02  -0.02   0.02     0.00  -0.00   0.00     0.03  -0.14  -0.06
  58   6     0.02  -0.01  -0.00     0.00  -0.00  -0.01     0.08  -0.07  -0.07
  59   6     0.00   0.02  -0.02    -0.00  -0.00  -0.01     0.04   0.01   0.03
  60   7    -0.01   0.01  -0.02     0.00  -0.00  -0.00    -0.01  -0.00   0.05
  61   6     0.00   0.01  -0.01     0.00  -0.00  -0.00     0.01  -0.01   0.04
  62   6     0.00  -0.01   0.02     0.00  -0.00   0.00    -0.02  -0.01   0.07
  63   7     0.00  -0.00   0.01    -0.00  -0.00   0.00     0.02  -0.03   0.10
  64   1    -0.00  -0.01   0.01     0.00  -0.00   0.00    -0.05  -0.02  -0.02
  65   1    -0.00   0.00  -0.01    -0.00   0.00  -0.00    -0.01  -0.04  -0.05
  66   1     0.00   0.00  -0.00     0.00  -0.00   0.00     0.01  -0.06   0.00
  67   1     0.00  -0.00   0.02     0.00  -0.00  -0.00     0.05  -0.03  -0.00
  68   1    -0.00  -0.00  -0.01     0.00   0.00  -0.00     0.00  -0.00   0.00
  69   1    -0.00  -0.00   0.01    -0.00  -0.00   0.00    -0.05  -0.03   0.02
  70   1     0.00  -0.00   0.02    -0.00  -0.00  -0.00    -0.00  -0.07   0.01
  71   1    -0.00  -0.00  -0.00     0.00  -0.00  -0.00     0.00  -0.02   0.01
  72   1     0.01  -0.01   0.01     0.00  -0.00   0.00     0.01  -0.06  -0.03
  73   1     0.01  -0.00   0.00    -0.00  -0.00  -0.00     0.05  -0.02  -0.04
  74   1    -0.00   0.00  -0.00     0.00  -0.00  -0.00     0.00   0.00   0.00
                     34                     35                     36
                        a                      a                      a 
 Frequencies --   272.9980               286.4362               313.0378
 Red. masses --    43.0416                23.1349                12.9477
 Frc consts  --     0.0000                 0.0000                 0.0000
 IR Inten    --     1.9926                30.4495                 4.6828
 Raman Activ --     0.0000                 0.0000                 0.0000
 Depolar     --     0.0000                 0.0000                 0.0000
 Atom AN      X      Y      Z        X      Y      Z        X      Y      Z
   1  27     0.01   0.00   0.00    -0.01   0.02   0.35    -0.00   0.03   0.10
   2   6     0.00   0.00  -0.00     0.00   0.05   0.11    -0.01  -0.03   0.05
   3   6     0.00   0.00   0.01    -0.00   0.01  -0.09     0.07  -0.12   0.00
   4   6     0.00   0.00   0.00    -0.01  -0.03  -0.17     0.15  -0.08  -0.03
   5   6    -0.00  -0.00  -0.00    -0.00  -0.01  -0.06    -0.00   0.03   0.03
   6   6     0.00  -0.00  -0.00     0.00  -0.03  -0.17    -0.16  -0.08  -0.04
   7   6     0.00  -0.00  -0.01    -0.00  -0.00  -0.08    -0.08  -0.12   0.00
   8   6     0.00  -0.00   0.00    -0.01   0.03   0.12     0.01  -0.04   0.05
   9   6     0.00  -0.00   0.01    -0.00  -0.00   0.02    -0.02   0.03  -0.01
  10   7     0.00  -0.00   0.00     0.00  -0.03  -0.12    -0.15  -0.01  -0.07
  11   6    -0.00  -0.00   0.00    -0.00  -0.01  -0.02     0.02   0.09  -0.00
  12   6    -0.00  -0.01  -0.00    -0.01  -0.01  -0.13     0.07   0.01  -0.04
  13   6     0.00  -0.00  -0.00    -0.01   0.01   0.01     0.06  -0.03   0.00
  14   6    -0.00  -0.00   0.00    -0.02   0.03   0.09     0.10  -0.06   0.03
  15   6    -0.00  -0.00   0.00    -0.01   0.00  -0.07     0.13  -0.04  -0.01
  16   7    -0.00  -0.01  -0.00    -0.01  -0.02  -0.15     0.13  -0.01  -0.05
  17   6    -0.01  -0.00  -0.00     0.01  -0.00  -0.05    -0.00   0.02   0.01
  18   6    -0.00   0.00  -0.00     0.03   0.00  -0.06    -0.12  -0.04  -0.01
  19   6    -0.00   0.00  -0.00     0.00   0.04   0.09    -0.10  -0.06   0.02
  20   6     0.00   0.00   0.00     0.00   0.01   0.01    -0.05  -0.03  -0.01
  21   6    -0.00   0.01   0.00     0.02  -0.03  -0.12    -0.06   0.01  -0.04
  22   7    -0.00   0.00   0.00     0.03  -0.03  -0.15    -0.13  -0.01  -0.06
  23   6    -0.00   0.00  -0.00     0.01  -0.01  -0.02    -0.02   0.10   0.01
  24   6     0.00  -0.00  -0.00    -0.00   0.01   0.02     0.03   0.03  -0.01
  25   7     0.00  -0.00  -0.00    -0.01  -0.03  -0.12     0.15  -0.01  -0.07
  26   1    -0.00   0.00  -0.00     0.00   0.03   0.08    -0.03  -0.01   0.03
  27   1     0.00   0.00   0.00     0.00   0.00  -0.04     0.02  -0.06   0.00
  28   1     0.00  -0.00  -0.00    -0.00  -0.00  -0.04    -0.02  -0.06   0.01
  29   1    -0.00   0.00   0.00    -0.00   0.02   0.08     0.02  -0.01   0.03
  30   1    -0.00  -0.00   0.00     0.00   0.00   0.02     0.00   0.03   0.02
  31   1     0.00  -0.00  -0.00    -0.00   0.01   0.03     0.01  -0.01   0.01
  32   1    -0.00   0.00   0.00    -0.01   0.01   0.07     0.03  -0.03   0.02
[...]
  66   1     0.11   0.02   0.01    -0.39  -0.06  -0.02     0.17   0.02   0.01
  67   1    -0.01  -0.18  -0.02     0.04   0.64   0.08    -0.02  -0.32  -0.04
  68   1     0.00  -0.01  -0.00    -0.00   0.02   0.00     0.00  -0.01  -0.00
  69   1     0.00  -0.01  -0.00    -0.00   0.00   0.00     0.00  -0.01  -0.00
  70   1    -0.01   0.00   0.00     0.03  -0.00  -0.01    -0.01   0.00   0.00
  71   1     0.00  -0.00  -0.00     0.00   0.00  -0.00     0.00  -0.00  -0.00
  72   1     0.02   0.00  -0.01     0.02   0.00  -0.00     0.02   0.00  -0.00
  73   1    -0.00  -0.01  -0.00     0.00   0.01   0.00    -0.00  -0.01  -0.00
  74   1    -0.00  -0.02  -0.01    -0.00  -0.01  -0.00    -0.00  -0.01  -0.01
                    208                    209                    210
                        a                      a                      a 
 Frequencies --  3155.1305              3163.3961              3163.4613
 Red. masses --     1.8197                 1.9799                 1.9811
 Frc consts  --     0.0000                 0.0000                 0.0000
 IR Inten    --  1036.1385                34.0613                42.6340
 Raman Activ --     0.0000                 0.0000                 0.0000
 Depolar     --     0.0000                 0.0000                 0.0000
 Atom AN      X      Y      Z        X      Y      Z        X      Y      Z
   1  27     0.00   0.00  -0.00    -0.00   0.00  -0.00     0.00   0.00  -0.00
   2   6    -0.01   0.13  -0.04     0.00   0.00  -0.00     0.00  -0.00   0.00
   3   6     0.07  -0.01   0.01    -0.00   0.00  -0.00    -0.00   0.00  -0.00
   4   6     0.00   0.00  -0.00     0.00   0.00  -0.00    -0.00  -0.00   0.00
   5   6     0.00   0.00  -0.00    -0.00  -0.00   0.00    -0.00  -0.00   0.00
   6   6     0.00  -0.00   0.00     0.00   0.00  -0.00     0.00   0.00  -0.00
   7   6     0.06   0.01  -0.00     0.00   0.00  -0.00     0.00   0.00  -0.00
   8   6    -0.01  -0.11   0.03    -0.00  -0.00   0.00    -0.00  -0.00   0.00
   9   6     0.00  -0.00   0.00     0.00   0.00  -0.00     0.00   0.00  -0.00
  10   7    -0.00   0.00  -0.00    -0.00   0.00   0.00    -0.00   0.00  -0.00
  11   6     0.00  -0.00   0.00     0.00  -0.00   0.00     0.00  -0.00   0.00
  12   6    -0.00  -0.00   0.00    -0.00  -0.00   0.00    -0.00  -0.00   0.00
  13   6     0.00  -0.00   0.00     0.00  -0.03   0.00     0.01  -0.12   0.02
  14   6    -0.01   0.00  -0.00     0.03  -0.00   0.00     0.12  -0.01   0.01
  15   6    -0.00  -0.00   0.00     0.00   0.00  -0.00     0.00   0.00  -0.00
  16   7     0.00   0.00  -0.00    -0.00   0.00  -0.00    -0.00   0.00  -0.00
  17   6    -0.00   0.00  -0.00     0.00  -0.00   0.00    -0.00  -0.00   0.00
  18   6    -0.00   0.00  -0.00    -0.00   0.00  -0.00    -0.00   0.01  -0.00
  19   6    -0.00  -0.00  -0.00    -0.01  -0.00  -0.00    -0.17  -0.01  -0.01
  20   6     0.00   0.00  -0.00    -0.00  -0.01   0.00    -0.01  -0.17   0.04
  21   6    -0.00   0.00  -0.00     0.00  -0.00   0.00     0.01  -0.00   0.00
  22   7     0.00  -0.00   0.00     0.00   0.00  -0.00     0.00   0.00  -0.00
  23   6     0.00   0.00  -0.00    -0.00  -0.00   0.00    -0.00  -0.00   0.00
  24   6     0.00   0.00  -0.00    -0.00  -0.00  -0.00    -0.00   0.00  -0.00
  25   7    -0.00  -0.00   0.00     0.00   0.00  -0.00     0.00   0.00  -0.00
  26   1     0.04  -0.47   0.14     0.00  -0.00   0.00    -0.00   0.00  -0.00
  27   1    -0.27   0.03  -0.02     0.00  -0.00   0.00     0.01  -0.00   0.00
  28   1    -0.22  -0.02   0.02    -0.00  -0.00   0.00    -0.00  -0.00   0.00
  29   1     0.05   0.39  -0.09     0.00   0.00  -0.00     0.00   0.01  -0.00
  30   1    -0.00   0.01  -0.00     0.00   0.00  -0.00     0.00   0.01  -0.00
  31   1    -0.00   0.00  -0.00    -0.01   0.10  -0.02    -0.03   0.37  -0.06
  32   1     0.02  -0.00   0.00    -0.10   0.01  -0.01    -0.37   0.04  -0.02
  33   1     0.00  -0.00   0.00    -0.00  -0.00  -0.00     0.00  -0.00   0.00
  34   1     0.02   0.00   0.00     0.03   0.00   0.00     0.55   0.06   0.04
  35   1    -0.00  -0.01   0.00     0.00   0.03  -0.01     0.06   0.53  -0.12
  36   1    -0.00  -0.02   0.00    -0.00   0.00  -0.00    -0.00   0.01  -0.00
  37   6    -0.00   0.00   0.00     0.00  -0.00  -0.00     0.00   0.00  -0.00
  38   6    -0.00   0.00  -0.00    -0.00   0.00  -0.00    -0.00  -0.00   0.00
  39  27     0.00   0.00   0.00    -0.00   0.00   0.00     0.00  -0.00  -0.00
  40   6    -0.01   0.11   0.04     0.00  -0.00  -0.00    -0.00   0.00   0.00
  41   6     0.06  -0.01  -0.01     0.00  -0.00  -0.00     0.00  -0.00  -0.00
  42   6     0.00   0.00   0.00    -0.00   0.00   0.00    -0.00   0.00   0.00
  43   6     0.00   0.00   0.00    -0.00  -0.00  -0.00    -0.00   0.00  -0.00
  44   6     0.00  -0.00  -0.00     0.00  -0.00   0.00    -0.00  -0.00   0.00
  45   6     0.05   0.01   0.00     0.00   0.00   0.00    -0.00  -0.00  -0.00
  46   6    -0.01  -0.10  -0.01    -0.00  -0.00  -0.00     0.00   0.00   0.00
  47   6     0.00  -0.00  -0.00     0.00   0.00   0.00     0.00  -0.00  -0.00
  48   7    -0.00   0.00   0.00    -0.00   0.00   0.00     0.00  -0.00  -0.00
  49   6     0.00  -0.00  -0.00     0.00  -0.00  -0.00    -0.00   0.00   0.00
  50   6    -0.00  -0.00  -0.00    -0.01  -0.00   0.00     0.00   0.00  -0.00
  51   6     0.00  -0.00  -0.00     0.02  -0.18  -0.02    -0.00   0.03   0.00
  52   6    -0.00   0.00   0.00     0.18   0.00  -0.04    -0.03  -0.00   0.01
  53   6    -0.00  -0.00   0.00     0.00   0.01   0.00    -0.00  -0.00  -0.00
  54   7     0.00   0.00  -0.00    -0.00   0.00   0.00     0.00  -0.00  -0.00
  55   6    -0.00  -0.00   0.00     0.00  -0.00  -0.00    -0.00   0.00   0.00
  56   6    -0.00   0.00   0.00    -0.00   0.00   0.00     0.00  -0.00  -0.00
  57   6    -0.00  -0.00   0.00    -0.09  -0.02   0.02     0.00   0.00  -0.00
  58   6     0.00   0.00   0.00    -0.00  -0.09  -0.03     0.00   0.00   0.00
  59   6    -0.00   0.00   0.00     0.00  -0.00  -0.00    -0.00   0.00   0.00
  60   7     0.00  -0.00  -0.00     0.00   0.00   0.00    -0.00  -0.00  -0.00
  61   6     0.00   0.00   0.00    -0.00  -0.00  -0.00     0.00   0.00   0.00
  62   6     0.00   0.00   0.00    -0.00   0.00   0.00     0.00   0.00   0.00
  63   7    -0.00  -0.00  -0.00     0.00   0.00   0.00    -0.00   0.00  -0.00
  64   1     0.05  -0.38  -0.16    -0.00   0.00   0.00     0.00  -0.00  -0.00
  65   1    -0.24   0.02   0.02    -0.01   0.00   0.00    -0.00   0.00   0.00
  66   1    -0.20  -0.03  -0.01    -0.01  -0.00  -0.00     0.00   0.00   0.00
  67   1     0.02   0.36   0.04     0.00   0.00   0.00    -0.00  -0.00  -0.00
  68   1    -0.00   0.01   0.00     0.00   0.01   0.00    -0.00  -0.00  -0.00
  69   1    -0.00   0.00   0.00    -0.10   0.58   0.06     0.01  -0.08  -0.01
  70   1     0.02  -0.00  -0.00    -0.57   0.02   0.14     0.08  -0.00  -0.02
  71   1     0.00   0.00  -0.00    -0.01  -0.00   0.00     0.00   0.00  -0.00
  72   1     0.02   0.00  -0.00     0.29   0.06  -0.07    -0.01  -0.00   0.00
  73   1    -0.00  -0.01  -0.00     0.03   0.29   0.09    -0.00  -0.01  -0.00
  74   1    -0.00  -0.01  -0.00    -0.00   0.01   0.00     0.00  -0.00  -0.00
                    211                    212                    213
                        a                      a                      a 
 Frequencies --  3163.7006              3163.8921              3169.1832
 Red. masses --     1.9799                 1.9801                 1.9704
 Frc consts  --     0.0000                 0.0000                 0.0000
 IR Inten    --   129.1617                19.6660               755.5756
 Raman Activ --     0.0000                 0.0000                 0.0000
 Depolar     --     0.0000                 0.0000                 0.0000
 Atom AN      X      Y      Z        X      Y      Z        X      Y      Z
   1  27    -0.00   0.00  -0.00    -0.00   0.00  -0.00     0.00   0.00  -0.00
   2   6    -0.00   0.00  -0.00    -0.00  -0.00   0.00     0.00  -0.02   0.00
   3   6    -0.00   0.00  -0.00     0.01  -0.00   0.00     0.02  -0.00   0.00
   4   6     0.00  -0.00   0.00     0.00   0.00  -0.00     0.00   0.00  -0.00
   5   6     0.00   0.00  -0.00     0.00  -0.00   0.00    -0.00  -0.00   0.00
   6   6     0.00  -0.00   0.00     0.00  -0.00   0.00    -0.00   0.01  -0.00
   7   6     0.00   0.00  -0.00     0.01   0.00  -0.00    -0.15  -0.01   0.01
   8   6    -0.00  -0.00   0.00    -0.00   0.00  -0.00    -0.01  -0.10   0.02
   9   6    -0.00   0.00  -0.00    -0.00  -0.00   0.00     0.00  -0.00  -0.00
  10   7    -0.00   0.00  -0.00    -0.00   0.00  -0.00     0.00   0.00  -0.00
  11   6     0.00  -0.00   0.00     0.00  -0.00   0.00    -0.00  -0.00   0.00
  12   6    -0.00  -0.00   0.00    -0.01  -0.00   0.00    -0.00  -0.00  -0.00
  13   6     0.00  -0.09   0.01     0.01  -0.14   0.02     0.00  -0.00   0.00
  14   6     0.09  -0.01   0.00     0.15  -0.01   0.01     0.00  -0.00   0.00
  15   6     0.00   0.00  -0.00     0.00   0.01  -0.00     0.00   0.00  -0.00
  16   7    -0.00   0.00  -0.00    -0.00   0.00  -0.00     0.00   0.00  -0.00
  17   6     0.00  -0.00   0.00     0.01  -0.00   0.00     0.00  -0.00   0.00
  18   6     0.00  -0.00   0.00     0.00  -0.00   0.00     0.00  -0.00   0.00
  19   6     0.05   0.00   0.00     0.11   0.01   0.01     0.00   0.00   0.00
  20   6     0.00   0.05  -0.01     0.01   0.10  -0.02     0.00   0.00  -0.00
  21   6    -0.00   0.00  -0.00    -0.00   0.00  -0.00    -0.00   0.00  -0.00
  22   7    -0.00  -0.00   0.00    -0.00  -0.00   0.00    -0.00  -0.00   0.00
  23   6     0.00   0.00  -0.00     0.00   0.00  -0.00     0.00  -0.00   0.00
  24   6     0.00  -0.00   0.00    -0.00   0.00  -0.00    -0.00  -0.00  -0.00
  25   7    -0.00  -0.00  -0.00    -0.00  -0.00   0.00    -0.00   0.00  -0.00
  26   1     0.00  -0.00   0.00     0.00   0.00  -0.00    -0.00   0.05  -0.01
  27   1     0.00  -0.00   0.00    -0.04   0.00  -0.00    -0.08   0.01  -0.01
  28   1    -0.00  -0.00   0.00    -0.04  -0.00   0.00     0.48   0.04  -0.03
  29   1     0.00   0.00  -0.00    -0.00  -0.01   0.00     0.04   0.31  -0.07
  30   1     0.00   0.01  -0.00     0.00   0.01  -0.00    -0.00   0.01  -0.00
  31   1    -0.02   0.27  -0.04    -0.04   0.46  -0.07    -0.00   0.02  -0.00
  32   1    -0.28   0.03  -0.01    -0.47   0.05  -0.02    -0.01   0.00  -0.00
  33   1    -0.01  -0.00  -0.00    -0.02  -0.00  -0.00    -0.00   0.00  -0.00
  34   1    -0.17  -0.02  -0.01    -0.35  -0.04  -0.02    -0.02  -0.00  -0.00
  35   1    -0.02  -0.16   0.03    -0.04  -0.33   0.07    -0.00  -0.01   0.00
  36   1     0.00  -0.00   0.00     0.00  -0.01   0.00     0.00   0.00  -0.00
  37   6     0.00   0.00   0.00    -0.00  -0.00  -0.00     0.00   0.00   0.00
  38   6    -0.00  -0.00  -0.00     0.00   0.00   0.00    -0.00   0.00  -0.00
  39  27    -0.00  -0.00   0.00     0.00   0.00  -0.00    -0.00   0.00   0.00
  40   6    -0.00  -0.00  -0.00    -0.00   0.00   0.00     0.01  -0.12  -0.05
  41   6     0.01  -0.00  -0.00    -0.01   0.00   0.00     0.19  -0.01  -0.01
  42   6     0.00   0.00   0.00    -0.00  -0.00  -0.00     0.00   0.01   0.00
  43   6     0.00   0.00   0.00    -0.00  -0.00   0.00     0.00  -0.00  -0.00
  44   6     0.00  -0.00  -0.00    -0.00   0.00   0.00    -0.00   0.00   0.00
  45   6     0.01   0.00   0.00    -0.01  -0.00  -0.00    -0.02  -0.00  -0.00
  46   6    -0.00   0.00   0.00     0.00  -0.00  -0.00    -0.00  -0.02  -0.00
  47   6    -0.00  -0.00  -0.00     0.00   0.00  -0.00     0.00  -0.00  -0.00
  48   7    -0.00   0.00   0.00     0.00  -0.00  -0.00     0.00   0.00   0.00
  49   6     0.00  -0.00  -0.00    -0.00   0.00   0.00    -0.00  -0.00  -0.00
  50   6    -0.00  -0.00   0.00     0.00   0.00  -0.00     0.00   0.00  -0.00
  51   6     0.01  -0.07  -0.01    -0.01   0.06   0.01    -0.00   0.00   0.00
  52   6     0.07   0.00  -0.02    -0.06  -0.00   0.02    -0.01  -0.00   0.00
  53   6     0.00   0.00   0.00    -0.00  -0.00  -0.00    -0.00  -0.00   0.00
  54   7    -0.00   0.00   0.00     0.00  -0.00  -0.00     0.00  -0.00  -0.00
  55   6     0.00   0.00  -0.00    -0.00  -0.00   0.00    -0.00  -0.00   0.00
  56   6     0.00  -0.01  -0.00    -0.00   0.00   0.00    -0.00   0.00   0.00
  57   6     0.16   0.03  -0.04    -0.08  -0.01   0.02    -0.00  -0.00   0.00
  58   6     0.01   0.16   0.05    -0.00  -0.08  -0.03    -0.00  -0.01  -0.00
  59   6    -0.01   0.00   0.00     0.00  -0.00  -0.00     0.00   0.00  -0.00
  60   7    -0.00  -0.00  -0.00     0.00   0.00   0.00     0.00   0.00   0.00
  61   6     0.00   0.00   0.00    -0.00  -0.00  -0.00     0.00  -0.00  -0.00
  62   6    -0.00  -0.00  -0.00     0.00  -0.00  -0.00    -0.01  -0.00   0.00
  63   7    -0.00  -0.00  -0.00     0.00   0.00   0.00    -0.00   0.00   0.00
  64   1    -0.00   0.00   0.00     0.00  -0.01  -0.00    -0.05   0.39   0.16
  65   1    -0.03   0.00   0.00     0.04  -0.00  -0.00    -0.62   0.04   0.05
  66   1    -0.03  -0.00  -0.00     0.04   0.01   0.00     0.08   0.01   0.00
  67   1    -0.00  -0.00  -0.00     0.00   0.00   0.00     0.00   0.05   0.01
  68   1    -0.00   0.01   0.00     0.00  -0.01  -0.00    -0.00   0.00   0.00
  69   1    -0.04   0.23   0.02     0.03  -0.19  -0.02     0.00  -0.01  -0.00
  70   1    -0.24   0.01   0.06     0.19  -0.01  -0.05     0.02  -0.00  -0.00
  71   1    -0.02  -0.00   0.00     0.01   0.00  -0.00     0.00   0.00  -0.00
  72   1    -0.52  -0.11   0.13     0.25   0.05  -0.06     0.02   0.00  -0.00
  73   1    -0.05  -0.50  -0.16     0.02   0.24   0.08     0.00   0.02   0.01
  74   1     0.00  -0.01  -0.00    -0.00   0.01   0.00     0.00   0.01   0.00
                    214                    215                    216
                        a                      a                      a 
 Frequencies --  3169.9145              3170.7597              3171.3163
 Red. masses --     1.9654                 1.9647                 1.9636
 Frc consts  --     0.0000                 0.0000                 0.0000
 IR Inten    --   345.2374             13792.0246              5379.7577
 Raman Activ --     0.0000                 0.0000                 0.0000
 Depolar     --     0.0000                 0.0000                 0.0000
 Atom AN      X      Y      Z        X      Y      Z        X      Y      Z
   1  27     0.00  -0.00   0.00     0.00   0.00  -0.00    -0.00   0.00  -0.00
   2   6    -0.00   0.09  -0.03    -0.00   0.04  -0.01     0.00  -0.11   0.03
   3   6    -0.15   0.01  -0.01    -0.07   0.01  -0.01     0.19  -0.01   0.01
   4   6    -0.00  -0.00   0.00    -0.00  -0.00   0.00     0.00   0.01  -0.00
   5   6    -0.00   0.00  -0.00    -0.00  -0.00   0.00     0.00  -0.00   0.00
   6   6    -0.00   0.00  -0.00    -0.00   0.01  -0.00    -0.00   0.00  -0.00
   7   6    -0.01  -0.00   0.00    -0.19  -0.01   0.01    -0.06  -0.00   0.00
   8   6    -0.00  -0.01   0.00    -0.01  -0.11   0.03    -0.00  -0.03   0.01
   9   6     0.00  -0.00   0.00     0.00  -0.00  -0.00     0.00  -0.00   0.00
  10   7     0.00   0.00   0.00     0.00   0.00  -0.00     0.00   0.00  -0.00
  11   6    -0.00  -0.00   0.00    -0.00  -0.00   0.00    -0.00  -0.00   0.00
  12   6    -0.00  -0.00   0.00    -0.00   0.00  -0.00     0.00   0.00  -0.00
  13   6     0.00  -0.00   0.00     0.00  -0.00   0.00    -0.00   0.00  -0.00
  14   6     0.01  -0.00   0.00     0.00  -0.00   0.00    -0.00   0.00  -0.00
  15   6     0.00   0.00  -0.00     0.00   0.00  -0.00    -0.00  -0.00   0.00
  16   7    -0.00   0.00  -0.00    -0.00   0.00  -0.00     0.00  -0.00   0.00
  17   6     0.00   0.00   0.00     0.00  -0.00   0.00    -0.00  -0.00  -0.00
  18   6     0.00  -0.00   0.00     0.00  -0.00   0.00     0.00   0.00  -0.00
  19   6     0.01   0.00   0.00     0.00   0.00   0.00    -0.00  -0.00  -0.00
  20   6     0.00   0.01  -0.00     0.00   0.00  -0.00    -0.00  -0.00   0.00
  21   6    -0.00   0.00  -0.00    -0.00  -0.00  -0.00     0.00   0.00   0.00
  22   7    -0.00  -0.00   0.00    -0.00  -0.00   0.00     0.00   0.00  -0.00
  23   6    -0.00   0.00  -0.00    -0.00   0.00  -0.00     0.00  -0.00   0.00
  24   6     0.00   0.00   0.00     0.00   0.00   0.00    -0.00  -0.00  -0.00
  25   7     0.00  -0.00   0.00     0.00  -0.00   0.00    -0.00   0.00  -0.00
  26   1     0.02  -0.29   0.09     0.01  -0.12   0.04    -0.03   0.33  -0.10
  27   1     0.48  -0.05   0.04     0.22  -0.02   0.02    -0.62   0.07  -0.05
  28   1     0.04   0.00  -0.00     0.63   0.05  -0.05     0.19   0.01  -0.01
  29   1     0.00   0.03  -0.01     0.04   0.35  -0.08     0.01   0.10  -0.02
  30   1     0.00   0.00  -0.00    -0.00   0.01  -0.00    -0.00   0.00  -0.00
  31   1    -0.00   0.02  -0.00    -0.00   0.01  -0.00     0.00  -0.00   0.00
  32   1    -0.02   0.00  -0.00    -0.01   0.00  -0.00     0.00  -0.00   0.00
  33   1    -0.00  -0.00  -0.00    -0.00   0.00  -0.00     0.00   0.00   0.00
  34   1    -0.02  -0.00  -0.00    -0.01  -0.00  -0.00     0.01   0.00   0.00
  35   1    -0.00  -0.02   0.00    -0.00  -0.01   0.00     0.00   0.01  -0.00
  36   1    -0.00  -0.01   0.00    -0.00  -0.00   0.00     0.00   0.01  -0.00
  37   6     0.00  -0.00  -0.00     0.00  -0.00  -0.00    -0.00  -0.00  -0.00
  38   6    -0.00  -0.00   0.00     0.00   0.00  -0.00    -0.00   0.00  -0.00
  39  27    -0.00  -0.00  -0.00     0.00  -0.00  -0.00    -0.00  -0.00  -0.00
  40   6     0.00  -0.02  -0.01    -0.01   0.08   0.03    -0.00   0.03   0.01
  41   6     0.03  -0.00  -0.00    -0.14   0.01   0.01    -0.05   0.00   0.00
  42   6     0.00   0.00   0.00    -0.00  -0.00  -0.00    -0.00  -0.00  -0.00
  43   6     0.00   0.00   0.00    -0.00   0.00   0.00     0.00   0.00   0.00
  44   6     0.00  -0.01  -0.00    -0.00   0.00   0.00     0.00  -0.00  -0.00
  45   6     0.19   0.02   0.01    -0.04  -0.00  -0.00     0.15   0.02   0.01
  46   6     0.00   0.13   0.01    -0.00  -0.02  -0.00     0.00   0.09   0.01
  47   6    -0.01   0.00   0.00     0.00   0.00   0.00    -0.00   0.00   0.00
  48   7    -0.00  -0.00  -0.00     0.00   0.00   0.00    -0.00  -0.00  -0.00
  49   6     0.00   0.00   0.00    -0.00  -0.00  -0.00     0.00   0.00   0.00
  50   6     0.00   0.00  -0.00    -0.00   0.00   0.00     0.00  -0.00  -0.00
  51   6    -0.00   0.01   0.00     0.00  -0.00  -0.00    -0.00   0.00   0.00
  52   6    -0.01  -0.00   0.00     0.00   0.00  -0.00    -0.00  -0.00   0.00
  53   6    -0.00  -0.00   0.00    -0.00   0.00  -0.00     0.00  -0.00   0.00
  54   7     0.00  -0.00  -0.00    -0.00   0.00   0.00     0.00  -0.00  -0.00
  55   6    -0.00  -0.00   0.00     0.00   0.00  -0.00    -0.00  -0.00   0.00
  56   6    -0.00   0.00   0.00    -0.00  -0.00  -0.00    -0.00   0.00   0.00
  57   6    -0.01  -0.00   0.00     0.00   0.00  -0.00    -0.00  -0.00   0.00
  58   6    -0.00  -0.01  -0.00     0.00   0.00   0.00    -0.00  -0.00  -0.00
  59   6     0.00  -0.00  -0.00    -0.00  -0.00   0.00     0.00  -0.00  -0.00
  60   7     0.00   0.00   0.00    -0.00  -0.00  -0.00     0.00   0.00  -0.00
  61   6     0.00  -0.00  -0.00    -0.00   0.00   0.00    -0.00   0.00   0.00
  62   6    -0.00  -0.00   0.00     0.00   0.00  -0.00     0.00   0.00   0.00
  63   7    -0.00   0.00   0.00     0.00  -0.00  -0.00     0.00  -0.00  -0.00
  64   1    -0.01   0.06   0.03     0.03  -0.25  -0.10     0.01  -0.09  -0.04
  65   1    -0.10   0.01   0.01     0.47  -0.03  -0.04     0.17  -0.01  -0.01
  66   1    -0.63  -0.09  -0.03     0.13   0.02   0.01    -0.49  -0.07  -0.03
  67   1    -0.02  -0.39  -0.05     0.00   0.07   0.01    -0.02  -0.26  -0.03
  68   1     0.00  -0.01  -0.00    -0.00   0.00   0.00     0.00  -0.00  -0.00
  69   1     0.00  -0.02  -0.00    -0.00   0.00   0.00     0.00  -0.00  -0.00
  70   1     0.02  -0.00  -0.01    -0.01   0.00   0.00     0.00  -0.00  -0.00
  71   1     0.00   0.00  -0.00    -0.00  -0.00   0.00     0.00   0.00  -0.00
  72   1     0.03   0.01  -0.01    -0.01  -0.00   0.00     0.00   0.00  -0.00
  73   1     0.00   0.03   0.01    -0.00  -0.01  -0.00     0.00   0.00   0.00
  74   1    -0.00   0.00   0.00    -0.00  -0.00  -0.00    -0.00  -0.00  -0.00
