      -----------------------------------------------------------      
     |                   =====================                   |     
     |                           x T B                           |     
     |                   =====================                   |     
     |                         S. Grimme                         |     
     |          Mulliken Center for Theoretical Chemistry        |     
     |                    University of Bonn                     |     
      -----------------------------------------------------------      

   * xtb version 6.4.1 (bd6e46d) compiled by 'conda@4901f00b25ba' on 2021-06-10

   xtb is free software: you can redistribute it and/or modify it under
   the terms of the GNU Lesser General Public License as published by
   the Free Software Foundation, either version 3 of the License, or
   (at your option) any later version.
   
   xtb is distributed in the hope that it will be useful,
   but WITHOUT ANY WARRANTY; without even the implied warranty of
   MERCHANTABILITY or FITNESS FOR A PARTICULAR PURPOSE.  See the
   GNU Lesser General Public License for more details.
   
   Cite this work as:
   * C. Bannwarth, E. Caldeweyher, S. Ehlert, A. Hansen, P. Pracht,
     J. Seibert, S. Spicher, S. Grimme, WIREs Comput. Mol. Sci., 2020, 11,
     e01493. DOI: 10.1002/wcms.1493
   
   for GFN2-xTB:
   * C. Bannwarth, S. Ehlert and S. Grimme., J. Chem. Theory Comput., 2019,
     15, 1652-1671. DOI: 10.1021/acs.jctc.8b01176
   for GFN1-xTB:
   * S. Grimme, C. Bannwarth, P. Shushkov, J. Chem. Theory Comput., 2017,
     13, 1989-2009. DOI: 10.1021/acs.jctc.7b00118
   for GFN0-xTB:
   * P. Pracht, E. Caldeweyher, S. Ehlert, S. Grimme, ChemRxiv, 2019, preprint.
     DOI: 10.26434/chemrxiv.8326202.v1
   for GFN-FF:
   * S. Spicher and S. Grimme, Angew. Chem. Int. Ed., 2020, 59, 15665-15673.
     DOI: 10.1002/anie.202004239
   
   for DFT-D4:
   * E. Caldeweyher, C. Bannwarth and S. Grimme, J. Chem. Phys., 2017,
     147, 034112. DOI: 10.1063/1.4993215
   * E. Caldeweyher, S. Ehlert, A. Hansen, H. Neugebauer, S. Spicher,
     C. Bannwarth and S. Grimme, J. Chem. Phys., 2019, 150, 154122.
     DOI: 10.1063/1.5090222
   * E. Caldeweyher, J.-M. Mewes, S. Ehlert and S. Grimme, Phys. Chem. Chem. Phys.
     2020, 22, 8499-8512. DOI: 10.1039/D0CP00502A
   
   for sTDA-xTB:
   * S. Grimme and C. Bannwarth, J. Chem. Phys., 2016, 145, 054103.
     DOI: 10.1063/1.4959605
   
   in the mass-spec context:
   * V. Asgeirsson, C. Bauer and S. Grimme, Chem. Sci., 2017, 8, 4879.
     DOI: 10.1039/c7sc00601b
   * J. Koopman and S. Grimme, ACS Omega 2019, 4, 12, 15120-15133.
     DOI: 10.1021/acsomega.9b02011
   
   for metadynamics refer to:
   * S. Grimme, J. Chem. Theory Comput., 2019, 155, 2847-2862
     DOI: 10.1021/acs.jctc.9b00143
   
   for SPH calculations refer to:
   * S. Spicher and S. Grimme, J. Chem. Theory Comput., 2021, 17, 1701-1714
     DOI: 10.1021/acs.jctc.0c01306
   
   with help from (in alphabetical order)
   P. Atkinson, C. Bannwarth, F. Bohle, G. Brandenburg, E. Caldeweyher
   M. Checinski, S. Dohm, S. Ehlert, S. Ehrlich, I. Gerasimov, J. Koopman
   C. Lavigne, S. Lehtola, F. März, M. Müller, F. Musil, H. Neugebauer
   J. Pisarek, C. Plett, P. Pracht, J. Seibert, P. Shushkov, S. Spicher
   M. Stahn, M. Steiner, T. Strunk, J. Stückrath, T. Rose, and J. Unsleber
   
 * started run on 2021/11/19 at 10:37:42.329     

           -------------------------------------------------
          |                Calculation Setup                |
           -------------------------------------------------

          program call               : /home/jeff/miniconda3/bin/xtb input_structure_1.xyz --gfn 2 --ohess normal --parallel 1 --etemp 300 --chrg 0 --uhf 0 -I det_control.in
          hostname                   : jelfscompute1
          coordinate file            : input_structure_1.xyz
          omp threads                :                     1
          number of atoms            :                    74
          number of electrons        :                   248
          charge                     :                     0
          spin                       :                   0.0
          first test random number   :      0.78592609702422

   ID    Z sym.   atoms
    1   27 Co     1, 39
    2    6 C      2-9, 11-15, 17-21, 23, 24, 37, 38, 40-47, 49-53, 55-59, 61,
                  62
    3    7 N      10, 16, 22, 25, 48, 54, 60, 63
    4    1 H      26-36, 64-74

           -------------------------------------------------
          |                 G F N 2 - x T B                 |
           -------------------------------------------------

        Reference                      10.1021/acs.jctc.8b01176
      * Hamiltonian:
        H0-scaling (s, p, d)           1.850000    2.230000    2.230000
        zeta-weighting                 0.500000
      * Dispersion:
        s8                             2.700000
        a1                             0.520000
        a2                             5.000000
        s9                             5.000000
      * Repulsion:
        kExp                           1.500000    1.000000
        rExp                           1.000000
      * Coulomb:
        alpha                          2.000000
        third order                    shell-resolved
        anisotropic                    true
        a3                             3.000000
        a5                             4.000000
        cn-shift                       1.200000
        cn-exp                         4.000000
        max-rad                        5.000000


          ...................................................
          :                      SETUP                      :
          :.................................................:
          :  # basis functions                 242          :
          :  # atomic orbitals                 240          :
          :  # shells                          128          :
          :  # electrons                       248          :
          :  max. iterations                   250          :
          :  Hamiltonian                  GFN2-xTB          :
          :  restarted?                      false          :
          :  GBSA solvation                  false          :
          :  PC potential                    false          :
          :  electronic temp.          300.0000000     K    :
          :  accuracy                    1.0000000          :
          :  -> integral cutoff          0.2500000E+02      :
          :  -> integral neglect         0.1000000E-07      :
          :  -> SCF convergence          0.1000000E-05 Eh   :
          :  -> wf. convergence          0.1000000E-03 e    :
          :  Broyden damping             0.4000000          :
          ...................................................

 iter      E             dE          RMSdq      gap      omega  full diag
   1   -132.6349812 -0.132635E+03  0.804E+00    0.28       0.0  T
   2   -120.9497829  0.116852E+02  0.992E+00    0.01       1.0  T
   3   -117.8391228  0.311066E+01  0.103E+01    0.09       1.0  T
   4   -131.6332985 -0.137942E+02  0.647E+00    0.09       1.0  T
   5   -132.5817467 -0.948448E+00  0.403E+00    0.06       1.0  T
   6   -133.3033034 -0.721557E+00  0.331E+00    0.13       1.0  T
   7   -133.4168494 -0.113546E+00  0.264E+00    0.04       1.0  T
   8   -133.5702353 -0.153386E+00  0.227E+00    0.03       1.0  T
   9   -133.8274780 -0.257243E+00  0.194E+00    0.09       1.0  T
  10   -133.7403189  0.871591E-01  0.195E+00    0.03       1.0  T
  11   -133.4343035  0.306015E+00  0.211E+00    0.04       1.0  T
  12   -133.6279464 -0.193643E+00  0.203E+00    0.02       1.0  T
  13   -133.7187957 -0.908493E-01  0.153E+00    0.02       1.0  T
  14   -133.4958054  0.222990E+00  0.207E+00    0.04       1.0  T
  15   -133.6371934 -0.141388E+00  0.174E+00    0.04       1.0  T
  16   -133.8685947 -0.231401E+00  0.107E+00    0.04       1.0  T
  17   -133.9236113 -0.550165E-01  0.867E-01    0.03       1.0  T
  18   -133.5783944  0.345217E+00  0.192E+00    0.04       1.0  T
  19   -133.6448709 -0.664765E-01  0.180E+00    0.04       1.0  T
  20   -133.7780206 -0.133150E+00  0.145E+00    0.04       1.0  T
  21   -133.7701973  0.782331E-02  0.147E+00    0.04       1.0  T
  22   -133.9208091 -0.150612E+00  0.892E-01    0.03       1.0  T
  23   -133.9983121 -0.775030E-01  0.314E-01    0.01       1.0  T
  24   -133.9897189  0.859318E-02  0.415E-01    0.01       1.0  T
  25   -133.9975008 -0.778193E-02  0.320E-01    0.01       1.0  T
  26   -134.0049849 -0.748403E-02  0.188E-01    0.01       1.0  T
  27   -134.0043970  0.587924E-03  0.218E-01    0.02       1.0  T
  28   -134.0045454 -0.148469E-03  0.213E-01    0.02       1.0  T
  29   -134.0050483 -0.502861E-03  0.196E-01    0.02       1.0  T
  30   -134.0089144 -0.386612E-02  0.467E-02    0.02       1.0  T
  31   -134.0091461 -0.231663E-03  0.126E-02    0.01       1.0  T
  32   -134.0091528 -0.675168E-05  0.487E-03    0.01       2.4  T
  33   -134.0091529 -0.568431E-07  0.347E-03    0.01       3.3  T
  34   -134.0091531 -0.249454E-06  0.352E-03    0.01       3.3  T
  35   -134.0091515  0.160585E-05  0.499E-03    0.01       2.3  T
  36   -134.0091525 -0.100719E-05  0.384E-03    0.01       3.0  T
  37   -134.0091531 -0.585317E-06  0.297E-03    0.01       3.9  T
  38   -134.0091539 -0.842670E-06  0.947E-04    0.01      12.3  T
  39   -134.0091540 -0.810259E-07  0.372E-04    0.01      31.3  T

   *** convergence criteria satisfied after 39 iterations ***

         #    Occupation            Energy/Eh            Energy/eV
      -------------------------------------------------------------
         1        2.0000           -0.6967711             -18.9601
       ...           ...                  ...                  ...
       118        1.9782           -0.3384958              -9.2109
       119        1.9637           -0.3380067              -9.1976
       120        1.9177           -0.3372055              -9.1758
       121        1.8896           -0.3369121              -9.1678
       122        1.8088           -0.3363490              -9.1525
       123        1.6704           -0.3357562              -9.1364
       124        1.5079           -0.3352782              -9.1234 (HOMO)
       125        1.2786           -0.3347581              -9.1092 (LUMO)
       126        0.0000           -0.3233286              -8.7982
       127                         -0.3025178              -8.2319
       128                         -0.2999461              -8.1620
       129                         -0.2992482              -8.1430
       ...                                ...                  ...
       240                          4.2350796             115.2424
      -------------------------------------------------------------
                  HL-Gap            0.0005201 Eh            0.0142 eV
             Fermi-level           -0.3342143 Eh           -9.0944 eV

 SCC (total)                   0 d,  0 h,  0 min,  0.533 sec
 SCC setup                      ...        0 min,  0.001 sec (  0.194%)
 Dispersion                     ...        0 min,  0.002 sec (  0.403%)
 classical contributions        ...        0 min,  0.000 sec (  0.074%)
 integral evaluation            ...        0 min,  0.025 sec (  4.663%)
 iterations                     ...        0 min,  0.426 sec ( 79.869%)
 molecular gradient             ...        0 min,  0.078 sec ( 14.615%)
 printout                       ...        0 min,  0.001 sec (  0.178%)

         :::::::::::::::::::::::::::::::::::::::::::::::::::::
         ::                     SUMMARY                     ::
         :::::::::::::::::::::::::::::::::::::::::::::::::::::
         :: total energy            -130.984758879158 Eh    ::
         :: gradient norm              2.268593326928 Eh/a0 ::
         :: HOMO-LUMO gap              0.014152459048 eV    ::
         ::.................................................::
         :: SCC energy              -134.009154028443 Eh    ::
         :: -> isotropic ES            0.048630450339 Eh    ::
         :: -> anisotropic ES          0.017628433675 Eh    ::
         :: -> anisotropic XC          0.074819911915 Eh    ::
         :: -> dispersion             -0.117291424486 Eh    ::
         :: repulsion energy           3.024346171786 Eh    ::
         :: add. restraining           0.000000000000 Eh    ::
         :: total charge               0.000000000020 e     ::
         :::::::::::::::::::::::::::::::::::::::::::::::::::::

      ----------------------------------------------------------- 
     |                   =====================                   |
     |                        A N C O P T                        |
     |                   =====================                   |
     |               Approximate Normal Coordinate               |
     |                Rational Function Optimizer                |
      ----------------------------------------------------------- 

          ...................................................
          :                      SETUP                      :
          :.................................................:
          :   optimization level            normal          :
          :   max. optcycles                   222          :
          :   ANC micro-cycles                  20          :
          :   degrees of freedom               216          :
          :.................................................:
          :   RF solver                   davidson          :
          :   write xtbopt.log                true          :
          :   linear?                        false          :
          :   energy convergence         0.5000000E-05 Eh   :
          :   grad. convergence          0.1000000E-02 Eh/α :
          :   maximium RF displ.         1.0000000          :
          :   Hlow (freq-cutoff)         0.1000000E-01      :
          :   Hmax (freq-cutoff)         5.0000000          :
          :   S6 in model hess.         20.0000000          :
          ...................................................

generating ANC from model Hessian ...
Using Lindh-Hessian (1995)
 Shifting diagonal of input Hessian by    1.0007019626338471E-002
 Lowest  eigenvalues of input Hessian
    0.010000    0.000000    0.000000    0.000000    0.000000    0.000000
    0.000000    0.010132    0.010269    0.010799    0.011142    0.011514
    0.011745    0.011948    0.012578    0.013098    0.014195    0.014484
 Highest eigenvalues
    2.226785    2.661895    3.220586    3.589358    4.083715    4.498012


........................................................................
.............................. CYCLE    1 ..............................
........................................................................
   1   -134.0091540 -0.134009E+03  0.673E-04    0.01       0.0  T
   2   -134.0088231  0.330923E-03  0.551E-02    0.02       1.0  T
   3   -134.0091539 -0.330832E-03  0.112E-03    0.01      10.3  T
   4   -134.0091540 -0.103013E-06  0.612E-04    0.01      19.0  T
   5   -134.0091540 -0.349092E-07  0.868E-05    0.01     133.9  T
     SCC iter.                  ...        0 min,  0.050 sec
     gradient                   ...        0 min,  0.078 sec
 * total energy  :  -130.9847589 Eh     change       -0.1315564E-07 Eh
   gradient norm :     2.2685931 Eh/α   predicted     0.0000000E+00 (-100.00%)
   displ. norm   :     0.5437783 α      lambda       -0.1098538E+01
   maximum displ.:     0.3803698 α      in ANC's #216, #166, #121, ...

........................................................................
.............................. CYCLE    2 ..............................
........................................................................
   1   -134.0426639 -0.134043E+03  0.714E-01    0.01       0.0  T
   2   -133.5515247  0.491139E+00  0.224E+00    0.05       1.0  T
   3   -133.7747922 -0.223268E+00  0.169E+00    0.03       1.0  T
   4   -133.7136157  0.611765E-01  0.183E+00    0.04       1.0  T
   5   -133.7918498 -0.782341E-01  0.161E+00    0.03       1.0  T
   6   -133.8860570 -0.942072E-01  0.126E+00    0.03       1.0  T
   7   -133.9591519 -0.730949E-01  0.987E-01    0.04       1.0  T
   8   -134.0552545 -0.961026E-01  0.267E-01    0.01       1.0  T
   9   -134.0528972  0.235727E-02  0.308E-01    0.02       1.0  T
  10   -134.0350646  0.178326E-01  0.501E-01    0.02       1.0  T
  11   -134.0602891 -0.252245E-01  0.759E-02    0.01       1.0  T
  12   -134.0341165  0.261727E-01  0.497E-01    0.02       1.0  T
  13   -134.0449992 -0.108827E-01  0.382E-01    0.01       1.0  T
  14   -134.0585177 -0.135185E-01  0.140E-01    0.00       1.0  T
  15   -134.0602420 -0.172432E-02  0.523E-02    0.01       1.0  T
  16   -134.0601482  0.938583E-04  0.601E-02    0.01       1.0  T
  17   -134.0602318 -0.836442E-04  0.540E-02    0.01       1.0  T
  18   -134.0605322 -0.300380E-03  0.121E-02    0.01       1.0  T
  19   -134.0605426 -0.103856E-04  0.661E-03    0.01       1.8  T
  20   -134.0605467 -0.416070E-05  0.185E-03    0.01       6.3  T
  21   -134.0605471 -0.322416E-06  0.555E-04    0.01      20.9  T
  22   -134.0605470  0.317102E-07  0.775E-04    0.01      15.0  T
     SCC iter.                  ...        0 min,  0.219 sec
     gradient                   ...        0 min,  0.078 sec
 * total energy  :  -131.5252052 Eh     change       -0.5404463E+00 Eh
   gradient norm :     0.5633137 Eh/α   predicted    -0.7116873E+00 (  31.69%)
   displ. norm   :     0.6201580 α      lambda       -0.2843184E+00
   maximum displ.:     0.1807709 α      in ANC's #121, #166, #80, ...

........................................................................
.............................. CYCLE    3 ..............................
........................................................................
   1   -133.9513606 -0.133951E+03  0.864E-01    0.02       0.0  T
   2   -122.6244507  0.113269E+02  0.951E+00    0.23       1.0  T
   3   -133.6364560 -0.110120E+02  0.203E+00    0.03       1.0  T
   4   -133.8786403 -0.242184E+00  0.110E+00    0.02       1.0  T
   5   -133.6432143  0.235426E+00  0.189E+00    0.05       1.0  T
   6   -133.7324144 -0.892000E-01  0.158E+00    0.04       1.0  T
   7   -133.7259703  0.644408E-02  0.159E+00    0.02       1.0  T
   8   -133.7892258 -0.632556E-01  0.140E+00    0.02       1.0  T
   9   -134.0020712 -0.212845E+00  0.133E-01    0.00       1.0  T
  10   -133.9952545  0.681673E-02  0.299E-01    0.01       1.0  T
  11   -133.9956962 -0.441730E-03  0.286E-01    0.01       1.0  T
  12   -134.0002840 -0.458777E-02  0.144E-01    0.01       1.0  T
  13   -134.0014796 -0.119565E-02  0.103E-01    0.01       1.0  T
  14   -134.0021495 -0.669831E-03  0.922E-02    0.00       1.0  T
  15   -134.0017478  0.401703E-03  0.853E-02    0.01       1.0  T
  16   -134.0020873 -0.339521E-03  0.704E-02    0.01       1.0  T
  17   -134.0020782  0.909816E-05  0.682E-02    0.01       1.0  T
  18   -134.0022131 -0.134937E-03  0.519E-02    0.01       1.0  T
  19   -134.0023769 -0.163784E-03  0.149E-02    0.00       1.0  T
  20   -134.0022986  0.782778E-04  0.317E-02    0.00       1.0  T
  21   -134.0023561 -0.575277E-04  0.185E-02    0.00       1.0  T
  22   -134.0023843 -0.281658E-04  0.398E-03    0.00       2.9  T
  23   -134.0023807  0.365690E-05  0.696E-03    0.00       1.7  T
  24   -134.0023857 -0.505689E-05  0.151E-03    0.00       7.7  T
  25   -134.0023854  0.309961E-06  0.236E-03    0.00       4.9  T
  26   -134.0023859 -0.515573E-06  0.749E-04    0.00      15.5  T
  27   -134.0023860 -0.531898E-07  0.176E-04    0.00      66.0  T
     SCC iter.                  ...        0 min,  0.265 sec
     gradient                   ...        0 min,  0.078 sec
 * total energy  :  -131.6972006 Eh     change       -0.1719955E+00 Eh
   gradient norm :     0.3302111 Eh/α   predicted    -0.1968350E+00 (  14.44%)
   displ. norm   :     0.6305480 α      lambda       -0.1152043E+00
   maximum displ.:     0.1898832 α      in ANC's #73, #80, #71, ...

........................................................................
.............................. CYCLE    4 ..............................
........................................................................
   1   -133.9414474 -0.133941E+03  0.103E+00    0.02       0.0  T
   2   -121.6371400  0.123043E+02  0.968E+00    0.66       1.0  T
   3   -133.5757588 -0.119386E+02  0.228E+00    0.04       1.0  T
   4   -133.6893657 -0.113607E+00  0.183E+00    0.05       1.0  T
   5   -133.9136191 -0.224253E+00  0.108E+00    0.04       1.0  T
   6   -133.7488652  0.164754E+00  0.168E+00    0.02       1.0  T
   7   -133.7751428 -0.262776E-01  0.162E+00    0.02       1.0  T
   8   -133.9858373 -0.210695E+00  0.728E-01    0.04       1.0  T
   9   -134.0242529 -0.384156E-01  0.442E-01    0.02       1.0  T
  10   -134.0369653 -0.127124E-01  0.289E-01    0.02       1.0  T
  11   -134.0451536 -0.818832E-02  0.931E-02    0.01       1.0  T
  12   -134.0341101  0.110435E-01  0.338E-01    0.02       1.0  T
  13   -134.0318714  0.223872E-02  0.353E-01    0.01       1.0  T
  14   -134.0454720 -0.136006E-01  0.572E-02    0.00       1.0  T
  15   -134.0450857  0.386288E-03  0.800E-02    0.00       1.0  T
  16   -134.0449066  0.179166E-03  0.893E-02    0.00       1.0  T
  17   -134.0453512 -0.444650E-03  0.655E-02    0.00       1.0  T
  18   -134.0457708 -0.419585E-03  0.293E-02    0.00       1.0  T
  19   -134.0457632  0.758487E-05  0.308E-02    0.00       1.0  T
  20   -134.0457984 -0.351894E-04  0.261E-02    0.00       1.0  T
  21   -134.0458764 -0.780214E-04  0.575E-03    0.00       2.0  T
  22   -134.0458782 -0.178041E-05  0.438E-03    0.00       2.7  T
  23   -134.0458802 -0.200953E-05  0.139E-03    0.00       8.4  T
  24   -134.0458804 -0.189360E-06  0.635E-04    0.00      18.3  T
  25   -134.0458804 -0.274625E-07  0.442E-04    0.00      26.3  T
     SCC iter.                  ...        0 min,  0.249 sec
     gradient                   ...        0 min,  0.078 sec
 * total energy  :  -131.7894339 Eh     change       -0.9223331E-01 Eh
   gradient norm :     0.1901859 Eh/α   predicted    -0.8050426E-01 ( -12.72%)
   displ. norm   :     0.7253678 α      lambda       -0.7891265E-01
   maximum displ.:     0.2159266 α      in ANC's #51, #80, #73, ...

........................................................................
.............................. CYCLE    5 ..............................
........................................................................
   1   -134.0027231 -0.134003E+03  0.100E+00    0.02       0.0  T
   2   -121.7907662  0.122120E+02  0.957E+00    0.72       1.0  T
   3   -133.6936156 -0.119028E+02  0.208E+00    0.04       1.0  T
   4   -133.7767928 -0.831772E-01  0.172E+00    0.05       1.0  T
   5   -133.9954783 -0.218686E+00  0.965E-01    0.05       1.0  T
   6   -133.8197015  0.175777E+00  0.158E+00    0.02       1.0  T
   7   -133.8306738 -0.109722E-01  0.158E+00    0.02       1.0  T
   8   -133.9280272 -0.973534E-01  0.126E+00    0.02       1.0  T
   9   -133.8398339  0.881933E-01  0.152E+00    0.05       1.0  T
  10   -134.0742713 -0.234437E+00  0.449E-01    0.03       1.0  T
  11   -134.0876674 -0.133961E-01  0.287E-01    0.02       1.0  T
  12   -134.0903098 -0.264236E-02  0.241E-01    0.02       1.0  T
  13   -134.0946611 -0.435128E-02  0.132E-01    0.01       1.0  T
  14   -134.0959723 -0.131123E-02  0.643E-02    0.01       1.0  T
  15   -134.0962204 -0.248069E-03  0.224E-02    0.01       1.0  T
  16   -134.0962337 -0.133615E-04  0.186E-02    0.01       1.0  T
  17   -134.0962459 -0.121511E-04  0.217E-02    0.01       1.0  T
  18   -134.0962396  0.632736E-05  0.154E-02    0.01       1.0  T
  19   -134.0962623 -0.227130E-04  0.784E-03    0.01       1.5  T
  20   -134.0962613  0.957215E-06  0.967E-03    0.01       1.2  T
  21   -134.0962677 -0.635626E-05  0.351E-03    0.01       3.3  T
  22   -134.0962692 -0.155488E-05  0.491E-04    0.01      23.7  T
  23   -134.0962692  0.593465E-08  0.427E-04    0.01      27.2  T
  24   -134.0962691  0.770983E-07  0.101E-03    0.01      11.6  T
  25   -134.0962692 -0.100171E-06  0.648E-05    0.01     179.4  T
     SCC iter.                  ...        0 min,  0.245 sec
     gradient                   ...        0 min,  0.078 sec
 * total energy  :  -131.8518436 Eh     change       -0.6240961E-01 Eh
   gradient norm :     0.0923548 Eh/α   predicted    -0.6021662E-01 (  -3.51%)
   displ. norm   :     0.7407983 α      lambda       -0.4727796E-01
   maximum displ.:     0.2600438 α      in ANC's #34, #51, #50, ...

........................................................................
.............................. CYCLE    6 ..............................
........................................................................
   1   -134.0717011 -0.134072E+03  0.851E-01    0.03       0.0  T
   2   -122.6781329  0.113936E+02  0.925E+00    0.15       1.0  T
   3   -133.7684530 -0.110903E+02  0.195E+00    0.05       1.0  T
   4   -133.9222166 -0.153764E+00  0.141E+00    0.05       1.0  T
   5   -133.9432833 -0.210666E-01  0.135E+00    0.03       1.0  T
   6   -133.8547140  0.885693E-01  0.163E+00    0.04       1.0  T
   7   -133.9603085 -0.105595E+00  0.128E+00    0.03       1.0  T
   8   -134.1273786 -0.167070E+00  0.287E-01    0.01       1.0  T
   9   -134.1279444 -0.565744E-03  0.273E-01    0.01       1.0  T
  10   -134.1338330 -0.588868E-02  0.129E-01    0.00       1.0  T
  11   -134.1350320 -0.119901E-02  0.633E-02    0.01       1.0  T
  12   -134.1343660  0.666060E-03  0.102E-01    0.01       1.0  T
  13   -134.1342133  0.152684E-03  0.108E-01    0.01       1.0  T
  14   -134.1342360 -0.227104E-04  0.106E-01    0.01       1.0  T
  15   -134.1352989 -0.106292E-02  0.119E-02    0.01       1.0  T
  16   -134.1352297  0.691885E-04  0.302E-02    0.01       1.0  T
  17   -134.1351850  0.447368E-04  0.358E-02    0.01       1.0  T
  18   -134.1352779 -0.928445E-04  0.170E-02    0.01       1.0  T
  19   -134.1353014 -0.234962E-04  0.370E-03    0.01       3.1  T
  20   -134.1352988  0.255263E-05  0.591E-03    0.01       2.0  T
  21   -134.1353022 -0.338233E-05  0.980E-04    0.01      11.9  T
  22   -134.1353023 -0.820138E-07  0.307E-04    0.01      37.8  T
  23   -134.1353023 -0.746496E-08  0.507E-05    0.01     229.4  T
     SCC iter.                  ...        0 min,  0.228 sec
     gradient                   ...        0 min,  0.078 sec
 * total energy  :  -131.8901635 Eh     change       -0.3831997E-01 Eh
   gradient norm :     0.0660347 Eh/α   predicted    -0.3661164E-01 (  -4.46%)
   displ. norm   :     0.7487704 α      lambda       -0.3139875E-01
   maximum displ.:     0.2869286 α      in ANC's #34, #6, #10, ...

........................................................................
.............................. CYCLE    7 ..............................
........................................................................
   1   -134.1166390 -0.134117E+03  0.743E-01    0.03       0.0  T
   2   -128.1228402  0.599380E+01  0.688E+00    0.02       1.0  T
   3   -133.8043265 -0.568149E+01  0.190E+00    0.05       1.0  T
   4   -134.0404741 -0.236148E+00  0.108E+00    0.05       1.0  T
   5   -133.8716877  0.168786E+00  0.167E+00    0.05       1.0  T
   6   -133.8699203  0.176742E-02  0.166E+00    0.05       1.0  T
   7   -134.1484205 -0.278500E+00  0.382E-01    0.01       1.0  T
   8   -134.1523600 -0.393951E-02  0.340E-01    0.02       1.0  T
   9   -134.1514681  0.891934E-03  0.336E-01    0.01       1.0  T
  10   -134.1616988 -0.102306E-01  0.161E-01    0.01       1.0  T
  11   -134.1634336 -0.173484E-02  0.731E-02    0.00       1.0  T
  12   -134.1630739  0.359728E-03  0.105E-01    0.01       1.0  T
  13   -134.1631308 -0.569549E-04  0.101E-01    0.01       1.0  T
  14   -134.1636744 -0.543573E-03  0.671E-02    0.01       1.0  T
  15   -134.1639373 -0.262945E-03  0.410E-02    0.01       1.0  T
  16   -134.1638720  0.653754E-04  0.463E-02    0.01       1.0  T
  17   -134.1639345 -0.625471E-04  0.372E-02    0.00       1.0  T
  18   -134.1640538 -0.119312E-03  0.131E-02    0.00       1.0  T
  19   -134.1640704 -0.165553E-04  0.224E-03    0.00       5.2  T
  20   -134.1640702  0.198366E-06  0.268E-03    0.00       4.3  T
  21   -134.1640708 -0.653830E-06  0.100E-03    0.00      11.6  T
  22   -134.1640709 -0.918810E-07  0.255E-04    0.00      45.5  T
  23   -134.1640709  0.158086E-07  0.455E-04    0.00      25.5  T
     SCC iter.                  ...        0 min,  0.226 sec
     gradient                   ...        0 min,  0.078 sec
 * total energy  :  -131.9159293 Eh     change       -0.2576581E-01 Eh
   gradient norm :     0.0536928 Eh/α   predicted    -0.2450135E-01 (  -4.91%)
   displ. norm   :     0.7465523 α      lambda       -0.2136020E-01
   maximum displ.:     0.2718281 α      in ANC's #6, #10, #34, ...

........................................................................
.............................. CYCLE    8 ..............................
........................................................................
   1   -134.1535657 -0.134154E+03  0.634E-01    0.02       0.0  T
   2   -132.8146186  0.133895E+01  0.343E+00    0.02       1.0  T
   3   -133.8873212 -0.107270E+01  0.170E+00    0.04       1.0  T
   4   -134.0613841 -0.174063E+00  0.108E+00    0.05       1.0  T
   5   -133.8945962  0.166788E+00  0.166E+00    0.06       1.0  T
   6   -133.9489887 -0.543925E-01  0.148E+00    0.05       1.0  T
   7   -134.1811243 -0.232136E+00  0.208E-01    0.01       1.0  T
   8   -134.1595406  0.215838E-01  0.499E-01    0.03       1.0  T
   9   -134.0538823  0.105658E+00  0.111E+00    0.05       1.0  T
  10   -134.1848760 -0.130994E+00  0.774E-02    0.00       1.0  T
  11   -134.1848462  0.298674E-04  0.787E-02    0.00       1.0  T
  12   -134.1854799 -0.633768E-03  0.216E-02    0.00       1.0  T
  13   -134.1854447  0.352683E-04  0.281E-02    0.00       1.0  T
  14   -134.1855142 -0.695438E-04  0.864E-03    0.00       1.3  T
  15   -134.1855205 -0.624260E-05  0.289E-03    0.00       4.0  T
  16   -134.1855203  0.125902E-06  0.309E-03    0.00       3.8  T
  17   -134.1855180  0.229493E-05  0.550E-03    0.00       2.1  T
  18   -134.1855210 -0.294960E-05  0.166E-03    0.00       7.0  T
  19   -134.1855213 -0.295807E-06  0.161E-04    0.00      72.0  T
  20   -134.1855212  0.593957E-07  0.765E-04    0.00      15.2  T
     SCC iter.                  ...        0 min,  0.199 sec
     gradient                   ...        0 min,  0.078 sec
 * total energy  :  -131.9332512 Eh     change       -0.1732184E-01 Eh
   gradient norm :     0.0360910 Eh/α   predicted    -0.1663257E-01 (  -3.98%)
   displ. norm   :     0.7530746 α      lambda       -0.1415955E-01
   maximum displ.:     0.3484499 α      in ANC's #6, #10, #13, ...

........................................................................
.............................. CYCLE    9 ..............................
........................................................................
   1   -134.1795464 -0.134180E+03  0.525E-01    0.02       0.0  T
   2   -133.6795217  0.500025E+00  0.227E+00    0.06       1.0  T
   3   -133.9194287 -0.239907E+00  0.163E+00    0.04       1.0  T
   4   -133.9426575 -0.232288E-01  0.156E+00    0.05       1.0  T
   5   -134.0894160 -0.146759E+00  0.102E+00    0.05       1.0  T
   6   -134.1911745 -0.101758E+00  0.303E-01    0.01       1.0  T
   7   -134.0848223  0.106352E+00  0.104E+00    0.05       1.0  T
   8   -134.2006203 -0.115798E+00  0.471E-02    0.00       1.0  T
   9   -134.1967974  0.382295E-02  0.192E-01    0.01       1.0  T
  10   -134.2000378 -0.324043E-02  0.765E-02    0.00       1.0  T
  11   -134.2006043 -0.566542E-03  0.168E-02    0.00       1.0  T
  12   -134.2006326 -0.282481E-04  0.217E-03    0.00       5.4  T
  13   -134.2006316  0.983316E-06  0.347E-03    0.00       3.3  T
  14   -134.2006322 -0.598386E-06  0.228E-03    0.00       5.1  T
  15   -134.2006327 -0.523544E-06  0.554E-04    0.00      21.0  T
  16   -134.2006327  0.335311E-07  0.771E-04    0.00      15.1  T
     SCC iter.                  ...        0 min,  0.161 sec
     gradient                   ...        0 min,  0.078 sec
 * total energy  :  -131.9444599 Eh     change       -0.1120876E-01 Eh
   gradient norm :     0.0264803 Eh/α   predicted    -0.1109486E-01 (  -1.02%)
   displ. norm   :     0.8023857 α      lambda       -0.1150917E-01
   maximum displ.:     0.4234152 α      in ANC's #6, #10, #9, ...

........................................................................
.............................. CYCLE   10 ..............................
........................................................................
   1   -134.2070831 -0.134207E+03  0.315E-01    0.00       0.0  T
   2   -133.8832866  0.323796E+00  0.178E+00    0.05       1.0  T
   3   -134.1532558 -0.269969E+00  0.736E-01    0.03       1.0  T
   4   -133.9369425  0.216313E+00  0.161E+00    0.04       1.0  T
   5   -134.2074697 -0.270527E+00  0.122E-01    0.01       1.0  T
   6   -134.1842717  0.231980E-01  0.481E-01    0.02       1.0  T
   7   -134.1686386  0.156331E-01  0.617E-01    0.03       1.0  T
   8   -134.1985695 -0.299309E-01  0.311E-01    0.02       1.0  T
   9   -134.2063352 -0.776575E-02  0.153E-01    0.01       1.0  T
  10   -134.2082989 -0.196367E-02  0.684E-02    0.01       1.0  T
  11   -134.2087856 -0.486703E-03  0.991E-03    0.01       1.2  T
  12   -134.2087953 -0.971828E-05  0.274E-03    0.01       4.2  T
  13   -134.2087929  0.234757E-05  0.545E-03    0.01       2.1  T
  14   -134.2087919  0.106515E-05  0.630E-03    0.01       1.8  T
  15   -134.2087959 -0.406453E-05  0.112E-03    0.01      10.4  T
  16   -134.2087960 -0.974218E-07  0.580E-04    0.01      20.1  T
  17   -134.2087961 -0.277568E-07  0.268E-04    0.01      43.4  T
     SCC iter.                  ...        0 min,  0.170 sec
     gradient                   ...        0 min,  0.078 sec
 * total energy  :  -131.9514361 Eh     change       -0.6976152E-02 Eh
   gradient norm :     0.0311255 Eh/α   predicted    -0.9459518E-02 (  35.60%)
   displ. norm   :     0.6846143 α      lambda       -0.9161001E-02
   maximum displ.:     0.4100675 α      in ANC's #6, #10, #13, ...

........................................................................
.............................. CYCLE   11 ..............................
........................................................................
   1   -134.2116626 -0.134212E+03  0.265E-01    0.00       0.0  T
   2   -133.8743552  0.337307E+00  0.180E+00    0.04       1.0  T
   3   -134.0812503 -0.206895E+00  0.111E+00    0.03       1.0  T
   4   -133.9301564  0.151094E+00  0.163E+00    0.04       1.0  T
   5   -134.2107662 -0.280610E+00  0.194E-01    0.00       1.0  T
   6   -134.1809926  0.297736E-01  0.556E-01    0.03       1.0  T
   7   -134.1676500  0.133425E-01  0.655E-01    0.03       1.0  T
   8   -134.2054049 -0.377549E-01  0.283E-01    0.01       1.0  T
   9   -134.2124934 -0.708848E-02  0.121E-01    0.00       1.0  T
  10   -134.2140571 -0.156371E-02  0.624E-03    0.01       1.9  T
  11   -134.2139098  0.147300E-03  0.370E-02    0.01       1.0  T
  12   -134.2139851 -0.753138E-04  0.260E-02    0.01       1.0  T
  13   -134.2140525 -0.673802E-04  0.694E-03    0.01       1.7  T
  14   -134.2140539 -0.138605E-05  0.595E-03    0.01       2.0  T
  15   -134.2140577 -0.382324E-05  0.129E-04    0.01      90.3  T
  16   -134.2140575  0.254759E-06  0.153E-03    0.01       7.6  T
  17   -134.2140577 -0.219189E-06  0.575E-04    0.01      20.2  T
  18   -134.2140577 -0.353966E-07  0.521E-05    0.01     222.9  T
     SCC iter.                  ...        0 min,  0.177 sec
     gradient                   ...        0 min,  0.078 sec
 * total energy  :  -131.9585220 Eh     change       -0.7085912E-02 Eh
   gradient norm :     0.0244680 Eh/α   predicted    -0.6727373E-02 (  -5.06%)
   displ. norm   :     0.7295872 α      lambda       -0.6344724E-02
   maximum displ.:     0.4949148 α      in ANC's #6, #10, #13, ...

........................................................................
.............................. CYCLE   12 ..............................
........................................................................
   1   -134.2151257 -0.134215E+03  0.178E-01    0.01       0.0  T
   2   -133.8828844  0.332241E+00  0.177E+00    0.03       1.0  T
   3   -134.2058292 -0.322945E+00  0.323E-01    0.00       1.0  T
   4   -133.9353874  0.270442E+00  0.161E+00    0.03       1.0  T
   5   -134.0099960 -0.746086E-01  0.137E+00    0.03       1.0  T
   6   -134.0883577 -0.783617E-01  0.107E+00    0.02       1.0  T
   7   -134.1802867 -0.919290E-01  0.571E-01    0.03       1.0  T
   8   -134.2155594 -0.352727E-01  0.102E-01    0.01       1.0  T
   9   -134.2126401  0.291926E-02  0.189E-01    0.02       1.0  T
  10   -134.2143345 -0.169440E-02  0.143E-01    0.01       1.0  T
  11   -134.2149779 -0.643332E-03  0.121E-01    0.01       1.0  T
  12   -134.2158807 -0.902841E-03  0.807E-02    0.01       1.0  T
  13   -134.2164662 -0.585470E-03  0.350E-02    0.01       1.0  T
  14   -134.2165909 -0.124702E-03  0.102E-02    0.01       1.1  T
  15   -134.2165922 -0.136617E-05  0.959E-03    0.01       1.2  T
  16   -134.2166004 -0.816396E-05  0.429E-03    0.01       2.7  T
  17   -134.2166022 -0.178513E-05  0.152E-03    0.01       7.7  T
  18   -134.2166024 -0.241148E-06  0.367E-04    0.01      31.7  T
  19   -134.2166024 -0.577563E-08  0.288E-04    0.01      40.3  T
     SCC iter.                  ...        0 min,  0.189 sec
     gradient                   ...        0 min,  0.078 sec
 * total energy  :  -131.9641138 Eh     change       -0.5591798E-02 Eh
   gradient norm :     0.0219987 Eh/α   predicted    -0.4861004E-02 ( -13.07%)
   displ. norm   :     0.7697142 α      lambda       -0.6068713E-02
   maximum displ.:     0.5362246 α      in ANC's #6, #10, #5, ...

........................................................................
.............................. CYCLE   13 ..............................
........................................................................
   1   -134.2090792 -0.134209E+03  0.314E-01    0.02       0.0  T
   2   -133.7877821  0.421297E+00  0.206E+00    0.02       1.0  T
   3   -133.9346837 -0.146902E+00  0.159E+00    0.02       1.0  T
   4   -134.1308203 -0.196137E+00  0.878E-01    0.03       1.0  T
   5   -134.0165379  0.114282E+00  0.133E+00    0.03       1.0  T
   6   -134.2171486 -0.200611E+00  0.139E-01    0.01       1.0  T
   7   -134.1977275  0.194211E-01  0.429E-01    0.01       1.0  T
   8   -134.2002945 -0.256704E-02  0.398E-01    0.01       1.0  T
   9   -134.2179246 -0.176301E-01  0.339E-02    0.01       1.0  T
  10   -134.2173694  0.555184E-03  0.755E-02    0.01       1.0  T
  11   -134.2177266 -0.357225E-03  0.495E-02    0.01       1.0  T
  12   -134.2178410 -0.114358E-03  0.378E-02    0.01       1.0  T
  13   -134.2179943 -0.153302E-03  0.901E-03    0.01       1.3  T
  14   -134.2180032 -0.891887E-05  0.165E-03    0.01       7.1  T
  15   -134.2180035 -0.304569E-06  0.134E-04    0.01      86.8  T
  16   -134.2180035  0.744499E-07  0.816E-04    0.01      14.2  T
     SCC iter.                  ...        0 min,  0.158 sec
     gradient                   ...        0 min,  0.078 sec
 * total energy  :  -131.9693753 Eh     change       -0.5261479E-02 Eh
   gradient norm :     0.0175980 Eh/α   predicted    -0.4832094E-02 (  -8.16%)
   displ. norm   :     0.8089037 α      lambda       -0.5656379E-02
   maximum displ.:     0.5850305 α      in ANC's #6, #10, #5, ...

........................................................................
.............................. CYCLE   14 ..............................
........................................................................
   1   -134.2001463 -0.134200E+03  0.399E-01    0.03       0.0  T
   2   -133.7291302  0.471016E+00  0.219E+00    0.01       1.0  T
   3   -133.9190392 -0.189909E+00  0.162E+00    0.02       1.0  T
   4   -134.1763008 -0.257262E+00  0.581E-01    0.03       1.0  T
   5   -134.1986985 -0.223977E-01  0.371E-01    0.03       1.0  T
   6   -134.0853737  0.113325E+00  0.106E+00    0.02       1.0  T
   7   -134.1596492 -0.742755E-01  0.690E-01    0.01       1.0  T
   8   -134.2122197 -0.525706E-01  0.146E-01    0.01       1.0  T
   9   -134.1893119  0.229078E-01  0.470E-01    0.01       1.0  T
  10   -134.2044269 -0.151150E-01  0.294E-01    0.00       1.0  T
  11   -134.2119995 -0.757264E-02  0.145E-01    0.02       1.0  T
  12   -134.2142520 -0.225247E-02  0.343E-02    0.01       1.0  T
  13   -134.2143350 -0.830373E-04  0.210E-02    0.01       1.0  T
  14   -134.2143664 -0.313566E-04  0.127E-02    0.01       1.0  T
  15   -134.2143849 -0.185089E-04  0.110E-03    0.01      10.6  T
  16   -134.2143835  0.138726E-05  0.364E-03    0.01       3.2  T
  17   -134.2143848 -0.130959E-05  0.134E-03    0.01       8.7  T
  18   -134.2143846  0.225798E-06  0.193E-03    0.01       6.0  T
  19   -134.2143849 -0.323772E-06  0.965E-04    0.01      12.0  T
  20   -134.2143849 -0.228509E-07  0.849E-04    0.01      13.7  T
     SCC iter.                  ...        0 min,  0.197 sec
     gradient                   ...        0 min,  0.077 sec
 * total energy  :  -131.9734062 Eh     change       -0.4030895E-02 Eh
   gradient norm :     0.0200733 Eh/α   predicted    -0.4678749E-02 (  16.07%)
   displ. norm   :     0.7405166 α      lambda       -0.5253403E-02
   maximum displ.:     0.5522441 α      in ANC's #6, #5, #13, ...

........................................................................
.............................. CYCLE   15 ..............................
........................................................................
   1   -134.2004001 -0.134200E+03  0.322E-01    0.02       0.0  T
   2   -133.7910308  0.409369E+00  0.199E+00    0.01       1.0  T
   3   -133.9670069 -0.175976E+00  0.145E+00    0.02       1.0  T
   4   -133.9880547 -0.210478E-01  0.138E+00    0.03       1.0  T
   5   -133.9562359  0.318188E-01  0.147E+00    0.03       1.0  T
   6   -134.0218289 -0.655929E-01  0.127E+00    0.04       1.0  T
   7   -134.1988161 -0.176987E+00  0.299E-01    0.00       1.0  T
   8   -134.1885625  0.102535E-01  0.415E-01    0.01       1.0  T
   9   -134.1779164  0.106461E-01  0.511E-01    0.01       1.0  T
  10   -134.2038184 -0.259020E-01  0.196E-01    0.01       1.0  T
  11   -134.2057176 -0.189919E-02  0.147E-01    0.01       1.0  T
  12   -134.2082265 -0.250891E-02  0.513E-03    0.01       2.3  T
  13   -134.2080992  0.127359E-03  0.335E-02    0.01       1.0  T
  14   -134.2080743  0.248472E-04  0.365E-02    0.01       1.0  T
  15   -134.2082135 -0.139159E-03  0.113E-02    0.01       1.0  T
  16   -134.2082281 -0.146325E-04  0.126E-03    0.01       9.3  T
  17   -134.2082283 -0.179081E-06  0.112E-04    0.01     103.4  T
  18   -134.2082282  0.370038E-07  0.577E-04    0.01      20.1  T
     SCC iter.                  ...        0 min,  0.180 sec
     gradient                   ...        0 min,  0.077 sec
 * total energy  :  -131.9768668 Eh     change       -0.3460670E-02 Eh
   gradient norm :     0.0196544 Eh/α   predicted    -0.4067101E-02 (  17.52%)
   displ. norm   :     0.7386654 α      lambda        0.2236946E-03
   maximum displ.:     0.5508222 α      in ANC's #6, #5, #13, ...

........................................................................
.............................. CYCLE   16 ..............................
........................................................................
   1   -134.1899308 -0.134190E+03  0.280E-01    0.02       0.0  T
   2   -133.8137750  0.376156E+00  0.187E+00    0.01       1.0  T
   3   -134.0124992 -0.198724E+00  0.127E+00    0.01       1.0  T
   4   -134.1581228 -0.145624E+00  0.566E-01    0.03       1.0  T
   5   -133.9293177  0.228805E+00  0.152E+00    0.03       1.0  T
   6   -133.9218382  0.747951E-02  0.154E+00    0.03       1.0  T
   7   -133.9244682 -0.263007E-02  0.153E+00    0.04       1.0  T
   8   -134.1017439 -0.177276E+00  0.906E-01    0.04       1.0  T
   9   -134.1506002 -0.488563E-01  0.627E-01    0.04       1.0  T
  10   -134.1876620 -0.370618E-01  0.253E-01    0.03       1.0  T
  11   -134.1792655  0.839655E-02  0.366E-01    0.01       1.0  T
  12   -134.1812445 -0.197899E-02  0.341E-01    0.01       1.0  T
  13   -134.1944581 -0.132136E-01  0.380E-02    0.02       1.0  T
  14   -134.1935132  0.944889E-03  0.969E-02    0.02       1.0  T
  15   -134.1943467 -0.833500E-03  0.461E-02    0.01       1.0  T
  16   -134.1945756 -0.228898E-03  0.117E-02    0.02       1.0  T
  17   -134.1945801 -0.452888E-05  0.983E-03    0.01       1.2  T
  18   -134.1945827 -0.256106E-05  0.867E-03    0.02       1.3  T
  19   -134.1945910 -0.825682E-05  0.184E-03    0.02       6.3  T
  20   -134.1945908  0.121885E-06  0.212E-03    0.02       5.5  T
  21   -134.1945912 -0.356443E-06  0.118E-03    0.02       9.9  T
  22   -134.1945913 -0.145077E-06  0.368E-04    0.02      31.6  T
  23   -134.1945914 -0.140731E-07  0.113E-04    0.02     102.9  T
     SCC iter.                  ...        0 min,  0.231 sec
     gradient                   ...        0 min,  0.077 sec
 * total energy  :  -131.9766350 Eh     change        0.2317944E-03 Eh
   gradient norm :     0.0352000 Eh/α   predicted     0.1728685E-03 ( -25.42%)
   displ. norm   :     0.3722238 α      lambda       -0.6321901E-02
   maximum displ.:     0.2110529 α      in ANC's #6, #17, #5, ...

........................................................................
.............................. CYCLE   17 ..............................
........................................................................
   1   -134.1995280 -0.134200E+03  0.275E-01    0.01       0.0  T
   2   -133.8330274  0.366501E+00  0.184E+00    0.01       1.0  T
   3   -134.2022885 -0.369261E+00  0.140E-01    0.01       1.0  T
   4   -134.1922522  0.100362E-01  0.307E-01    0.01       1.0  T
   5   -133.9740445  0.218208E+00  0.140E+00    0.03       1.0  T
   6   -134.1932781 -0.219234E+00  0.291E-01    0.02       1.0  T
   7   -134.1733535  0.199246E-01  0.507E-01    0.01       1.0  T
   8   -134.1597501  0.136035E-01  0.609E-01    0.03       1.0  T
   9   -134.1917190 -0.319689E-01  0.314E-01    0.01       1.0  T
  10   -134.1988984 -0.717943E-02  0.194E-01    0.02       1.0  T
  11   -134.2032180 -0.431959E-02  0.236E-02    0.01       1.0  T
  12   -134.2032774 -0.593328E-04  0.681E-03    0.01       1.7  T
  13   -134.2032753  0.207024E-05  0.743E-03    0.01       1.6  T
  14   -134.2032783 -0.302209E-05  0.391E-03    0.01       3.0  T
  15   -134.2032784 -0.695903E-07  0.279E-03    0.01       4.2  T
  16   -134.2032787 -0.343744E-06  0.137E-03    0.01       8.5  T
  17   -134.2032787  0.206460E-07  0.654E-04    0.01      17.8  T
  18   -134.2032786  0.492566E-07  0.806E-04    0.01      14.4  T
     SCC iter.                  ...        0 min,  0.180 sec
     gradient                   ...        0 min,  0.077 sec
 * total energy  :  -131.9800859 Eh     change       -0.3450886E-02 Eh
   gradient norm :     0.0203353 Eh/α   predicted    -0.3598906E-02 (   4.29%)
   displ. norm   :     0.4679289 α      lambda       -0.2374296E-02
   maximum displ.:     0.3590926 α      in ANC's #6, #5, #13, ...

........................................................................
.............................. CYCLE   18 ..............................
........................................................................
   1   -134.2024582 -0.134202E+03  0.250E-01    0.02       0.0  T
   2   -133.8133688  0.389089E+00  0.191E+00    0.01       1.0  T
   3   -133.9764166 -0.163048E+00  0.141E+00    0.02       1.0  T
   4   -134.0481184 -0.717018E-01  0.117E+00    0.03       1.0  T
   5   -133.9412342  0.106884E+00  0.151E+00    0.03       1.0  T
   6   -133.9104529  0.307813E-01  0.160E+00    0.03       1.0  T
   7   -133.9159602 -0.550726E-02  0.159E+00    0.04       1.0  T
   8   -134.0310500 -0.115090E+00  0.124E+00    0.04       1.0  T
   9   -134.1634182 -0.132368E+00  0.635E-01    0.03       1.0  T
  10   -134.1158660  0.475522E-01  0.894E-01    0.04       1.0  T
  11   -134.1702522 -0.543862E-01  0.569E-01    0.02       1.0  T
  12   -134.1956371 -0.253849E-01  0.329E-01    0.01       1.0  T
  13   -134.1829303  0.127067E-01  0.464E-01    0.01       1.0  T
  14   -134.1797993  0.313102E-02  0.492E-01    0.01       1.0  T
  15   -134.2056410 -0.258416E-01  0.145E-01    0.00       1.0  T
  16   -134.2010625  0.457845E-02  0.247E-01    0.02       1.0  T
  17   -134.2076815 -0.661895E-02  0.638E-02    0.01       1.0  T
  18   -134.2075987  0.827501E-04  0.671E-02    0.01       1.0  T
  19   -134.2080899 -0.491213E-03  0.162E-02    0.01       1.0  T
  20   -134.2081036 -0.136390E-04  0.115E-02    0.01       1.0  T
  21   -134.2081186 -0.150727E-04  0.217E-03    0.01       5.4  T
  22   -134.2081192 -0.535274E-06  0.155E-04    0.01      74.8  T
  23   -134.2081192 -0.657622E-09  0.854E-05    0.01     136.1  T
     SCC iter.                  ...        0 min,  0.229 sec
     gradient                   ...        0 min,  0.077 sec
 * total energy  :  -131.9815813 Eh     change       -0.1495418E-02 Eh
   gradient norm :     0.0134691 Eh/α   predicted    -0.1447084E-02 (  -3.23%)
   displ. norm   :     0.6054458 α      lambda       -0.1854236E-02
   maximum displ.:     0.5019304 α      in ANC's #6, #5, #13, ...

........................................................................
.............................. CYCLE   19 ..............................
........................................................................
   1   -134.2066671 -0.134207E+03  0.204E-01    0.01       0.0  T
   2   -133.8436241  0.363043E+00  0.182E+00    0.02       1.0  T
   3   -134.0759446 -0.232321E+00  0.107E+00    0.02       1.0  T
   4   -133.9660565  0.109888E+00  0.145E+00    0.03       1.0  T
   5   -133.9128795  0.531770E-01  0.160E+00    0.03       1.0  T
   6   -133.9064351  0.644436E-02  0.162E+00    0.03       1.0  T
   7   -133.9124974 -0.606232E-02  0.160E+00    0.03       1.0  T
   8   -133.9498422 -0.373448E-01  0.149E+00    0.04       1.0  T
   9   -134.1448923 -0.195050E+00  0.754E-01    0.04       1.0  T
  10   -134.0645759  0.803164E-01  0.111E+00    0.04       1.0  T
  11   -134.2091430 -0.144567E+00  0.103E-01    0.01       1.0  T
  12   -134.2093241 -0.181108E-03  0.837E-02    0.01       1.0  T
  13   -134.1984125  0.109116E-01  0.314E-01    0.01       1.0  T
  14   -134.2067735 -0.836096E-02  0.165E-01    0.00       1.0  T
  15   -134.2036493  0.312417E-02  0.234E-01    0.02       1.0  T
  16   -134.2099259 -0.627661E-02  0.186E-02    0.01       1.0  T
  17   -134.2089052  0.102073E-02  0.949E-02    0.01       1.0  T
  18   -134.2096959 -0.790748E-03  0.482E-02    0.01       1.0  T
  19   -134.2099340 -0.238129E-03  0.159E-02    0.01       1.0  T
  20   -134.2099598 -0.258014E-04  0.557E-03    0.01       2.1  T
  21   -134.2099634 -0.360036E-05  0.514E-04    0.01      22.6  T
  22   -134.2099621  0.132116E-05  0.339E-03    0.01       3.4  T
  23   -134.2099633 -0.120129E-05  0.107E-03    0.01      10.9  T
  24   -134.2099634 -0.115357E-06  0.380E-04    0.01      30.6  T
  25   -134.2099635 -0.166537E-07  0.338E-05    0.01     343.5  T
     SCC iter.                  ...        0 min,  0.251 sec
     gradient                   ...        0 min,  0.077 sec
 * total energy  :  -131.9830599 Eh     change       -0.1478599E-02 Eh
   gradient norm :     0.0143171 Eh/α   predicted    -0.1266969E-02 ( -14.31%)
   displ. norm   :     0.6732113 α      lambda       -0.2167359E-02
   maximum displ.:     0.5276931 α      in ANC's #6, #5, #13, ...

........................................................................
.............................. CYCLE   20 ..............................
........................................................................
   1   -134.2108587 -0.134211E+03  0.226E-01    0.02       0.0  T
   2   -133.8421148  0.368744E+00  0.184E+00    0.02       1.0  T
   3   -134.0969046 -0.254790E+00  0.101E+00    0.02       1.0  T
   4   -133.9521760  0.144729E+00  0.150E+00    0.03       1.0  T
   5   -133.9160411  0.361349E-01  0.160E+00    0.03       1.0  T
   6   -133.9104660  0.557512E-02  0.162E+00    0.03       1.0  T
   7   -133.9171603 -0.669432E-02  0.160E+00    0.04       1.0  T
   8   -133.9557838 -0.386235E-01  0.149E+00    0.04       1.0  T
   9   -134.1544518 -0.198668E+00  0.724E-01    0.04       1.0  T
  10   -134.1137337  0.407180E-01  0.930E-01    0.04       1.0  T
  11   -134.2050338 -0.913000E-01  0.295E-01    0.02       1.0  T
  12   -134.2038853  0.114848E-02  0.304E-01    0.01       1.0  T
  13   -134.2146351 -0.107498E-01  0.434E-02    0.01       1.0  T
  14   -134.2088335  0.580156E-02  0.225E-01    0.02       1.0  T
  15   -134.2144111 -0.557764E-02  0.505E-02    0.01       1.0  T
  16   -134.2132625  0.114860E-02  0.110E-01    0.00       1.0  T
  17   -134.2141788 -0.916262E-03  0.669E-02    0.01       1.0  T
  18   -134.2139868  0.192029E-03  0.777E-02    0.01       1.0  T
  19   -134.2146259 -0.639071E-03  0.239E-02    0.01       1.0  T
  20   -134.2146705 -0.446861E-04  0.138E-02    0.01       1.0  T
  21   -134.2146927 -0.221894E-04  0.284E-04    0.01      40.9  T
  22   -134.2146922  0.564541E-06  0.221E-03    0.01       5.3  T
  23   -134.2146925 -0.377709E-06  0.127E-03    0.01       9.1  T
  24   -134.2146927 -0.185240E-06  0.178E-04    0.01      65.3  T
  25   -134.2146927  0.162356E-07  0.413E-04    0.01      28.1  T
     SCC iter.                  ...        0 min,  0.249 sec
     gradient                   ...        0 min,  0.077 sec
 * total energy  :  -131.9846407 Eh     change       -0.1580748E-02 Eh
   gradient norm :     0.0156931 Eh/α   predicted    -0.1574819E-02 (  -0.38%)
   displ. norm   :     0.6533528 α      lambda       -0.1894212E-02
   maximum displ.:     0.4875120 α      in ANC's #6, #5, #10, ...
 * RMSD in coord.:     1.1679434 α      energy gain  -0.9998818E+00 Eh

generating ANC from model Hessian ...
Using Lindh-Hessian (1995)
 Shifting diagonal of input Hessian by    1.0017035419452676E-002
 Lowest  eigenvalues of input Hessian
    0.010000    0.010006    0.000000    0.000000    0.000000    0.000000
    0.000000    0.000000    0.010098    0.010374    0.011391    0.011410
    0.011766    0.012056    0.012646    0.012921    0.013421    0.013897
 Highest eigenvalues
    2.143782    2.146428    2.148249    2.154872    2.158266    2.648758


........................................................................
.............................. CYCLE   21 ..............................
........................................................................
   1   -134.2200398 -0.134220E+03  0.203E-01    0.01       0.0  T
   2   -133.8625837  0.357456E+00  0.180E+00    0.02       1.0  T
   3   -134.1277669 -0.265183E+00  0.905E-01    0.02       1.0  T
   4   -133.9410152  0.186752E+00  0.156E+00    0.03       1.0  T
   5   -133.9195897  0.214255E-01  0.162E+00    0.03       1.0  T
   6   -133.9184910  0.109868E-02  0.162E+00    0.03       1.0  T
   7   -133.9255950 -0.710396E-02  0.160E+00    0.04       1.0  T
   8   -133.9753789 -0.497839E-01  0.145E+00    0.04       1.0  T
   9   -134.1833917 -0.208013E+00  0.589E-01    0.03       1.0  T
  10   -134.0401551  0.143237E+00  0.125E+00    0.04       1.0  T
  11   -134.2078287 -0.167674E+00  0.364E-01    0.02       1.0  T
  12   -134.2221054 -0.142767E-01  0.905E-02    0.01       1.0  T
  13   -134.2223773 -0.271873E-03  0.699E-02    0.01       1.0  T
  14   -134.2153893  0.698800E-02  0.253E-01    0.00       1.0  T
  15   -134.2224885 -0.709919E-02  0.629E-02    0.01       1.0  T
  16   -134.2210762  0.141234E-02  0.127E-01    0.01       1.0  T
  17   -134.2229192 -0.184308E-02  0.848E-03    0.01       1.4  T
  18   -134.2229234 -0.413012E-05  0.357E-03    0.01       3.3  T
  19   -134.2229140  0.932304E-05  0.929E-03    0.01       1.3  T
  20   -134.2229230 -0.894665E-05  0.193E-03    0.01       6.0  T
  21   -134.2229234 -0.368030E-06  0.551E-04    0.01      21.1  T
  22   -134.2229234 -0.200888E-07  0.365E-04    0.01      31.8  T
     SCC iter.                  ...        0 min,  0.220 sec
     gradient                   ...        0 min,  0.077 sec
 * total energy  :  -131.9861132 Eh     change       -0.1472514E-02 Eh
   gradient norm :     0.0182431 Eh/α   predicted     0.0000000E+00 (-100.00%)
   displ. norm   :     0.2130672 α      lambda       -0.1122721E-02
   maximum displ.:     0.1536056 α      in ANC's #7, #12, #5, ...

........................................................................
.............................. CYCLE   22 ..............................
........................................................................
   1   -134.2222348 -0.134222E+03  0.612E-02    0.01       0.0  T
   2   -134.1198739  0.102361E+00  0.932E-01    0.03       1.0  T
   3   -134.2207616 -0.100888E+00  0.118E-01    0.00       1.0  T
   4   -134.2218889 -0.112729E-02  0.565E-02    0.01       1.0  T
   5   -134.2221442 -0.255313E-03  0.309E-02    0.01       1.0  T
   6   -134.2222390 -0.948183E-04  0.120E-02    0.01       1.0  T
   7   -134.2222425 -0.348520E-05  0.970E-03    0.01       1.2  T
   8   -134.2222531 -0.105574E-04  0.198E-03    0.01       5.9  T
   9   -134.2222535 -0.410686E-06  0.606E-04    0.01      19.2  T
  10   -134.2222534  0.856132E-07  0.101E-03    0.01      11.5  T
  11   -134.2222535 -0.119090E-06  0.124E-04    0.01      94.0  T
     SCC iter.                  ...        0 min,  0.109 sec
     gradient                   ...        0 min,  0.077 sec
 * total energy  :  -131.9869799 Eh     change       -0.8667342E-03 Eh
   gradient norm :     0.0095154 Eh/α   predicted    -0.5868793E-03 ( -32.29%)
   displ. norm   :     0.4119732 α      lambda       -0.1251426E-02
   maximum displ.:     0.3059014 α      in ANC's #7, #12, #5, ...

........................................................................
.............................. CYCLE   23 ..............................
........................................................................
   1   -134.2214066 -0.134221E+03  0.958E-02    0.01       0.0  T
   2   -134.0229283  0.198478E+00  0.130E+00    0.03       1.0  T
   3   -134.2161818 -0.193253E+00  0.219E-01    0.00       1.0  T
   4   -134.2209875 -0.480572E-02  0.687E-02    0.01       1.0  T
   5   -134.2212136 -0.226057E-03  0.468E-02    0.01       1.0  T
   6   -134.2214419 -0.228295E-03  0.129E-02    0.01       1.0  T
   7   -134.2214227  0.191447E-04  0.166E-02    0.01       1.0  T
   8   -134.2214518 -0.290290E-04  0.359E-03    0.01       3.2  T
   9   -134.2214533 -0.149164E-05  0.688E-04    0.01      16.9  T
  10   -134.2214532  0.422896E-07  0.882E-04    0.01      13.2  T
  11   -134.2214533 -0.749671E-07  0.366E-04    0.01      31.8  T
     SCC iter.                  ...        0 min,  0.111 sec
     gradient                   ...        0 min,  0.077 sec
 * total energy  :  -131.9878924 Eh     change       -0.9124369E-03 Eh
   gradient norm :     0.0084700 Eh/α   predicted    -0.7319110E-03 ( -19.79%)
   displ. norm   :     0.3814113 α      lambda       -0.7572405E-03
   maximum displ.:     0.2881124 α      in ANC's #7, #5, #12, ...

........................................................................
.............................. CYCLE   24 ..............................
........................................................................
   1   -134.2229740 -0.134223E+03  0.819E-02    0.01       0.0  T
   2   -134.1002007  0.122773E+00  0.103E+00    0.03       1.0  T
   3   -134.2168602 -0.116660E+00  0.232E-01    0.02       1.0  T
   4   -134.2149707  0.188943E-02  0.261E-01    0.00       1.0  T
   5   -134.2229804 -0.800970E-02  0.160E-02    0.01       1.0  T
   6   -134.2229844 -0.401216E-05  0.106E-02    0.01       1.1  T
   7   -134.2229836  0.802505E-06  0.103E-02    0.01       1.1  T
   8   -134.2229903 -0.665907E-05  0.593E-03    0.01       2.0  T
   9   -134.2229944 -0.409057E-05  0.424E-04    0.01      27.4  T
  10   -134.2229944  0.448094E-08  0.320E-04    0.01      36.3  T
  11   -134.2229944  0.289842E-07  0.558E-04    0.01      20.8  T
     SCC iter.                  ...        0 min,  0.109 sec
     gradient                   ...        0 min,  0.077 sec
 * total energy  :  -131.9885200 Eh     change       -0.6275800E-03 Eh
   gradient norm :     0.0112295 Eh/α   predicted    -0.4337160E-03 ( -30.89%)
   displ. norm   :     0.3993067 α      lambda       -0.7409681E-03
   maximum displ.:     0.2997104 α      in ANC's #7, #5, #12, ...

........................................................................
.............................. CYCLE   25 ..............................
........................................................................
   1   -134.2270254 -0.134227E+03  0.928E-02    0.01       0.0  T
   2   -133.9164117  0.310614E+00  0.165E+00    0.02       1.0  T
   3   -134.2269775 -0.310566E+00  0.709E-02    0.01       1.0  T
   4   -134.1928476  0.341299E-01  0.540E-01    0.03       1.0  T
   5   -134.2265608 -0.337131E-01  0.814E-02    0.00       1.0  T
   6   -134.2271328 -0.572021E-03  0.411E-02    0.01       1.0  T
   7   -134.2270889  0.438384E-04  0.452E-02    0.01       1.0  T
   8   -134.2272512 -0.162255E-03  0.259E-02    0.01       1.0  T
   9   -134.2272718 -0.205720E-04  0.221E-02    0.01       1.0  T
  10   -134.2273156 -0.437878E-04  0.109E-02    0.01       1.1  T
  11   -134.2273245 -0.892926E-05  0.650E-03    0.01       1.8  T
  12   -134.2273282 -0.371839E-05  0.326E-03    0.01       3.6  T
  13   -134.2273293 -0.108521E-05  0.116E-03    0.01      10.0  T
  14   -134.2273294 -0.146057E-06  0.325E-04    0.01      35.7  T
  15   -134.2273295 -0.119607E-07  0.632E-05    0.01     184.0  T
     SCC iter.                  ...        0 min,  0.151 sec
     gradient                   ...        0 min,  0.077 sec
 * total energy  :  -131.9891532 Eh     change       -0.6332286E-03 Eh
   gradient norm :     0.0094606 Eh/α   predicted    -0.4295564E-03 ( -32.16%)
   displ. norm   :     0.4347285 α      lambda       -0.7132025E-03
   maximum displ.:     0.3311132 α      in ANC's #7, #5, #13, ...

........................................................................
.............................. CYCLE   26 ..............................
........................................................................
   1   -134.2305529 -0.134231E+03  0.129E-01    0.01       0.0  T
   2   -133.8985817  0.331971E+00  0.172E+00    0.02       1.0  T
   3   -134.2111751 -0.312593E+00  0.420E-01    0.01       1.0  T
   4   -134.0278600  0.183315E+00  0.132E+00    0.03       1.0  T
   5   -134.0318652 -0.400519E-02  0.130E+00    0.04       1.0  T
   6   -134.2243247 -0.192460E+00  0.254E-01    0.02       1.0  T
   7   -134.2044600  0.198647E-01  0.480E-01    0.01       1.0  T
   8   -134.2314638 -0.270038E-01  0.564E-02    0.01       1.0  T
   9   -134.2316896 -0.225849E-03  0.278E-02    0.01       1.0  T
  10   -134.2305170  0.117259E-02  0.101E-01    0.00       1.0  T
  11   -134.2316819 -0.116488E-02  0.190E-02    0.01       1.0  T
  12   -134.2316739  0.798770E-05  0.167E-02    0.01       1.0  T
  13   -134.2316385  0.353627E-04  0.223E-02    0.01       1.0  T
  14   -134.2316878 -0.492879E-04  0.731E-03    0.01       1.6  T
  15   -134.2316941 -0.625579E-05  0.263E-04    0.01      44.2  T
  16   -134.2316940  0.118492E-06  0.104E-03    0.01      11.2  T
  17   -134.2316939  0.825706E-07  0.133E-03    0.01       8.7  T
  18   -134.2316941 -0.193384E-06  0.355E-04    0.01      32.8  T
  19   -134.2316941 -0.121704E-07  0.149E-04    0.01      77.8  T
     SCC iter.                  ...        0 min,  0.189 sec
     gradient                   ...        0 min,  0.077 sec
 * total energy  :  -131.9897472 Eh     change       -0.5939957E-03 Eh
   gradient norm :     0.0060532 Eh/α   predicted    -0.4239955E-03 ( -28.62%)
   displ. norm   :     0.4385762 α      lambda       -0.5671039E-03
   maximum displ.:     0.3347731 α      in ANC's #7, #5, #6, ...

........................................................................
.............................. CYCLE   27 ..............................
........................................................................
   1   -134.2324199 -0.134232E+03  0.143E-01    0.01       0.0  T
   2   -133.8917322  0.340688E+00  0.174E+00    0.02       1.0  T
   3   -134.1874254 -0.295693E+00  0.631E-01    0.02       1.0  T
   4   -134.0334455  0.153980E+00  0.131E+00    0.04       1.0  T
   5   -133.9544070  0.790385E-01  0.155E+00    0.04       1.0  T
   6   -133.9477531  0.665387E-02  0.156E+00    0.04       1.0  T
   7   -133.9806283 -0.328752E-01  0.147E+00    0.04       1.0  T
   8   -134.2285759 -0.247948E+00  0.237E-01    0.01       1.0  T
   9   -134.1745826  0.539933E-01  0.712E-01    0.04       1.0  T
  10   -134.2340557 -0.594731E-01  0.310E-02    0.01       1.0  T
  11   -134.2340616 -0.591307E-05  0.167E-02    0.01       1.0  T
  12   -134.2340077  0.539448E-04  0.234E-02    0.01       1.0  T
  13   -134.2338934  0.114266E-03  0.385E-02    0.00       1.0  T
  14   -134.2338038  0.895680E-04  0.470E-02    0.00       1.0  T
  15   -134.2340637 -0.259913E-03  0.499E-03    0.01       2.3  T
  16   -134.2340603  0.341302E-05  0.649E-03    0.01       1.8  T
  17   -134.2340588  0.148075E-05  0.736E-03    0.01       1.6  T
  18   -134.2340647 -0.590594E-05  0.208E-03    0.01       5.6  T
  19   -134.2340648 -0.656072E-07  0.193E-03    0.01       6.0  T
  20   -134.2340652 -0.424167E-06  0.321E-04    0.01      36.2  T
  21   -134.2340652 -0.119667E-07  0.433E-05    0.01     268.6  T
     SCC iter.                  ...        0 min,  0.210 sec
     gradient                   ...        0 min,  0.077 sec
 * total energy  :  -131.9902247 Eh     change       -0.4775565E-03 Eh
   gradient norm :     0.0045222 Eh/α   predicted    -0.3380988E-03 ( -29.20%)
   displ. norm   :     0.4157130 α      lambda       -0.4493730E-03
   maximum displ.:     0.3151654 α      in ANC's #7, #5, #6, ...

........................................................................
.............................. CYCLE   28 ..............................
........................................................................
   1   -134.2330269 -0.134233E+03  0.133E-01    0.01       0.0  T
   2   -133.8957867  0.337240E+00  0.173E+00    0.03       1.0  T
   3   -134.1981994 -0.302413E+00  0.556E-01    0.02       1.0  T
   4   -134.0539852  0.144214E+00  0.124E+00    0.04       1.0  T
   5   -133.9852919  0.686933E-01  0.146E+00    0.04       1.0  T
   6   -133.9980689 -0.127770E-01  0.142E+00    0.04       1.0  T
   7   -134.1543600 -0.156291E+00  0.826E-01    0.04       1.0  T
   8   -134.2336022 -0.792422E-01  0.102E-01    0.00       1.0  T
   9   -134.2075504  0.260518E-01  0.480E-01    0.03       1.0  T
  10   -134.2312606 -0.237102E-01  0.168E-01    0.01       1.0  T
  11   -134.2342264 -0.296575E-02  0.474E-02    0.01       1.0  T
  12   -134.2338432  0.383162E-03  0.729E-02    0.01       1.0  T
  13   -134.2344274 -0.584140E-03  0.128E-02    0.01       1.0  T
  14   -134.2343652  0.621458E-04  0.259E-02    0.00       1.0  T
  15   -134.2344220 -0.567717E-04  0.138E-02    0.01       1.0  T
  16   -134.2344443 -0.222793E-04  0.121E-03    0.01       9.6  T
  17   -134.2344442  0.991076E-07  0.134E-03    0.01       8.7  T
  18   -134.2344440  0.162358E-06  0.174E-03    0.01       6.7  T
  19   -134.2344443 -0.333383E-06  0.430E-04    0.01      27.0  T
  20   -134.2344444 -0.172220E-07  0.198E-04    0.01      58.6  T
     SCC iter.                  ...        0 min,  0.197 sec
     gradient                   ...        0 min,  0.077 sec
 * total energy  :  -131.9906128 Eh     change       -0.3880799E-03 Eh
   gradient norm :     0.0048871 Eh/α   predicted    -0.2635167E-03 ( -32.10%)
   displ. norm   :     0.4173162 α      lambda       -0.3994366E-03
   maximum displ.:     0.3111509 α      in ANC's #7, #5, #6, ...

........................................................................
.............................. CYCLE   29 ..............................
........................................................................
   1   -134.2330833 -0.134233E+03  0.116E-01    0.01       0.0  T
   2   -133.9041912  0.328892E+00  0.170E+00    0.03       1.0  T
   3   -134.2176712 -0.313480E+00  0.375E-01    0.01       1.0  T
   4   -134.0825525  0.135119E+00  0.114E+00    0.04       1.0  T
   5   -134.1293102 -0.467577E-01  0.942E-01    0.04       1.0  T
   6   -134.2255888 -0.962787E-01  0.268E-01    0.01       1.0  T
   7   -134.2291659 -0.357710E-02  0.203E-01    0.00       1.0  T
   8   -134.2330813 -0.391535E-02  0.916E-02    0.00       1.0  T
   9   -134.2315470  0.153424E-02  0.145E-01    0.00       1.0  T
  10   -134.2337052 -0.215812E-02  0.536E-02    0.00       1.0  T
  11   -134.2338512 -0.146020E-03  0.391E-02    0.00       1.0  T
  12   -134.2339742 -0.123040E-03  0.209E-02    0.00       1.0  T
  13   -134.2340246 -0.504255E-04  0.192E-03    0.01       6.1  T
  14   -134.2340240  0.666991E-06  0.304E-03    0.01       3.8  T
  15   -134.2340249 -0.952694E-06  0.106E-03    0.01      11.0  T
  16   -134.2340250 -0.118830E-06  0.317E-04    0.01      36.7  T
  17   -134.2340251 -0.112601E-07  0.658E-05    0.01     176.7  T
     SCC iter.                  ...        0 min,  0.168 sec
     gradient                   ...        0 min,  0.077 sec
 * total energy  :  -131.9909568 Eh     change       -0.3440200E-03 Eh
   gradient norm :     0.0048487 Eh/α   predicted    -0.2345002E-03 ( -31.84%)
   displ. norm   :     0.4377371 α      lambda       -0.3538801E-03
   maximum displ.:     0.3219382 α      in ANC's #7, #5, #6, ...

........................................................................
.............................. CYCLE   30 ..............................
........................................................................
   1   -134.2323803 -0.134232E+03  0.983E-02    0.01       0.0  T
   2   -133.9143369  0.318043E+00  0.167E+00    0.03       1.0  T
   3   -134.2294326 -0.315096E+00  0.175E-01    0.00       1.0  T
   4   -134.1486172  0.808154E-01  0.846E-01    0.04       1.0  T
   5   -134.2306611 -0.820439E-01  0.137E-01    0.01       1.0  T
   6   -134.2273683  0.329277E-02  0.216E-01    0.00       1.0  T
   7   -134.2327437 -0.537534E-02  0.307E-02    0.00       1.0  T
   8   -134.2327265  0.171817E-04  0.327E-02    0.00       1.0  T
   9   -134.2326269  0.996282E-04  0.435E-02    0.00       1.0  T
  10   -134.2328138 -0.186884E-03  0.173E-02    0.00       1.0  T
  11   -134.2328198 -0.600887E-05  0.154E-02    0.00       1.0  T
  12   -134.2328384 -0.186374E-04  0.881E-03    0.00       1.3  T
  13   -134.2328468 -0.838966E-05  0.229E-03    0.00       5.1  T
  14   -134.2328469 -0.146492E-06  0.195E-03    0.00       6.0  T
  15   -134.2328474 -0.415659E-06  0.503E-04    0.00      23.1  T
  16   -134.2328474 -0.274979E-07  0.132E-04    0.01      88.1  T
     SCC iter.                  ...        0 min,  0.159 sec
     gradient                   ...        0 min,  0.077 sec
 * total energy  :  -131.9912509 Eh     change       -0.2940978E-03 Eh
   gradient norm :     0.0042179 Eh/α   predicted    -0.2108499E-03 ( -28.31%)
   displ. norm   :     0.4194014 α      lambda       -0.2592899E-03
   maximum displ.:     0.3079468 α      in ANC's #7, #5, #6, ...

........................................................................
.............................. CYCLE   31 ..............................
........................................................................
   1   -134.2317006 -0.134232E+03  0.796E-02    0.01       0.0  T
   2   -133.9383566  0.293344E+00  0.159E+00    0.03       1.0  T
   3   -134.2317198 -0.293363E+00  0.515E-02    0.00       1.0  T
   4   -134.2235581  0.816166E-02  0.265E-01    0.02       1.0  T
   5   -134.2294952 -0.593705E-02  0.141E-01    0.00       1.0  T
   6   -134.2318234 -0.232821E-02  0.802E-03    0.00       1.4  T
   7   -134.2317739  0.495072E-04  0.217E-02    0.00       1.0  T
   8   -134.2317756 -0.178034E-05  0.212E-02    0.00       1.0  T
   9   -134.2318043 -0.286966E-04  0.143E-02    0.00       1.0  T
  10   -134.2318243 -0.199698E-04  0.574E-03    0.00       2.0  T
  11   -134.2318274 -0.311332E-05  0.249E-03    0.00       4.7  T
  12   -134.2318280 -0.589938E-06  0.105E-03    0.00      11.0  T
  13   -134.2318281 -0.994824E-07  0.507E-04    0.00      22.9  T
  14   -134.2318281 -0.302354E-07  0.279E-05    0.00     416.5  T
     SCC iter.                  ...        0 min,  0.140 sec
     gradient                   ...        0 min,  0.077 sec
 * total energy  :  -131.9914562 Eh     change       -0.2052758E-03 Eh
   gradient norm :     0.0033669 Eh/α   predicted    -0.1524544E-03 ( -25.73%)
   displ. norm   :     0.3366272 α      lambda       -0.1489962E-03
   maximum displ.:     0.2502638 α      in ANC's #7, #5, #1, ...

........................................................................
.............................. CYCLE   32 ..............................
........................................................................
   1   -134.2316209 -0.134232E+03  0.585E-02    0.01       0.0  T
   2   -134.0999120  0.131709E+00  0.106E+00    0.03       1.0  T
   3   -134.2312742 -0.131362E+00  0.647E-02    0.01       1.0  T
   4   -134.2315502 -0.276029E-03  0.288E-02    0.00       1.0  T
   5   -134.2312860  0.264284E-03  0.549E-02    0.01       1.0  T
   6   -134.2316404 -0.354412E-03  0.367E-03    0.00       3.2  T
   7   -134.2316401  0.243413E-06  0.336E-03    0.00       3.5  T
   8   -134.2316405 -0.372854E-06  0.217E-03    0.00       5.4  T
   9   -134.2316410 -0.511546E-06  0.419E-04    0.00      27.8  T
  10   -134.2316410 -0.103605E-07  0.144E-04    0.00      80.7  T
     SCC iter.                  ...        0 min,  0.100 sec
     gradient                   ...        0 min,  0.077 sec
 * total energy  :  -131.9915726 Eh     change       -0.1164110E-03 Eh
   gradient norm :     0.0026188 Eh/α   predicted    -0.8294059E-04 ( -28.75%)
   displ. norm   :     0.2475660 α      lambda       -0.8614968E-04
   maximum displ.:     0.1872199 α      in ANC's #7, #5, #1, ...

........................................................................
.............................. CYCLE   33 ..............................
........................................................................
   1   -134.2323458 -0.134232E+03  0.419E-02    0.00       0.0  T
   2   -134.2180305  0.143153E-01  0.350E-01    0.01       1.0  T
   3   -134.2291241 -0.110936E-01  0.167E-01    0.01       1.0  T
   4   -134.2323185 -0.319443E-02  0.171E-02    0.00       1.0  T
   5   -134.2323406 -0.220533E-04  0.936E-03    0.00       1.2  T
   6   -134.2323391  0.147379E-05  0.944E-03    0.00       1.2  T
   7   -134.2323477 -0.856397E-05  0.243E-03    0.00       4.8  T
   8   -134.2323483 -0.646917E-06  0.462E-04    0.00      25.2  T
   9   -134.2323483 -0.576381E-08  0.375E-04    0.00      31.0  T
     SCC iter.                  ...        0 min,  0.091 sec
     gradient                   ...        0 min,  0.077 sec
 * total energy  :  -131.9916430 Eh     change       -0.7034634E-04 Eh
   gradient norm :     0.0022573 Eh/α   predicted    -0.4571603E-04 ( -35.01%)
   displ. norm   :     0.2127140 α      lambda       -0.7044949E-04
   maximum displ.:     0.1613315 α      in ANC's #7, #5, #1, ...

........................................................................
.............................. CYCLE   34 ..............................
........................................................................
   1   -134.2334269 -0.134233E+03  0.358E-02    0.00       0.0  T
   2   -134.2042092  0.292176E-01  0.499E-01    0.02       1.0  T
   3   -134.2327399 -0.285307E-01  0.791E-02    0.01       1.0  T
   4   -134.2334122 -0.672278E-03  0.133E-02    0.00       1.0  T
   5   -134.2334105  0.174268E-05  0.133E-02    0.01       1.0  T
   6   -134.2334222 -0.117609E-04  0.853E-03    0.00       1.4  T
   7   -134.2334304 -0.817162E-05  0.163E-03    0.00       7.1  T
   8   -134.2334307 -0.265937E-06  0.418E-04    0.00      27.8  T
   9   -134.2334307 -0.679373E-08  0.216E-04    0.00      53.8  T
     SCC iter.                  ...        0 min,  0.091 sec
     gradient                   ...        0 min,  0.077 sec
 * total energy  :  -131.9917032 Eh     change       -0.6019868E-04 Eh
   gradient norm :     0.0023286 Eh/α   predicted    -0.3682333E-04 ( -38.83%)
   displ. norm   :     0.2365298 α      lambda       -0.7879826E-04
   maximum displ.:     0.1756615 α      in ANC's #7, #5, #1, ...

........................................................................
.............................. CYCLE   35 ..............................
........................................................................
   1   -134.2346012 -0.134235E+03  0.416E-02    0.00       0.0  T
   2   -134.0799841  0.154617E+00  0.115E+00    0.03       1.0  T
   3   -134.2345531 -0.154569E+00  0.334E-02    0.01       1.0  T
   4   -134.2346235 -0.703958E-04  0.794E-03    0.00       1.5  T
   5   -134.2344398  0.183644E-03  0.395E-02    0.01       1.0  T
   6   -134.2346219 -0.182134E-03  0.523E-03    0.00       2.2  T
   7   -134.2346249 -0.293729E-05  0.122E-03    0.00       9.5  T
   8   -134.2346250 -0.814544E-07  0.506E-04    0.00      23.0  T
   9   -134.2346250  0.820719E-08  0.455E-04    0.00      25.6  T
     SCC iter.                  ...        0 min,  0.092 sec
     gradient                   ...        0 min,  0.077 sec
 * total energy  :  -131.9917707 Eh     change       -0.6748570E-04 Eh
   gradient norm :     0.0024983 Eh/α   predicted    -0.4160548E-04 ( -38.35%)
   displ. norm   :     0.2789313 α      lambda       -0.8713086E-04
   maximum displ.:     0.2006355 α      in ANC's #7, #1, #5, ...

........................................................................
.............................. CYCLE   36 ..............................
........................................................................
   1   -134.2354648 -0.134235E+03  0.547E-02    0.01       0.0  T
   2   -133.9513474  0.284117E+00  0.157E+00    0.03       1.0  T
   3   -134.2355635 -0.284216E+00  0.270E-02    0.00       1.0  T
   4   -134.2342067  0.135677E-02  0.108E-01    0.01       1.0  T
   5   -134.2336850  0.521684E-03  0.126E-01    0.00       1.0  T
   6   -134.2355659 -0.188090E-02  0.269E-03    0.00       4.3  T
   7   -134.2355394  0.264694E-04  0.151E-02    0.00       1.0  T
   8   -134.2355589 -0.194786E-04  0.785E-03    0.00       1.5  T
   9   -134.2355620 -0.305354E-05  0.592E-03    0.00       2.0  T
  10   -134.2355647 -0.273891E-05  0.341E-03    0.00       3.4  T
  11   -134.2355659 -0.119886E-05  0.117E-03    0.00       9.9  T
  12   -134.2355661 -0.157218E-06  0.159E-04    0.00      73.2  T
  13   -134.2355661 -0.881812E-09  0.132E-04    0.00      88.1  T
     SCC iter.                  ...        0 min,  0.130 sec
     gradient                   ...        0 min,  0.077 sec
 * total energy  :  -131.9918434 Eh     change       -0.7275688E-04 Eh
   gradient norm :     0.0024207 Eh/α   predicted    -0.4695528E-04 ( -35.46%)
   displ. norm   :     0.2993032 α      lambda       -0.8093913E-04
   maximum displ.:     0.2087806 α      in ANC's #7, #1, #5, ...

........................................................................
.............................. CYCLE   37 ..............................
........................................................................
   1   -134.2359607 -0.134236E+03  0.657E-02    0.01       0.0  T
[...]
    47   6 C       48   7 N                                       1.3692712
    47   6 C       49   6 C                                       1.3793934
    49   6 C       50   6 C                                       1.3787915
    50   6 C       51   6 C                                       1.4339584
    51   6 C       52   6 C                                       1.3511533
    52   6 C       53   6 C                                       1.4340453
    50   6 C       54   7 N                                       1.3670331
    53   6 C       54   7 N                                       1.3661536
    53   6 C       55   6 C                                       1.3795661
    55   6 C       56   6 C                                       1.3793371
    56   6 C       57   6 C                                       1.4341310 (max)
    57   6 C       58   6 C                                       1.3512085
    58   6 C       59   6 C                                       1.4337128
    56   6 C       60   7 N                                       1.3664434
    59   6 C       60   7 N                                       1.3664995
    59   6 C       61   6 C                                       1.3790182
    40   6 C       62   6 C                                       1.4315836
    61   6 C       62   6 C                                       1.3790282
    42   6 C       63   7 N                                       1.3624853
    62   6 C       63   7 N                                       1.3700225
    40   6 C       64   1 H                                       1.0726404
    41   6 C       65   1 H                                       1.0724925
    45   6 C       66   1 H                                       1.0723364
    46   6 C       67   1 H                                       1.0726672
    49   6 C       68   1 H                                       1.0794257
    51   6 C       69   1 H                                       1.0728700
    52   6 C       70   1 H                                       1.0728697
    55   6 C       71   1 H                                       1.0792624
    57   6 C       72   1 H                                       1.0728306
    58   6 C       73   1 H                                       1.0728715
    61   6 C       74   1 H                                       1.0793937

 * 3 distinct bonds (by element types)

   Z      Z             #   av. dist./Å        max./Å        min./Å
   1 H    6 C          22     1.0745113     1.0794317     1.0722987
   6 C    6 C          41     1.3920561     1.4341310     1.2120184
   6 C    7 N          16     1.3665435     1.3700225     1.3624853

           -------------------------------------------------
          |               Frequency Printout                |
           -------------------------------------------------
 projected vibrational frequencies (cm⁻¹)
eigval :       -0.00    -0.00    -0.00    -0.00     0.00     0.00
eigval :       -9.92     8.67    10.07    16.50    25.87    28.92
eigval :       35.64    60.60    67.87    83.05   101.25   103.64
eigval :      115.14   119.66   124.63   138.46   189.84   190.13
eigval :      193.21   215.43   224.99   226.44   230.73   231.67
eigval :      244.18   247.19   249.34   250.03   250.60   252.62
eigval :      266.80   267.95   271.76   273.00   286.44   313.04
eigval :      325.61   327.01   333.35   344.39   350.54   358.67
eigval :      365.44   377.09   380.81   385.01   389.19   390.75
eigval :      397.47   401.71   406.02   418.85   423.30   426.84
eigval :      436.65   438.83   462.48   463.90   502.30   517.94
eigval :      606.96   619.51   621.56   623.12   623.39   625.61
eigval :      625.95   637.30   638.73   642.77   644.20   658.55
eigval :      659.23   665.97   668.02   673.75   674.70   723.17
eigval :      724.08   724.24   725.06   758.56   761.56   765.93
eigval :      769.69   779.42   780.85   781.33   782.59   795.59
eigval :      799.96   800.44   804.71   806.71   807.05   810.64
eigval :      812.50   818.30   820.14   825.87   827.55   833.49
eigval :      834.90   836.76   837.77   843.36   844.24   844.85
eigval :      845.32   845.65   845.79   848.52   855.27   887.37
eigval :      958.00   989.46   991.48  1002.61  1003.87  1016.26
eigval :     1019.94  1021.15  1022.48  1026.54  1027.31  1035.33
eigval :     1035.81  1037.11  1041.12  1062.25  1064.99  1067.12
eigval :     1068.79  1070.56  1072.33  1073.78  1075.26  1096.46
eigval :     1135.37  1140.11  1141.08  1155.55  1171.90  1172.94
eigval :     1175.36  1188.26  1224.03  1226.34  1244.47  1245.55
eigval :     1281.13  1282.63  1294.91  1305.21  1307.05  1308.44
eigval :     1317.60  1319.71  1327.38  1330.72  1331.36  1331.89
eigval :     1334.77  1343.50  1349.55  1355.49  1355.55  1356.23
eigval :     1371.48  1465.41  1467.64  1470.83  1479.92  1487.95
eigval :     1499.97  1504.08  1508.08  1513.00  1518.53  1531.40
eigval :     1532.98  1538.47  1541.91  1544.10  1548.78  1559.45
eigval :     1563.26  1572.87  1578.60  1583.74  1589.45  1613.43
eigval :     1619.96  2271.75  3093.43  3093.44  3093.57  3093.86
eigval :     3094.80  3095.12  3149.54  3149.54  3149.91  3149.99
eigval :     3154.53  3154.87  3154.97  3155.13  3163.40  3163.46
eigval :     3163.70  3163.89  3169.18  3169.91  3170.76  3171.32
 reduced masses (amu)
   1: 13.51   2: 18.01   3: 18.67   4: 16.91   5: 18.64   6: 19.06   7: 11.31   8: 11.23
   9: 11.42  10: 11.54  11: 10.98  12: 11.56  13: 11.17  14: 13.22  15: 13.62  16: 19.22
  17: 28.66  18: 26.42  19: 11.42  20: 10.59  21: 10.65  22: 11.26  23: 12.42  24: 12.58
  25: 12.20  26: 14.63  27: 12.86  28: 12.22  29: 14.53  30: 14.22  31: 10.81  32: 11.02
  33: 13.09  34: 22.87  35: 12.09  36: 15.72  37: 43.55  38: 43.72  39: 42.71  40: 43.04
  41: 23.13  42: 12.95  43: 12.76  44: 13.71  45: 16.33  46: 12.19  47: 12.29  48: 12.82
  49: 11.70  50: 12.50  51: 14.02  52: 13.52  53: 10.15  54: 10.58  55: 15.82  56: 14.28
  57: 14.50  58: 12.76  59: 10.12  60: 12.41  61: 10.23  62: 10.29  63: 11.79  64: 11.78
  65: 11.75  66: 11.71  67: 11.67  68: 11.09  69: 11.19  70: 11.14  71: 11.05  72: 10.80
  73: 10.77  74: 11.18  75: 11.19  76: 11.08  77: 11.13  78: 11.39  79: 11.41  80: 11.56
  81: 11.59  82: 11.54  83: 11.45  84: 11.09  85: 10.95  86: 11.04  87: 10.96  88: 11.16
  89: 11.14  90: 11.24  91: 11.29  92: 11.32  93: 11.36  94: 10.77  95: 11.00  96: 11.63
  97:  3.87  98:  4.19  99:  8.00 100:  5.97 101:  5.27 102:  4.06 103:  4.16 104:  4.37
 105:  4.27 106:  3.88 107:  3.94 108:  3.90 109:  3.93 110:  4.03 111:  4.07 112:  3.39
 113:  3.47 114:  3.46 115:  3.51 116:  3.51 117:  3.52 118:  3.44 119:  3.36 120: 11.23
 121: 11.75 122: 12.33 123: 12.24 124: 12.03 125: 12.03 126: 11.65 127: 10.87 128:  8.85
 129:  9.14 130:  9.90 131:  9.52 132:  9.41 133:  9.35 134:  8.88 135:  9.07 136:  2.12
 137:  1.81 138:  1.59 139:  1.89 140:  1.78 141:  1.95 142:  1.94 143:  2.08 144:  8.28
 145:  5.25 146:  5.47 147:  5.53 148:  6.73 149:  6.24 150:  7.20 151:  7.27 152:  7.94
 153:  8.70 154:  8.75 155:  8.35 156:  8.39 157:  8.90 158:  8.86 159: 11.33 160: 10.69
 161: 10.62 162: 10.75 163: 10.28 164: 10.22 165: 11.55 166: 10.18 167: 11.39 168: 10.02
 169: 11.88 170: 12.16 171: 10.15 172:  9.66 173:  9.29 174:  9.14 175: 11.12 176: 11.57
 177: 11.52 178: 11.52 179: 11.49 180: 11.63 181: 11.76 182: 11.45 183: 11.44 184: 11.71
 185: 11.69 186: 11.69 187: 11.83 188: 11.85 189: 11.80 190: 11.66 191: 11.65 192: 11.61
 193: 11.62 194: 11.62 195: 11.64 196: 11.64 197: 11.65 198: 11.75 199: 11.76 200: 12.01
 201:  1.82 202:  1.82 203:  1.82 204:  1.82 205:  1.82 206:  1.82 207:  1.81 208:  1.81
 209:  1.80 210:  1.80 211:  1.81 212:  1.81 213:  1.82 214:  1.82 215:  1.98 216:  1.98
 217:  1.98 218:  1.98 219:  1.97 220:  1.97 221:  1.96 222:  1.96
 IR intensities (km·mol⁻¹)
   1: 37.75   2:  0.08   3: 13.87   4: 55.61   5:  0.32   6: 10.21   7: 23.59   8: 39.84
   9: 34.34  10: 20.56  11:  5.47  12: 40.50  13: 20.94  14:  7.31  15:  1.09  16:  1.59
  17: 10.48  18:  3.25  19: 64.73  20:159.57  21:  2.70  22: 82.78  23:111.41  24: 65.46
  25: 21.12  26:  1.96  27: 52.95  28: 65.60  29: 26.85  30: 36.52  31:  3.57  32:  2.22
  33:134.74  34: 85.52  35: 43.64  36:  5.40  37:  0.43  38: 18.27  39:  9.01  40:  1.99
  41: 30.45  42:  4.68  43:  9.89  44:124.91  45:  0.59  46:  5.90  47:  2.14  48: 51.32
  49:  8.57  50:  7.88  51:  8.42  52: 13.23  53:  0.75  54:  5.12  55:249.31  56:  3.89
  57: 31.60  58: 10.94  59:  3.75  60: 39.95  61:  2.61  62: 11.91  63: 35.12  64:  0.83
  65: 25.49  66:  5.81  67: 27.18  68:124.29  69:  2.93  70:  1.86  71:336.31  72: 42.10
  73: 13.61  74: 55.15  75:  4.87  76: 61.26  77:195.60  78: 93.23  79:  3.40  80: 44.63
  81: 26.55  82:  6.30  83: 20.82  84:  3.85  85: 10.20  86:  4.07  87:  8.97  88:  6.36
  89:  9.06  90: 45.34  91:******  92: 20.75  93:  7.25  94: 22.75  95:  0.10  96: 20.30
  97: 41.04  98: 13.60  99:  8.45 100:136.01 101: 22.51 102: 10.01 103: 24.14 104:  0.09
 105: 18.46 106: 22.27 107:  8.87 108: 25.61 109: 90.61 110:136.05 111: 21.92 112: 95.03
 113: 44.59 114: 37.84 115: 27.53 116: 17.26 117: 13.05 118:  1.76 119:  2.85 120:  4.61
 121:****** 122:255.29 123:179.60 124: 34.50 125: 68.61 126: 24.08 127: 11.55 128: 31.82
 129: 10.71 130:  1.41 131:  1.54 132:193.49 133: 18.53 134:  4.96 135:  9.12 136:******
 137:607.72 138: 89.40 139: 98.06 140:  1.81 141:****** 142: 69.27 143: 20.55 144:  0.76
 145:557.80 146: 14.67 147:  3.74 148: 18.62 149:  5.10 150:  3.93 151: 10.01 152: 62.91
 153: 25.07 154: 12.06 155:  5.79 156:  0.78 157:  1.39 158: 20.29 159: 59.52 160: 33.66
 161: 15.64 162:  1.19 163: 23.26 164: 14.09 165: 11.92 166: 29.99 167: 10.56 168:  9.16
 169: 62.14 170:  0.29 171:113.52 172:  0.73 173:  6.72 174:  5.71 175:  0.16 176:  1.89
 177:  6.72 178: 21.17 179:191.66 180:  0.58 181:206.56 182:  2.99 183:  1.25 184: 11.40
Refinement of some symmetry elements was terminated before convergence was reached.
Some symmetry elements may remain unidentified.
Molecule has no symmetry elements
It seems to be the C1 point group
 185: 91.29 186: 13.95 187: 21.95 188: 19.15 189: 41.28 190: 21.80 191: 15.74 192:  3.80
 193:  3.84 194: 18.42 195: 21.08 196: 45.29 197: 38.88 198:  3.06 199:  2.59 200:  2.26
 201: 22.50 202:  5.81 203: 56.62 204: 25.29 205:147.13 206:111.30 207:150.41 208: 30.38
 209:221.32 210:143.64 211:871.96 212: 61.89 213:442.22 214:****** 215: 34.06 216: 42.63
 217:129.16 218: 19.67 219:755.58 220:345.24 221:****** 222:******
 Raman intensities (amu)
   1:  0.00   2:  0.00   3:  0.00   4:  0.00   5:  0.00   6:  0.00   7:  0.00   8:  0.00
   9:  0.00  10:  0.00  11:  0.00  12:  0.00  13:  0.00  14:  0.00  15:  0.00  16:  0.00
  17:  0.00  18:  0.00  19:  0.00  20:  0.00  21:  0.00  22:  0.00  23:  0.00  24:  0.00
  25:  0.00  26:  0.00  27:  0.00  28:  0.00  29:  0.00  30:  0.00  31:  0.00  32:  0.00
  33:  0.00  34:  0.00  35:  0.00  36:  0.00  37:  0.00  38:  0.00  39:  0.00  40:  0.00
  41:  0.00  42:  0.00  43:  0.00  44:  0.00  45:  0.00  46:  0.00  47:  0.00  48:  0.00
  49:  0.00  50:  0.00  51:  0.00  52:  0.00  53:  0.00  54:  0.00  55:  0.00  56:  0.00
  57:  0.00  58:  0.00  59:  0.00  60:  0.00  61:  0.00  62:  0.00  63:  0.00  64:  0.00
  65:  0.00  66:  0.00  67:  0.00  68:  0.00  69:  0.00  70:  0.00  71:  0.00  72:  0.00
  73:  0.00  74:  0.00  75:  0.00  76:  0.00  77:  0.00  78:  0.00  79:  0.00  80:  0.00
  81:  0.00  82:  0.00  83:  0.00  84:  0.00  85:  0.00  86:  0.00  87:  0.00  88:  0.00
  89:  0.00  90:  0.00  91:  0.00  92:  0.00  93:  0.00  94:  0.00  95:  0.00  96:  0.00
  97:  0.00  98:  0.00  99:  0.00 100:  0.00 101:  0.00 102:  0.00 103:  0.00 104:  0.00
 105:  0.00 106:  0.00 107:  0.00 108:  0.00 109:  0.00 110:  0.00 111:  0.00 112:  0.00
 113:  0.00 114:  0.00 115:  0.00 116:  0.00 117:  0.00 118:  0.00 119:  0.00 120:  0.00
 121:  0.00 122:  0.00 123:  0.00 124:  0.00 125:  0.00 126:  0.00 127:  0.00 128:  0.00
 129:  0.00 130:  0.00 131:  0.00 132:  0.00 133:  0.00 134:  0.00 135:  0.00 136:  0.00
 137:  0.00 138:  0.00 139:  0.00 140:  0.00 141:  0.00 142:  0.00 143:  0.00 144:  0.00
 145:  0.00 146:  0.00 147:  0.00 148:  0.00 149:  0.00 150:  0.00 151:  0.00 152:  0.00
 153:  0.00 154:  0.00 155:  0.00 156:  0.00 157:  0.00 158:  0.00 159:  0.00 160:  0.00
 161:  0.00 162:  0.00 163:  0.00 164:  0.00 165:  0.00 166:  0.00 167:  0.00 168:  0.00
 169:  0.00 170:  0.00 171:  0.00 172:  0.00 173:  0.00 174:  0.00 175:  0.00 176:  0.00
 177:  0.00 178:  0.00 179:  0.00 180:  0.00 181:  0.00 182:  0.00 183:  0.00 184:  0.00
 185:  0.00 186:  0.00 187:  0.00 188:  0.00 189:  0.00 190:  0.00 191:  0.00 192:  0.00
 193:  0.00 194:  0.00 195:  0.00 196:  0.00 197:  0.00 198:  0.00 199:  0.00 200:  0.00
 201:  0.00 202:  0.00 203:  0.00 204:  0.00 205:  0.00 206:  0.00 207:  0.00 208:  0.00
 209:  0.00 210:  0.00 211:  0.00 212:  0.00 213:  0.00 214:  0.00 215:  0.00 216:  0.00
 217:  0.00 218:  0.00 219:  0.00 220:  0.00 221:  0.00 222:  0.00
 output can be read by thermo (or use thermo option).
 writing <g98.out> molden fake output.
 recommended (thermochemical) frequency scaling factor: 1.0
           -------------------------------------------------
          |             Thermodynamic Functions             |
           -------------------------------------------------

c1  symmetry found (for desy threshold:  0.10E+00) used in thermo
 inverting freq            1   9.9182704816875997     

          ...................................................
          :                      SETUP                      :
          :.................................................:
          :  # frequencies                         216      :
          :  # imaginary freq.                       0      :
          :  linear?                             false      :
          :  only rotor calc.                    false      :
          :  symmetry                               c1      :
          :  rotational number                       1      :
          :  scaling factor                  1.0000000      :
          :  rotor cutoff                   50.0000000 cm⁻¹ :
          :  imag. cutoff                  -20.0000000 cm⁻¹ :
          :.................................................:

    mode    ω/cm⁻¹     T·S(HO)/kcal·mol⁻¹    T·S(FR)/kcal·mol⁻¹   T·S(vib)
   ------------------------------------------------------------------------
       1      9.92    -2.39335 (  0.15%)    -1.53574 ( 99.85%)    -1.53706
       2      8.67    -2.47295 (  0.09%)    -1.57554 ( 99.91%)    -1.57635
       3     10.07    -2.38427 (  0.16%)    -1.53120 ( 99.84%)    -1.53260
       4     16.50    -2.09201 (  1.17%)    -1.38503 ( 98.83%)    -1.39331
       5     25.87    -1.82574 (  6.68%)    -1.25179 ( 93.32%)    -1.29015
       6     28.92    -1.75968 ( 10.07%)    -1.21871 ( 89.93%)    -1.27317
       7     35.64    -1.63620 ( 20.52%)    -1.15685 ( 79.48%)    -1.25519
       8     60.60    -1.32301 ( 68.34%)    -0.99957 ( 31.66%)    -1.22061
       9     67.87    -1.25642 ( 77.25%)    -0.96600 ( 22.75%)    -1.19035
      10     83.05    -1.13820 ( 88.39%)    -0.90624 ( 11.61%)    -1.11126
      11    101.25    -1.02266 ( 94.39%)    -0.84752 (  5.61%)    -1.01283
      12    103.64    -1.00912 ( 94.86%)    -0.84061 (  5.14%)    -1.00046
      13    115.14    -0.94821 ( 96.57%)    -0.80944 (  3.43%)    -0.94345
      14    119.66    -0.92601 ( 97.04%)    -0.79804 (  2.96%)    -0.92222
      15    124.63    -0.90260 ( 97.47%)    -0.78599 (  2.53%)    -0.89966
      16    138.46    -0.84228 ( 98.33%)    -0.75481 (  1.67%)    -0.84082
      17    189.84    -0.66470 ( 99.52%)    -0.66132 (  0.48%)    -0.66468
      18    190.13    -0.66385 ( 99.52%)    -0.66087 (  0.48%)    -0.66384
      19    193.21    -0.65497 ( 99.55%)    -0.65610 (  0.45%)    -0.65498
      20    215.43    -0.59546 ( 99.71%)    -0.62386 (  0.29%)    -0.59554
      21    224.99    -0.57203 ( 99.76%)    -0.61100 (  0.24%)    -0.57212
      22    226.44    -0.56856 ( 99.76%)    -0.60908 (  0.24%)    -0.56865
      23    230.73    -0.55851 ( 99.78%)    -0.60353 (  0.22%)    -0.55861
      24    231.67    -0.55634 ( 99.78%)    -0.60233 (  0.22%)    -0.55644
      25    244.18    -0.52839 ( 99.82%)    -0.58675 (  0.18%)    -0.52849
      26    247.19    -0.52192 ( 99.83%)    -0.58311 (  0.17%)    -0.52202
      27    249.34    -0.51736 ( 99.84%)    -0.58055 (  0.16%)    -0.51747
      28    250.03    -0.51592 ( 99.84%)    -0.57973 (  0.16%)    -0.51602
      29    250.60    -0.51471 ( 99.84%)    -0.57906 (  0.16%)    -0.51481
      30    252.62    -0.51051 ( 99.85%)    -0.57668 (  0.15%)    -0.51061
      31    266.80    -0.48207 ( 99.88%)    -0.56050 (  0.12%)    -0.48216
      32    267.95    -0.47984 ( 99.88%)    -0.55922 (  0.12%)    -0.47993
      33    271.76    -0.47256 ( 99.89%)    -0.55504 (  0.11%)    -0.47265
      34    273.00    -0.47023 ( 99.89%)    -0.55370 (  0.11%)    -0.47032
      35    286.44    -0.44571 ( 99.91%)    -0.53946 (  0.09%)    -0.44580
   ------------------------------------------------------------------------

   temp. (K)  partition function   enthalpy   heat capacity  entropy
                                   cal/mol     cal/K/mol   cal/K/mol   J/K/mol
 298.15  VIB  0.226E+18            23112.572    156.857    140.396
         ROT  0.125E+09              888.752      2.981     40.029
         INT  0.283E+26            24001.325    159.838    180.425
         TR   0.201E+29             1481.254      4.968     45.729
         TOT                       25482.5787   164.8057   226.1537   946.2271

       T/K    H(0)-H(T)+PV         H(T)/Eh          T*S/Eh         G(T)/Eh
   ------------------------------------------------------------------------
    298.15    0.406091E-01    0.561848E+00    0.107453E+00    0.454395E+00
   ------------------------------------------------------------------------

         :::::::::::::::::::::::::::::::::::::::::::::::::::::
         ::                  THERMODYNAMIC                  ::
         :::::::::::::::::::::::::::::::::::::::::::::::::::::
         :: total free energy        -131.538855080056 Eh   ::
         ::.................................................::
         :: total energy             -131.993250123905 Eh   ::
         :: zero point energy           0.521238893790 Eh   ::
         :: G(RRHO) w/o ZPVE           -0.066843849940 Eh   ::
         :: G(RRHO) contrib.            0.454395043849 Eh   ::
         :::::::::::::::::::::::::::::::::::::::::::::::::::::
imag cut-off (cm-1) :    5.00
 found            1  significant imaginary frequency
 writing imag mode distorted coords to xtbhess.xyz
 for further optimization.

optimized geometry written to: xtbopt.xyz


           -------------------------------------------------
          | TOTAL ENERGY             -131.993250123905 Eh   |
          | TOTAL ENTHALPY           -131.431402156128 Eh   |
          | TOTAL FREE ENERGY        -131.538855080056 Eh   |
          | GRADIENT NORM               0.000295537135 Eh/α |
          | HOMO-LUMO GAP               0.006033861532 eV   |
           -------------------------------------------------

------------------------------------------------------------------------
 * finished run on 2021/11/19 at 10:39:24.447     
------------------------------------------------------------------------
 total:
 * wall-time:     0 d,  0 h,  1 min, 42.117 sec
 *  cpu-time:     0 d,  0 h,  1 min, 42.114 sec
 * ratio c/w:     1.000 speedup
 SCF:
 * wall-time:     0 d,  0 h,  0 min,  0.534 sec
 *  cpu-time:     0 d,  0 h,  0 min,  0.534 sec
 * ratio c/w:     1.000 speedup
 ANC optimizer:
 * wall-time:     0 d,  0 h,  0 min, 22.587 sec
 *  cpu-time:     0 d,  0 h,  0 min, 22.583 sec
 * ratio c/w:     1.000 speedup
 analytical hessian:
 * wall-time:     0 d,  0 h,  1 min, 18.931 sec
 *  cpu-time:     0 d,  0 h,  1 min, 18.932 sec
 * ratio c/w:     1.000 speedup

