74
 energy: -130.984758892313 gnorm: 2.268593219009 xtb: 6.4.1 (bd6e46d)
Co        9.61674700000000    0.02433600000000   -0.00470500000000
C        11.94573800000000   -3.12245800000000    1.31798400000000
C        12.86184500000000   -2.17825000000000    1.26770200000000
C        12.45066600000000   -1.12434600000000    0.34641000000000
C        13.06953600000000    0.00000000000000    0.00000000000000
C        12.36549400000000    1.21994800000000   -0.36410500000000
C        12.69360400000000    2.18000300000000   -1.21157900000000
C        11.65882500000000    3.19628900000000   -1.22847700000000
C        10.72255700000000    2.81982700000000   -0.38158500000000
N        11.12454700000000    1.58681600000000    0.18223200000000
C         9.46148200000000    3.46482600000000   -0.00243300000000
C         8.36626500000000    2.83004300000000    0.34832700000000
C         7.29264000000000    3.14799900000000    1.31735500000000
C         6.45507700000000    2.15124500000000    1.24018900000000
C         6.89337400000000    1.14756200000000    0.25973700000000
N         7.99831200000000    1.58641500000000   -0.22455600000000
C         6.28253900000000   -0.10570900000000   -0.15381100000000
C         6.94670000000000   -1.21021500000000   -0.40823600000000
C         6.57285100000000   -2.27315700000000   -1.36576300000000
C         7.52159800000000   -3.16691200000000   -1.27674400000000
C         8.50732200000000   -2.72946300000000   -0.29386600000000
N         8.15427600000000   -1.58365700000000    0.20293100000000
C         9.73821000000000   -3.38553300000000    0.15185500000000
C        10.86125200000000   -2.73967200000000    0.41897600000000
N        11.18985200000000   -1.49223100000000   -0.17942800000000
H        12.00600000000000   -4.03223800000000    1.93553000000000
H        13.77817300000000   -2.21819900000000    1.84575000000000
H        13.62097000000000    2.19679900000000   -1.81272200000000
H        11.67572400000000    4.10097700000000   -1.84109800000000
H         9.41376000000000    4.55962900000000   -0.00621100000000
H         7.23981800000000    4.02672400000000    1.94234700000000
H         5.54344600000000    2.11557600000000    1.85751300000000
H         5.18428900000000   -0.10279800000000   -0.25308200000000
H         5.70399500000000   -2.32562200000000   -2.01471300000000
H         7.51875200000000   -4.08322100000000   -1.87550300000000
H         9.70272800000000   -4.48133400000000    0.26378000000000
C        14.04471100000000    0.00000000000000    0.00000000000000
C        15.26091700000000    0.00000000000000    0.00000000000000
Co       19.72483700000000   -0.00926700000000   -0.16365300000000
C        17.17896800000000    3.22807700000000    1.12819700000000
C        16.25260800000000    2.30090300000000    0.98365000000000
C        16.85462100000000    1.13212300000000    0.32690600000000
C        16.26166900000000    0.00000000000000    0.00000000000000
C        16.89398300000000   -1.31318700000000   -0.02189100000000
C        16.37332000000000   -2.53274800000000    0.09962100000000
C        17.40886700000000   -3.53403100000000    0.01105400000000
C        18.56224200000000   -2.87856200000000   -0.16665800000000
N        18.27578900000000   -1.50783700000000   -0.19098400000000
C        19.90386600000000   -3.45018400000000   -0.31499700000000
C        21.04606000000000   -2.84495400000000   -0.14565100000000
C        22.32477200000000   -3.26380600000000    0.49090500000000
C        23.12464800000000   -2.25815800000000    0.35269600000000
C        22.47628600000000   -1.13258800000000   -0.35664800000000
N        21.28615700000000   -1.53013100000000   -0.61496100000000
C        22.98561100000000    0.18176500000000   -0.74347000000000
C        22.32622900000000    1.31092600000000   -0.64654000000000
C        22.72403600000000    2.59563200000000   -1.26695000000000
C        21.81683900000000    3.45875700000000   -0.92580900000000
C        20.81028100000000    2.79054400000000   -0.08741500000000
N        21.14020500000000    1.55184600000000    0.05002200000000
C        19.61483300000000    3.36180400000000    0.52614500000000
C        18.44821000000000    2.75141800000000    0.58563900000000
N        18.19719500000000    1.44905400000000    0.10130900000000
H        16.98734400000000    4.21027900000000    1.59597300000000
H        15.21029300000000    2.42575500000000    1.31558600000000
H        15.28730400000000   -2.69977300000000    0.24779800000000
H        17.23679100000000   -4.59554100000000    0.08059900000000
H        19.96479400000000   -4.51830000000000   -0.60107600000000
H        22.47792100000000   -4.22712500000000    0.95200800000000
H        24.14695400000000   -2.26091500000000    0.71966400000000
H        24.01967700000000    0.14843600000000   -1.14041600000000
H        23.60010100000000    2.79831100000000   -1.88991800000000
H        21.85649100000000    4.50999700000000   -1.24743700000000
H        19.70143100000000    4.35147900000000    0.95670400000000
74
 energy: -131.525205165814 gnorm: 0.563313656661 xtb: 6.4.1 (bd6e46d)
Co        9.62009224748750    0.02456270393781   -0.00414221633515
C        11.94175362690270   -3.13179860304732    1.31454565927655
C        12.86593961355961   -2.17405417702036    1.26531508204841
C        12.38958060539741   -1.15291874956725    0.35318460177661
C        12.90981841810274    0.01216856390907   -0.00047074198285
C        12.31768861470658    1.23242093304134   -0.36156737258715
C        12.69767363993228    2.19641407395291   -1.22250872740040
C        11.67566568666746    3.20066867408088   -1.23783245262635
C        10.71381691200270    2.81148241554302   -0.37539445655666
N        11.10048248456846    1.57955817486442    0.18174810352693
C         9.47315786257363    3.46817783748829   -0.00414292819150
C         8.35678630333575    2.82023674514601    0.34960716865241
C         7.29704918939193    3.15358933901961    1.30910524246101
C         6.43942976333665    2.14467542245904    1.24273845112354
C         6.88798708624142    1.14776658836650    0.26857167079496
N         8.02068371729107    1.57600912401656   -0.21849465116504
C         6.27425332818675   -0.09129419660091   -0.14957953164518
C         6.95051051945749   -1.21594480526284   -0.41154532999251
C         6.56716585055461   -2.26965777245187   -1.35955844834474
C         7.52780304905140   -3.17969890017705   -1.27624746070203
C         8.51344629123140   -2.73685620882258   -0.29786124142292
N         8.16080467321502   -1.56730933400220    0.19228134072675
C         9.72501652863034   -3.39238084862250    0.14745921946321
C        10.86550592795946   -2.73436755299654    0.42129568372130
N        11.17550562760002   -1.49479167690056   -0.16390917970381
H        12.00290819670786   -4.02962899364984    1.93191008207041
H        13.77841305564370   -2.21244039772717    1.84385861801736
H        13.61818873582192    2.19796232966610   -1.81164909477258
H        11.67793212768250    4.09942723367061   -1.84115034688336
H         9.41914392232887    4.55866665105135   -0.00365573106204
H         7.24239561375115    4.02585997850472    1.94029018055490
H         5.54307415232285    2.11178272038252    1.85612836824320
H         5.18580745837213   -0.10025114063055   -0.25512700731546
H         5.70516294605846   -2.32180633390773   -2.01171024338642
H         7.52315459241957   -4.08371385431483   -1.87351156865871
H         9.70081676387494   -4.47950354120793    0.26424582489545
C        14.13021219911277    0.00519894578629   -0.00213184012534
C        15.19507294057060   -0.00575330075747   -0.00368272545842
Co       19.72007846676839   -0.00919403510577   -0.16434524180551
C        17.18255164078568    3.23671938208467    1.13093450032902
C        16.25019210622680    2.29716258278333    0.98022655663394
C        16.91182823137344    1.16277339874337    0.33177859687820
C        16.40707243773314   -0.01379562086778   -0.00049350780681
C        16.94178492599275   -1.32403879405692   -0.02335878695182
C        16.36800306015111   -2.54800821947600    0.10050343102335
C        17.39266887572467   -3.53545889537614    0.01072438932892
C        18.57003178611344   -2.86971758643183   -0.17465197707661
N        18.29561867046544   -1.50335779143287   -0.18947070122965
C        19.88830861571479   -3.45590190596951   -0.31589574634271
C        21.05834251277818   -2.83302498420695   -0.14795856909111
C        22.31513528292140   -3.27004535896682    0.48186109869514
C        23.13976969167206   -2.24753633076652    0.35081135090478
C        22.48253916318388   -1.13475700694227   -0.35128497192712
N        21.26568196588890   -1.52054169790656   -0.60297483087203
C        22.99417496099979    0.16668094301377   -0.74282353692722
C        22.32430440681814    1.31671628044315   -0.64942560223794
C        22.73063111780440    2.58935796633707   -1.26626182337842
C        21.81026556816176    3.47171025142267   -0.92098119869943
C        20.80822084812089    2.79756237645666   -0.08699103483326
N        21.13407436155388    1.53723590410659    0.04122532953035
C        19.62542893761523    3.36617204710945    0.52350168647568
C        18.44133672212109    2.74339814308889    0.58814683991631
N        18.21019573252664    1.45224247493538    0.10598076401906
H        16.99126640939631    4.20770511122436    1.59389748901885
H        15.21416409966011    2.42009324359942    1.31200705085036
H        15.29220709954242   -2.70175303579960    0.24709017348678
H        17.23548367429359   -4.59549168970194    0.08089068081182
H        19.95942909211924   -4.51811158893630   -0.59227231086652
H        22.47566497349117   -4.22609993785901    0.95112635314073
H        24.14964535266944   -2.25723321756383    0.72012447059016
H        24.01721295625764    0.14900936915583   -1.13952734133753
H        23.59820380421440    2.79392966837098   -1.88769980619614
H        21.85186435936571    4.50919257746835   -1.24441325703279
H        19.70254281772252    4.35394590980305    0.95359048194480
74
 energy: -131.697200638303 gnorm: 0.330211122768 xtb: 6.4.1 (bd6e46d)
Co        9.62084242615352    0.02381985732455   -0.00285013420319
C        11.93597946911900   -3.14767171551841    1.30337571728901
C        12.86256830846641   -2.17595165923127    1.25685209282504
C        12.31290426808437   -1.17238194298257    0.36839022017101
C        12.79553511202149    0.02939238098909   -0.00069886865849
C        12.24466759823853    1.24540810006792   -0.36600846020507
C        12.69338544244135    2.22416350175636   -1.23121667943621
C        11.69665025323894    3.20948899168412   -1.24285502516646
C        10.69835427765692    2.80462718432212   -0.37467931198622
N        11.03429671336713    1.56630699259351    0.16359680358316
C         9.48670578241682    3.46912802351716   -0.00431457705496
C         8.35301732769138    2.80301224139406    0.35203155204252
C         7.29637439000467    3.15669672765314    1.28837776571767
C         6.41730065427852    2.14031034238155    1.23984304710947
C         6.88617707986162    1.14581912989819    0.28612664124181
N         8.06310592747794    1.54454066206268   -0.18575001724807
C         6.26619743766599   -0.07197435845558   -0.14241384918026
C         6.95568415609542   -1.21292206478831   -0.41905112989867
C         6.56242493117525   -2.27042255121806   -1.34257636674999
C         7.53177132775894   -3.19754333288600   -1.26899810019023
C         8.52138723355250   -2.74307382656458   -0.30806535796212
N         8.18229042243223   -1.53474984504978    0.15403657773584
C         9.70194945605263   -3.40694978043250    0.14211511416784
C        10.85209701238558   -2.73970503778013    0.42986251131477
N        11.11722149869695   -1.50091307079131   -0.11987570119917
H        11.99375352985901   -4.02932261933352    1.92360492706414
H        13.77569945322738   -2.19528022759294    1.83475426692124
H        13.61066477839566    2.20199166834668   -1.80806850179641
H        11.68567584446150    4.10007207150944   -1.84275527869456
H         9.43406630707968    4.55609152108914    0.00174981651447
H         7.25013457368224    4.02233235953726    1.93012153175577
H         5.53605530995200    2.10138476655230    1.85414771227737
H         5.18654702434336   -0.09104637028818   -0.25872509400976
H         5.70795867678339   -2.31138477261486   -2.00097617681565
H         7.53527142033115   -4.08981422978684   -1.86853314731343
H         9.69154279153578   -4.48300414807710    0.26324557760571
C        14.05253626140401    0.01594963826612   -0.00578136339966
C        15.26606905047143   -0.01731843232172   -0.00501066994518
Co       19.71514500886933   -0.00681093389280   -0.16779405374335
C        17.19318742615457    3.24677671381526    1.13273217510061
C        16.26049467816830    2.29644251350118    0.96718176386343
C        16.98457164238526    1.18719142224899    0.33788711542559
C        16.52213474260968   -0.03390798098877    0.00841211334927
C        17.01580559383007   -1.33674666442202   -0.02839956908768
C        16.37501176408951   -2.56580715066570    0.09601618662197
C        17.37522561987046   -3.53518737845630    0.00356887090089
C        18.58356206104515   -2.86475485121485   -0.19092182013333
N        18.34920700297335   -1.50327749340676   -0.18169769546973
C        19.87127758368884   -3.46005635198430   -0.31537008115851
C        21.06399280508050   -2.81448505428536   -0.15357239856829
C        22.30574371572062   -3.26986523889120    0.45681310694313
C        23.15783488891232   -2.23686929469092    0.34047004971504
C        22.48699523108929   -1.13559294333235   -0.33889420668651
N        21.23087257345384   -1.49356183976968   -0.56172143162770
C        23.00402297902787    0.14623306760622   -0.73878475749828
C        22.32120527414696    1.31496689328391   -0.65911295193799
C        22.73389188725599    2.58267639313354   -1.25834048842545
C        21.80635741574497    3.48482010954951   -0.90705588487761
C        20.80752314249647    2.80323442732241   -0.08743758177293
N        21.11739074710820    1.51399805215767    0.00974863924735
C        19.64427028512046    3.37707831449750    0.52028394483441
C        18.45047273112068    2.74203150614508    0.59791389744450
N        18.25872292172739    1.46486379820693    0.12194013193800
H        17.00316561137588    4.20627262475554    1.59091970111558
H        15.22765179156642    2.40119179286825    1.29863234283766
H        15.30698636390034   -2.70470458931127    0.24451278885845
H        17.23058658161078   -4.59515842899825    0.08099085687199
H        19.94406523051856   -4.52037459854547   -0.56587505507656
H        22.46699904969265   -4.21948058456346    0.94339828324928
H        24.15896760887017   -2.24708810396098    0.72019048676727
H        24.01625928978590    0.14800705249342   -1.13574236709976
H        23.59414233409770    2.78147552554330   -1.88122585520931
H        21.83877153926943    4.51119896493559   -1.23459883210661
H        19.70844634976165    4.36616213408414    0.94190751117209
74
 energy: -131.789433943656 gnorm: 0.190185947917 xtb: 6.4.1 (bd6e46d)
Co        9.60809260031858    0.02220724354568    0.00011513949755
C        11.92496860396608   -3.16698857893094    1.28703016865454
C        12.85018532266158   -2.17685208445038    1.24795912263251
C        12.26850750443226   -1.17737953062420    0.38826858540971
C        12.76160577195393    0.04764448747876   -0.00206352449675
C        12.18689237474279    1.25440231867091   -0.37384632840322
C        12.68281036080833    2.25287868158283   -1.23379611755091
C        11.71357150483749    3.22584364854497   -1.23915190236391
C        10.67251594779822    2.80199866693406   -0.38344032889401
N        10.95410227948332    1.54404745315959    0.10763301850796
C         9.49605189532113    3.46859047297648   -0.00380116284009
C         8.35930109799864    2.77625696014047    0.36545504260124
C         7.29434186490641    3.15490032996579    1.26083209569894
C         6.39358313580405    2.13926730668179    1.22688938381677
C         6.89070367926593    1.13636483088196    0.31379627458258
N         8.11852732188790    1.49737442207837   -0.12420941413111
C         6.26445952456137   -0.05318049884630   -0.13417982756017
C         6.96833240902771   -1.20011590752489   -0.43897405672443
C         6.55904557388263   -2.27126645428348   -1.32108881225623
C         7.52849819810220   -3.21609942354186   -1.25368791832368
C         8.52820317865650   -2.74529219226790   -0.32663685039994
N         8.21533046551156   -1.49012641772434    0.08981980836007
C         9.66958332112872   -3.42748604196342    0.13832898796593
C        10.82172908759552   -2.75208869156980    0.45123620039068
N        11.04813554532389   -1.49627523288616   -0.04073129371914
H        11.97993304444601   -4.03996178453260    1.90573918559357
H        13.76670925139381   -2.17133257781808    1.81626818131652
H        13.59896815995997    2.21023542443869   -1.79750916523672
H        11.69484147285192    4.11115208934626   -1.83868240876144
H         9.44951593035964    4.55207405368290    0.00579457125582
H         7.25905646015542    4.01807881695288    1.90574340976702
H         5.52073118515906    2.08794958247429    1.84380265430648
H         5.18953896639780   -0.07811168677255   -0.25716894352314
H         5.70789240808387   -2.29735587554983   -1.97948054421164
H         7.54897707492225   -4.10292510581622   -1.85449551123099
H         9.66994255413769   -4.49714394518151    0.25592447440082
C        14.05031759705909    0.02577000730763   -0.00944610483161
C        15.25896937230684   -0.02999661138531   -0.00173062072340
Co       19.71553196185977   -0.00541390530576   -0.17049326823261
C        17.21664081435284    3.25512339491090    1.13185871966811
C        16.28330104309663    2.29531883188146    0.95024349136037
C        17.02255262986865    1.19981354390179    0.33879724726775
C        16.55486322102552   -0.05677962322174    0.02521571699752
C        17.07621734143417   -1.34493346938866   -0.03475972028648
C        16.39296105643210   -2.58096562969259    0.08440364646932
C        17.36663218604050   -3.53489756482570   -0.01468932692919
C        18.60590385450348   -2.86510431688755   -0.20709440738982
N        18.40523979103774   -1.50690143718298   -0.16777687368983
C        19.85913873636365   -3.46333067729428   -0.30916475253601
C        21.06191473228165   -2.78767694152911   -0.15221179056667
C        22.29498712397891   -3.26138979063343    0.42069851106297
C        23.17305387259825   -2.22695192502215    0.31739449600419
C        22.48666206155381   -1.12891797592808   -0.31663945334090
N        21.18935283938891   -1.45391246172745   -0.49532139580198
C        23.00948472740901    0.12687151373537   -0.73135663258353
C        22.31008870079267    1.30731243901372   -0.68105632342442
C        22.73361534451099    2.57301244767371   -1.24661459504603
C        21.80871898357975    3.49278276369052   -0.88332673877783
C        20.80862626436900    2.80498749422946   -0.09336243521877
N        21.08968800524975    1.48496822576404   -0.04532601030595
C        19.67291883504468    3.39303414273279    0.51724420434138
C        18.47564805846778    2.74545685833444    0.61567788052664
N        18.30617193737853    1.47127324464016    0.15402351099286
H        17.02877989154598    4.20894495871953    1.58492757791274
H        15.25303094734218    2.37323453319233    1.27319696177256
H        15.33305823593699   -2.70695503878606    0.23854364769781
H        17.23051330854725   -4.59510397513005    0.07521764210662
H        19.92739483720497   -4.52647468386273   -0.51948383406043
H        22.45347996866757   -4.20594736289675    0.92000493199112
H        24.16972226595876   -2.23272523641545    0.71030500841814
H        24.01848319067556    0.14636655506185   -1.12081646921609
H        23.59062387054210    2.76182352373378   -1.86881361421123
H        21.82225936404068    4.51472437188134   -1.21103669061880
H        19.72409294970964    4.39227301745826    0.91507866907025
74
 energy: -131.851843551608 gnorm: 0.092354915992 xtb: 6.4.1 (bd6e46d)
Co        9.57603836318602    0.02099004173416    0.00664678499826
C        11.90777253842665   -3.17893274067935    1.27579821745654
C        12.82397409081418   -2.17176575755498    1.23611259632822
C        12.21269656107083   -1.15864736679547    0.42165325201385
C        12.73063829647043    0.06207493675048   -0.00392500666222
C        12.12012564675955    1.24067544044610   -0.39406696329613
C        12.66303686840005    2.26777334111536   -1.22905149125534
C        11.71961206186890    3.24503691577889   -1.23217347309450
C        10.63467477191287    2.79977156651323   -0.40336209070695
N        10.86992168462636    1.51826999779880    0.03196689292930
C         9.49284975107184    3.46919655578596   -0.00417545868655
C         8.37253033903279    2.74168410644971    0.39395974551033
C         7.29326675256701    3.14730843474985    1.24071313075248
C         6.37563797967224    2.13909417799886    1.21144374980264
C         6.89783277294616    1.11882923892018    0.34645904226154
N         8.16741456344904    1.45025687511171   -0.05217934188958
C         6.27000429739181   -0.04094666960310   -0.12685591321187
C         6.98953851065077   -1.18114183580658   -0.47342270075666
C         6.55751674097594   -2.26818448485445   -1.30833763914308
C         7.51771217301774   -3.22885637078549   -1.23640301624834
C         8.53299897046272   -2.74199331019944   -0.34985857283899
N         8.24887634048968   -1.44469347685758    0.01750512104712
C         9.63775531175510   -3.44197107659111    0.13656524675912
C        10.77995754504977   -2.75332961364379    0.48950333690441
N        10.96668084018915   -1.47640922214334    0.04467292324012
H        11.97050992312235   -4.06003710786891    1.88053575682879
H        13.75296339648942   -2.14438680499716    1.78171617225146
H        13.58844577177152    2.21229505965534   -1.77319137553620
H        11.70184592202276    4.13549572803028   -1.82473444053148
H         9.45137174109444    4.54924674079137    0.00336657051926
H         7.26219531361775    4.01898965955982    1.87181698474076
H         5.49775571032771    2.07804072828410    1.82040290986650
H         5.19555951293429   -0.07067793001681   -0.24331365932155
H         5.69899224016770   -2.28523261767553   -1.95355068648167
H         7.55469249639671   -4.12180076178077   -1.82780861049790
H         9.64663177341976   -4.51278132478445    0.23598317884668
C        14.05206658443107    0.03315344072948   -0.01297127406693
C        15.24594893045531   -0.04252733148840    0.00535583642151
Co       19.73957311977647   -0.01024942891269   -0.16191542322046
C        17.24900417743268    3.25553558531780    1.13030960746519
C        16.32228351922337    2.28481425552026    0.93215057859410
C        17.06378465718260    1.19271020587167    0.34478377306175
C        16.57708793281903   -0.07740563146017    0.04934761436783
C        17.13763084460857   -1.33819414318038   -0.03506692607709
C        16.42008642356118   -2.58047400473105    0.06774343489152
C        17.36922332797073   -3.53610335197470   -0.03776410509454
C        18.63529427509715   -2.86875932998462   -0.21496529175418
N        18.46238780642531   -1.51011770612788   -0.15584533201644
C        19.86128298363625   -3.47083390800474   -0.29459226987502
C        21.05648489633306   -2.75614997481927   -0.13713720026133
C        22.28688442966191   -3.24813302405123    0.38983282682991
C        23.18233859523742   -2.21850956551811    0.29216777762634
C        22.48412241264037   -1.11379019882200   -0.29005232819816
N        21.15718622089649   -1.41783350109772   -0.43105421315220
C        23.00826330101190    0.11460989707191   -0.72200138461583
C        22.28860324885914    1.29881392823359   -0.71533809786390
C        22.73145614479957    2.56211947568665   -1.24009262251125
C        21.81756772319429    3.49428434025197   -0.85896917358525
C        20.80915858322673    2.80462823004567   -0.10564515154253
N        21.05954362142638    1.45923736664104   -0.10684795532648
C        19.70322689918818    3.40855221666114    0.51134471215279
C        18.51012075356271    2.74398036670950    0.64032743675820
N        18.36223629730861    1.46291875963755    0.19237466064463
H        17.06003937822226    4.21243783276050    1.57613118688414
H        15.28726253242102    2.33746179074558    1.23448651675255
H        15.36253601229260   -2.69414371589292    0.22797142525568
H        17.23934667915882   -4.59736774886010    0.06035780329089
H        19.92526921590863   -4.53632567777501   -0.46830283412058
H        22.44417398202076   -4.19445567089496    0.88300060774911
H        24.18012013130752   -2.21899852487655    0.68526085804660
H        24.02415740434333    0.14807358270397   -1.09020349933518
H        23.59354812618196    2.74068020534136   -1.85488334494697
H        21.81257884352850    4.51996530472413   -1.17395015030427
H        19.74391741102697    4.42315258098183    0.87424374817747
74
 energy: -131.890163519920 gnorm: 0.066034842076 xtb: 6.4.1 (bd6e46d)
Co        9.54163363218280    0.01560395557191    0.01641841081816
C        11.88525495486347   -3.18090805248311    1.27403192558097
C        12.78951831223244   -2.16224966407927    1.23094828293665
C        12.15720293206660   -1.12751732997426    0.46384908877812
C        12.70505477394454    0.07043527544868   -0.00430437506153
C        12.06538769179651    1.21836428879826   -0.42754657392551
C        12.64015642880248    2.27214952816576   -1.22711367698410
C        11.71261210297545    3.25920286877832   -1.23038164688610
C        10.59626055680953    2.79227034127177   -0.43657166075421
N        10.80157715447161    1.49073182654032   -0.05113117834778
C         9.47793261173512    3.46688567626958   -0.00217862384022
C         8.38248325265380    2.71149445152189    0.42885340599889
C         7.28362818661454    3.14062567927321    1.23157374133858
C         6.36095199105992    2.13802911916382    1.20423480713609
C         6.90517526520488    1.09507045267712    0.38494679286510
N         8.19715361427388    1.41057438192363    0.02214436116644
C         6.27618240459176   -0.03843713152960   -0.12245088847611
C         7.00459822538267   -1.16412201158995   -0.51217775233687
C         6.54904085551208   -2.26600905084562   -1.30735150105819
C         7.49990303411753   -3.23507240659263   -1.22836584102886
C         8.53429838387370   -2.73322385672648   -0.38045391969949
N         8.27043772434374   -1.41387689745051   -0.05069297093646
C         9.61118492367206   -3.44533718802013    0.13576396832586
C        10.73451816751091   -2.74348185501612    0.53545099536933
N        10.89372398404762   -1.44595847389466    0.13035861715541
H        11.96644271680592   -4.08702745576483    1.84324215222589
H        13.73831282189168   -2.12233760063625    1.74029192292901
H        13.58185017498326    2.21828896534058   -1.74269529437993
H        11.71188598696913    4.16947266549504   -1.79616333733773
H         9.44066441444830    4.54506620027746    0.00250545506064
H         7.25132597843200    4.03160895403613    1.83195669874164
H         5.46241998378502    2.07768439128916    1.78496217753858
H         5.20068084554727   -0.06684554290306   -0.22344729160898
H         5.67324037713281   -2.28032569939544   -1.92627106444697
H         7.54267793311147   -4.14845080264397   -1.78963335301952
H         9.61938155763265   -4.52094868077813    0.20744909357700
C        14.05011671428379    0.03775112599732   -0.01368603607607
C        15.23590551686280   -0.05148542098046    0.01652637124186
Co       19.76613538669468   -0.01185109079782   -0.14992352218539
C        17.28489360747537    3.24954868532948    1.13100334296750
C        16.36571964170525    2.27315861903150    0.91976605559250
C        17.10317130126692    1.17394142038520    0.36092302810845
C        16.58935575949345   -0.09023944943482    0.07598897375603
C        17.18127192316757   -1.32804052704417   -0.03174261847148
C        16.44850018703448   -2.57284974397889    0.04875911559686
C        17.38283274598920   -3.53759560282913   -0.06161708055620
C        18.66008937689194   -2.87079696204101   -0.21721617767698
N        18.50460327737047   -1.51038817257146   -0.14380566674358
C        19.87919639894514   -3.47943826012176   -0.27335410943539
C        21.05521464667482   -2.73136273158572   -0.11411748508948
C        22.29442080411339   -3.23753967535553    0.36647643447722
C        23.19243121618911   -2.21219787476541    0.27338140297909
C        22.48173056731620   -1.09312891572789   -0.26038278584872
N        21.14074440361820   -1.38896645630604   -0.36991309096538
C        23.00590436940021    0.11332623062688   -0.71528850659805
C        22.27046109113126    1.29249018846027   -0.75180703810108
C        22.73538537890110    2.55520122281377   -1.24211275887053
C        21.83388651710565    3.49230122744361   -0.84465356111431
C        20.81038578212361    2.80083081470736   -0.12692158488631
N        21.03776738432041    1.44387526483275   -0.16330068246962
C        19.72923628452703    3.41704987119738    0.50174503282223
C        18.54668714390217    2.73535052661704    0.66687278418694
N        18.41110323994845    1.44322362350839    0.23587187818073
H        17.09706966423524    4.21478577836352    1.56277988535360
H        15.32243282901543    2.30686563571298    1.18985751525808
H        15.39121552692556   -2.67662979749268    0.21064256332080
H        17.25507318582867   -4.59936644742579    0.03289360161104
H        19.94034230113832   -4.55041904034186   -0.40656825750860
H        22.44868602388438   -4.19386814022482    0.83362300252937
H        24.19836828702756   -2.20884214766599    0.64510782221169
H        24.03447710557301    0.15186957215659   -1.04865011941077