      -----------------------------------------------------------      
     |                   =====================                   |     
     |                           x T B                           |     
     |                   =====================                   |     
     |                         S. Grimme                         |     
     |          Mulliken Center for Theoretical Chemistry        |     
     |                    University of Bonn                     |     
      -----------------------------------------------------------      

   * xtb version 6.4.1 (bd6e46d) compiled by 'conda@4901f00b25ba' on 2021-06-10

   xtb is free software: you can redistribute it and/or modify it under
   the terms of the GNU Lesser General Public License as published by
   the Free Software Foundation, either version 3 of the License, or
   (at your option) any later version.
   
   xtb is distributed in the hope that it will be useful,
   but WITHOUT ANY WARRANTY; without even the implied warranty of
   MERCHANTABILITY or FITNESS FOR A PARTICULAR PURPOSE.  See the
   GNU Lesser General Public License for more details.
   
   Cite this work as:
   * C. Bannwarth, E. Caldeweyher, S. Ehlert, A. Hansen, P. Pracht,
     J. Seibert, S. Spicher, S. Grimme, WIREs Comput. Mol. Sci., 2020, 11,
     e01493. DOI: 10.1002/wcms.1493
   
   for GFN2-xTB:
   * C. Bannwarth, S. Ehlert and S. Grimme., J. Chem. Theory Comput., 2019,
     15, 1652-1671. DOI: 10.1021/acs.jctc.8b01176
   for GFN1-xTB:
   * S. Grimme, C. Bannwarth, P. Shushkov, J. Chem. Theory Comput., 2017,
     13, 1989-2009. DOI: 10.1021/acs.jctc.7b00118
   for GFN0-xTB:
   * P. Pracht, E. Caldeweyher, S. Ehlert, S. Grimme, ChemRxiv, 2019, preprint.
     DOI: 10.26434/chemrxiv.8326202.v1
   for GFN-FF:
   * S. Spicher and S. Grimme, Angew. Chem. Int. Ed., 2020, 59, 15665-15673.
     DOI: 10.1002/anie.202004239
   
   for DFT-D4:
   * E. Caldeweyher, C. Bannwarth and S. Grimme, J. Chem. Phys., 2017,
     147, 034112. DOI: 10.1063/1.4993215
   * E. Caldeweyher, S. Ehlert, A. Hansen, H. Neugebauer, S. Spicher,
     C. Bannwarth and S. Grimme, J. Chem. Phys., 2019, 150, 154122.
     DOI: 10.1063/1.5090222
   * E. Caldeweyher, J.-M. Mewes, S. Ehlert and S. Grimme, Phys. Chem. Chem. Phys.
     2020, 22, 8499-8512. DOI: 10.1039/D0CP00502A
   
   for sTDA-xTB:
   * S. Grimme and C. Bannwarth, J. Chem. Phys., 2016, 145, 054103.
     DOI: 10.1063/1.4959605
   
   in the mass-spec context:
   * V. Asgeirsson, C. Bauer and S. Grimme, Chem. Sci., 2017, 8, 4879.
     DOI: 10.1039/c7sc00601b
   * J. Koopman and S. Grimme, ACS Omega 2019, 4, 12, 15120-15133.
     DOI: 10.1021/acsomega.9b02011
   
   for metadynamics refer to:
   * S. Grimme, J. Chem. Theory Comput., 2019, 155, 2847-2862
     DOI: 10.1021/acs.jctc.9b00143
   
   for SPH calculations refer to:
   * S. Spicher and S. Grimme, J. Chem. Theory Comput., 2021, 17, 1701-1714
     DOI: 10.1021/acs.jctc.0c01306
   
   with help from (in alphabetical order)
   P. Atkinson, C. Bannwarth, F. Bohle, G. Brandenburg, E. Caldeweyher
   M. Checinski, S. Dohm, S. Ehlert, S. Ehrlich, I. Gerasimov, J. Koopman
   C. Lavigne, S. Lehtola, F. März, M. Müller, F. Musil, H. Neugebauer
   J. Pisarek, C. Plett, P. Pracht, J. Seibert, P. Shushkov, S. Spicher
   M. Stahn, M. Steiner, T. Strunk, J. Stückrath, T. Rose, and J. Unsleber
   
 * started run on 2021/11/19 at 14:58:13.104     

           -------------------------------------------------
          |                Calculation Setup                |
           -------------------------------------------------

          program call               : /home/jeff/miniconda3/bin/xtb /home/jeff/chem/final-year-proejct/Zn+2_2_7_outenergy/input_structure.xyz --gfn 2 --parallel 1 --etemp 300 --chrg 0 --uhf 0 -I det_control.in
          coordinate file            : /home/jeff/chem/final-year-proejct/Zn+2_2_7_outenergy/input_structure.xyz
          omp threads                :                     1
          number of atoms            :                   259
          number of electrons        :                   834
          charge                     :                     0
          spin                       :                   0.0
          first test random number   :      0.83378995387116

   ID    Z sym.   atoms
    1   30 Zn     1, 37, 85, 120, 155, 190, 225
    2    6 C      2-9, 11-15, 17-21, 23, 24, 38-45, 47-51, 53-57, 59, 60,
                  73-84, 86-93, 95-99, 101-105, 107, 108, 121-128, 130-134,
                  136-140, 142, 143, 156-163, 165-169, 171-175, 177, 178,
                  191-198, 200-204, 206-210, 212, 213, 226-233, 235-239,
                  241-245, 247, 248
    3    7 N      10, 16, 22, 25, 46, 52, 58, 61, 94, 100, 106, 109, 129,
                  135, 141, 144, 164, 170, 176, 179, 199, 205, 211, 214, 234,
                  240, 246, 249
    4    1 H      26-36, 62-72, 110-119, 145-154, 180-189, 215-224, 250-259

           -------------------------------------------------
          |                 G F N 2 - x T B                 |
           -------------------------------------------------

        Reference                      10.1021/acs.jctc.8b01176
      * Hamiltonian:
        H0-scaling (s, p, d)           1.850000    2.230000    2.230000
        zeta-weighting                 0.500000
      * Dispersion:
        s8                             2.700000
        a1                             0.520000
        a2                             5.000000
        s9                             5.000000
      * Repulsion:
        kExp                           1.500000    1.000000
        rExp                           1.000000
      * Coulomb:
        alpha                          2.000000
        third order                    shell-resolved
        anisotropic                    true
        a3                             3.000000
        a5                             4.000000
        cn-shift                       1.200000
        cn-exp                         4.000000
        max-rad                        5.000000


          ...................................................
          :                      SETUP                      :
          :.................................................:
          :  # basis functions                 820          :
          :  # atomic orbitals                 820          :
          :  # shells                          446          :
          :  # electrons                       834          :
          :  max. iterations                   250          :
          :  Hamiltonian                  GFN2-xTB          :
          :  restarted?                      false          :
          :  GBSA solvation                  false          :
          :  PC potential                    false          :
          :  electronic temp.          300.0000000     K    :
          :  accuracy                    1.0000000          :
          :  -> integral cutoff          0.2500000E+02      :
          :  -> integral neglect         0.1000000E-07      :
          :  -> SCF convergence          0.1000000E-05 Eh   :
          :  -> wf. convergence          0.1000000E-03 e    :
          :  Broyden damping             0.4000000          :
          ...................................................

 iter      E             dE          RMSdq      gap      omega  full diag
   1   -454.6457572 -0.454646E+03  0.618E+00    0.89       0.0  T
   2   -455.6012925 -0.955535E+00  0.319E+00    0.81       1.0  T
   3   -455.5940722  0.722035E-02  0.230E+00    0.93       1.0  T
   4   -456.3685224 -0.774450E+00  0.369E-01    0.84       1.0  T
   5   -456.3746224 -0.609992E-02  0.233E-01    0.87       1.0  T
   6   -456.3790482 -0.442587E-02  0.133E-01    0.87       1.0  T
   7   -456.3823920 -0.334379E-02  0.678E-02    0.86       1.0  T
   8   -456.3837619 -0.136990E-02  0.274E-02    0.86       1.0  T
   9   -456.3839873 -0.225388E-03  0.131E-02    0.86       1.0  T
  10   -456.3840317 -0.444301E-04  0.529E-03    0.86       1.2  T
  11   -456.3840392 -0.745656E-05  0.206E-03    0.86       3.0  T
  12   -456.3840400 -0.844103E-06  0.977E-04    0.86       6.4  T
  13   -456.3840401 -0.565583E-07  0.497E-04    0.86      12.5  T

   *** convergence criteria satisfied after 13 iterations ***

         #    Occupation            Energy/Eh            Energy/eV
      -------------------------------------------------------------
         1        2.0000           -0.6678984             -18.1744
       ...           ...                  ...                  ...
       411        2.0000           -0.3688214             -10.0361
       412        2.0000           -0.3687945             -10.0354
       413        2.0000           -0.3664073              -9.9705
       414        2.0000           -0.3614065              -9.8344
       415        2.0000           -0.3563073              -9.6956
       416        2.0000           -0.3517308              -9.5711
       417        2.0000           -0.3482394              -9.4761 (HOMO)
       418        0.0000           -0.3165962              -8.6150 (LUMO)
       419                         -0.3124400              -8.5019
       420                         -0.3074638              -8.3665
       421                         -0.3019808              -8.2173
       422                         -0.2994645              -8.1488
       ...                                ...                  ...
       820                          1.4083685              38.3237
      -------------------------------------------------------------
                  HL-Gap            0.0316431 Eh            0.8611 eV
             Fermi-level           -0.3324118 Eh           -9.0454 eV

 SCC (total)                   0 d,  0 h,  0 min,  3.435 sec
 SCC setup                      ...        0 min,  0.011 sec (  0.322%)
 Dispersion                     ...        0 min,  0.024 sec (  0.690%)
 classical contributions        ...        0 min,  0.002 sec (  0.068%)
 integral evaluation            ...        0 min,  0.180 sec (  5.238%)
 iterations                     ...        0 min,  2.663 sec ( 77.524%)
 molecular gradient             ...        0 min,  0.529 sec ( 15.401%)
 printout                       ...        0 min,  0.026 sec (  0.757%)

         :::::::::::::::::::::::::::::::::::::::::::::::::::::
         ::                     SUMMARY                     ::
         :::::::::::::::::::::::::::::::::::::::::::::::::::::
         :: total energy            -448.333620505797 Eh    ::
         :: gradient norm              0.000418853788 Eh/a0 ::
         :: HOMO-LUMO gap              0.861052876013 eV    ::
         ::.................................................::
         :: SCC energy              -456.384040098691 Eh    ::
         :: -> isotropic ES            0.455607824957 Eh    ::
         :: -> anisotropic ES          0.064694350670 Eh    ::
         :: -> anisotropic XC          0.231563555936 Eh    ::
         :: -> dispersion             -0.442443213165 Eh    ::
         :: repulsion energy           8.058621328723 Eh    ::
         :: add. restraining           0.000000000000 Eh    ::
         :: total charge               0.000000001480 e     ::
         :::::::::::::::::::::::::::::::::::::::::::::::::::::

           -------------------------------------------------
          |                Property Printout                |
           -------------------------------------------------

    * Orbital Energies and Occupations

         #    Occupation            Energy/Eh            Energy/eV
      -------------------------------------------------------------
         1        2.0000           -0.6678984             -18.1744
       ...           ...                  ...                  ...
       405        2.0000           -0.3707485             -10.0886
       406        2.0000           -0.3701728             -10.0729
       407        2.0000           -0.3701253             -10.0716
       408        2.0000           -0.3701249             -10.0716
       409        2.0000           -0.3699183             -10.0660
       410        2.0000           -0.3699165             -10.0659
       411        2.0000           -0.3688214             -10.0361
       412        2.0000           -0.3687945             -10.0354
       413        2.0000           -0.3664073              -9.9705
       414        2.0000           -0.3614065              -9.8344
       415        2.0000           -0.3563073              -9.6956
       416        2.0000           -0.3517308              -9.5711
       417        2.0000           -0.3482394              -9.4761 (HOMO)
       418        0.0000           -0.3165962              -8.6150 (LUMO)
       419                         -0.3124400              -8.5019
       420                         -0.3074638              -8.3665
       421                         -0.3019808              -8.2173
       422                         -0.2994645              -8.1488
       423                         -0.2994003              -8.1471
       424                         -0.2993969              -8.1470
       425                         -0.2991657              -8.1407
       426                         -0.2991586              -8.1405
       427                         -0.2981460              -8.1130
       428                         -0.2981124              -8.1121
       ...                                ...                  ...
       820                          1.4083685              38.3237
      -------------------------------------------------------------
                  HL-Gap            0.0316431 Eh            0.8611 eV
             Fermi-level           -0.3324118 Eh           -9.0454 eV

     #   Z          covCN         q      C6AA      α(0)
     1  30 Zn       3.042     0.244   122.302    21.603
     2   6 C        3.020    -0.052    29.268     8.874
     3   6 C        3.018    -0.051    29.232     8.869
     4   6 C        3.164     0.077    25.965     8.328
     5   6 C        2.953     0.018    27.603     8.617
     6   6 C        3.164     0.077    25.965     8.328
     7   6 C        3.018    -0.050    29.228     8.868
     8   6 C        3.020    -0.052    29.268     8.874
     9   6 C        3.148     0.076    26.052     8.349
    10   7 N        2.632    -0.176    24.828     7.400
    11   6 C        2.901    -0.050    29.243     8.867
    12   6 C        3.145     0.077    26.040     8.349
    13   6 C        3.017    -0.051    29.245     8.871
    14   6 C        3.018    -0.051    29.249     8.871
    15   6 C        3.145     0.077    26.030     8.347
    16   7 N        2.635    -0.175    24.790     7.395
    17   6 C        2.901    -0.052    29.284     8.873
    18   6 C        3.145     0.077    26.030     8.347
    19   6 C        3.018    -0.051    29.249     8.871
    20   6 C        3.017    -0.051    29.245     8.871
    21   6 C        3.145     0.077    26.040     8.349
    22   7 N        2.635    -0.175    24.789     7.395
    23   6 C        2.901    -0.050    29.242     8.867
    24   6 C        3.148     0.076    26.052     8.349
    25   7 N        2.632    -0.176    24.828     7.400
    26   1 H        0.926     0.034     2.533     2.489
    27   1 H        0.926     0.035     2.516     2.480
    28   1 H        0.926     0.035     2.518     2.481
    29   1 H        0.926     0.034     2.533     2.489
    30   1 H        0.926     0.049     2.331     2.388
    31   1 H        0.926     0.034     2.527     2.486
    32   1 H        0.926     0.034     2.528     2.486
    33   1 H        0.926     0.048     2.339     2.392
    34   1 H        0.926     0.034     2.528     2.486
    35   1 H        0.926     0.034     2.527     2.486
    36   1 H        0.926     0.049     2.331     2.387
    37  30 Zn       3.042     0.244   122.302    21.603
    38   6 C        3.020    -0.052    29.269     8.874
    39   6 C        3.018    -0.051    29.234     8.869
    40   6 C        3.164     0.077    25.966     8.328
    41   6 C        2.953     0.018    27.602     8.617
    42   6 C        3.164     0.077    25.966     8.328
    43   6 C        3.018    -0.050    29.229     8.868
    44   6 C        3.020    -0.052    29.269     8.874
    45   6 C        3.148     0.076    26.053     8.350
    46   7 N        2.632    -0.176    24.828     7.400
    47   6 C        2.901    -0.050    29.241     8.866
    48   6 C        3.145     0.077    26.040     8.349
    49   6 C        3.017    -0.051    29.245     8.871
    50   6 C        3.018    -0.051    29.248     8.871
    51   6 C        3.145     0.077    26.029     8.347
    52   7 N        2.635    -0.175    24.789     7.394
    53   6 C        2.901    -0.052    29.283     8.873
    54   6 C        3.145     0.077    26.029     8.347
    55   6 C        3.018    -0.051    29.249     8.871
    56   6 C        3.017    -0.051    29.245     8.871
    57   6 C        3.145     0.077    26.039     8.349
    58   7 N        2.635    -0.175    24.790     7.395
    59   6 C        2.901    -0.050    29.241     8.866
    60   6 C        3.149     0.076    26.053     8.350
    61   7 N        2.632    -0.176    24.826     7.400
    62   1 H        0.926     0.034     2.533     2.489
    63   1 H        0.926     0.035     2.515     2.480
    64   1 H        0.926     0.035     2.519     2.482
    65   1 H        0.926     0.034     2.533     2.489
    66   1 H        0.926     0.049     2.331     2.387
    67   1 H        0.926     0.034     2.527     2.486
    68   1 H        0.926     0.034     2.528     2.486
    69   1 H        0.926     0.048     2.339     2.392
    70   1 H        0.926     0.034     2.528     2.486
    71   1 H        0.926     0.034     2.527     2.486
    72   1 H        0.926     0.049     2.330     2.387
    73   6 C        1.994    -0.028    31.799     9.107
    74   6 C        1.994    -0.029    31.821     9.110
    75   6 C        1.993    -0.029    31.807     9.108
    76   6 C        1.993    -0.029    31.814     9.109
    77   6 C        1.993    -0.029    31.809     9.108
    78   6 C        1.993    -0.029    31.811     9.108
    79   6 C        1.993    -0.029    31.811     9.108
    80   6 C        1.993    -0.029    31.809     9.108
    81   6 C        1.993    -0.029    31.813     9.109
    82   6 C        1.993    -0.029    31.806     9.108
    83   6 C        1.994    -0.029    31.822     9.110
    84   6 C        1.994    -0.028    31.802     9.107
    85  30 Zn       3.039     0.246   122.282    21.601
    86   6 C        3.020    -0.052    29.263     8.874
    87   6 C        3.019    -0.051    29.231     8.869
    88   6 C        3.165     0.077    25.956     8.326
    89   6 C        2.953     0.019    27.594     8.616
    90   6 C        3.165     0.077    25.955     8.326
    91   6 C        3.019    -0.050    29.226     8.868
    92   6 C        3.020    -0.052    29.264     8.874
    93   6 C        3.150     0.075    26.055     8.349
    94   7 N        2.632    -0.176    24.827     7.400
    95   6 C        2.901    -0.048    29.195     8.859
    96   6 C        3.150     0.075    26.059     8.350
    97   6 C        3.020    -0.052    29.265     8.874
    98   6 C        3.019    -0.051    29.235     8.869
    99   6 C        3.164     0.077    25.958     8.327
   100   7 N        2.633    -0.176    24.825     7.400
   101   6 C        2.953     0.018    27.602     8.617
   102   6 C        3.164     0.077    25.959     8.327
   103   6 C        3.019    -0.051    29.231     8.869
   104   6 C        3.020    -0.052    29.265     8.874
   105   6 C        3.150     0.075    26.059     8.350
   106   7 N        2.633    -0.176    24.827     7.400
   107   6 C        2.901    -0.048    29.195     8.859
   108   6 C        3.150     0.075    26.056     8.349
   109   7 N        2.632    -0.176    24.825     7.400
   110   1 H        0.926     0.034     2.530     2.487
   111   1 H        0.926     0.035     2.511     2.478
   112   1 H        0.926     0.035     2.514     2.480
   113   1 H        0.926     0.034     2.530     2.487
   114   1 H        0.925     0.050     2.321     2.383
   115   1 H        0.926     0.034     2.531     2.488
   116   1 H        0.926     0.035     2.515     2.480
   117   1 H        0.926     0.035     2.518     2.481
   118   1 H        0.926     0.034     2.531     2.488
   119   1 H        0.925     0.050     2.321     2.383
   120  30 Zn       3.040     0.246   122.279    21.601
   121   6 C        3.020    -0.052    29.265     8.874
   122   6 C        3.019    -0.051    29.231     8.869
   123   6 C        3.164     0.077    25.957     8.326
   124   6 C        2.953     0.018    27.595     8.616
   125   6 C        3.164     0.077    25.958     8.327
   126   6 C        3.019    -0.051    29.232     8.869
   127   6 C        3.020    -0.052    29.265     8.874
   128   6 C        3.150     0.075    26.058     8.350
   129   7 N        2.633    -0.176    24.825     7.400
   130   6 C        2.901    -0.048    29.189     8.859
   131   6 C        3.150     0.075    26.059     8.350
   132   6 C        3.020    -0.052    29.265     8.874
   133   6 C        3.020    -0.051    29.235     8.869
   134   6 C        3.164     0.077    25.958     8.327
   135   7 N        2.633    -0.176    24.825     7.400
   136   6 C        2.953     0.018    27.598     8.617
   137   6 C        3.164     0.077    25.959     8.327
   138   6 C        3.020    -0.051    29.231     8.869
   139   6 C        3.020    -0.052    29.265     8.874
   140   6 C        3.150     0.075    26.059     8.350
   141   7 N        2.633    -0.176    24.826     7.400
   142   6 C        2.901    -0.048    29.190     8.859
   143   6 C        3.150     0.075    26.058     8.350
   144   7 N        2.633    -0.176    24.825     7.400
   145   1 H        0.926     0.034     2.530     2.487
   146   1 H        0.926     0.035     2.516     2.481
   147   1 H        0.926     0.035     2.514     2.480
   148   1 H        0.926     0.034     2.530     2.487
   149   1 H        0.925     0.050     2.320     2.382
   150   1 H        0.926     0.034     2.530     2.487
   151   1 H        0.926     0.035     2.515     2.480
   152   1 H        0.926     0.035     2.517     2.481
   153   1 H        0.926     0.034     2.530     2.488
   154   1 H        0.925     0.050     2.320     2.382
   155  30 Zn       3.041     0.246   122.278    21.601
   156   6 C        3.020    -0.052    29.265     8.874
   157   6 C        3.020    -0.051    29.231     8.869
   158   6 C        3.164     0.077    25.958     8.327
   159   6 C        2.953     0.018    27.596     8.616
   160   6 C        3.164     0.077    25.959     8.327
   161   6 C        3.020    -0.051    29.234     8.869
   162   6 C        3.020    -0.052    29.266     8.874
   163   6 C        3.150     0.075    26.059     8.350
   164   7 N        2.633    -0.176    24.824     7.400
   165   6 C        2.901    -0.048    29.188     8.858
   166   6 C        3.150     0.075    26.059     8.350
   167   6 C        3.020    -0.052    29.266     8.874
   168   6 C        3.020    -0.051    29.230     8.868
   169   6 C        3.163     0.077    25.960     8.328
   170   7 N        2.633    -0.176    24.827     7.400
   171   6 C        2.953     0.018    27.596     8.616
   172   6 C        3.163     0.077    25.961     8.328
   173   6 C        3.020    -0.051    29.235     8.869
   174   6 C        3.020    -0.052    29.266     8.874
   175   6 C        3.150     0.075    26.059     8.350
   176   7 N        2.633    -0.176    24.824     7.400
   177   6 C        2.901    -0.048    29.188     8.858
   178   6 C        3.150     0.075    26.058     8.350
   179   7 N        2.633    -0.176    24.827     7.400
   180   1 H        0.926     0.034     2.530     2.487
   181   1 H        0.926     0.035     2.517     2.481
   182   1 H        0.926     0.035     2.515     2.480
   183   1 H        0.926     0.034     2.530     2.487
   184   1 H        0.925     0.050     2.319     2.382
   185   1 H        0.926     0.034     2.530     2.487
   186   1 H        0.926     0.035     2.519     2.482
   187   1 H        0.926     0.035     2.514     2.480
   188   1 H        0.926     0.034     2.530     2.487
   189   1 H        0.925     0.050     2.319     2.382
   190  30 Zn       3.040     0.246   122.279    21.601
   191   6 C        3.019    -0.052    29.266     8.874
   192   6 C        3.020    -0.051    29.236     8.869
   193   6 C        3.164     0.077    25.960     8.327
   194   6 C        2.953     0.018    27.598     8.616
   195   6 C        3.163     0.077    25.961     8.328
   196   6 C        3.020    -0.051    29.231     8.869
   197   6 C        3.020    -0.052    29.266     8.874
   198   6 C        3.150     0.075    26.060     8.350
   199   7 N        2.633    -0.176    24.825     7.400
   200   6 C        2.901    -0.048    29.189     8.859
   201   6 C        3.150     0.075    26.058     8.350
   202   6 C        3.020    -0.052    29.265     8.874
   203   6 C        3.019    -0.051    29.230     8.869
   204   6 C        3.164     0.077    25.957     8.327
   205   7 N        2.633    -0.176    24.825     7.400
   206   6 C        2.953     0.018    27.595     8.616
   207   6 C        3.165     0.077    25.955     8.326
   208   6 C        3.019    -0.051    29.233     8.869
   209   6 C        3.020    -0.052    29.265     8.874
   210   6 C        3.150     0.075    26.057     8.349
   211   7 N        2.633    -0.176    24.825     7.400
   212   6 C        2.901    -0.048    29.189     8.858
   213   6 C        3.150     0.075    26.059     8.350
   214   7 N        2.633    -0.176    24.825     7.400
   215   1 H        0.926     0.034     2.530     2.487
   216   1 H        0.926     0.035     2.515     2.480
   217   1 H        0.926     0.035     2.518     2.481
   218   1 H        0.926     0.034     2.530     2.488
   219   1 H        0.925     0.050     2.320     2.382
   220   1 H        0.926     0.034     2.530     2.487
   221   1 H        0.926     0.035     2.516     2.480
   222   1 H        0.926     0.035     2.515     2.480
   223   1 H        0.926     0.034     2.530     2.487
   224   1 H        0.925     0.050     2.320     2.382
   225  30 Zn       3.039     0.246   122.281    21.601
   226   6 C        3.020    -0.052    29.265     8.874
   227   6 C        3.019    -0.051    29.234     8.869
   228   6 C        3.164     0.077    25.958     8.327
   229   6 C        2.953     0.018    27.602     8.617
   230   6 C        3.165     0.077    25.956     8.326
   231   6 C        3.019    -0.051    29.232     8.869
   232   6 C        3.020    -0.052    29.265     8.874
   233   6 C        3.150     0.075    26.058     8.350
   234   7 N        2.633    -0.176    24.827     7.400
   235   6 C        2.901    -0.048    29.193     8.859
   236   6 C        3.150     0.075    26.056     8.349
   237   6 C        3.020    -0.052    29.265     8.874
   238   6 C        3.019    -0.051    29.233     8.869
   239   6 C        3.165     0.077    25.956     8.326
   240   7 N        2.632    -0.176    24.825     7.400
   241   6 C        2.953     0.019    27.593     8.616
   242   6 C        3.165     0.077    25.957     8.326
   243   6 C        3.019    -0.050    29.227     8.868
   244   6 C        3.020    -0.052    29.265     8.874
   245   6 C        3.150     0.075    26.056     8.349
   246   7 N        2.632    -0.176    24.827     7.400
   247   6 C        2.901    -0.048    29.194     8.859
   248   6 C        3.150     0.075    26.059     8.350
   249   7 N        2.633    -0.176    24.826     7.400
   250   1 H        0.926     0.034     2.531     2.488
   251   1 H        0.926     0.035     2.515     2.480
   252   1 H        0.926     0.035     2.517     2.481
   253   1 H        0.926     0.034     2.531     2.488
   254   1 H        0.925     0.050     2.321     2.382
   255   1 H        0.926     0.034     2.530     2.487
   256   1 H        0.926     0.035     2.512     2.478
   257   1 H        0.926     0.035     2.515     2.480
   258   1 H        0.926     0.034     2.531     2.488
   259   1 H        0.925     0.050     2.321     2.383

 Mol. C6AA /au·bohr⁶  :    1285647.599355
 Mol. C8AA /au·bohr⁸  :   36615522.519088
 Mol. α(0) /au        :       1853.972437


Wiberg/Mayer (AO) data.
largest (>0.10) Wiberg bond orders for each atom

 ---------------------------------------------------------------------------
     #   Z sym  total        # sym  WBO       # sym  WBO       # sym  WBO
 ---------------------------------------------------------------------------
     1  30 Zn   2.081 --    22 N    0.492    16 N    0.492    10 N    0.489
                            25 N    0.489
     2   6 C    3.954 --     3 C    1.652    24 C    1.170    26 H    0.972
     3   6 C    3.958 --     2 C    1.652     4 C    1.178    27 H    0.969
     4   6 C    3.918 --    25 N    1.284     5 C    1.260     3 C    1.178
     5   6 C    3.941 --     6 C    1.260     4 C    1.260    73 C    1.165
     6   6 C    3.918 --    10 N    1.284     5 C    1.260     7 C    1.178
     7   6 C    3.958 --     8 C    1.652     6 C    1.178    28 H    0.969
     8   6 C    3.954 --     7 C    1.652     9 C    1.170    29 H    0.972
     9   6 C    3.925 --    11 C    1.357    10 N    1.249     8 C    1.170
    10   7 N    3.467 --     6 C    1.284     9 C    1.249     1 Zn   0.489
    11   6 C    3.932 --     9 C    1.357    12 C    1.355    30 H    0.964
    12   6 C    3.930 --    11 C    1.355    16 N    1.261    13 C    1.163
    13   6 C    3.957 --    14 C    1.666    12 C    1.163    31 H    0.972
    14   6 C    3.955 --    13 C    1.666    15 C    1.162    32 H    0.972
    15   6 C    3.932 --    17 C    1.354    16 N    1.263    14 C    1.162
    16   7 N    3.465 --    15 C    1.263    12 C    1.261     1 Zn   0.492
    17   6 C    3.928 --    15 C    1.354    18 C    1.354    33 H    0.964
    18   6 C    3.932 --    17 C    1.354    22 N    1.263    19 C    1.162
    19   6 C    3.955 --    20 C    1.666    18 C    1.162    34 H    0.972
    20   6 C    3.957 --    19 C    1.666    21 C    1.163    35 H    0.972
    21   6 C    3.930 --    23 C    1.355    22 N    1.261    20 C    1.163
    22   7 N    3.465 --    18 C    1.263    21 C    1.261     1 Zn   0.492
    23   6 C    3.932 --    24 C    1.357    21 C    1.355    36 H    0.964
    24   6 C    3.925 --    23 C    1.357    25 N    1.249     2 C    1.170
    25   7 N    3.467 --     4 C    1.284    24 C    1.249     1 Zn   0.489
    26   1 H    0.998 --     2 C    0.972
    27   1 H    0.998 --     3 C    0.969
    28   1 H    0.998 --     7 C    0.969
    29   1 H    0.998 --     8 C    0.972
    30   1 H    0.996 --    11 C    0.964
    31   1 H    0.998 --    13 C    0.972
    32   1 H    0.998 --    14 C    0.972
    33   1 H    0.996 --    17 C    0.964
    34   1 H    0.998 --    19 C    0.972
    35   1 H    0.998 --    20 C    0.972
    36   1 H    0.996 --    23 C    0.964
    37  30 Zn   2.081 --    52 N    0.492    58 N    0.492    61 N    0.489
                            46 N    0.489
    38   6 C    3.954 --    39 C    1.651    60 C    1.171    62 H    0.972
    39   6 C    3.958 --    38 C    1.651    40 C    1.178    63 H    0.969
    40   6 C    3.917 --    61 N    1.284    41 C    1.258    39 C    1.178
    41   6 C    3.941 --    42 C    1.259    40 C    1.258    84 C    1.168
    42   6 C    3.918 --    46 N    1.284    41 C    1.259    43 C    1.178
    43   6 C    3.958 --    44 C    1.651    42 C    1.178    64 H    0.969
    44   6 C    3.954 --    43 C    1.651    45 C    1.171    65 H    0.972
    45   6 C    3.925 --    47 C    1.357    46 N    1.249    44 C    1.171
    46   7 N    3.467 --    42 C    1.284    45 C    1.249    37 Zn   0.489
    47   6 C    3.932 --    45 C    1.357    48 C    1.355    66 H    0.964
    48   6 C    3.930 --    47 C    1.355    52 N    1.261    49 C    1.163
    49   6 C    3.957 --    50 C    1.666    48 C    1.163    67 H    0.972
    50   6 C    3.955 --    49 C    1.666    51 C    1.162    68 H    0.972
    51   6 C    3.932 --    53 C    1.354    52 N    1.263    50 C    1.162
    52   7 N    3.465 --    51 C    1.263    48 C    1.261    37 Zn   0.492
    53   6 C    3.927 --    51 C    1.354    54 C    1.354    69 H    0.964
    54   6 C    3.932 --    53 C    1.354    58 N    1.263    55 C    1.162
    55   6 C    3.955 --    56 C    1.666    54 C    1.162    70 H    0.972
    56   6 C    3.957 --    55 C    1.666    57 C    1.163    71 H    0.972
    57   6 C    3.930 --    59 C    1.355    58 N    1.261    56 C    1.163
    58   7 N    3.465 --    54 C    1.263    57 C    1.261    37 Zn   0.492
    59   6 C    3.932 --    60 C    1.357    57 C    1.355    72 H    0.964
    60   6 C    3.925 --    59 C    1.357    61 N    1.248    38 C    1.171
    61   7 N    3.467 --    40 C    1.284    60 C    1.248    37 Zn   0.489
    62   1 H    0.998 --    38 C    0.972
    63   1 H    0.998 --    39 C    0.969
    64   1 H    0.998 --    43 C    0.969
    65   1 H    0.998 --    44 C    0.972
    66   1 H    0.996 --    47 C    0.964
    67   1 H    0.998 --    49 C    0.972
    68   1 H    0.998 --    50 C    0.972
    69   1 H    0.996 --    53 C    0.964
    70   1 H    0.998 --    55 C    0.972
    71   1 H    0.998 --    56 C    0.972
    72   1 H    0.996 --    59 C    0.964
    73   6 C    3.923 --    74 C    2.580     5 C    1.165
    74   6 C    3.926 --    73 C    2.580    89 C    1.166
    75   6 C    3.923 --    76 C    2.574   101 C    1.172
    76   6 C    3.924 --    75 C    2.574   124 C    1.173
    77   6 C    3.924 --    78 C    2.573   136 C    1.174
    78   6 C    3.924 --    77 C    2.573   159 C    1.174
    79   6 C    3.924 --    80 C    2.572   171 C    1.175
    80   6 C    3.924 --    79 C    2.572   194 C    1.175
    81   6 C    3.924 --    82 C    2.574   206 C    1.172
    82   6 C    3.923 --    81 C    2.574   229 C    1.172
    83   6 C    3.926 --    84 C    2.579   241 C    1.169
    84   6 C    3.923 --    83 C    2.579    41 C    1.168
    85  30 Zn   2.077 --   100 N    0.489   106 N    0.489   109 N    0.489
                            94 N    0.489
    86   6 C    3.955 --    87 C    1.650   108 C    1.172   110 H    0.972
    87   6 C    3.956 --    86 C    1.650    88 C    1.179   111 H    0.969
    88   6 C    3.919 --   109 N    1.285    89 C    1.258    87 C    1.179
    89   6 C    3.930 --    90 C    1.258    88 C    1.258    74 C    1.166
    90   6 C    3.919 --    94 N    1.285    89 C    1.258    91 C    1.179
    91   6 C    3.956 --    92 C    1.650    90 C    1.179   112 H    0.969
    92   6 C    3.955 --    91 C    1.650    93 C    1.172   113 H    0.972
    93   6 C    3.924 --    95 C    1.355    94 N    1.247    92 C    1.172
    94   7 N    3.461 --    90 C    1.285    93 C    1.247    85 Zn   0.489
    95   6 C    3.926 --    96 C    1.357    93 C    1.355   114 H    0.964
    96   6 C    3.924 --    95 C    1.357   100 N    1.246    97 C    1.172
    97   6 C    3.954 --    98 C    1.649    96 C    1.172   115 H    0.972
    98   6 C    3.956 --    97 C    1.649    99 C    1.180   116 H    0.968
    99   6 C    3.917 --   100 N    1.286   101 C    1.255    98 C    1.180
   100   7 N    3.461 --    99 C    1.286    96 C    1.246    85 Zn   0.489
   101   6 C    3.931 --   102 C    1.255    99 C    1.255    75 C    1.172
   102   6 C    3.917 --   106 N    1.286   101 C    1.255   103 C    1.180
   103   6 C    3.956 --   104 C    1.649   102 C    1.180   117 H    0.968
   104   6 C    3.954 --   103 C    1.649   105 C    1.172   118 H    0.972
   105   6 C    3.924 --   107 C    1.357   106 N    1.246   104 C    1.172
   106   7 N    3.461 --   102 C    1.286   105 C    1.246    85 Zn   0.489
   107   6 C    3.926 --   105 C    1.357   108 C    1.355   119 H    0.964
   108   6 C    3.924 --   107 C    1.355   109 N    1.247    86 C    1.172
   109   7 N    3.461 --    88 C    1.285   108 C    1.247    85 Zn   0.489
   110   1 H    0.998 --    86 C    0.972
   111   1 H    0.998 --    87 C    0.969
   112   1 H    0.998 --    91 C    0.969
   113   1 H    0.998 --    92 C    0.972
   114   1 H    0.996 --    95 C    0.964
   115   1 H    0.998 --    97 C    0.972
   116   1 H    0.998 --    98 C    0.968
   117   1 H    0.998 --   103 C    0.968
   118   1 H    0.998 --   104 C    0.972
   119   1 H    0.996 --   107 C    0.964
   120  30 Zn   2.077 --   135 N    0.489   141 N    0.489   144 N    0.489
                           129 N    0.489
   121   6 C    3.954 --   122 C    1.649   143 C    1.173   145 H    0.972
   122   6 C    3.956 --   121 C    1.649   123 C    1.180   146 H    0.968
   123   6 C    3.917 --   144 N    1.286   124 C    1.255   122 C    1.180
   124   6 C    3.930 --   123 C    1.255   125 C    1.255    76 C    1.173
   125   6 C    3.917 --   129 N    1.286   124 C    1.255   126 C    1.180
   126   6 C    3.956 --   127 C    1.649   125 C    1.180   147 H    0.968
   127   6 C    3.954 --   126 C    1.649   128 C    1.173   148 H    0.972
   128   6 C    3.924 --   130 C    1.356   129 N    1.246   127 C    1.173
   129   7 N    3.461 --   125 C    1.286   128 C    1.246   120 Zn   0.489
   130   6 C    3.925 --   131 C    1.356   128 C    1.356   149 H    0.964
   131   6 C    3.924 --   130 C    1.356   135 N    1.245   132 C    1.173
   132   6 C    3.954 --   133 C    1.649   131 C    1.173   150 H    0.972
   133   6 C    3.956 --   132 C    1.649   134 C    1.180   151 H    0.967
   134   6 C    3.917 --   135 N    1.286   136 C    1.254   133 C    1.180
   135   7 N    3.461 --   134 C    1.286   131 C    1.245   120 Zn   0.489
   136   6 C    3.930 --   137 C    1.254   134 C    1.254    77 C    1.174
   137   6 C    3.917 --   141 N    1.286   136 C    1.254   138 C    1.180
   138   6 C    3.956 --   139 C    1.649   137 C    1.180   152 H    0.968
   139   6 C    3.954 --   138 C    1.649   140 C    1.173   153 H    0.972
   140   6 C    3.924 --   142 C    1.356   141 N    1.246   139 C    1.173
   141   7 N    3.461 --   137 C    1.286   140 C    1.246   120 Zn   0.489
   142   6 C    3.925 --   140 C    1.356   143 C    1.356   154 H    0.964
   143   6 C    3.923 --   142 C    1.356   144 N    1.246   121 C    1.173
   144   7 N    3.461 --   123 C    1.286   143 C    1.246   120 Zn   0.489
   145   1 H    0.998 --   121 C    0.972
   146   1 H    0.998 --   122 C    0.968
   147   1 H    0.998 --   126 C    0.968
   148   1 H    0.998 --   127 C    0.972
   149   1 H    0.996 --   130 C    0.964
   150   1 H    0.998 --   132 C    0.972
   151   1 H    0.998 --   133 C    0.967
   152   1 H    0.998 --   138 C    0.968
   153   1 H    0.998 --   139 C    0.972
   154   1 H    0.996 --   142 C    0.964
   155  30 Zn   2.077 --   164 N    0.489   176 N    0.489   170 N    0.489
                           179 N    0.489
   156   6 C    3.954 --   157 C    1.649   178 C    1.173   180 H    0.972
   157   6 C    3.956 --   156 C    1.649   158 C    1.180   181 H    0.968
   158   6 C    3.917 --   179 N    1.286   159 C    1.254   157 C    1.180
   159   6 C    3.930 --   158 C    1.254   160 C    1.254    78 C    1.174
   160   6 C    3.917 --   164 N    1.286   159 C    1.254   161 C    1.180
   161   6 C    3.956 --   162 C    1.648   160 C    1.180   182 H    0.967
   162   6 C    3.954 --   161 C    1.648   163 C    1.173   183 H    0.972
   163   6 C    3.923 --   165 C    1.356   164 N    1.246   162 C    1.173
   164   7 N    3.460 --   160 C    1.286   163 C    1.246   155 Zn   0.489
   165   6 C    3.925 --   166 C    1.356   163 C    1.356   184 H    0.964
   166   6 C    3.923 --   165 C    1.356   170 N    1.246   167 C    1.173
   167   6 C    3.954 --   168 C    1.648   166 C    1.173   185 H    0.972
   168   6 C    3.956 --   167 C    1.648   169 C    1.180   186 H    0.967
   169   6 C    3.917 --   170 N    1.286   171 C    1.254   168 C    1.180
   170   7 N    3.460 --   169 C    1.286   166 C    1.246   155 Zn   0.489
   171   6 C    3.930 --   169 C    1.254   172 C    1.254    79 C    1.175
   172   6 C    3.917 --   176 N    1.286   171 C    1.254   173 C    1.180
   173   6 C    3.956 --   174 C    1.648   172 C    1.180   187 H    0.967
   174   6 C    3.954 --   173 C    1.648   175 C    1.173   188 H    0.972
   175   6 C    3.923 --   177 C    1.356   176 N    1.246   174 C    1.173
   176   7 N    3.460 --   172 C    1.286   175 C    1.246   155 Zn   0.489
   177   6 C    3.925 --   178 C    1.356   175 C    1.356   189 H    0.964
   178   6 C    3.923 --   177 C    1.356   179 N    1.246   156 C    1.173
   179   7 N    3.460 --   158 C    1.286   178 C    1.246   155 Zn   0.489
   180   1 H    0.998 --   156 C    0.972
   181   1 H    0.998 --   157 C    0.968
   182   1 H    0.998 --   161 C    0.967
   183   1 H    0.998 --   162 C    0.972
   184   1 H    0.996 --   165 C    0.964
   185   1 H    0.998 --   167 C    0.972
   186   1 H    0.998 --   168 C    0.967
   187   1 H    0.998 --   173 C    0.967
   188   1 H    0.998 --   174 C    0.972
   189   1 H    0.996 --   177 C    0.964
   190  30 Zn   2.077 --   199 N    0.489   205 N    0.489   214 N    0.489
                           211 N    0.489
   191   6 C    3.954 --   192 C    1.648   213 C    1.173   215 H    0.972
   192   6 C    3.956 --   191 C    1.648   193 C    1.180   216 H    0.967
   193   6 C    3.917 --   214 N    1.287   194 C    1.254   192 C    1.180
   194   6 C    3.930 --   195 C    1.254   193 C    1.254    80 C    1.175
   195   6 C    3.917 --   199 N    1.286   194 C    1.254   196 C    1.180
   196   6 C    3.956 --   197 C    1.648   195 C    1.180   217 H    0.967
   197   6 C    3.954 --   196 C    1.648   198 C    1.173   218 H    0.972
   198   6 C    3.923 --   200 C    1.356   199 N    1.246   197 C    1.173
   199   7 N    3.461 --   195 C    1.286   198 C    1.246   190 Zn   0.489
   200   6 C    3.925 --   198 C    1.356   201 C    1.356   219 H    0.964
   201   6 C    3.923 --   200 C    1.356   205 N    1.246   202 C    1.173
   202   6 C    3.954 --   203 C    1.649   201 C    1.173   220 H    0.972
   203   6 C    3.956 --   202 C    1.649   204 C    1.180   221 H    0.968
   204   6 C    3.917 --   205 N    1.286   206 C    1.255   203 C    1.180
   205   7 N    3.461 --   204 C    1.286   201 C    1.246   190 Zn   0.489
   206   6 C    3.930 --   204 C    1.255   207 C    1.255    81 C    1.172
   207   6 C    3.917 --   211 N    1.286   206 C    1.255   208 C    1.180
   208   6 C    3.956 --   209 C    1.649   207 C    1.180   222 H    0.968
   209   6 C    3.954 --   208 C    1.649   210 C    1.173   223 H    0.972
   210   6 C    3.924 --   212 C    1.356   211 N    1.246   209 C    1.173
   211   7 N    3.461 --   207 C    1.286   210 C    1.246   190 Zn   0.489
   212   6 C    3.925 --   213 C    1.356   210 C    1.356   224 H    0.964
   213   6 C    3.923 --   212 C    1.356   214 N    1.245   191 C    1.173
   214   7 N    3.461 --   193 C    1.287   213 C    1.245   190 Zn   0.489
   215   1 H    0.998 --   191 C    0.972
   216   1 H    0.998 --   192 C    0.967
   217   1 H    0.998 --   196 C    0.967
   218   1 H    0.998 --   197 C    0.972
   219   1 H    0.996 --   200 C    0.964
   220   1 H    0.998 --   202 C    0.972
   221   1 H    0.998 --   203 C    0.968
   222   1 H    0.998 --   208 C    0.968
   223   1 H    0.998 --   209 C    0.972
   224   1 H    0.996 --   212 C    0.964
   225  30 Zn   2.077 --   249 N    0.489   234 N    0.489   240 N    0.489
                           246 N    0.489
   226   6 C    3.954 --   227 C    1.649   248 C    1.172   250 H    0.972
   227   6 C    3.956 --   226 C    1.649   228 C    1.180   251 H    0.968
   228   6 C    3.917 --   249 N    1.286   229 C    1.255   227 C    1.180
   229   6 C    3.931 --   230 C    1.255   228 C    1.255    82 C    1.172
   230   6 C    3.917 --   234 N    1.286   229 C    1.255   231 C    1.180
   231   6 C    3.956 --   232 C    1.649   230 C    1.180   252 H    0.968
   232   6 C    3.954 --   231 C    1.649   233 C    1.172   253 H    0.972
   233   6 C    3.924 --   235 C    1.356   234 N    1.246   232 C    1.172
   234   7 N    3.461 --   230 C    1.286   233 C    1.246   225 Zn   0.489
   235   6 C    3.926 --   233 C    1.356   236 C    1.356   254 H    0.964
   236   6 C    3.924 --   235 C    1.356   240 N    1.246   237 C    1.172
   237   6 C    3.954 --   238 C    1.649   236 C    1.172   255 H    0.972
   238   6 C    3.956 --   237 C    1.649   239 C    1.179   256 H    0.969
   239   6 C    3.918 --   240 N    1.285   241 C    1.256   238 C    1.179
   240   7 N    3.461 --   239 C    1.285   236 C    1.246   225 Zn   0.489
   241   6 C    3.930 --   242 C    1.257   239 C    1.256    83 C    1.169
   242   6 C    3.918 --   246 N    1.285   241 C    1.257   243 C    1.179
   243   6 C    3.956 --   244 C    1.649   242 C    1.179   257 H    0.969
   244   6 C    3.954 --   243 C    1.649   245 C    1.172   258 H    0.972
   245   6 C    3.924 --   247 C    1.355   246 N    1.247   244 C    1.172
   246   7 N    3.461 --   242 C    1.285   245 C    1.247   225 Zn   0.489
   247   6 C    3.926 --   248 C    1.357   245 C    1.355   259 H    0.964
   248   6 C    3.924 --   247 C    1.357   249 N    1.246   226 C    1.172
   249   7 N    3.461 --   228 C    1.286   248 C    1.246   225 Zn   0.489
   250   1 H    0.998 --   226 C    0.972
   251   1 H    0.998 --   227 C    0.968
   252   1 H    0.998 --   231 C    0.968
   253   1 H    0.998 --   232 C    0.972
   254   1 H    0.996 --   235 C    0.964
   255   1 H    0.998 --   237 C    0.972
   256   1 H    0.998 --   238 C    0.969
   257   1 H    0.998 --   243 C    0.969
   258   1 H    0.998 --   244 C    0.972
   259   1 H    0.996 --   247 C    0.964
 ---------------------------------------------------------------------------

Topologies differ in total number of bonds
Writing topology from bond orders to xtbtopo.mol

molecular dipole:
                 x           y           z       tot (Debye)
 q only:       -0.001       0.000       0.004
   full:       -0.001       0.001       0.007       0.018
molecular quadrupole (traceless):
                xx          xy          yy          xz          yz          zz
 q only:       75.072       0.050     -21.065       0.813      -5.349     -54.008
  q+dip:      140.232       0.008     -28.204       1.033     -13.482    -112.029
   full:       94.452       0.127     -24.880       1.206      -7.196     -69.572


           -------------------------------------------------
          | TOTAL ENERGY             -448.333620505797 Eh   |
          | GRADIENT NORM               0.000418853788 Eh/α |
          | HOMO-LUMO GAP               0.861052876013 eV   |
           -------------------------------------------------

------------------------------------------------------------------------
 * finished run on 2021/11/19 at 14:58:16.695     
------------------------------------------------------------------------
 total:
 * wall-time:     0 d,  0 h,  0 min,  3.592 sec
 *  cpu-time:     0 d,  0 h,  0 min,  3.592 sec
 * ratio c/w:     1.000 speedup
 SCF:
 * wall-time:     0 d,  0 h,  0 min,  3.439 sec
 *  cpu-time:     0 d,  0 h,  0 min,  3.439 sec
 * ratio c/w:     1.000 speedup

