      -----------------------------------------------------------      
     |                   =====================                   |     
     |                           x T B                           |     
     |                   =====================                   |     
     |                         S. Grimme                         |     
     |          Mulliken Center for Theoretical Chemistry        |     
     |                    University of Bonn                     |     
      -----------------------------------------------------------      

   * xtb version 6.4.1 (bd6e46d) compiled by 'conda@4901f00b25ba' on 2021-06-10

   xtb is free software: you can redistribute it and/or modify it under
   the terms of the GNU Lesser General Public License as published by
   the Free Software Foundation, either version 3 of the License, or
   (at your option) any later version.
   
   xtb is distributed in the hope that it will be useful,
   but WITHOUT ANY WARRANTY; without even the implied warranty of
   MERCHANTABILITY or FITNESS FOR A PARTICULAR PURPOSE.  See the
   GNU Lesser General Public License for more details.
   
   Cite this work as:
   * C. Bannwarth, E. Caldeweyher, S. Ehlert, A. Hansen, P. Pracht,
     J. Seibert, S. Spicher, S. Grimme, WIREs Comput. Mol. Sci., 2020, 11,
     e01493. DOI: 10.1002/wcms.1493
   
   for GFN2-xTB:
   * C. Bannwarth, S. Ehlert and S. Grimme., J. Chem. Theory Comput., 2019,
     15, 1652-1671. DOI: 10.1021/acs.jctc.8b01176
   for GFN1-xTB:
   * S. Grimme, C. Bannwarth, P. Shushkov, J. Chem. Theory Comput., 2017,
     13, 1989-2009. DOI: 10.1021/acs.jctc.7b00118
   for GFN0-xTB:
   * P. Pracht, E. Caldeweyher, S. Ehlert, S. Grimme, ChemRxiv, 2019, preprint.
     DOI: 10.26434/chemrxiv.8326202.v1
   for GFN-FF:
   * S. Spicher and S. Grimme, Angew. Chem. Int. Ed., 2020, 59, 15665-15673.
     DOI: 10.1002/anie.202004239
   
   for DFT-D4:
   * E. Caldeweyher, C. Bannwarth and S. Grimme, J. Chem. Phys., 2017,
     147, 034112. DOI: 10.1063/1.4993215
   * E. Caldeweyher, S. Ehlert, A. Hansen, H. Neugebauer, S. Spicher,
     C. Bannwarth and S. Grimme, J. Chem. Phys., 2019, 150, 154122.
     DOI: 10.1063/1.5090222
   * E. Caldeweyher, J.-M. Mewes, S. Ehlert and S. Grimme, Phys. Chem. Chem. Phys.
     2020, 22, 8499-8512. DOI: 10.1039/D0CP00502A
   
   for sTDA-xTB:
   * S. Grimme and C. Bannwarth, J. Chem. Phys., 2016, 145, 054103.
     DOI: 10.1063/1.4959605
   
   in the mass-spec context:
   * V. Asgeirsson, C. Bauer and S. Grimme, Chem. Sci., 2017, 8, 4879.
     DOI: 10.1039/c7sc00601b
   * J. Koopman and S. Grimme, ACS Omega 2019, 4, 12, 15120-15133.
     DOI: 10.1021/acsomega.9b02011
   
   for metadynamics refer to:
   * S. Grimme, J. Chem. Theory Comput., 2019, 155, 2847-2862
     DOI: 10.1021/acs.jctc.9b00143
   
   for SPH calculations refer to:
   * S. Spicher and S. Grimme, J. Chem. Theory Comput., 2021, 17, 1701-1714
     DOI: 10.1021/acs.jctc.0c01306
   
   with help from (in alphabetical order)
   P. Atkinson, C. Bannwarth, F. Bohle, G. Brandenburg, E. Caldeweyher
   M. Checinski, S. Dohm, S. Ehlert, S. Ehrlich, I. Gerasimov, J. Koopman
   C. Lavigne, S. Lehtola, F. März, M. Müller, F. Musil, H. Neugebauer
   J. Pisarek, C. Plett, P. Pracht, J. Seibert, P. Shushkov, S. Spicher
   M. Stahn, M. Steiner, T. Strunk, J. Stückrath, T. Rose, and J. Unsleber
   
 * started run on 2021/11/19 at 02:01:20.862     

           -------------------------------------------------
          |                Calculation Setup                |
           -------------------------------------------------

          program call               : /home/jeff/miniconda3/bin/xtb input_structure_1.xyz --gfn 2 --ohess normal --parallel 1 --etemp 300 --chrg 0 --uhf 0 -I det_control.in
          hostname                   : jelfscompute1
          coordinate file            : input_structure_1.xyz
          omp threads                :                     1
          number of atoms            :                   310
          number of electrons        :                  1010
          charge                     :                     0
          spin                       :                   0.0
          first test random number   :      0.85462368389496

   ID    Z sym.   atoms
    1   30 Zn     1, 37, 101, 136, 171, 206, 241, 276
    2    6 C      2-9, 11-15, 17-21, 23, 24, 38-45, 47-51, 53-57, 59, 60,
                  73-100, 102-109, 111-115, 117-121, 123, 124, 137-144,
                  146-150, 152-156, 158, 159, 172-179, 181-185, 187-191, 193,
                  194, 207-214, 216-220, 222-226, 228, 229, 242-249, 251-255,
                  257-261, 263, 264, 277-284, 286-290, 292-296, 298, 299
    3    7 N      10, 16, 22, 25, 46, 52, 58, 61, 110, 116, 122, 125, 145,
                  151, 157, 160, 180, 186, 192, 195, 215, 221, 227, 230, 250,
                  256, 262, 265, 285, 291, 297, 300
    4    1 H      26-36, 62-72, 126-135, 161-170, 196-205, 231-240, 266-275,
                  301-310

molecular fragmentation (1/2 indicates fragments):
111111111111111111111111111111111111222222222222222222222222222222222222
222222222222222222222222222222222222222222222222222222222222222222222222
222222222222222222222222222222222222222222222222222222222222222222222222
222222222222222222222222222222222222222222222222222222222222222222222222
2222222222222222222222
# atoms in fragment 1/2:    36   274
 fragment masses (1/2) :      372.71     2939.20
CMA distance (Bohr)    : 102.917
constraining FC (au)   :  0.0500

           -------------------------------------------------
          |                 G F N 2 - x T B                 |
           -------------------------------------------------

        Reference                      10.1021/acs.jctc.8b01176
      * Hamiltonian:
        H0-scaling (s, p, d)           1.850000    2.230000    2.230000
        zeta-weighting                 0.500000
      * Dispersion:
        s8                             2.700000
        a1                             0.520000
        a2                             5.000000
        s9                             5.000000
      * Repulsion:
        kExp                           1.500000    1.000000
        rExp                           1.000000
      * Coulomb:
        alpha                          2.000000
        third order                    shell-resolved
        anisotropic                    true
        a3                             3.000000
        a5                             4.000000
        cn-shift                       1.200000
        cn-exp                         4.000000
        max-rad                        5.000000


          ...................................................
          :                      SETUP                      :
          :.................................................:
          :  # basis functions                 994          :
          :  # atomic orbitals                 994          :
          :  # shells                          538          :
          :  # electrons                      1010          :
          :  max. iterations                   250          :
          :  Hamiltonian                  GFN2-xTB          :
          :  restarted?                      false          :
          :  GBSA solvation                  false          :
          :  PC potential                    false          :
          :  electronic temp.          300.0000000     K    :
          :  accuracy                    1.0000000          :
          :  -> integral cutoff          0.2500000E+02      :
          :  -> integral neglect         0.1000000E-07      :
          :  -> SCF convergence          0.1000000E-05 Eh   :
          :  -> wf. convergence          0.1000000E-03 e    :
          :  Broyden damping             0.4000000          :
          ...................................................

 iter      E             dE          RMSdq      gap      omega  full diag
   1   -548.6899223 -0.548690E+03  0.708E+00    0.02       0.0  T
   2   -530.1267076  0.185632E+02  0.478E+00    0.04       1.0  T
   3   -200.4211208  0.329706E+03  0.109E+01    0.02       1.0  T
   4    -41.3627957  0.159058E+03  0.194E+01    0.03       1.0  T
   5   -519.9959684 -0.478633E+03  0.487E+00    0.04       1.0  T
   6   -540.4664130 -0.204704E+02  0.319E+00    0.03       1.0  T
   7   -508.4395441  0.320269E+02  0.433E+00    0.01       1.0  T
   8   -537.2676477 -0.288281E+02  0.304E+00    0.11       1.0  T
   9   -548.7264491 -0.114588E+02  0.209E+00    0.11       1.0  T
  10   -549.1920979 -0.465649E+00  0.191E+00    0.07       1.0  T
  11   -550.0504418 -0.858344E+00  0.162E+00    0.21       1.0  T
  12   -550.4614384 -0.410997E+00  0.135E+00    0.07       1.0  T
  13   -550.2835439  0.177894E+00  0.137E+00    0.08       1.0  T
  14   -550.3370798 -0.535359E-01  0.107E+00    0.07       1.0  T
  15   -550.6110465 -0.273967E+00  0.970E-01    0.02       1.0  T
  16   -550.0168996  0.594147E+00  0.112E+00    0.03       1.0  T
  17   -550.6010925 -0.584193E+00  0.766E-01    0.00       1.0  T
  18   -550.6046032 -0.351075E-02  0.778E-01    0.07       1.0  T
  19   -550.9060738 -0.301471E+00  0.486E-01    0.14       1.0  T
  20   -550.9192150 -0.131412E-01  0.459E-01    0.09       1.0  T
  21   -550.8856696  0.335454E-01  0.474E-01    0.05       1.0  T
  22   -550.9483480 -0.626784E-01  0.310E-01    0.08       1.0  T
  23   -550.8875675  0.607805E-01  0.343E-01    0.01       1.0  T
  24   -550.9498511 -0.622835E-01  0.236E-01    0.06       1.0  T
  25   -550.9588594 -0.900831E-02  0.175E-01    0.04       1.0  T
  26   -550.9660227 -0.716329E-02  0.130E-01    0.05       1.0  T
  27   -550.9768337 -0.108110E-01  0.855E-02    0.07       1.0  T
  28   -550.9782355 -0.140179E-02  0.682E-02    0.07       1.0  T
  29   -550.9808870 -0.265148E-02  0.392E-02    0.10       1.0  T
  30   -550.9811017 -0.214765E-03  0.332E-02    0.10       1.0  T
  31   -550.9812643 -0.162573E-03  0.274E-02    0.10       1.0  T
  32   -550.9814196 -0.155293E-03  0.212E-02    0.10       1.0  T
  33   -550.9814904 -0.708285E-04  0.170E-02    0.10       1.0  T
  34   -550.9815210 -0.305251E-04  0.145E-02    0.10       1.0  T
  35   -550.9815380 -0.169948E-04  0.122E-02    0.10       1.0  T
  36   -550.9815436 -0.562024E-05  0.992E-03    0.10       1.0  T
  37   -550.9815688 -0.252491E-04  0.769E-03    0.10       1.0  T
  38   -550.9815796 -0.107553E-04  0.605E-03    0.10       1.0  T
  39   -550.9815952 -0.156475E-04  0.422E-03    0.10       1.3  T
  40   -550.9815994 -0.412482E-05  0.347E-03    0.10       1.6  T
  41   -550.9816026 -0.319539E-05  0.288E-03    0.10       2.0  T
  42   -550.9816074 -0.481056E-05  0.198E-03    0.10       2.9  T
  43   -550.9816097 -0.230914E-05  0.126E-03    0.10       4.5  T
  44   -550.9816103 -0.662336E-06  0.959E-04    0.10       5.9  T
  45   -550.9816107 -0.316515E-06  0.782E-04    0.10       7.3  T

   *** convergence criteria satisfied after 45 iterations ***

         #    Occupation            Energy/Eh            Energy/eV
      -------------------------------------------------------------
         1        2.0000           -0.6832232             -18.5914
       ...           ...                  ...                  ...
       499        2.0000           -0.3526683              -9.5966
       500        2.0000           -0.3525344              -9.5929
       501        2.0000           -0.3524046              -9.5894
       502        2.0000           -0.3488158              -9.4918
       503        1.9993           -0.3447465              -9.3810
       504        1.9331           -0.3403183              -9.2605
       505        1.6633           -0.3386407              -9.2149 (HOMO)
       506        0.2071           -0.3350724              -9.1178 (LUMO)
       507        0.1971           -0.3350204              -9.1164
       508        0.0000           -0.3238763              -8.8131
       509                         -0.3195798              -8.6962
       510                         -0.3173159              -8.6346
       ...                                ...                  ...
       994                          1.6202030              44.0880
      -------------------------------------------------------------
                  HL-Gap            0.0035683 Eh            0.0971 eV
             Fermi-level           -0.3371230 Eh           -9.1736 eV

 SCC (total)                   0 d,  0 h,  0 min, 14.978 sec
 SCC setup                      ...        0 min,  0.017 sec (  0.114%)
 Dispersion                     ...        0 min,  0.035 sec (  0.232%)
 classical contributions        ...        0 min,  0.003 sec (  0.019%)
 integral evaluation            ...        0 min,  0.251 sec (  1.677%)
 iterations                     ...        0 min, 14.043 sec ( 93.756%)
 molecular gradient             ...        0 min,  0.587 sec (  3.920%)
 printout                       ...        0 min,  0.042 sec (  0.282%)

         :::::::::::::::::::::::::::::::::::::::::::::::::::::
         ::                     SUMMARY                     ::
         :::::::::::::::::::::::::::::::::::::::::::::::::::::
         :: total energy            -540.476096679394 Eh    ::
         :: gradient norm              1.066006668923 Eh/a0 ::
         :: HOMO-LUMO gap              0.097097169997 eV    ::
         ::.................................................::
         :: SCC energy              -550.981610652760 Eh    ::
         :: -> isotropic ES            0.545037276828 Eh    ::
         :: -> anisotropic ES          0.060015941239 Eh    ::
         :: -> anisotropic XC          0.357665948439 Eh    ::
         :: -> dispersion             -0.490089101984 Eh    ::
         :: repulsion energy          10.506224898965 Eh    ::
         :: add. restraining           0.000000000000 Eh    ::
         :: total charge               0.000000000002 e     ::
         :::::::::::::::::::::::::::::::::::::::::::::::::::::

      ----------------------------------------------------------- 
     |                   =====================                   |
     |                        A N C O P T                        |
     |                   =====================                   |
     |               Approximate Normal Coordinate               |
     |                Rational Function Optimizer                |
      ----------------------------------------------------------- 

          ...................................................
          :                      SETUP                      :
          :.................................................:
          :   optimization level            normal          :
          :   max. optcycles                   930          :
          :   ANC micro-cycles                  20          :
          :   degrees of freedom               924          :
          :.................................................:
          :   RF solver                   davidson          :
          :   write xtbopt.log                true          :
          :   linear?                        false          :
          :   energy convergence         0.5000000E-05 Eh   :
          :   grad. convergence          0.1000000E-02 Eh/α :
          :   maximium RF displ.         1.0000000          :
          :   Hlow (freq-cutoff)         0.1000000E-01      :
          :   Hmax (freq-cutoff)         5.0000000          :
          :   S6 in model hess.         20.0000000          :
          ...................................................

generating ANC from model Hessian ...
Using Lindh-Hessian (1995)
 Shifting diagonal of input Hessian by    1.0124459906771873E-002
 Lowest  eigenvalues of input Hessian
    0.010000    0.010039    0.010094    0.010096    0.010097    0.010097
    0.010097    0.010097    0.010097    0.010102    0.010106    0.010108
    0.010110    0.010112    0.010113    0.010115    0.010117    0.010117
 Highest eigenvalues
    2.844620    2.909723    2.909723    2.909723    2.909725    2.909725


........................................................................
.............................. CYCLE    1 ..............................
........................................................................
   1   -550.9816109 -0.550982E+03  0.556E-04    0.10       0.0  T
   2   -550.9815729  0.380045E-04  0.514E-03    0.09       1.1  T
   3   -550.9816060 -0.330622E-04  0.188E-03    0.10       3.0  T
   4   -550.9816104 -0.443485E-05  0.849E-04    0.10       6.7  T
   5   -550.9816108 -0.403774E-06  0.603E-04    0.10       9.4  T
   6   -550.9816102  0.644823E-06  0.838E-04    0.10       6.8  T
     SCC iter.                  ...        0 min,  1.888 sec
     gradient                   ...        0 min,  0.586 sec
 * total energy  :  -540.4760962 Eh     change        0.4947688E-06 Eh
   gradient norm :     1.0660010 Eh/α   predicted     0.0000000E+00 (-100.00%)
   displ. norm   :     0.5923025 α      lambda       -0.5532170E+00
   maximum displ.:     0.1719715 α      in ANC's #315, #901, #746, ...

........................................................................
.............................. CYCLE    2 ..............................
........................................................................
   1   -550.9360131 -0.550936E+03  0.338E-01    0.08       0.0  T
   2   -550.8704476  0.655656E-01  0.394E-01    0.04       1.0  T
   3   -550.8277586  0.426890E-01  0.373E-01    0.04       1.0  T
   4   -550.5991837  0.228575E+00  0.510E-01    0.04       1.0  T
   5   -550.9241722 -0.324988E+00  0.262E-01    0.18       1.0  T
   6   -550.3557064  0.568466E+00  0.651E-01    0.20       1.0  T
   7   -550.8798866 -0.524180E+00  0.324E-01    0.37       1.0  T
   8   -550.9200352 -0.401486E-01  0.268E-01    0.23       1.0  T
   9   -550.9362639 -0.162287E-01  0.200E-01    0.18       1.0  T
  10   -550.9412771 -0.501313E-02  0.162E-01    0.18       1.0  T
  11   -550.9494419 -0.816480E-02  0.126E-01    0.13       1.0  T
  12   -550.9505252 -0.108329E-02  0.111E-01    0.13       1.0  T
  13   -550.9518803 -0.135518E-02  0.107E-01    0.13       1.0  T
  14   -550.9538771 -0.199673E-02  0.974E-02    0.13       1.0  T
  15   -550.9572636 -0.338654E-02  0.793E-02    0.12       1.0  T
  16   -550.9622735 -0.500991E-02  0.415E-02    0.10       1.0  T
  17   -550.9623882 -0.114666E-03  0.371E-02    0.10       1.0  T
  18   -550.9632351 -0.846909E-03  0.218E-02    0.10       1.0  T
  19   -550.9635446 -0.309499E-03  0.117E-02    0.09       1.0  T
  20   -550.9634961  0.484555E-04  0.104E-02    0.09       1.0  T
  21   -550.9636272 -0.131105E-03  0.577E-03    0.09       1.0  T
  22   -550.9636591 -0.318544E-04  0.136E-03    0.09       4.2  T
  23   -550.9636591  0.242094E-07  0.143E-03    0.09       4.0  T
  24   -550.9636609 -0.179353E-05  0.503E-04    0.09      11.3  T
  25   -550.9636609 -0.727271E-07  0.360E-04    0.09      15.8  T
  26   -550.9636610 -0.654711E-07  0.305E-04    0.09      18.6  T
     SCC iter.                  ...        0 min,  8.133 sec
     gradient                   ...        0 min,  0.586 sec
 * total energy  :  -540.9201059 Eh     change       -0.4440097E+00 Eh
   gradient norm :     0.6284871 Eh/α   predicted    -0.3736751E+00 ( -15.84%)
   displ. norm   :     0.6635167 α      lambda       -0.3635211E+00
   maximum displ.:     0.2339605 α      in ANC's #315, #901, #307, ...

........................................................................
.............................. CYCLE    3 ..............................
........................................................................
   1   -550.9879463 -0.550988E+03  0.348E-01    0.06       0.0  T
   2   -550.9414933  0.464530E-01  0.374E-01    0.13       1.0  T
   3   -550.6967193  0.244774E+00  0.563E-01    0.05       1.0  T
   4   -550.4916318  0.205087E+00  0.663E-01    0.12       1.0  T
   5   -550.9181914 -0.426560E+00  0.347E-01    0.31       1.0  T
   6   -550.9671025 -0.489111E-01  0.251E-01    0.06       1.0  T
   7   -550.7409712  0.226131E+00  0.478E-01    0.02       1.0  T
   8   -550.9492918 -0.208321E+00  0.328E-01    0.17       1.0  T
   9   -550.9908949 -0.416032E-01  0.159E-01    0.10       1.0  T
  10   -551.0052392 -0.143443E-01  0.102E-01    0.10       1.0  T
  11   -551.0111210 -0.588181E-02  0.393E-02    0.08       1.0  T
  12   -551.0115639 -0.442836E-03  0.283E-02    0.08       1.0  T
  13   -551.0118499 -0.286050E-03  0.187E-02    0.08       1.0  T
  14   -551.0121514 -0.301445E-03  0.986E-03    0.07       1.0  T
  15   -551.0121867 -0.353099E-04  0.622E-03    0.08       1.0  T
  16   -551.0122244 -0.377702E-04  0.248E-03    0.07       2.3  T
  17   -551.0122293 -0.484974E-05  0.113E-03    0.07       5.0  T
  18   -551.0122264  0.289698E-05  0.175E-03    0.07       3.3  T
  19   -551.0122256  0.760684E-06  0.168E-03    0.08       3.4  T
  20   -551.0122300 -0.433266E-05  0.225E-04    0.08      25.2  T
  21   -551.0122300  0.517241E-08  0.206E-04    0.08      27.5  T
  22   -551.0122300 -0.310074E-07  0.119E-04    0.08      47.7  T
     SCC iter.                  ...        0 min,  6.896 sec
     gradient                   ...        0 min,  0.585 sec
 * total energy  :  -541.1902610 Eh     change       -0.2701551E+00 Eh
   gradient norm :     0.2805616 Eh/α   predicted    -0.2617814E+00 (  -3.10%)
   displ. norm   :     0.7368899 α      lambda       -0.1737336E+00
   maximum displ.:     0.3235141 α      in ANC's #315, #307, #166, ...

........................................................................
.............................. CYCLE    4 ..............................
........................................................................
   1   -551.1266615 -0.551127E+03  0.258E-01    0.09       0.0  T
   2   -550.6496888  0.476973E+00  0.734E-01    0.02       1.0  T
   3   -550.8069934 -0.157305E+00  0.505E-01    0.00       1.0  T
   4   -551.0377541 -0.230761E+00  0.417E-01    0.14       1.0  T
   5   -551.0875821 -0.498280E-01  0.281E-01    0.06       1.0  T
   6   -551.0652735  0.223085E-01  0.334E-01    0.22       1.0  T
   7   -551.0528796  0.123939E-01  0.252E-01    0.02       1.0  T
   8   -551.0950374 -0.421578E-01  0.202E-01    0.18       1.0  T
   9   -551.1261674 -0.311299E-01  0.102E-01    0.09       1.0  T
  10   -551.1295232 -0.335582E-02  0.934E-02    0.11       1.0  T
  11   -551.1296194 -0.962500E-04  0.929E-02    0.11       1.0  T
  12   -551.1317725 -0.215307E-02  0.762E-02    0.10       1.0  T
  13   -551.1335646 -0.179212E-02  0.639E-02    0.08       1.0  T
  14   -551.1370763 -0.351169E-02  0.166E-02    0.07       1.0  T
  15   -551.1370853 -0.899644E-05  0.130E-02    0.07       1.0  T
  16   -551.1370124  0.728670E-04  0.174E-02    0.07       1.0  T
  17   -551.1371612 -0.148763E-03  0.997E-03    0.07       1.0  T
  18   -551.1372856 -0.124390E-03  0.498E-03    0.07       1.1  T
  19   -551.1372979 -0.122538E-04  0.321E-03    0.07       1.8  T
  20   -551.1373096 -0.117177E-04  0.161E-03    0.07       3.5  T
  21   -551.1373085  0.103126E-05  0.174E-03    0.07       3.3  T
  22   -551.1373118 -0.327827E-05  0.847E-04    0.07       6.7  T
  23   -551.1373123 -0.476234E-06  0.447E-04    0.07      12.7  T
  24   -551.1373124 -0.121011E-06  0.326E-04    0.07      17.4  T
     SCC iter.                  ...        0 min,  7.511 sec
     gradient                   ...        0 min,  0.587 sec
 * total energy  :  -541.3296963 Eh     change       -0.1394353E+00 Eh
   gradient norm :     0.1518006 Eh/α   predicted    -0.1340361E+00 (  -3.87%)
   displ. norm   :     0.8005122 α      lambda       -0.1135374E+00
   maximum displ.:     0.3430527 α      in ANC's #315, #166, #307, ...

........................................................................
.............................. CYCLE    5 ..............................
........................................................................
   1   -551.2494314 -0.551249E+03  0.241E-01    0.11       0.0  T
   2   -550.5955155  0.653916E+00  0.851E-01    0.08       1.0  T
   3   -551.1040228 -0.508507E+00  0.450E-01    0.23       1.0  T
   4   -551.1870552 -0.830325E-01  0.383E-01    0.14       1.0  T
   5   -551.2250538 -0.379986E-01  0.246E-01    0.13       1.0  T
   6   -551.2163522  0.870164E-02  0.270E-01    0.08       1.0  T
   7   -551.2504440 -0.340919E-01  0.960E-02    0.12       1.0  T
   8   -551.2562554 -0.581139E-02  0.576E-02    0.09       1.0  T
   9   -551.2495324  0.672300E-02  0.878E-02    0.07       1.0  T
  10   -551.2571526 -0.762016E-02  0.550E-02    0.09       1.0  T
  11   -551.2572974 -0.144826E-03  0.547E-02    0.09       1.0  T
  12   -551.2579808 -0.683456E-03  0.465E-02    0.08       1.0  T
  13   -551.2589384 -0.957583E-03  0.216E-02    0.08       1.0  T
  14   -551.2591667 -0.228301E-03  0.143E-02    0.07       1.0  T
  15   -551.2592718 -0.105027E-03  0.100E-02    0.07       1.0  T
  16   -551.2593299 -0.581100E-04  0.465E-03    0.08       1.2  T
  17   -551.2593525 -0.225926E-04  0.248E-03    0.08       2.3  T
  18   -551.2593569 -0.442255E-05  0.122E-03    0.08       4.6  T
  19   -551.2593559  0.938415E-06  0.125E-03    0.08       4.6  T
  20   -551.2593577 -0.175289E-05  0.376E-04    0.08      15.1  T
  21   -551.2593578 -0.705462E-07  0.185E-04    0.08      30.7  T
  22   -551.2593578 -0.206629E-07  0.134E-04    0.08      42.3  T
     SCC iter.                  ...        0 min,  6.872 sec
     gradient                   ...        0 min,  0.586 sec
 * total energy  :  -541.4266138 Eh     change       -0.9691749E-01 Eh
   gradient norm :     0.1135041 Eh/α   predicted    -0.9314826E-01 (  -3.89%)
   displ. norm   :     0.8314733 α      lambda       -0.8549366E-01
   maximum displ.:     0.3331046 α      in ANC's #166, #315, #307, ...

........................................................................
.............................. CYCLE    6 ..............................
........................................................................
   1   -551.3627830 -0.551363E+03  0.235E-01    0.12       0.0  T
   2   -550.6227536  0.740029E+00  0.887E-01    0.11       1.0  T
   3   -551.2705052 -0.647752E+00  0.364E-01    0.28       1.0  T
   4   -551.2795302 -0.902499E-02  0.428E-01    0.19       1.0  T
   5   -551.3489543 -0.694241E-01  0.175E-01    0.16       1.0  T
   6   -551.3436428  0.531151E-02  0.175E-01    0.12       1.0  T
   7   -551.3540849 -0.104421E-01  0.138E-01    0.15       1.0  T
   8   -551.3608272 -0.674232E-02  0.985E-02    0.11       1.0  T
   9   -551.3643449 -0.351762E-02  0.810E-02    0.12       1.0  T
  10   -551.3649725 -0.627641E-03  0.777E-02    0.12       1.0  T
  11   -551.3654341 -0.461559E-03  0.746E-02    0.12       1.0  T
  12   -551.3669863 -0.155222E-02  0.591E-02    0.11       1.0  T
  13   -551.3700113 -0.302504E-02  0.241E-02    0.09       1.0  T
  14   -551.3704980 -0.486686E-03  0.115E-02    0.09       1.0  T
  15   -551.3705293 -0.313025E-04  0.777E-03    0.09       1.0  T
  16   -551.3705230  0.629671E-05  0.586E-03    0.09       1.0  T
  17   -551.3705247 -0.168750E-05  0.447E-03    0.09       1.3  T
  18   -551.3705486 -0.238912E-04  0.178E-03    0.09       3.2  T
  19   -551.3705504 -0.176501E-05  0.134E-03    0.09       4.2  T
  20   -551.3705520 -0.158995E-05  0.394E-04    0.09      14.4  T
  21   -551.3705521 -0.146302E-06  0.165E-04    0.09      34.5  T
  22   -551.3705521 -0.656223E-08  0.107E-04    0.09      52.9  T
     SCC iter.                  ...        0 min,  6.878 sec
     gradient                   ...        0 min,  0.586 sec
 * total energy  :  -541.5008905 Eh     change       -0.7427667E-01 Eh
   gradient norm :     0.0890179 Eh/α   predicted    -0.7229976E-01 (  -2.66%)
   displ. norm   :     0.8456612 α      lambda       -0.6538493E-01
   maximum displ.:     0.3929040 α      in ANC's #166, #315, #51, ...

........................................................................
.............................. CYCLE    7 ..............................
........................................................................
   1   -551.4639877 -0.551464E+03  0.228E-01    0.13       0.0  T
   2   -550.7088742  0.755113E+00  0.872E-01    0.10       1.0  T
   3   -551.4312959 -0.722422E+00  0.223E-01    0.27       1.0  T
   4   -551.3418078  0.894882E-01  0.504E-01    0.15       1.0  T
   5   -551.4529359 -0.111128E+00  0.139E-01    0.19       1.0  T
   6   -551.4468176  0.611822E-02  0.169E-01    0.22       1.0  T
   7   -551.4538503 -0.703265E-02  0.139E-01    0.15       1.0  T
   8   -551.4581351 -0.428480E-02  0.104E-01    0.14       1.0  T
   9   -551.4595392 -0.140413E-02  0.101E-01    0.17       1.0  T
  10   -551.4598801 -0.340889E-03  0.983E-02    0.16       1.0  T
  11   -551.4607893 -0.909223E-03  0.926E-02    0.16       1.0  T
  12   -551.4651628 -0.437350E-02  0.613E-02    0.13       1.0  T
  13   -551.4681679 -0.300506E-02  0.259E-02    0.11       1.0  T
  14   -551.4685543 -0.386458E-03  0.168E-02    0.10       1.0  T
  15   -551.4682686  0.285787E-03  0.242E-02    0.11       1.0  T
  16   -551.4687423 -0.473715E-03  0.111E-02    0.10       1.0  T
  17   -551.4688492 -0.106883E-03  0.282E-03    0.10       2.0  T
  18   -551.4688542 -0.505997E-05  0.114E-03    0.10       5.0  T
  19   -551.4688533  0.878173E-06  0.119E-03    0.10       4.8  T
  20   -551.4688530  0.294251E-06  0.140E-03    0.10       4.1  T
  21   -551.4688541 -0.102961E-05  0.832E-04    0.10       6.8  T
  22   -551.4688547 -0.591058E-06  0.416E-04    0.10      13.6  T
  23   -551.4688549 -0.197448E-06  0.138E-04    0.10      41.3  T
     SCC iter.                  ...        0 min,  7.176 sec
     gradient                   ...        0 min,  0.586 sec
 * total energy  :  -541.5581816 Eh     change       -0.5729110E-01 Eh
   gradient norm :     0.0675906 Eh/α   predicted    -0.5607226E-01 (  -2.13%)
   displ. norm   :     0.8572828 α      lambda       -0.5050073E-01
   maximum displ.:     0.4246179 α      in ANC's #166, #51, #315, ...

........................................................................
.............................. CYCLE    8 ..............................
........................................................................
   1   -551.5401835 -0.551540E+03  0.222E-01    0.14       0.0  T
   2   -550.8293161  0.710867E+00  0.819E-01    0.06       1.0  T
   3   -551.5092621 -0.679946E+00  0.253E-01    0.24       1.0  T
   4   -551.2692834  0.239979E+00  0.689E-01    0.20       1.0  T
   5   -551.5165030 -0.247220E+00  0.217E-01    0.12       1.0  T
   6   -551.5079578  0.854516E-02  0.233E-01    0.26       1.0  T
   7   -551.5141438 -0.618599E-02  0.213E-01    0.28       1.0  T
   8   -551.5231298 -0.898595E-02  0.173E-01    0.19       1.0  T
   9   -551.5315988 -0.846906E-02  0.117E-01    0.15       1.0  T
  10   -551.5331934 -0.159454E-02  0.108E-01    0.18       1.0  T
  11   -551.5332995 -0.106156E-03  0.107E-01    0.18       1.0  T
  12   -551.5341491 -0.849514E-03  0.102E-01    0.18       1.0  T
  13   -551.5356965 -0.154744E-02  0.925E-02    0.17       1.0  T
  14   -551.5390999 -0.340338E-02  0.705E-02    0.15       1.0  T
  15   -551.5420966 -0.299670E-02  0.424E-02    0.13       1.0  T
  16   -551.5433413 -0.124478E-02  0.217E-02    0.12       1.0  T
  17   -551.5433079  0.334321E-04  0.226E-02    0.12       1.0  T
  18   -551.5434483 -0.140369E-03  0.144E-02    0.10       1.0  T
  19   -551.5434452  0.308146E-05  0.151E-02    0.11       1.0  T
  20   -551.5436699 -0.224653E-03  0.861E-03    0.11       1.0  T
  21   -551.5437544 -0.845824E-04  0.151E-03    0.11       3.8  T
  22   -551.5437511  0.331757E-05  0.215E-03    0.11       2.6  T
  23   -551.5437563 -0.514213E-05  0.808E-04    0.11       7.0  T
  24   -551.5437563 -0.555474E-07  0.802E-04    0.11       7.1  T
  25   -551.5437565 -0.219297E-06  0.668E-04    0.11       8.5  T
     SCC iter.                  ...        0 min,  7.798 sec
     gradient                   ...        0 min,  0.588 sec
 * total energy  :  -541.6028784 Eh     change       -0.4469681E-01 Eh
   gradient norm :     0.0517101 Eh/α   predicted    -0.4380773E-01 (  -1.99%)
   displ. norm   :     0.8713397 α      lambda       -0.3994261E-01
   maximum displ.:     0.4188102 α      in ANC's #166, #51, #45, ...

........................................................................
.............................. CYCLE    9 ..............................
........................................................................
   1   -551.5871324 -0.551587E+03  0.218E-01    0.15       0.0  T
   2   -550.8916697  0.695463E+00  0.788E-01    0.03       1.0  T
   3   -551.5451353 -0.653466E+00  0.310E-01    0.21       1.0  T
   4   -551.4474318  0.977035E-01  0.505E-01    0.18       1.0  T
   5   -551.5642591 -0.116827E+00  0.223E-01    0.17       1.0  T
   6   -551.5532908  0.109683E-01  0.271E-01    0.21       1.0  T
   7   -551.5702285 -0.169377E-01  0.182E-01    0.19       1.0  T
   8   -551.5810786 -0.108501E-01  0.117E-01    0.15       1.0  T
   9   -551.5810591  0.194772E-04  0.114E-01    0.20       1.0  T
  10   -551.5834727 -0.241356E-02  0.939E-02    0.15       1.0  T
  11   -551.5838253 -0.352624E-03  0.903E-02    0.16       1.0  T
  12   -551.5846479 -0.822657E-03  0.851E-02    0.16       1.0  T
  13   -551.5856917 -0.104377E-02  0.771E-02    0.16       1.0  T
  14   -551.5895377 -0.384600E-02  0.437E-02    0.15       1.0  T
  15   -551.5905294 -0.991712E-03  0.283E-02    0.13       1.0  T
  16   -551.5903038  0.225580E-03  0.299E-02    0.13       1.0  T
  17   -551.5909514 -0.647556E-03  0.164E-02    0.12       1.0  T
  18   -551.5906489  0.302472E-03  0.201E-02    0.12       1.0  T
  19   -551.5911319 -0.483006E-03  0.393E-03    0.12       1.4  T
  20   -551.5911362 -0.429970E-05  0.221E-03    0.12       2.6  T
  21   -551.5911296  0.663170E-05  0.310E-03    0.12       1.8  T
  22   -551.5911421 -0.124928E-04  0.472E-04    0.12      12.0  T
  23   -551.5911423 -0.224767E-06  0.160E-04    0.12      35.4  T
  24   -551.5911423  0.612540E-07  0.256E-04    0.12      22.1  T
     SCC iter.                  ...        0 min,  7.487 sec
     gradient                   ...        0 min,  0.586 sec
 * total energy  :  -541.6387211 Eh     change       -0.3584273E-01 Eh
   gradient norm :     0.0416988 Eh/α   predicted    -0.3513421E-01 (  -1.98%)
   displ. norm   :     0.8905520 α      lambda       -0.3285105E-01
   maximum displ.:     0.3783178 α      in ANC's #166, #51, #45, ...

........................................................................
.............................. CYCLE   10 ..............................
........................................................................
   1   -551.6137758 -0.551614E+03  0.212E-01    0.17       0.0  T
   2   -550.8564462  0.757330E+00  0.809E-01    0.04       1.0  T
   3   -551.5700734 -0.713627E+00  0.323E-01    0.24       1.0  T
   4   -551.5398783  0.301952E-01  0.381E-01    0.20       1.0  T
   5   -551.5854178 -0.455395E-01  0.247E-01    0.20       1.0  T
   6   -551.5998423 -0.144245E-01  0.191E-01    0.20       1.0  T
   7   -551.6056556 -0.581326E-02  0.141E-01    0.19       1.0  T
   8   -551.6106829 -0.502736E-02  0.104E-01    0.20       1.0  T
   9   -551.6129546 -0.227164E-02  0.822E-02    0.17       1.0  T
  10   -551.6128469  0.107654E-03  0.820E-02    0.19       1.0  T
  11   -551.6134642 -0.617296E-03  0.765E-02    0.17       1.0  T
  12   -551.6143332 -0.868994E-03  0.690E-02    0.17       1.0  T
  13   -551.6151894 -0.856239E-03  0.609E-02    0.17       1.0  T
  14   -551.6177755 -0.258610E-02  0.309E-02    0.15       1.0  T
  15   -551.6183294 -0.553849E-03  0.168E-02    0.13       1.0  T
  16   -551.6178962  0.433182E-03  0.255E-02    0.14       1.0  T
  17   -551.6184369 -0.540682E-03  0.136E-02    0.13       1.0  T
  18   -551.6185634 -0.126515E-03  0.438E-03    0.13       1.3  T
  19   -551.6185484  0.150383E-04  0.460E-03    0.13       1.2  T
  20   -551.6185677 -0.193114E-04  0.195E-03    0.13       2.9  T
  21   -551.6185694 -0.168610E-05  0.159E-03    0.13       3.6  T
  22   -551.6185717 -0.231021E-05  0.842E-04    0.13       6.7  T
  23   -551.6185727 -0.100599E-05  0.130E-04    0.13      43.8  T
  24   -551.6185726  0.920708E-07  0.275E-04    0.13      20.6  T
  25   -551.6185726 -0.550021E-07  0.192E-04    0.13      29.6  T
     SCC iter.                  ...        0 min,  7.809 sec
     gradient                   ...        0 min,  0.586 sec
 * total energy  :  -541.6688193 Eh     change       -0.3009819E-01 Eh
   gradient norm :     0.0357588 Eh/α   predicted    -0.2945237E-01 (  -2.15%)
   displ. norm   :     0.9179100 α      lambda       -0.2872384E-01
   maximum displ.:     0.4136672 α      in ANC's #51, #166, #45, ...

........................................................................
.............................. CYCLE   11 ..............................
........................................................................
   1   -551.6303640 -0.551630E+03  0.204E-01    0.20       0.0  T
   2   -550.9430267  0.687337E+00  0.759E-01    0.04       1.0  T
   3   -551.5967765 -0.653750E+00  0.291E-01    0.32       1.0  T
   4   -551.5834843  0.132923E-01  0.316E-01    0.27       1.0  T
   5   -551.6019578 -0.184736E-01  0.253E-01    0.23       1.0  T
   6   -551.6243243 -0.223665E-01  0.141E-01    0.25       1.0  T
   7   -551.6274152 -0.309090E-02  0.106E-01    0.25       1.0  T
   8   -551.6305947 -0.317946E-02  0.793E-02    0.21       1.0  T
   9   -551.6312306 -0.635930E-03  0.712E-02    0.23       1.0  T
  10   -551.6315609 -0.330323E-03  0.665E-02    0.21       1.0  T
  11   -551.6320537 -0.492740E-03  0.622E-02    0.21       1.0  T
  12   -551.6329429 -0.889277E-03  0.520E-02    0.21       1.0  T
  13   -551.6338863 -0.943411E-03  0.403E-02    0.19       1.0  T
  14   -551.6351270 -0.124070E-02  0.183E-02    0.16       1.0  T
  15   -551.6353424 -0.215318E-03  0.820E-03    0.15       1.0  T
  16   -551.6352625  0.798844E-04  0.119E-02    0.15       1.0  T
  17   -551.6351360  0.126472E-03  0.130E-02    0.14       1.0  T
  18   -551.6353848 -0.248791E-03  0.207E-03    0.14       2.7  T
  19   -551.6353870 -0.223723E-05  0.772E-04    0.14       7.4  T
  20   -551.6353875 -0.462972E-06  0.384E-04    0.14      14.8  T
  21   -551.6353877 -0.164500E-06  0.174E-04    0.14      32.6  T
     SCC iter.                  ...        0 min,  6.549 sec
     gradient                   ...        0 min,  0.586 sec
 * total energy  :  -541.6959954 Eh     change       -0.2717603E-01 Eh
   gradient norm :     0.0329115 Eh/α   predicted    -0.2646271E-01 (  -2.62%)
   displ. norm   :     0.9530044 α      lambda       -0.2742606E-01
   maximum displ.:     0.4359065 α      in ANC's #51, #45, #24, ...

........................................................................
.............................. CYCLE   12 ..............................
........................................................................
   1   -551.6421405 -0.551642E+03  0.203E-01    0.26       0.0  T
   2   -551.3318719  0.310269E+00  0.525E-01    0.03       1.0  T
   3   -551.6187677 -0.286896E+00  0.230E-01    0.16       1.0  T
   4   -551.6138613  0.490633E-02  0.256E-01    0.35       1.0  T
   5   -551.6163683 -0.250691E-02  0.253E-01    0.48       1.0  T
   6   -551.6369498 -0.205815E-01  0.124E-01    0.30       1.0  T
   7   -551.6391917 -0.224198E-02  0.110E-01    0.19       1.0  T
   8   -551.6418957 -0.270395E-02  0.836E-02    0.24       1.0  T
   9   -551.6436471 -0.175140E-02  0.627E-02    0.23       1.0  T
  10   -551.6439693 -0.322169E-03  0.579E-02    0.25       1.0  T
  11   -551.6448176 -0.848301E-03  0.461E-02    0.25       1.0  T
  12   -551.6454853 -0.667693E-03  0.354E-02    0.25       1.0  T
  13   -551.6461228 -0.637522E-03  0.239E-02    0.22       1.0  T
  14   -551.6466431 -0.520378E-03  0.391E-03    0.17       1.5  T
  15   -551.6465482  0.949831E-04  0.100E-02    0.19       1.0  T
  16   -551.6465840 -0.358000E-04  0.748E-03    0.16       1.0  T
  17   -551.6466515 -0.675647E-04  0.124E-03    0.17       4.6  T
  18   -551.6466477  0.386626E-05  0.209E-03    0.18       2.7  T
  19   -551.6466520 -0.431751E-05  0.663E-04    0.17       8.6  T
  20   -551.6466524 -0.388111E-06  0.206E-04    0.17      27.5  T
  21   -551.6466524 -0.129569E-07  0.142E-04    0.17      40.1  T
     SCC iter.                  ...        0 min,  6.557 sec
     gradient                   ...        0 min,  0.587 sec
 * total energy  :  -541.7231177 Eh     change       -0.2712239E-01 Eh
   gradient norm :     0.0335258 Eh/α   predicted    -0.2616745E-01 (  -3.52%)
   displ. norm   :     0.9867364 α      lambda       -0.2882350E-01
   maximum displ.:     0.4401760 α      in ANC's #51, #24, #45, ...

........................................................................
.............................. CYCLE   13 ..............................
........................................................................
   1   -551.6530861 -0.551653E+03  0.216E-01    0.33       0.0  T
   2   -551.6154652  0.376210E-01  0.262E-01    0.10       1.0  T
   3   -551.6339092 -0.184441E-01  0.224E-01    0.46       1.0  T
   4   -551.6407118 -0.680253E-02  0.181E-01    0.54       1.0  T
   5   -551.6540863 -0.133746E-01  0.698E-02    0.41       1.0  T
   6   -551.6557706 -0.168425E-02  0.455E-02    0.34       1.0  T
   7   -551.6564171 -0.646533E-03  0.269E-02    0.31       1.0  T
   8   -551.6565917 -0.174611E-03  0.214E-02    0.27       1.0  T
   9   -551.6565046  0.870670E-04  0.175E-02    0.29       1.0  T
  10   -551.6566755 -0.170859E-03  0.855E-03    0.26       1.0  T
  11   -551.6566949 -0.194230E-04  0.451E-03    0.24       1.3  T
  12   -551.6567086 -0.136911E-04  0.219E-03    0.23       2.6  T
  13   -551.6567108 -0.222584E-05  0.105E-03    0.23       5.4  T
  14   -551.6567113 -0.416049E-06  0.557E-04    0.23      10.2  T
  15   -551.6567113 -0.254130E-07  0.394E-04    0.23      14.4  T
     SCC iter.                  ...        0 min,  4.680 sec
     gradient                   ...        0 min,  0.586 sec
 * total energy  :  -541.7525139 Eh     change       -0.2939611E-01 Eh
   gradient norm :     0.0377568 Eh/α   predicted    -0.2844375E-01 (  -3.24%)
   displ. norm   :     0.9771786 α      lambda       -0.3032340E-01
   maximum displ.:     0.4216359 α      in ANC's #51, #24, #45, ...

........................................................................
.............................. CYCLE   14 ..............................
........................................................................
   1   -551.6461002 -0.551646E+03  0.213E-01    0.44       0.0  T
   2   -551.6364655  0.963471E-02  0.191E-01    0.30       1.0  T
   3   -551.6265630  0.990247E-02  0.235E-01    0.43       1.0  T
   4   -551.6383084 -0.117453E-01  0.144E-01    0.48       1.0  T
   5   -551.6479825 -0.967416E-02  0.309E-02    0.38       1.0  T
   6   -551.6482040 -0.221504E-03  0.155E-02    0.37       1.0  T
   7   -551.6483196 -0.115600E-03  0.485E-03    0.38       1.2  T
   8   -551.6483238 -0.412925E-05  0.293E-03    0.38       1.9  T
   9   -551.6483228  0.101313E-05  0.218E-03    0.38       2.6  T
  10   -551.6483247 -0.196302E-05  0.824E-04    0.38       6.9  T
  11   -551.6483250 -0.314359E-06  0.331E-04    0.38      17.1  T
  12   -551.6483251 -0.218452E-07  0.188E-04    0.38      30.2  T
     SCC iter.                  ...        0 min,  3.761 sec
     gradient                   ...        0 min,  0.643 sec
 * total energy  :  -541.7841286 Eh     change       -0.3161472E-01 Eh
   gradient norm :     0.0485694 Eh/α   predicted    -0.2963928E-01 (  -6.25%)
   displ. norm   :     0.9509521 α      lambda       -0.3331845E-01
   maximum displ.:     0.3821859 α      in ANC's #51, #24, #36, ...

........................................................................
.............................. CYCLE   15 ..............................
........................................................................
   1   -551.6399508 -0.551640E+03  0.210E-01    0.65       0.0  T
   2   -551.6356261  0.432474E-02  0.159E-01    0.58       1.0  T
   3   -551.6246716  0.109546E-01  0.210E-01    0.68       1.0  T
   4   -551.6380599 -0.133883E-01  0.871E-02    0.69       1.0  T
   5   -551.6413064 -0.324656E-02  0.259E-02    0.64       1.0  T
   6   -551.6415360 -0.229575E-03  0.541E-03    0.64       1.1  T
   7   -551.6415431 -0.707400E-05  0.341E-03    0.65       1.7  T
   8   -551.6415444 -0.137697E-05  0.203E-03    0.64       2.8  T
   9   -551.6415452 -0.799264E-06  0.123E-03    0.65       4.6  T
  10   -551.6415459 -0.704381E-06  0.347E-04    0.65      16.4  T
  11   -551.6415460 -0.168691E-07  0.233E-04    0.65      24.3  T
     SCC iter.                  ...        0 min,  3.439 sec
     gradient                   ...        0 min,  0.586 sec
 * total energy  :  -541.8191635 Eh     change       -0.3503497E-01 Eh
   gradient norm :     0.0600280 Eh/α   predicted    -0.3172433E-01 (  -9.45%)
   displ. norm   :     0.9219476 α      lambda       -0.3691577E-01
   maximum displ.:     0.3440691 α      in ANC's #51, #24, #36, ...

........................................................................
.............................. CYCLE   16 ..............................
........................................................................
   1   -551.6347325 -0.551635E+03  0.199E-01    0.97       0.0  T
   2   -551.6326415  0.209096E-02  0.140E-01    0.94       1.0  T
   3   -551.6249112  0.773030E-02  0.175E-01    0.98       1.0  T
   4   -551.6350522 -0.101409E-01  0.451E-02    0.98       1.0  T
   5   -551.6356843 -0.632080E-03  0.245E-02    0.98       1.0  T
   6   -551.6359246 -0.240295E-03  0.430E-03    0.98       1.3  T
   7   -551.6359284 -0.384626E-05  0.287E-03    0.98       2.0  T
   8   -551.6359305 -0.207438E-05  0.162E-03    0.98       3.5  T
   9   -551.6359312 -0.760793E-06  0.752E-04    0.98       7.6  T
  10   -551.6359314 -0.178140E-06  0.295E-04    0.98      19.3  T
     SCC iter.                  ...        0 min,  3.138 sec
     gradient                   ...        0 min,  0.586 sec
 * total energy  :  -541.8576421 Eh     change       -0.3847856E-01 Eh
   gradient norm :     0.0702875 Eh/α   predicted    -0.3414687E-01 ( -11.26%)
   displ. norm   :     0.8951236 α      lambda       -0.4034155E-01
   maximum displ.:     0.3479137 α      in ANC's #24, #36, #51, ...

........................................................................
.............................. CYCLE   17 ..............................
........................................................................
   1   -551.6324349 -0.551632E+03  0.184E-01    0.99       0.0  T
   2   -551.6312689  0.116597E-02  0.129E-01    1.00       1.0  T
   3   -551.6258476  0.542134E-02  0.146E-01    1.00       1.0  T
   4   -551.6331663 -0.731876E-02  0.222E-02    1.00       1.0  T
   5   -551.6332800 -0.113706E-03  0.128E-02    1.00       1.0  T
   6   -551.6333417 -0.616917E-04  0.369E-03    1.00       1.5  T
   7   -551.6333437 -0.201479E-05  0.254E-03    1.00       2.2  T
   8   -551.6333451 -0.134911E-05  0.130E-03    1.00       4.4  T
   9   -551.6333457 -0.640473E-06  0.556E-04    1.00      10.2  T
  10   -551.6333458 -0.936699E-07  0.241E-04    1.00      23.6  T
     SCC iter.                  ...        0 min,  3.129 sec
     gradient                   ...        0 min,  0.613 sec
 * total energy  :  -541.8978278 Eh     change       -0.4018570E-01 Eh
   gradient norm :     0.0713363 Eh/α   predicted    -0.3633260E-01 (  -9.59%)
   displ. norm   :     0.9631116 α      lambda       -0.5803482E-01
   maximum displ.:     0.3918732 α      in ANC's #24, #36, #47, ...

........................................................................
.............................. CYCLE   18 ..............................
........................................................................
   1   -551.7075962 -0.551708E+03  0.239E-01    0.97       0.0  T
   2   -551.7045313  0.306490E-02  0.190E-01    0.98       1.0  T
   3   -551.7023919  0.213947E-02  0.153E-01    0.98       1.0  T
   4   -551.7093931 -0.700118E-02  0.421E-02    0.98       1.0  T
   5   -551.7099900 -0.596919E-03  0.158E-02    0.98       1.0  T
   6   -551.7101000 -0.110042E-03  0.726E-03    0.98       1.0  T
   7   -551.7101170 -0.169842E-04  0.359E-03    0.98       1.6  T
   8   -551.7101190 -0.202706E-05  0.205E-03    0.98       2.8  T
   9   -551.7101202 -0.113233E-05  0.893E-04    0.98       6.4  T
  10   -551.7101204 -0.283416E-06  0.389E-04    0.98      14.6  T
  11   -551.7101205 -0.245906E-07  0.221E-04    0.98      25.8  T
     SCC iter.                  ...        0 min,  3.437 sec
     gradient                   ...        0 min,  0.586 sec
 * total energy  :  -541.9363905 Eh     change       -0.3856268E-01 Eh
   gradient norm :     0.1251763 Eh/α   predicted    -0.5593349E-01 (  45.05%)
   displ. norm   :     0.7138162 α      lambda       -0.4293823E-01
   maximum displ.:     0.2868539 α      in ANC's #51, #24, #36, ...

........................................................................
.............................. CYCLE   19 ..............................
........................................................................
   1   -551.6726997 -0.551673E+03  0.123E-01    0.99       0.0  T
   2   -551.6723706  0.329099E-03  0.880E-02    0.99       1.0  T
   3   -551.6699665  0.240413E-02  0.881E-02    0.99       1.0  T
   4   -551.6728719 -0.290543E-02  0.206E-02    0.99       1.0  T
   5   -551.6730430 -0.171052E-03  0.557E-03    0.99       1.0  T
   6   -551.6730530 -0.100695E-04  0.285E-03    0.99       2.0  T
   7   -551.6730545 -0.151079E-05  0.186E-03    0.99       3.1  T
   8   -551.6730552 -0.674297E-06  0.652E-04    0.99       8.7  T
   9   -551.6730553 -0.843414E-07  0.361E-04    0.99      15.8  T
     SCC iter.                  ...        0 min,  2.815 sec
     gradient                   ...        0 min,  0.586 sec
 * total energy  :  -541.9745329 Eh     change       -0.3814245E-01 Eh
   gradient norm :     0.0834147 Eh/α   predicted    -0.3240843E-01 ( -15.03%)
   displ. norm   :     0.8197940 α      lambda       -0.4660449E-01
   maximum displ.:     0.3674071 α      in ANC's #24, #36, #25, ...

........................................................................
.............................. CYCLE   20 ..............................
........................................................................
   1   -551.7333471 -0.551733E+03  0.150E-01    0.97       0.0  T
   2   -551.7324174  0.929643E-03  0.116E-01    0.97       1.0  T
   3   -551.7304721  0.194528E-02  0.954E-02    0.97       1.0  T
   4   -551.7337363 -0.326419E-02  0.250E-02    0.97       1.0  T
   5   -551.7340084 -0.272059E-03  0.669E-03    0.97       1.0  T
   6   -551.7340222 -0.137639E-04  0.314E-03    0.97       1.8  T
   7   -551.7340237 -0.156325E-05  0.182E-03    0.97       3.1  T
   8   -551.7340241 -0.391260E-06  0.933E-04    0.97       6.1  T
   9   -551.7340245 -0.404029E-06  0.308E-04    0.97      18.5  T
     SCC iter.                  ...        0 min,  2.817 sec
     gradient                   ...        0 min,  0.586 sec
 * total energy  :  -542.0097687 Eh     change       -0.3523580E-01 Eh
   gradient norm :     0.0632684 Eh/α   predicted    -0.3896292E-01 (  10.58%)
   displ. norm   :     0.8452974 α      lambda       -0.3231052E-01
   maximum displ.:     0.4266908 α      in ANC's #24, #36, #51, ...
 * RMSD in coord.:     0.7628519 α      energy gain  -0.1533672E+01 Eh

generating ANC from model Hessian ...
Using Lindh-Hessian (1995)
 Shifting diagonal of input Hessian by    1.0028398818506279E-002
 Lowest  eigenvalues of input Hessian
    0.010000    0.010001    0.010001    0.010011    0.010014    0.010016
    0.010019    0.010021    0.010023    0.010024    0.010025    0.010025
    0.010026    0.010027    0.010027    0.010027    0.010028    0.010028
 Highest eigenvalues
    2.507391    2.869256    2.875116    2.910096    2.910133    2.911638


........................................................................
.............................. CYCLE   21 ..............................
........................................................................
   1   -551.7608972 -0.551761E+03  0.115E-01    0.97       0.0  T
   2   -551.7607877  0.109440E-03  0.748E-02    0.97       1.0  T
   3   -551.7574772  0.331057E-02  0.712E-02    0.97       1.0  T
   4   -551.7609597 -0.348249E-02  0.136E-02    0.97       1.0  T
   5   -551.7610333 -0.736202E-04  0.382E-03    0.97       1.5  T
   6   -551.7610375 -0.419053E-05  0.170E-03    0.97       3.3  T
   7   -551.7610374  0.942684E-07  0.125E-03    0.97       4.6  T
   8   -551.7610379 -0.506554E-06  0.377E-04    0.97      15.1  T
   9   -551.7610379 -0.440964E-07  0.216E-04    0.97      26.3  T
     SCC iter.                  ...        0 min,  2.816 sec
     gradient                   ...        0 min,  0.586 sec
 * total energy  :  -542.0386632 Eh     change       -0.2889449E-01 Eh
   gradient norm :     0.0609409 Eh/α   predicted     0.0000000E+00 (-100.00%)
   displ. norm   :     0.7757703 α      lambda       -0.2811172E-01
   maximum displ.:     0.3631855 α      in ANC's #71, #50, #40, ...

........................................................................
.............................. CYCLE   22 ..............................
........................................................................
   1   -551.8295159 -0.551830E+03  0.818E-02    0.96       0.0  T
   2   -551.8294752  0.406985E-04  0.504E-02    0.96       1.0  T
   3   -551.8281708  0.130446E-02  0.466E-02    0.96       1.0  T
   4   -551.8295431 -0.137236E-02  0.836E-03    0.96       1.0  T
   5   -551.8295782 -0.350707E-04  0.192E-03    0.96       3.0  T
   6   -551.8295791 -0.862225E-06  0.100E-03    0.96       5.7  T
   7   -551.8295792 -0.122538E-06  0.592E-04    0.96       9.6  T
   8   -551.8295792 -0.753354E-07  0.242E-04    0.96      23.5  T
     SCC iter.                  ...        0 min,  2.506 sec
     gradient                   ...        0 min,  0.586 sec
 * total energy  :  -542.0651418 Eh     change       -0.2647856E-01 Eh
   gradient norm :     0.0431593 Eh/α   predicted    -0.2251592E-01 ( -14.97%)
   displ. norm   :     0.9325671 α      lambda       -0.3003534E-01
   maximum displ.:     0.4321619 α      in ANC's #50, #71, #40, ...

........................................................................
.............................. CYCLE   23 ..............................
........................................................................
   1   -551.8930239 -0.551893E+03  0.941E-02    0.94       0.0  T
   2   -551.8929710  0.528059E-04  0.581E-02    0.94       1.0  T
   3   -551.8913149  0.165616E-02  0.534E-02    0.94       1.0  T
   4   -551.8930592 -0.174432E-02  0.988E-03    0.94       1.0  T
   5   -551.8931115 -0.523212E-04  0.226E-03    0.94       2.5  T
   6   -551.8931131 -0.152805E-05  0.107E-03    0.94       5.3  T
   7   -551.8931132 -0.144234E-06  0.666E-04    0.94       8.5  T
   8   -551.8931133 -0.864084E-07  0.339E-04    0.94      16.7  T
     SCC iter.                  ...        0 min,  2.509 sec
     gradient                   ...        0 min,  0.586 sec
 * total energy  :  -542.0931534 Eh     change       -0.2801165E-01 Eh
   gradient norm :     0.0300219 Eh/α   predicted    -0.2807948E-01 (   0.24%)
   displ. norm   :     0.9466911 α      lambda       -0.2671994E-01
   maximum displ.:     0.4465533 α      in ANC's #50, #71, #40, ...

........................................................................
.............................. CYCLE   24 ..............................
........................................................................
   1   -551.9400707 -0.551940E+03  0.987E-02    0.92       0.0  T
   2   -551.9400255  0.452264E-04  0.601E-02    0.92       1.0  T
   3   -551.9382163  0.180915E-02  0.517E-02    0.93       1.0  T
   4   -551.9401017 -0.188537E-02  0.757E-03    0.92       1.0  T
   5   -551.9401321 -0.304357E-04  0.195E-03    0.93       2.9  T
   6   -551.9401332 -0.100945E-05  0.103E-03    0.93       5.5  T
   7   -551.9401333 -0.148006E-06  0.605E-04    0.93       9.4  T
   8   -551.9401334 -0.902279E-07  0.317E-04    0.93      17.9  T
     SCC iter.                  ...        0 min,  2.507 sec
     gradient                   ...        0 min,  0.585 sec
 * total energy  :  -542.1180653 Eh     change       -0.2491187E-01 Eh
   gradient norm :     0.0322702 Eh/α   predicted    -0.2533350E-01 (   1.69%)
   displ. norm   :     0.9625529 α      lambda       -0.2551827E-01
   maximum displ.:     0.4664041 α      in ANC's #50, #71, #40, ...

........................................................................
.............................. CYCLE   25 ..............................
........................................................................
   1   -551.9807012 -0.551981E+03  0.112E-01    0.91       0.0  T
   2   -551.9806612  0.400155E-04  0.677E-02    0.91       1.0  T
   3   -551.9787307  0.193044E-02  0.513E-02    0.91       1.0  T
   4   -551.9807320 -0.200127E-02  0.654E-03    0.91       1.0  T
   5   -551.9807530 -0.209883E-04  0.202E-03    0.91       2.8  T
   6   -551.9807540 -0.973224E-06  0.119E-03    0.91       4.8  T
   7   -551.9807542 -0.268462E-06  0.599E-04    0.91       9.5  T
   8   -551.9807543 -0.845155E-07  0.289E-04    0.91      19.7  T
     SCC iter.                  ...        0 min,  2.506 sec
     gradient                   ...        0 min,  0.586 sec
 * total energy  :  -542.1412903 Eh     change       -0.2322496E-01 Eh
   gradient norm :     0.0321304 Eh/α   predicted    -0.2458059E-01 (   5.84%)
   displ. norm   :     0.9416447 α      lambda       -0.2324137E-01
   maximum displ.:     0.4684336 α      in ANC's #50, #71, #40, ...

........................................................................
.............................. CYCLE   26 ..............................
........................................................................
   1   -552.0192409 -0.552019E+03  0.935E-02    0.90       0.0  T
   2   -552.0192031  0.377104E-04  0.571E-02    0.90       1.0  T
   3   -552.0176379  0.156527E-02  0.471E-02    0.90       1.0  T
   4   -552.0192685 -0.163061E-02  0.622E-03    0.90       1.0  T
   5   -552.0192869 -0.184204E-04  0.190E-03    0.90       3.0  T
   6   -552.0192878 -0.849113E-06  0.104E-03    0.90       5.4  T
   7   -552.0192879 -0.184237E-06  0.568E-04    0.90      10.0  T
   8   -552.0192880 -0.922294E-07  0.232E-04    0.90      24.5  T
     SCC iter.                  ...        0 min,  2.506 sec
     gradient                   ...        0 min,  0.587 sec
 * total energy  :  -542.1633468 Eh     change       -0.2205653E-01 Eh
   gradient norm :     0.0254947 Eh/α   predicted    -0.2192470E-01 (  -0.60%)
   displ. norm   :     0.9556155 α      lambda       -0.2158252E-01
   maximum displ.:     0.4882264 α      in ANC's #50, #40, #71, ...

........................................................................
.............................. CYCLE   27 ..............................
........................................................................
   1   -552.0544542 -0.552054E+03  0.987E-02    0.90       0.0  T
   2   -552.0544255  0.287182E-04  0.597E-02    0.90       1.0  T
   3   -552.0530691  0.135642E-02  0.443E-02    0.90       1.0  T
   4   -552.0544789 -0.140977E-02  0.573E-03    0.90       1.0  T
   5   -552.0544939 -0.150169E-04  0.178E-03    0.90       3.2  T
   6   -552.0544945 -0.597336E-06  0.106E-03    0.90       5.3  T
   7   -552.0544947 -0.208459E-06  0.554E-04    0.90      10.3  T
   8   -552.0544948 -0.956089E-07  0.204E-04    0.90      27.8  T
     SCC iter.                  ...        0 min,  2.511 sec
     gradient                   ...        0 min,  0.586 sec
 * total energy  :  -542.1840568 Eh     change       -0.2070999E-01 Eh
   gradient norm :     0.0228174 Eh/α   predicted    -0.2064585E-01 (  -0.31%)
   displ. norm   :     0.9658873 α      lambda       -0.2052354E-01
   maximum displ.:     0.5027602 α      in ANC's #50, #40, #71, ...

........................................................................
.............................. CYCLE   28 ..............................
........................................................................
   1   -552.0888214 -0.552089E+03  0.110E-01    0.90       0.0  T
   2   -552.0888057  0.156575E-04  0.659E-02    0.90       1.0  T
   3   -552.0878114  0.994352E-03  0.375E-02    0.90       1.0  T
   4   -552.0888402 -0.102885E-02  0.503E-03    0.90       1.1  T
   5   -552.0888513 -0.111262E-04  0.168E-03    0.90       3.4  T
   6   -552.0888516 -0.307431E-06  0.113E-03    0.90       5.0  T
   7   -552.0888519 -0.255508E-06  0.546E-04    0.90      10.4  T
   8   -552.0888520 -0.102720E-06  0.178E-04    0.90      32.0  T
     SCC iter.                  ...        0 min,  2.506 sec
     gradient                   ...        0 min,  0.587 sec
 * total energy  :  -542.2035573 Eh     change       -0.1950050E-01 Eh
   gradient norm :     0.0221459 Eh/α   predicted    -0.1983538E-01 (   1.72%)
   displ. norm   :     0.9682439 α      lambda       -0.1968182E-01
   maximum displ.:     0.5067694 α      in ANC's #50, #40, #54, ...

........................................................................
.............................. CYCLE   29 ..............................
........................................................................
   1   -552.1222133 -0.552122E+03  0.116E-01    0.90       0.0  T
   2   -552.1222070  0.629697E-05  0.688E-02    0.90       1.0  T
   3   -552.1215553  0.651700E-03  0.301E-02    0.90       1.0  T
   4   -552.1222264 -0.671116E-03  0.478E-03    0.90       1.2  T
   5   -552.1222370 -0.106070E-04  0.162E-03    0.90       3.5  T
   6   -552.1222372 -0.178700E-06  0.115E-03    0.90       5.0  T
   7   -552.1222375 -0.286973E-06  0.521E-04    0.90      10.9  T
   8   -552.1222376 -0.952515E-07  0.161E-04    0.90      35.2  T
     SCC iter.                  ...        0 min,  2.506 sec
     gradient                   ...        0 min,  0.663 sec
 * total energy  :  -542.2220007 Eh     change       -0.1844337E-01 Eh
   gradient norm :     0.0209852 Eh/α   predicted    -0.1906673E-01 (   3.38%)
   displ. norm   :     0.9595916 α      lambda       -0.1819218E-01
   maximum displ.:     0.5136254 α      in ANC's #50, #40, #54, ...

........................................................................
.............................. CYCLE   30 ..............................
........................................................................
   1   -552.1525165 -0.552153E+03  0.107E-01    0.90       0.0  T
   2   -552.1525109  0.559555E-05  0.633E-02    0.90       1.0  T
   3   -552.1519353  0.575556E-03  0.289E-02    0.90       1.0  T
   4   -552.1525294 -0.594100E-03  0.428E-03    0.90       1.3  T
   5   -552.1525380 -0.854539E-05  0.153E-03    0.90       3.7  T
   6   -552.1525382 -0.268640E-06  0.104E-03    0.90       5.5  T
   7   -552.1525385 -0.238034E-06  0.455E-04    0.90      12.5  T
   8   -552.1525385 -0.698633E-07  0.150E-04    0.90      37.7  T
     SCC iter.                  ...        0 min,  2.507 sec
     gradient                   ...        0 min,  0.587 sec
 * total energy  :  -542.2393321 Eh     change       -0.1733141E-01 Eh
   gradient norm :     0.0188720 Eh/α   predicted    -0.1747192E-01 (   0.81%)
   displ. norm   :     0.9629662 α      lambda       -0.1689610E-01
   maximum displ.:     0.5231856 α      in ANC's #50, #40, #54, ...

........................................................................
.............................. CYCLE   31 ..............................
........................................................................
   1   -552.1828846 -0.552183E+03  0.105E-01    0.90       0.0  T
   2   -552.1828794  0.515346E-05  0.621E-02    0.90       1.0  T
   3   -552.1823415  0.537904E-03  0.286E-02    0.90       1.0  T
   4   -552.1828979 -0.556339E-03  0.401E-03    0.90       1.4  T
   5   -552.1829054 -0.750200E-05  0.153E-03    0.90       3.7  T
   6   -552.1829057 -0.351383E-06  0.998E-04    0.90       5.7  T
   7   -552.1829059 -0.228487E-06  0.419E-04    0.90      13.5  T
     SCC iter.                  ...        0 min,  2.193 sec
     gradient                   ...        0 min,  0.587 sec
 * total energy  :  -542.2555575 Eh     change       -0.1622538E-01 Eh
   gradient norm :     0.0172939 Eh/α   predicted    -0.1628197E-01 (   0.35%)
   displ. norm   :     0.9641750 α      lambda       -0.1578868E-01
   maximum displ.:     0.5293822 α      in ANC's #50, #40, #54, ...

........................................................................
.............................. CYCLE   32 ..............................
........................................................................
   1   -552.2135665 -0.552214E+03  0.103E-01    0.90       0.0  T
   2   -552.2135639  0.253436E-05  0.609E-02    0.90       1.0  T
   3   -552.2131304  0.433549E-03  0.257E-02    0.90       1.0  T
   4   -552.2135782 -0.447773E-03  0.387E-03    0.90       1.5  T
   5   -552.2135855 -0.729254E-05  0.143E-03    0.90       4.0  T
   6   -552.2135857 -0.254780E-06  0.964E-04    0.90       5.9  T
   7   -552.2135859 -0.216302E-06  0.374E-04    0.90      15.2  T
     SCC iter.                  ...        0 min,  2.199 sec
     gradient                   ...        0 min,  0.587 sec
 * total energy  :  -542.2707032 Eh     change       -0.1514573E-01 Eh
   gradient norm :     0.0159768 Eh/α   predicted    -0.1523319E-01 (   0.58%)
   displ. norm   :     0.9664051 α      lambda       -0.1484955E-01
   maximum displ.:     0.5336647 α      in ANC's #50, #40, #54, ...

........................................................................
.............................. CYCLE   33 ..............................
........................................................................
   1   -552.2428073 -0.552243E+03  0.104E-01    0.90       0.0  T
   2   -552.2428057  0.153595E-05  0.618E-02    0.90       1.0  T
   3   -552.2424054  0.400333E-03  0.251E-02    0.90       1.0  T
   4   -552.2428190 -0.413611E-03  0.383E-03    0.90       1.5  T
   5   -552.2428261 -0.707055E-05  0.142E-03    0.90       4.0  T
   6   -552.2428263 -0.219017E-06  0.979E-04    0.90       5.8  T
   7   -552.2428265 -0.221925E-06  0.365E-04    0.90      15.6  T
     SCC iter.                  ...        0 min,  2.198 sec
     gradient                   ...        0 min,  0.586 sec
 * total energy  :  -542.2848174 Eh     change       -0.1411425E-01 Eh
   gradient norm :     0.0150944 Eh/α   predicted    -0.1435907E-01 (   1.73%)
   displ. norm   :     0.9632130 α      lambda       -0.1385779E-01
   maximum displ.:     0.5355181 α      in ANC's #50, #40, #54, ...

........................................................................
.............................. CYCLE   34 ..............................
........................................................................
   1   -552.2697015 -0.552270E+03  0.102E-01    0.89       0.0  T
   2   -552.2697006  0.947175E-06  0.602E-02    0.89       1.0  T
   3   -552.2693434  0.357216E-03  0.241E-02    0.89       1.0  T
   4   -552.2697131 -0.369771E-03  0.362E-03    0.89       1.6  T
   5   -552.2697193 -0.614532E-05  0.136E-03    0.89       4.2  T
   6   -552.2697195 -0.197804E-06  0.932E-04    0.89       6.1  T
   7   -552.2697197 -0.203506E-06  0.343E-04    0.89      16.6  T
     SCC iter.                  ...        0 min,  2.197 sec
     gradient                   ...        0 min,  0.586 sec
 * total energy  :  -542.2980162 Eh     change       -0.1319874E-01 Eh
   gradient norm :     0.0137353 Eh/α   predicted    -0.1335739E-01 (   1.20%)
   displ. norm   :     0.9610293 α      lambda       -0.1274843E-01
   maximum displ.:     0.5379349 α      in ANC's #50, #40, #54, ...

........................................................................
.............................. CYCLE   35 ..............................
........................................................................
   1   -552.2962442 -0.552296E+03  0.968E-02    0.89       0.0  T
   2   -552.2962446 -0.460299E-06  0.571E-02    0.89       1.0  T
   3   -552.2959659  0.278727E-03  0.215E-02    0.89       1.0  T
   4   -552.2962545 -0.288619E-03  0.341E-03    0.89       1.7  T
   5   -552.2962601 -0.552459E-05  0.122E-03    0.89       4.7  T
   6   -552.2962602 -0.139327E-06  0.859E-04    0.89       6.6  T
   7   -552.2962604 -0.187786E-06  0.296E-04    0.89      19.2  T
     SCC iter.                  ...        0 min,  2.197 sec
     gradient                   ...        0 min,  0.588 sec
 * total energy  :  -542.3102485 Eh     change       -0.1223231E-01 Eh
   gradient norm :     0.0127031 Eh/α   predicted    -0.1226130E-01 (   0.24%)
   displ. norm   :     0.9610846 α      lambda       -0.1184230E-01
   maximum displ.:     0.5365840 α      in ANC's #50, #54, #40, ...

........................................................................
.............................. CYCLE   36 ..............................
........................................................................
   1   -552.3223244 -0.552322E+03  0.960E-02    0.89       0.0  T
   2   -552.3223256 -0.125931E-05  0.566E-02    0.89       1.0  T
   3   -552.3220787  0.246977E-03  0.206E-02    0.89       1.0  T
   4   -552.3223344 -0.255771E-03  0.338E-03    0.89       1.7  T
   5   -552.3223398 -0.538930E-05  0.118E-03    0.89       4.8  T
   6   -552.3223399 -0.118423E-06  0.846E-04    0.89       6.7  T
   7   -552.3223401 -0.181376E-06  0.285E-04    0.89      19.9  T
     SCC iter.                  ...        0 min,  2.195 sec
     gradient                   ...        0 min,  0.596 sec
 * total energy  :  -542.3215695 Eh     change       -0.1132098E-01 Eh
   gradient norm :     0.0119215 Eh/α   predicted    -0.1139043E-01 (   0.61%)
   displ. norm   :     0.9621164 α      lambda       -0.1106007E-01
   maximum displ.:     0.5370384 α      in ANC's #50, #54, #40, ...

........................................................................
.............................. CYCLE   37 ..............................
........................................................................
   1   -552.3467818 -0.552347E+03  0.975E-02    0.89       0.0  T
   2   -552.3467838 -0.203061E-05  0.574E-02    0.89       1.0  T
   3   -552.3465733  0.210552E-03  0.194E-02    0.89       1.0  T
   4   -552.3467916 -0.218278E-03  0.326E-03    0.89       1.7  T
   5   -552.3467964 -0.483246E-05  0.120E-03    0.89       4.7  T
   6   -552.3467965 -0.660218E-07  0.900E-04    0.89       6.3  T
   7   -552.3467967 -0.220638E-06  0.273E-04    0.89      20.8  T
     SCC iter.                  ...        0 min,  2.196 sec
     gradient                   ...        0 min,  0.587 sec
 * total energy  :  -542.3320351 Eh     change       -0.1046560E-01 Eh
   gradient norm :     0.0112377 Eh/α   predicted    -0.1064902E-01 (   1.75%)
   displ. norm   :     0.9595358 α      lambda       -0.1026905E-01
   maximum displ.:     0.5318150 α      in ANC's #50, #54, #56, ...

........................................................................
.............................. CYCLE   38 ..............................
........................................................................
   1   -552.3698035 -0.552370E+03  0.971E-02    0.88       0.0  T
   2   -552.3698062 -0.270834E-05  0.571E-02    0.88       1.0  T
   3   -552.3696375  0.168725E-03  0.176E-02    0.88       1.0  T
   4   -552.3698127 -0.175213E-03  0.305E-03    0.88       1.9  T
   5   -552.3698168 -0.407762E-05  0.117E-03    0.88       4.9  T
   6   -552.3698168 -0.179792E-07  0.911E-04    0.88       6.2  T
   7   -552.3698171 -0.241205E-06  0.248E-04    0.88      22.9  T
     SCC iter.                  ...        0 min,  2.194 sec
     gradient                   ...        0 min,  0.588 sec
 * total energy  :  -542.3417122 Eh     change       -0.9677078E-02 Eh
   gradient norm :     0.0104183 Eh/α   predicted    -0.9861940E-02 (   1.91%)
   displ. norm   :     0.9558392 α      lambda       -0.9425062E-02
   maximum displ.:     0.5270984 α      in ANC's #50, #54, #56, ...

........................................................................
.............................. CYCLE   39 ..............................
........................................................................
   1   -552.3911899 -0.552391E+03  0.938E-02    0.88       0.0  T
   2   -552.3911930 -0.315605E-05  0.552E-02    0.88       1.0  T
   3   -552.3910428  0.150258E-03  0.168E-02    0.88       1.0  T
   4   -552.3911986 -0.155862E-03  0.304E-03    0.88       1.9  T
   5   -552.3912028 -0.419548E-05  0.109E-03    0.88       5.2  T
   6   -552.3912029 -0.526747E-07  0.825E-04    0.88       6.9  T
   7   -552.3912031 -0.183225E-06  0.257E-04    0.88      22.1  T
     SCC iter.                  ...        0 min,  2.195 sec
     gradient                   ...        0 min,  0.587 sec
 * total energy  :  -542.3506036 Eh     change       -0.8891391E-02 Eh
   gradient norm :     0.0100212 Eh/α   predicted    -0.9018048E-02 (   1.42%)
   displ. norm   :     0.9533085 α      lambda       -0.8651667E-02
   maximum displ.:     0.5228863 α      in ANC's #50, #56, #54, ...

........................................................................
.............................. CYCLE   40 ..............................
........................................................................
   1   -552.4121066 -0.552412E+03  0.910E-02    0.88       0.0  T
   2   -552.4121100 -0.342216E-05  0.534E-02    0.88       1.0  T
   3   -552.4119801  0.129904E-03  0.161E-02    0.88       1.0  T
   4   -552.4121151 -0.134976E-03  0.293E-03    0.88       1.9  T
   5   -552.4121189 -0.383947E-05  0.103E-03    0.88       5.5  T
   6   -552.4121190 -0.551825E-07  0.769E-04    0.88       7.4  T
   7   -552.4121191 -0.160424E-06  0.240E-04    0.88      23.6  T
     SCC iter.                  ...        0 min,  2.199 sec
     gradient                   ...        0 min,  0.586 sec
 * total energy  :  -542.3587764 Eh     change       -0.8172881E-02 Eh
   gradient norm :     0.0093194 Eh/α   predicted    -0.8257152E-02 (   1.03%)
   displ. norm   :     0.9512764 α      lambda       -0.7894342E-02
   maximum displ.:     0.5165665 α      in ANC's #50, #56, #54, ...

........................................................................
.............................. CYCLE   41 ..............................
........................................................................
   1   -552.4322493 -0.552432E+03  0.893E-02    0.87       0.0  T
   2   -552.4322530 -0.363792E-05  0.524E-02    0.87       1.0  T
   3   -552.4321499  0.103106E-03  0.144E-02    0.87       1.0  T
   4   -552.4322574 -0.107506E-03  0.267E-03    0.87       2.1  T
   5   -552.4322605 -0.307914E-05  0.961E-04    0.87       5.9  T
   6   -552.4322605 -0.103653E-07  0.763E-04    0.87       7.4  T
   7   -552.4322606 -0.174125E-06  0.214E-04    0.87      26.6  T
     SCC iter.                  ...        0 min,  2.197 sec
     gradient                   ...        0 min,  0.588 sec
 * total energy  :  -542.3662422 Eh     change       -0.7465792E-02 Eh
   gradient norm :     0.0086272 Eh/α   predicted    -0.7519094E-02 (   0.71%)
   displ. norm   :     0.9523640 α      lambda       -0.7277112E-02
   maximum displ.:     0.5101663 α      in ANC's #50, #56, #54, ...

........................................................................
.............................. CYCLE   42 ..............................
........................................................................
   1   -552.4504538 -0.552450E+03  0.913E-02    0.87       0.0  T
   2   -552.4504572 -0.340710E-05  0.536E-02    0.87       1.0  T
   3   -552.4503563  0.100858E-03  0.142E-02    0.87       1.0  T
   4   -552.4504618 -0.105522E-03  0.254E-03    0.87       2.2  T
   5   -552.4504645 -0.262642E-05  0.101E-03    0.87       5.6  T
   6   -552.4504644  0.389093E-07  0.838E-04    0.87       6.8  T
   7   -552.4504646 -0.223050E-06  0.182E-04    0.87      31.2  T
     SCC iter.                  ...        0 min,  2.196 sec
     gradient                   ...        0 min,  0.594 sec
 * total energy  :  -542.3730166 Eh     change       -0.6774354E-02 Eh
   gradient norm :     0.0083769 Eh/α   predicted    -0.6938732E-02 (   2.43%)
   displ. norm   :     0.9475004 α      lambda       -0.6739660E-02
   maximum displ.:     0.5018520 α      in ANC's #50, #56, #54, ...
 * RMSD in coord.:     1.1376951 α      energy gain  -0.3632478E+00 Eh

generating ANC from model Hessian ...
Using Lindh-Hessian (1995)
 Shifting diagonal of input Hessian by    1.0040368053671318E-002
 Lowest  eigenvalues of input Hessian
    0.010000    0.010000    0.010001    0.010001    0.010001    0.010008
    0.010011    0.010019    0.010021    0.010022    0.010023    0.010026
    0.010029    0.010032    0.010033    0.010034    0.010036    0.010037
 Highest eigenvalues
    2.878724    2.890544    2.891225    2.892806    2.894509    2.906053


........................................................................
.............................. CYCLE   43 ..............................
........................................................................
   1   -552.4682664 -0.552468E+03  0.918E-02    0.87       0.0  T
   2   -552.4682704 -0.392859E-05  0.539E-02    0.87       1.0  T
   3   -552.4681925  0.778883E-04  0.129E-02    0.87       1.0  T
   4   -552.4682742 -0.816955E-04  0.246E-03    0.87       2.3  T
   5   -552.4682765 -0.234924E-05  0.100E-03    0.87       5.7  T
   6   -552.4682764  0.708183E-07  0.855E-04    0.87       6.6  T
   7   -552.4682767 -0.247324E-06  0.205E-04    0.87      27.7  T
     SCC iter.                  ...        0 min,  2.196 sec
     gradient                   ...        0 min,  0.586 sec
 * total energy  :  -542.3792105 Eh     change       -0.6193931E-02 Eh
   gradient norm :     0.0082290 Eh/α   predicted     0.0000000E+00 (-100.00%)
   displ. norm   :     0.4439939 α      lambda       -0.2839310E-02
   maximum displ.:     0.3588506 α      in ANC's #45, #49, #43, ...

........................................................................
.............................. CYCLE   44 ..............................
........................................................................
   1   -552.4809198 -0.552481E+03  0.391E-02    0.86       0.0  T
   2   -552.4809206 -0.827018E-06  0.229E-02    0.86       1.0  T
   3   -552.4809089  0.117469E-04  0.516E-03    0.86       1.1  T
   4   -552.4809211 -0.122292E-04  0.112E-03    0.86       5.1  T
   5   -552.4809216 -0.532511E-06  0.386E-04    0.86      14.7  T
   6   -552.4809217 -0.731507E-08  0.291E-04    0.86      19.5  T
     SCC iter.                  ...        0 min,  1.884 sec
     gradient                   ...        0 min,  0.596 sec
 * total energy  :  -542.3819563 Eh     change       -0.2745752E-02 Eh
   gradient norm :     0.0069179 Eh/α   predicted    -0.1701314E-02 ( -38.04%)
   displ. norm   :     0.7303663 α      lambda       -0.4376098E-02
   maximum displ.:     0.5218488 α      in ANC's #45, #49, #43, ...

........................................................................
.............................. CYCLE   45 ..............................
........................................................................
   1   -552.4964981 -0.552496E+03  0.650E-02    0.86       0.0  T
   2   -552.4965000 -0.192788E-05  0.381E-02    0.86       1.0  T
[...]
 721:  0.00 722:  0.00 723:  0.00 724:  0.00 725:  0.00 726:  0.00 727:  0.00 728:  0.00
 729:  0.00 730:  0.00 731:  0.00 732:  0.00 733:  0.00 734:  0.00 735:  0.00 736:  0.00
 737:  0.00 738:  0.00 739:  0.00 740:  0.00 741:  0.00 742:  0.00 743:  0.00 744:  0.00
 745:  0.00 746:  0.00 747:  0.00 748:  0.00 749:  0.00 750:  0.00 751:  0.00 752:  0.00
 753:  0.00 754:  0.00 755:  0.00 756:  0.00 757:  0.00 758:  0.00 759:  0.00 760:  0.00
 761:  0.00 762:  0.00 763:  0.00 764:  0.00 765:  0.00 766:  0.00 767:  0.00 768:  0.00
 769:  0.00 770:  0.00 771:  0.00 772:  0.00 773:  0.00 774:  0.00 775:  0.00 776:  0.00
 777:  0.00 778:  0.00 779:  0.00 780:  0.00 781:  0.00 782:  0.00 783:  0.00 784:  0.00
 785:  0.00 786:  0.00 787:  0.00 788:  0.00 789:  0.00 790:  0.00 791:  0.00 792:  0.00
 793:  0.00 794:  0.00 795:  0.00 796:  0.00 797:  0.00 798:  0.00 799:  0.00 800:  0.00
 801:  0.00 802:  0.00 803:  0.00 804:  0.00 805:  0.00 806:  0.00 807:  0.00 808:  0.00
 809:  0.00 810:  0.00 811:  0.00 812:  0.00 813:  0.00 814:  0.00 815:  0.00 816:  0.00
 817:  0.00 818:  0.00 819:  0.00 820:  0.00 821:  0.00 822:  0.00 823:  0.00 824:  0.00
 825:  0.00 826:  0.00 827:  0.00 828:  0.00 829:  0.00 830:  0.00 831:  0.00 832:  0.00
 833:  0.00 834:  0.00 835:  0.00 836:  0.00 837:  0.00 838:  0.00 839:  0.00 840:  0.00
 841:  0.00 842:  0.00 843:  0.00 844:  0.00 845:  0.00 846:  0.00 847:  0.00 848:  0.00
 849:  0.00 850:  0.00 851:  0.00 852:  0.00 853:  0.00 854:  0.00 855:  0.00 856:  0.00
 857:  0.00 858:  0.00 859:  0.00 860:  0.00 861:  0.00 862:  0.00 863:  0.00 864:  0.00
 865:  0.00 866:  0.00 867:  0.00 868:  0.00 869:  0.00 870:  0.00 871:  0.00 872:  0.00
 873:  0.00 874:  0.00 875:  0.00 876:  0.00 877:  0.00 878:  0.00 879:  0.00 880:  0.00
 881:  0.00 882:  0.00 883:  0.00 884:  0.00 885:  0.00 886:  0.00 887:  0.00 888:  0.00
 889:  0.00 890:  0.00 891:  0.00 892:  0.00 893:  0.00 894:  0.00 895:  0.00 896:  0.00
 897:  0.00 898:  0.00 899:  0.00 900:  0.00 901:  0.00 902:  0.00 903:  0.00 904:  0.00
 905:  0.00 906:  0.00 907:  0.00 908:  0.00 909:  0.00 910:  0.00 911:  0.00 912:  0.00
 913:  0.00 914:  0.00 915:  0.00 916:  0.00 917:  0.00 918:  0.00 919:  0.00 920:  0.00
 921:  0.00 922:  0.00 923:  0.00 924:  0.00 925:  0.00 926:  0.00 927:  0.00 928:  0.00
 929:  0.00 930:  0.00
 output can be read by thermo (or use thermo option).
 writing <g98.out> molden fake output.
 recommended (thermochemical) frequency scaling factor: 1.0
           -------------------------------------------------
          |             Thermodynamic Functions             |
           -------------------------------------------------
 symmetry recognition skipped because # atoms >         200
 inverting freq            1   6.7371576437717424     
 inverting freq            2   5.6759402950406352     
 inverting freq            3   4.6015924499710152     
 inverting freq            4   2.8395060323306875     
 inverting freq            5   1.4104701653880767     

          ...................................................
          :                      SETUP                      :
          :.................................................:
          :  # frequencies                         923      :
          :  # imaginary freq.                       0      :
          :  linear?                             false      :
          :  only rotor calc.                    false      :
          :  symmetry                               C1      :
          :  rotational number                       1      :
          :  scaling factor                  1.0000000      :
          :  rotor cutoff                   50.0000000 cm⁻¹ :
          :  imag. cutoff                  -20.0000000 cm⁻¹ :
          :.................................................:

    mode    ω/cm⁻¹     T·S(HO)/kcal·mol⁻¹    T·S(FR)/kcal·mol⁻¹   T·S(vib)
   ------------------------------------------------------------------------
       1      6.74    -2.62246 (  0.03%)    -1.65033 ( 99.97%)    -1.65065
       2      5.68    -2.72400 (  0.02%)    -1.70111 ( 99.98%)    -1.70128
       3      4.60    -2.84832 (  0.01%)    -1.76327 ( 99.99%)    -1.76335
       4      2.84    -3.13435 (  0.00%)    -1.90629 (100.00%)    -1.90630
       5      1.41    -3.54891 (  0.00%)    -2.11357 (100.00%)    -2.11357
       6      1.71    -3.43329 (  0.00%)    -2.05576 (100.00%)    -2.05576
       7      3.32    -3.04257 (  0.00%)    -1.86040 (100.00%)    -1.86042
       8      4.38    -2.87715 (  0.01%)    -1.77769 ( 99.99%)    -1.77775
       9      4.55    -2.85440 (  0.01%)    -1.76631 ( 99.99%)    -1.76639
      10      5.21    -2.77518 (  0.01%)    -1.72670 ( 99.99%)    -1.72682
      11      6.50    -2.64330 (  0.03%)    -1.66075 ( 99.97%)    -1.66104
      12      6.60    -2.63437 (  0.03%)    -1.65629 ( 99.97%)    -1.65659
      13      7.11    -2.59035 (  0.04%)    -1.63428 ( 99.96%)    -1.63467
      14      7.72    -2.54157 (  0.06%)    -1.60988 ( 99.94%)    -1.61041
      15      7.75    -2.53951 (  0.06%)    -1.60886 ( 99.94%)    -1.60939
      16      8.15    -2.50931 (  0.07%)    -1.59375 ( 99.93%)    -1.59440
      17      8.49    -2.48570 (  0.08%)    -1.58195 ( 99.92%)    -1.58270
      18      8.79    -2.46517 (  0.10%)    -1.57168 ( 99.90%)    -1.57253
      19      9.64    -2.41044 (  0.14%)    -1.54431 ( 99.86%)    -1.54550
      20     11.19    -2.32209 (  0.25%)    -1.50012 ( 99.75%)    -1.50218
      21     11.33    -2.31437 (  0.26%)    -1.49627 ( 99.74%)    -1.49842
      22     12.02    -2.27936 (  0.33%)    -1.47875 ( 99.67%)    -1.48142
      23     14.94    -2.15056 (  0.79%)    -1.41433 ( 99.21%)    -1.42016
      24     18.01    -2.04020 (  1.65%)    -1.35912 ( 98.35%)    -1.37039
      25     21.30    -1.94058 (  3.19%)    -1.30928 ( 96.81%)    -1.32942
      26     22.10    -1.91890 (  3.68%)    -1.29842 ( 96.32%)    -1.32123
      27     24.81    -1.85048 (  5.71%)    -1.26418 ( 94.29%)    -1.29768
      28     25.64    -1.83095 (  6.47%)    -1.25440 ( 93.53%)    -1.29169
      29     28.49    -1.76864 (  9.53%)    -1.22320 ( 90.47%)    -1.27520
      30     29.86    -1.74084 ( 11.28%)    -1.20928 ( 88.72%)    -1.26925
      31     31.87    -1.70231 ( 14.16%)    -1.18998 ( 85.84%)    -1.26255
      32     34.15    -1.66148 ( 17.87%)    -1.16952 ( 82.13%)    -1.25742
      33     35.15    -1.64438 ( 19.63%)    -1.16095 ( 80.37%)    -1.25584
      34     37.89    -1.59997 ( 24.80%)    -1.13869 ( 75.20%)    -1.25311
      35     39.76    -1.57158 ( 28.56%)    -1.12445 ( 71.44%)    -1.25215
      36     39.90    -1.56950 ( 28.85%)    -1.12341 ( 71.15%)    -1.25210
      37     40.12    -1.56629 ( 29.30%)    -1.12180 ( 70.70%)    -1.25202
      38     40.34    -1.56293 ( 29.77%)    -1.12012 ( 70.23%)    -1.25194
      39     40.54    -1.56005 ( 30.18%)    -1.11867 ( 69.82%)    -1.25188
      40     40.71    -1.55765 ( 30.52%)    -1.11747 ( 69.48%)    -1.25182
      41     40.89    -1.55500 ( 30.91%)    -1.11614 ( 69.09%)    -1.25177
      42     41.30    -1.54905 ( 31.77%)    -1.11315 ( 68.23%)    -1.25165
      43     41.40    -1.54765 ( 31.98%)    -1.11245 ( 68.02%)    -1.25162
      44     43.06    -1.52448 ( 35.48%)    -1.10083 ( 64.52%)    -1.25116
      45     43.29    -1.52129 ( 35.98%)    -1.09922 ( 64.02%)    -1.25109
      46     46.21    -1.48279 ( 42.18%)    -1.07990 ( 57.82%)    -1.24985
      47     50.32    -1.43251 ( 50.64%)    -1.05464 ( 49.36%)    -1.24601
      48     54.98    -1.38032 ( 59.39%)    -1.02841 ( 40.61%)    -1.23740
      49     55.45    -1.37530 ( 60.21%)    -1.02588 ( 39.79%)    -1.23625
      50     59.83    -1.33054 ( 67.22%)    -1.00336 ( 32.78%)    -1.22329
      51     64.39    -1.28739 ( 73.34%)    -0.98162 ( 26.66%)    -1.20586
      52     67.53    -1.25940 ( 76.89%)    -0.96751 ( 23.11%)    -1.19195
      53     68.72    -1.24917 ( 78.11%)    -0.96235 ( 21.89%)    -1.18638
      54     72.85    -1.21487 ( 81.84%)    -0.94503 ( 18.16%)    -1.16588
      55     72.89    -1.21456 ( 81.87%)    -0.94487 ( 18.13%)    -1.16568
      56     73.03    -1.21347 ( 81.99%)    -0.94432 ( 18.01%)    -1.16498
      57     73.16    -1.21243 ( 82.09%)    -0.94380 ( 17.91%)    -1.16432
      58     73.51    -1.20962 ( 82.37%)    -0.94238 ( 17.63%)    -1.16250
      59     74.48    -1.20196 ( 83.12%)    -0.93851 ( 16.88%)    -1.15748
      60     74.90    -1.19865 ( 83.43%)    -0.93684 ( 16.57%)    -1.15527
      61     77.05    -1.18204 ( 84.94%)    -0.92844 ( 15.06%)    -1.14385
      62     82.60    -1.14137 ( 88.16%)    -0.90785 ( 11.84%)    -1.11373
      63     86.69    -1.11312 ( 90.04%)    -0.89353 (  9.96%)    -1.09124
      64     93.31    -1.07021 ( 92.38%)    -0.87173 (  7.62%)    -1.05509
      65     93.68    -1.06792 ( 92.49%)    -0.87057 (  7.51%)    -1.05310
      66     99.83    -1.03092 ( 94.08%)    -0.85173 (  5.92%)    -1.02031
      67    106.32    -0.99435 ( 95.34%)    -0.83307 (  4.66%)    -0.98683
      68    111.23    -0.96820 ( 96.08%)    -0.81969 (  3.92%)    -0.96238
      69    112.68    -0.96071 ( 96.27%)    -0.81585 (  3.73%)    -0.95531
      70    118.89    -0.92974 ( 96.97%)    -0.79996 (  3.03%)    -0.92581
      71    124.52    -0.90310 ( 97.47%)    -0.78625 (  2.53%)    -0.90014
      72    124.74    -0.90209 ( 97.48%)    -0.78573 (  2.52%)    -0.89916
      73    124.79    -0.90186 ( 97.49%)    -0.78561 (  2.51%)    -0.89894
      74    124.86    -0.90155 ( 97.49%)    -0.78545 (  2.51%)    -0.89863
      75    124.95    -0.90111 ( 97.50%)    -0.78523 (  2.50%)    -0.89822
      76    125.03    -0.90074 ( 97.51%)    -0.78504 (  2.49%)    -0.89786
      77    125.18    -0.90007 ( 97.52%)    -0.78469 (  2.48%)    -0.89721
      78    125.92    -0.89667 ( 97.57%)    -0.78294 (  2.43%)    -0.89391
      79    127.54    -0.88933 ( 97.69%)    -0.77915 (  2.31%)    -0.88679
      80    127.66    -0.88878 ( 97.70%)    -0.77887 (  2.30%)    -0.88625
      81    127.96    -0.88745 ( 97.72%)    -0.77818 (  2.28%)    -0.88496
      82    137.67    -0.84554 ( 98.29%)    -0.75650 (  1.71%)    -0.84401
      83    141.88    -0.82836 ( 98.48%)    -0.74758 (  1.52%)    -0.82714
      84    143.49    -0.82193 ( 98.55%)    -0.74423 (  1.45%)    -0.82080
      85    144.89    -0.81641 ( 98.60%)    -0.74136 (  1.40%)    -0.81536
      86    145.84    -0.81272 ( 98.64%)    -0.73944 (  1.36%)    -0.81172
      87    147.02    -0.80811 ( 98.68%)    -0.73704 (  1.32%)    -0.80717
      88    149.19    -0.79978 ( 98.75%)    -0.73269 (  1.25%)    -0.79895
      89    149.49    -0.79866 ( 98.76%)    -0.73211 (  1.24%)    -0.79784
      90    151.79    -0.78999 ( 98.84%)    -0.72757 (  1.16%)    -0.78926
      91    152.00    -0.78921 ( 98.84%)    -0.72717 (  1.16%)    -0.78850
      92    153.71    -0.78286 ( 98.89%)    -0.72385 (  1.11%)    -0.78221
      93    154.18    -0.78114 ( 98.91%)    -0.72295 (  1.09%)    -0.78050
      94    154.92    -0.77843 ( 98.93%)    -0.72153 (  1.07%)    -0.77782
      95    155.71    -0.77558 ( 98.95%)    -0.72003 (  1.05%)    -0.77499
      96    165.15    -0.74239 ( 99.17%)    -0.70259 (  0.83%)    -0.74206
      97    165.64    -0.74071 ( 99.18%)    -0.70171 (  0.82%)    -0.74039
      98    166.30    -0.73848 ( 99.19%)    -0.70053 (  0.81%)    -0.73817
      99    166.98    -0.73618 ( 99.20%)    -0.69932 (  0.80%)    -0.73589
     100    167.66    -0.73392 ( 99.22%)    -0.69813 (  0.78%)    -0.73364
     101    168.25    -0.73195 ( 99.23%)    -0.69709 (  0.77%)    -0.73168
     102    168.74    -0.73030 ( 99.24%)    -0.69621 (  0.76%)    -0.73004
     103    169.11    -0.72908 ( 99.24%)    -0.69557 (  0.76%)    -0.72882
     104    170.47    -0.72459 ( 99.27%)    -0.69320 (  0.73%)    -0.72436
     105    176.97    -0.70368 ( 99.37%)    -0.68212 (  0.63%)    -0.70355
     106    182.04    -0.68796 ( 99.43%)    -0.67375 (  0.57%)    -0.68788
     107    182.08    -0.68782 ( 99.43%)    -0.67368 (  0.57%)    -0.68774
     108    182.12    -0.68770 ( 99.44%)    -0.67362 (  0.56%)    -0.68762
     109    182.18    -0.68752 ( 99.44%)    -0.67352 (  0.56%)    -0.68744
     110    182.25    -0.68731 ( 99.44%)    -0.67341 (  0.56%)    -0.68724
     111    182.36    -0.68697 ( 99.44%)    -0.67323 (  0.56%)    -0.68689
     112    182.52    -0.68647 ( 99.44%)    -0.67296 (  0.56%)    -0.68640
     113    182.64    -0.68612 ( 99.44%)    -0.67277 (  0.56%)    -0.68605
     114    184.23    -0.68131 ( 99.46%)    -0.67021 (  0.54%)    -0.68125
     115    188.46    -0.66872 ( 99.51%)    -0.66347 (  0.49%)    -0.66869
     116    190.44    -0.66295 ( 99.53%)    -0.66038 (  0.47%)    -0.66293
     117    191.14    -0.66091 ( 99.53%)    -0.65929 (  0.47%)    -0.66091
     118    193.09    -0.65533 ( 99.55%)    -0.65629 (  0.45%)    -0.65534
     119    193.95    -0.65288 ( 99.56%)    -0.65498 (  0.44%)    -0.65289
     120    194.55    -0.65118 ( 99.57%)    -0.65406 (  0.43%)    -0.65119
     121    195.40    -0.64877 ( 99.57%)    -0.65276 (  0.43%)    -0.64878
     122    195.72    -0.64786 ( 99.58%)    -0.65228 (  0.42%)    -0.64788
     123    195.87    -0.64744 ( 99.58%)    -0.65205 (  0.42%)    -0.64746
     124    196.02    -0.64703 ( 99.58%)    -0.65183 (  0.42%)    -0.64705
     125    196.17    -0.64660 ( 99.58%)    -0.65160 (  0.42%)    -0.64662
     126    196.25    -0.64637 ( 99.58%)    -0.65147 (  0.42%)    -0.64639
     127    196.31    -0.64622 ( 99.58%)    -0.65140 (  0.42%)    -0.64625
     128    196.33    -0.64616 ( 99.58%)    -0.65136 (  0.42%)    -0.64618
     129    196.40    -0.64597 ( 99.58%)    -0.65126 (  0.42%)    -0.64600
     130    196.96    -0.64438 ( 99.59%)    -0.65040 (  0.41%)    -0.64441
     131    197.17    -0.64381 ( 99.59%)    -0.65009 (  0.41%)    -0.64384
     132    197.71    -0.64231 ( 99.59%)    -0.64928 (  0.41%)    -0.64234
     133    198.38    -0.64045 ( 99.60%)    -0.64828 (  0.40%)    -0.64048
     134    199.35    -0.63776 ( 99.61%)    -0.64683 (  0.39%)    -0.63779
     135    199.40    -0.63763 ( 99.61%)    -0.64676 (  0.39%)    -0.63767
     136    199.74    -0.63671 ( 99.61%)    -0.64626 (  0.39%)    -0.63674
     137    202.69    -0.62866 ( 99.63%)    -0.64191 (  0.37%)    -0.62871
     138    202.80    -0.62836 ( 99.63%)    -0.64175 (  0.37%)    -0.62841
     139    203.10    -0.62754 ( 99.63%)    -0.64131 (  0.37%)    -0.62759
     140    203.35    -0.62688 ( 99.64%)    -0.64095 (  0.36%)    -0.62693
     141    203.63    -0.62614 ( 99.64%)    -0.64055 (  0.36%)    -0.62619
     142    203.92    -0.62536 ( 99.64%)    -0.64013 (  0.36%)    -0.62542
     143    204.09    -0.62488 ( 99.64%)    -0.63987 (  0.36%)    -0.62494
     144    204.17    -0.62468 ( 99.64%)    -0.63976 (  0.36%)    -0.62473
     145    204.34    -0.62421 ( 99.64%)    -0.63951 (  0.36%)    -0.62427
     146    204.74    -0.62314 ( 99.65%)    -0.63893 (  0.35%)    -0.62320
     147    206.68    -0.61801 ( 99.66%)    -0.63614 (  0.34%)    -0.61807
     148    207.96    -0.61464 ( 99.67%)    -0.63431 (  0.33%)    -0.61470
     149    209.79    -0.60986 ( 99.68%)    -0.63171 (  0.32%)    -0.60993
     150    213.90    -0.59931 ( 99.70%)    -0.62596 (  0.30%)    -0.59939
     151    214.16    -0.59865 ( 99.70%)    -0.62560 (  0.30%)    -0.59873
     152    218.78    -0.58711 ( 99.73%)    -0.61929 (  0.27%)    -0.58720
     153    223.77    -0.57494 ( 99.75%)    -0.61260 (  0.25%)    -0.57503
     154    224.93    -0.57217 ( 99.76%)    -0.61107 (  0.24%)    -0.57226
     155    227.91    -0.56510 ( 99.77%)    -0.60717 (  0.23%)    -0.56519
     156    238.18    -0.54156 ( 99.81%)    -0.59411 (  0.19%)    -0.54166
     157    252.12    -0.51154 ( 99.85%)    -0.57727 (  0.15%)    -0.51164
     158    253.53    -0.50862 ( 99.85%)    -0.57562 (  0.15%)    -0.50872
     159    258.32    -0.49884 ( 99.86%)    -0.57007 (  0.14%)    -0.49894
     160    262.45    -0.49059 ( 99.87%)    -0.56537 (  0.13%)    -0.49068
     161    262.52    -0.49043 ( 99.87%)    -0.56529 (  0.13%)    -0.49053
     162    262.64    -0.49020 ( 99.87%)    -0.56515 (  0.13%)    -0.49030
     163    262.78    -0.48992 ( 99.87%)    -0.56499 (  0.13%)    -0.49002
     164    262.92    -0.48965 ( 99.87%)    -0.56484 (  0.13%)    -0.48975
     165    263.02    -0.48945 ( 99.87%)    -0.56473 (  0.13%)    -0.48955
     166    263.09    -0.48932 ( 99.87%)    -0.56465 (  0.13%)    -0.48942
     167    263.56    -0.48839 ( 99.87%)    -0.56412 (  0.13%)    -0.48849
     168    264.90    -0.48576 ( 99.87%)    -0.56262 (  0.13%)    -0.48586
     169    265.66    -0.48428 ( 99.87%)    -0.56177 (  0.13%)    -0.48438
     170    272.35    -0.47145 ( 99.89%)    -0.55440 (  0.11%)    -0.47154
     171    277.40    -0.46203 ( 99.89%)    -0.54896 (  0.11%)    -0.46212
     172    280.03    -0.45720 ( 99.90%)    -0.54616 (  0.10%)    -0.45729
     173    287.82    -0.44327 ( 99.91%)    -0.53803 (  0.09%)    -0.44336
     174    295.46    -0.43007 ( 99.92%)    -0.53027 (  0.08%)    -0.43015
   ------------------------------------------------------------------------

   temp. (K)  partition function   enthalpy   heat capacity  entropy
                                   cal/mol     cal/K/mol   cal/K/mol   J/K/mol
 298.15  VIB  0.188+103           115920.534    729.676    744.685
         ROT  0.289E+11              888.752      2.981     50.848
         INT  0.544+113           116809.286    732.657    795.532
         TR   0.184E+30             1481.254      4.968     50.128
         TOT                      118290.5398   737.6251   845.6607  3538.2443

       T/K    H(0)-H(T)+PV         H(T)/Eh          T*S/Eh         G(T)/Eh
   ------------------------------------------------------------------------
    298.15    0.188508E+00    0.229677E+01    0.401801E+00    0.189497E+01
   ------------------------------------------------------------------------

         :::::::::::::::::::::::::::::::::::::::::::::::::::::
         ::                  THERMODYNAMIC                  ::
         :::::::::::::::::::::::::::::::::::::::::::::::::::::
         :: total free energy        -540.524618629602 Eh   ::
         ::.................................................::
         :: total energy             -542.419585405023 Eh   ::
         :: zero point energy           2.108259485119 Eh   ::
         :: G(RRHO) w/o ZPVE           -0.213292709699 Eh   ::
         :: G(RRHO) contrib.            1.894966775421 Eh   ::
         :::::::::::::::::::::::::::::::::::::::::::::::::::::
imag cut-off (cm-1) :    5.00
 found            2  significant imaginary frequencies
 writing imag mode distorted coords to xtbhess.xyz
 for further optimization.

optimized geometry written to: xtbopt.xyz


           -------------------------------------------------
          | TOTAL ENERGY             -542.419585405023 Eh   |
          | TOTAL ENTHALPY           -540.122817945676 Eh   |
          | TOTAL FREE ENERGY        -540.524618629602 Eh   |
          | GRADIENT NORM               0.000982505621 Eh/α |
          | HOMO-LUMO GAP               0.827367609678 eV   |
           -------------------------------------------------

------------------------------------------------------------------------
 * finished run on 2021/11/19 at 03:13:18.575     
------------------------------------------------------------------------
 total:
 * wall-time:     0 d,  1 h, 11 min, 57.714 sec
 *  cpu-time:     0 d,  1 h, 11 min, 57.759 sec
 * ratio c/w:     1.000 speedup
 SCF:
 * wall-time:     0 d,  0 h,  0 min, 14.985 sec
 *  cpu-time:     0 d,  0 h,  0 min, 14.985 sec
 * ratio c/w:     1.000 speedup
 ANC optimizer:
 * wall-time:     0 d,  0 h,  4 min, 58.251 sec
 *  cpu-time:     0 d,  0 h,  4 min, 58.249 sec
 * ratio c/w:     1.000 speedup
 analytical hessian:
 * wall-time:     0 d,  1 h,  6 min, 43.935 sec
 *  cpu-time:     0 d,  1 h,  6 min, 43.982 sec
 * ratio c/w:     1.000 speedup

