310
 energy: -540.476096184626 gnorm: 1.066001034519 xtb: 6.4.1 (bd6e46d)
Zn       49.38932600000000    0.04512600000000   -0.01416700000000
C        51.71831700000001   -3.10166700000000    1.30852200000000
C        52.63442400000001   -2.15746000000000    1.25823900000000
C        52.22324500000000   -1.10355600000000    0.33694800000000
C        52.84211500000000    0.02079000000000   -0.00946200000000
C        52.13807300000000    1.24073900000000   -0.37356800000000
C        52.46618400000001    2.20079300000000   -1.22104100000000
C        51.43140400000001    3.21707900000000   -1.23793900000000
C        50.49513600000000    2.84061700000000   -0.39104700000000
N        50.89712600000000    1.60760600000000    0.17277000000000
C        49.23406200000001    3.48561600000000   -0.01189600000000
C        48.13884400000001    2.85083400000000    0.33886500000000
C        47.06521900000000    3.16879000000000    1.30789300000000
C        46.22765600000000    2.17203600000000    1.23072600000000
C        46.66595300000000    1.16835300000000    0.25027400000000
N        47.77089100000001    1.60720600000000   -0.23401800000000
C        46.05511900000000   -0.08491800000000   -0.16327400000000
C        46.71927900000000   -1.18942500000000   -0.41769800000000
C        46.34543000000000   -2.25236600000000   -1.37522500000000
C        47.29417800000000   -3.14612200000000   -1.28620600000000
C        48.27990100000000   -2.70867200000000   -0.30332800000000
N        47.92685600000000   -1.56286700000000    0.19346900000000
C        49.51078900000000   -3.36474300000000    0.14239300000000
C        50.63383100000000   -2.71888100000000    0.40951400000000
N        50.96243100000000   -1.47144000000000   -0.18889000000000
H        51.77857900000000   -4.01144800000000    1.92606800000000
H        53.55075200000000   -2.19740900000000    1.83628800000000
H        53.39354900000000    2.21758900000000   -1.82218500000000
H        51.44830300000001    4.12176700000000   -1.85056000000000
H        49.18633900000000    4.58041900000000   -0.01567300000000
H        47.01239700000000    4.04751500000000    1.93288500000000
H        45.31602500000001    2.13636600000000    1.84805100000000
H        44.95686800000000   -0.08200700000000   -0.26254400000000
H        45.47657500000000   -2.30483100000000   -2.02417600000000
H        47.29133200000000   -4.06243000000000   -1.88496600000000
H        49.47530700000000   -4.46054400000000    0.25431800000000
Zn      146.02550900000003   -0.00225000000000   -0.01860000000000
C       143.69651800000000    2.84454200000000    1.86490400000000
C       142.78041100000002    1.92605200000000    1.64033100000000
C       143.19158999999999    1.06135600000000    0.53951700000000
C       142.57272000000000    0.02079000000000   -0.00946200000000
C       143.27676199999999   -1.11043400000000   -0.59356500000000
C       142.94865200000001   -1.89660600000000   -1.60443200000000
C       143.98343100000000   -2.89211500000000   -1.80957200000000
C       144.91969900000001   -2.67929900000000   -0.90754200000000
N       144.51770900000000   -1.57228700000000   -0.12477100000000
C       146.18077400000001   -3.38344000000000   -0.65462900000000
C       147.27599100000000   -2.82474800000000   -0.19219600000000
C       148.34961600000000   -3.31695300000000    0.70102600000000
C       149.18717899999999   -2.32318600000000    0.81011200000000
C       148.74888200000001   -1.15503700000000    0.03287700000000
N       147.64394400000000   -1.49642900000000   -0.52442300000000
C       149.35971700000002    0.15319800000000   -0.14099300000000
C       148.69555600000001    1.28573200000000   -0.18609900000000
C       149.06940499999999    2.50785700000000   -0.92981500000000
C       148.12065799999999    3.36958400000000   -0.67653600000000
C       147.13493399999999    2.75739000000000    0.20812700000000
N       147.48797999999999    1.53931100000000    0.48373800000000
C       145.90404599999999    3.31938400000000    0.76782200000000
C       144.78100400000000    2.63518000000000    0.91049000000000
N       144.45240400000000    1.52040500000000    0.09105500000000
H       143.63625600000003    3.62396600000000    2.64050900000000
H       141.86408400000002    1.85807200000000    2.21575600000000
H       142.02128600000000   -1.80158900000000   -2.19825600000000
H       143.96653200000000   -3.66745000000000   -2.57939200000000
H       146.22849600000001   -4.45853800000000   -0.86144200000000
H       148.40243799999999   -4.29637000000000    1.15215300000000
H       150.09880999999999   -2.40265800000000    1.42333700000000
H       150.45796700000000    0.16875400000000   -0.23908100000000
H       149.93826100000001    2.67980100000000   -1.55776700000000
H       148.12350400000000    4.38106600000000   -1.09491300000000
H       145.93952800000000    4.37540100000000    1.08109100000000
C        55.73681900000000    0.01875500000000   -0.01057400000000
C        56.94479600000000    0.02621000000000   -0.00887900000000
C        58.36356400000000    0.02690700000000   -0.00374200000000
C        59.57908000000000    0.01875500000000   -0.01057400000000
C        69.08696999999999    0.01875500000000   -0.01057400000000
C        70.29494600000000    0.02621000000000   -0.00887900000000
C        71.71371400000000    0.02690700000000   -0.00374200000000
C        72.92923100000000    0.01875500000000   -0.01057400000000
C        82.43712000000001    0.01875500000000   -0.01057400000000
C        83.64509700000001    0.02621000000000   -0.00887900000000
C        85.06386500000001    0.02690700000000   -0.00374200000000
C        86.27938100000000    0.01875500000000   -0.01057400000000
C        95.78727000000002    0.01875500000000   -0.01057400000000
C        96.99524700000001    0.02621000000000   -0.00887900000000
C        98.41401500000001    0.02690700000000   -0.00374200000000
C        99.62953200000000    0.01875500000000   -0.01057400000000
C       109.13742100000000    0.01875500000000   -0.01057400000000
C       110.34539800000000    0.02621000000000   -0.00887900000000
C       111.76416600000000    0.02690700000000   -0.00374200000000
C       112.97968200000000    0.01875500000000   -0.01057400000000
C       122.48757100000000    0.01875500000000   -0.01057400000000
C       123.69554800000000    0.02621000000000   -0.00887900000000
C       125.11431600000000    0.02690700000000   -0.00374200000000
C       126.32983300000001    0.01875500000000   -0.01057400000000
C       135.83772200000004    0.01875500000000   -0.01057400000000
C       137.04569900000001    0.02621000000000   -0.00887900000000
C       138.46446599999999    0.02690700000000   -0.00374200000000
C       139.67998299999999    0.01875500000000   -0.01057400000000
Zn       64.36766100000000    0.03889100000000    0.00156400000000
C        62.08785100000000   -3.22255700000000   -0.90810200000000
C        61.13164100000000   -2.32320600000000   -1.01012800000000
C        61.52401600000001   -1.16090100000000   -0.20761200000000
C        60.88889900000000   -0.00962900000000    0.00465400000000
C        61.57435600000000    1.26497100000000    0.23088300000000
C        61.23906600000000    2.34357100000000    0.93512400000000
C        62.26360700000000    3.36288700000000    0.84454200000000
C        63.21420400000000    2.86596300000000    0.07117700000000
N        62.83721000000000    1.54935800000000   -0.34496500000000
C        64.46134400000000    3.47766400000000   -0.34568800000000
C        65.56289599999999    2.81040700000000   -0.67746000000000
C        66.55644200000000    3.06239200000000   -1.71162900000000
C        67.45032500000001    2.10153300000000   -1.61014500000000
C        67.07062700000000    1.18964900000000   -0.50616800000000
N        65.97571200000000    1.63896800000000    0.00119800000000
C        67.72783400000000   -0.00962900000000    0.00465400000000
C        67.10442300000000   -1.07881100000000    0.46617100000000
C        67.48313500000000   -2.01092600000000    1.54164600000000
C        66.54246700000000   -2.92507200000000    1.62751300000000
C        65.53416500000000   -2.62929300000000    0.63008500000000
N        65.87194000000000   -1.57591600000000   -0.01921000000000
C        64.28177200000000   -3.33630100000000    0.29889200000000
C        63.16789500000001   -2.73960400000000   -0.04844900000000
N        62.78578300000000   -1.45684700000000    0.36923400000000
H        62.08819500000001   -4.21363100000000   -1.39933600000000
H        60.22310700000000   -2.44490000000000   -1.59127600000000
H        60.31421400000000    2.46192200000000    1.51205000000000
H        62.29090200000001    4.35205200000000    1.30119300000000
H        64.54728400000000    4.57504200000000   -0.40771100000000
H        66.58911400000000    3.86860800000000   -2.43845300000000
H        68.34338700000001    1.98856400000000   -2.24392000000000
H        68.39788600000000   -1.93652000000000    2.15181600000000
H        66.56151300000001   -3.73868100000000    2.33578000000000
H        64.32025700000000   -4.43626000000000    0.35792800000000
Zn       77.71781200000000    0.03889100000000    0.00156400000000
C        75.43800100000001   -3.22255700000000   -0.90810200000000
C        74.48179200000000   -2.32320600000000   -1.01012800000000
C        74.87416600000000   -1.16090100000000   -0.20761200000000
C        74.23905000000001   -0.00962900000000    0.00465400000000
C        74.92450700000001    1.26497100000000    0.23088300000000
C        74.58921599999999    2.34357100000000    0.93512400000000
C        75.61375800000000    3.36288700000000    0.84454200000000
C        76.56435500000001    2.86596300000000    0.07117700000000
N        76.18736100000000    1.54935800000000   -0.34496500000000
C        77.81149400000000    3.47766400000000   -0.34568800000000
C        78.91304599999999    2.81040700000000   -0.67746000000000
C        79.90659300000000    3.06239200000000   -1.71162900000000
C        80.80047600000000    2.10153300000000   -1.61014500000000
C        80.42077800000000    1.18964900000000   -0.50616800000000
N        79.32586200000000    1.63896800000000    0.00119800000000
C        81.07798500000001   -0.00962900000000    0.00465400000000
C        80.45457300000000   -1.07881100000000    0.46617100000000
C        80.83328600000000   -2.01092600000000    1.54164600000000
C        79.89261700000000   -2.92507200000000    1.62751300000000
C        78.88431600000001   -2.62929300000000    0.63008500000000
N        79.22209100000001   -1.57591600000000   -0.01921000000000
C        77.63192300000000   -3.33630100000000    0.29889200000000
C        76.51804600000000   -2.73960400000000   -0.04844900000000
N        76.13593400000001   -1.45684700000000    0.36923400000000
H        75.43834600000001   -4.21363100000000   -1.39933600000000
H        73.57325700000000   -2.44490000000000   -1.59127600000000
H        73.66436400000001    2.46192200000000    1.51205000000000
H        75.64105200000000    4.35205200000000    1.30119300000000
H        77.89743400000000    4.57504200000000   -0.40771100000000
H        79.93926500000001    3.86860800000000   -2.43845300000000
H        81.69353700000001    1.98856400000000   -2.24392000000000
H        81.74803600000000   -1.93652000000000    2.15181600000000
H        79.91166400000000   -3.73868100000000    2.33578000000000
H        77.67040700000000   -4.43626000000000    0.35792800000000
Zn       91.06796199999999    0.03889100000000    0.00156400000000
C        88.78815200000000   -3.22255700000000   -0.90810200000000
C        87.83194200000000   -2.32320600000000   -1.01012800000000
C        88.22431600000000   -1.16090100000000   -0.20761200000000
C        87.58920000000001   -0.00962900000000    0.00465400000000
C        88.27465700000000    1.26497100000000    0.23088300000000
C        87.93936700000000    2.34357100000000    0.93512400000000
C        88.96390800000000    3.36288700000000    0.84454200000000
C        89.91450500000001    2.86596300000000    0.07117700000000
N        89.53751099999999    1.54935800000000   -0.34496500000000
C        91.16164500000001    3.47766400000000   -0.34568800000000
C        92.26319700000002    2.81040700000000   -0.67746000000000
C        93.25674300000000    3.06239200000000   -1.71162900000000
C        94.15062600000000    2.10153300000000   -1.61014500000000
C        93.77092800000000    1.18964900000000   -0.50616800000000
N        92.67601300000000    1.63896800000000    0.00119800000000
C        94.42813500000001   -0.00962900000000    0.00465400000000
C        93.80472399999999   -1.07881100000000    0.46617100000000
C        94.18343600000000   -2.01092600000000    1.54164600000000
C        93.24276800000000   -2.92507200000000    1.62751300000000
C        92.23446600000001   -2.62929300000000    0.63008500000000
N        92.57224100000002   -1.57591600000000   -0.01921000000000
C        90.98207300000000   -3.33630100000000    0.29889200000000
C        89.86819600000000   -2.73960400000000   -0.04844900000000
N        89.48608400000001   -1.45684700000000    0.36923400000000
H        88.78849600000001   -4.21363100000000   -1.39933600000000
H        86.92340800000001   -2.44490000000000   -1.59127600000000
H        87.01451500000000    2.46192200000000    1.51205000000000
H        88.99120300000001    4.35205200000000    1.30119300000000
H        91.24758500000000    4.57504200000000   -0.40771100000000
H        93.28941500000001    3.86860800000000   -2.43845300000000
H        95.04368800000000    1.98856400000000   -2.24392000000000
H        95.09818600000000   -1.93652000000000    2.15181600000000
H        93.26181400000002   -3.73868100000000    2.33578000000000
H        91.02055799999999   -4.43626000000000    0.35792800000000
Zn      104.41811300000001    0.03889100000000    0.00156400000000
C       102.13830200000000   -3.22255700000000   -0.90810200000000
C       101.18209299999999   -2.32320600000000   -1.01012800000000
C       101.57446700000000   -1.16090100000000   -0.20761200000000
C       100.93935000000000   -0.00962900000000    0.00465400000000
C       101.62480700000002    1.26497100000000    0.23088300000000
C       101.28951700000000    2.34357100000000    0.93512400000000
C       102.31405800000000    3.36288700000000    0.84454200000000
C       103.26465600000002    2.86596300000000    0.07117700000000
N       102.88766200000002    1.54935800000000   -0.34496500000000
C       104.51179500000002    3.47766400000000   -0.34568800000000
C       105.61334700000002    2.81040700000000   -0.67746000000000
C       106.60689400000000    3.06239200000000   -1.71162900000000
C       107.50077700000000    2.10153300000000   -1.61014500000000
C       107.12107899999999    1.18964900000000   -0.50616800000000
N       106.02616300000000    1.63896800000000    0.00119800000000
C       107.77828599999999   -0.00962900000000    0.00465400000000
C       107.15487400000001   -1.07881100000000    0.46617100000000
C       107.53358700000001   -2.01092600000000    1.54164600000000
C       106.59291800000000   -2.92507200000000    1.62751300000000
C       105.58461700000001   -2.62929300000000    0.63008500000000
N       105.92239200000000   -1.57591600000000   -0.01921000000000
C       104.33222300000000   -3.33630100000000    0.29889200000000
C       103.21834699999999   -2.73960400000000   -0.04844900000000
N       102.83623500000002   -1.45684700000000    0.36923400000000
H       102.13864700000001   -4.21363100000000   -1.39933600000000
H       100.27355800000001   -2.44490000000000   -1.59127600000000
H       100.36466500000000    2.46192200000000    1.51205000000000
H       102.34135300000001    4.35205200000000    1.30119300000000
H       104.59773500000000    4.57504200000000   -0.40771100000000
H       106.63956600000000    3.86860800000000   -2.43845300000000
H       108.39383800000000    1.98856400000000   -2.24392000000000
H       108.44833700000000   -1.93652000000000    2.15181600000000
H       106.61196500000000   -3.73868100000000    2.33578000000000
H       104.37070799999999   -4.43626000000000    0.35792800000000
Zn      117.76826300000000    0.03889100000000    0.00156400000000
C       115.48845300000001   -3.22255700000000   -0.90810200000000
C       114.53224299999999   -2.32320600000000   -1.01012800000000
C       114.92461700000000   -1.16090100000000   -0.20761200000000
C       114.28950100000000   -0.00962900000000    0.00465400000000
C       114.97495800000000    1.26497100000000    0.23088300000000
C       114.63966800000000    2.34357100000000    0.93512400000000
C       115.66420900000000    3.36288700000000    0.84454200000000
C       116.61480600000002    2.86596300000000    0.07117700000000
N       116.23781200000002    1.54935800000000   -0.34496500000000
C       117.86194600000000    3.47766400000000   -0.34568800000000
C       118.96349800000000    2.81040700000000   -0.67746000000000
C       119.95704400000000    3.06239200000000   -1.71162900000000
C       120.85092700000000    2.10153300000000   -1.61014500000000
C       120.47122899999999    1.18964900000000   -0.50616800000000
N       119.37631400000001    1.63896800000000    0.00119800000000
C       121.12843599999999   -0.00962900000000    0.00465400000000
C       120.50502500000002   -1.07881100000000    0.46617100000000
C       120.88373700000001   -2.01092600000000    1.54164600000000
C       119.94306800000000   -2.92507200000000    1.62751300000000
C       118.93476700000001   -2.62929300000000    0.63008500000000
N       119.27254200000000   -1.57591600000000   -0.01921000000000
C       117.68237400000000   -3.33630100000000    0.29889200000000
C       116.56849699999999   -2.73960400000000   -0.04844900000000
N       116.18638500000002   -1.45684700000000    0.36923400000000
H       115.48879700000002   -4.21363100000000   -1.39933600000000
H       113.62370900000001   -2.44490000000000   -1.59127600000000
H       113.71481600000001    2.46192200000000    1.51205000000000
H       115.69150400000001    4.35205200000000    1.30119300000000
H       117.94788600000001    4.57504200000000   -0.40771100000000
H       119.98971600000000    3.86860800000000   -2.43845300000000
H       121.74398900000001    1.98856400000000   -2.24392000000000
H       121.79848699999999   -1.93652000000000    2.15181600000000
H       119.96211500000000   -3.73868100000000    2.33578000000000
H       117.72085800000001   -4.43626000000000    0.35792800000000
Zn      131.11841400000000    0.03889100000000    0.00156400000000
C       128.83860300000001   -3.22255700000000   -0.90810200000000
C       127.88239400000002   -2.32320600000000   -1.01012800000000
C       128.27476799999999   -1.16090100000000   -0.20761200000000
C       127.63965100000000   -0.00962900000000    0.00465400000000
C       128.32510800000000    1.26497100000000    0.23088300000000
C       127.98981800000000    2.34357100000000    0.93512400000000
C       129.01435900000001    3.36288700000000    0.84454200000000
C       129.96495700000000    2.86596300000000    0.07117700000000
N       129.58796300000000    1.54935800000000   -0.34496500000000
C       131.21209600000000    3.47766400000000   -0.34568800000000
C       132.31364800000000    2.81040700000000   -0.67746000000000
C       133.30719400000001    3.06239200000000   -1.71162900000000
C       134.20107800000000    2.10153300000000   -1.61014500000000
C       133.82138000000000    1.18964900000000   -0.50616800000000
N       132.72646399999999    1.63896800000000    0.00119800000000
C       134.47858600000001   -0.00962900000000    0.00465400000000
C       133.85517500000000   -1.07881100000000    0.46617100000000
C       134.23388800000001   -2.01092600000000    1.54164600000000
C       133.29321899999999   -2.92507200000000    1.62751300000000
C       132.28491800000000   -2.62929300000000    0.63008500000000
N       132.62269300000000   -1.57591600000000   -0.01921000000000
C       131.03252400000000   -3.33630100000000    0.29889200000000
C       129.91864799999999   -2.73960400000000   -0.04844900000000
N       129.53653600000001   -1.45684700000000    0.36923400000000
H       128.83894799999999   -4.21363100000000   -1.39933600000000
H       126.97385900000002   -2.44490000000000   -1.59127600000000
H       127.06496600000000    2.46192200000000    1.51205000000000
H       129.04165399999999    4.35205200000000    1.30119300000000
H       131.29803600000000    4.57504200000000   -0.40771100000000
H       133.33986700000000    3.86860800000000   -2.43845300000000
H       135.09413900000001    1.98856400000000   -2.24392000000000
H       135.14863800000001   -1.93652000000000    2.15181600000000
H       133.31226599999999   -3.73868100000000    2.33578000000000
H       131.07100900000000   -4.43626000000000    0.35792800000000
310
 energy: -540.920105929043 gnorm: 0.628487112683 xtb: 6.4.1 (bd6e46d)
Zn       49.39833922285750    0.04531286801506   -0.01320094307284
C        51.71739262685619   -3.10962168785088    1.30206768523776
C        52.64687710652370   -2.15632907314375    1.25560341640523
C        52.21943591001308   -1.10661746061781    0.34271825599454
C        52.82548062714549    0.03720561954791   -0.01234664497450
C        52.12769202375470    1.23589718046289   -0.36574702288910
C        52.47620239830111    2.22454891632202   -1.23699147967060
C        51.45702252217178    3.21927878232058   -1.25015333226766
C        50.48868041174993    2.82188724578744   -0.38387657861538
N        50.87938860151515    1.59382846845046    0.17575578605553
C        49.25043731116477    3.48560378653975   -0.01320960897242
C        48.12824149794755    2.83742612538202    0.34013134326439
C        47.06824173484218    3.17568113006456    1.29438148568877
C        46.20542568890728    2.16446328302319    1.23340252041197
C        46.65880243179122    1.16922019318839    0.26378336804899
N        47.79731591115122    1.59316002501778   -0.22218236663919
C        46.04497811070973   -0.06524984628620   -0.15717989407815
C        46.72290526858075   -1.19447560140573   -0.42250382233332
C        46.33838869285835   -2.25020455764413   -1.36451635504771
C        47.30120282618606   -3.16486974811925   -1.28347172761221
C        48.28854822500284   -2.71897434988002   -0.30983234351438
N        47.93259380091649   -1.54433318920296    0.17457621854374
C        49.49372843424452   -3.37039837879889    0.13555723860519
C        50.64072976840536   -2.70568625457441    0.41099370895579
N        50.95924729377113   -1.47156807141100   -0.16751195203474
H        51.77219647357030   -4.00686246664091    1.91958905485653
H        53.55402309609912   -2.19027515735100    1.83399770009527
H        53.39086635694294    2.22363668282367   -1.82274735840453
H        51.45304074728254    4.11900190296520   -1.85089912256685
H        49.19771841208532    4.57711832298984   -0.01102878165512
H        47.01772939499162    4.04613078425415    1.92835437099288
H        45.31338691804614    2.12938624805261    1.84658265322127
H        44.95882744589284   -0.07619759729865   -0.26609723255816
H        45.47835246835446   -2.29755984267234   -2.01842342987153
H        47.29955627618266   -4.06491058356744   -1.88183211049925
H        49.47171813335150   -4.45655243839713    0.25462163619288
Zn      146.01649728929195   -0.00260281387232   -0.01769341790679
C       143.69744844795679    2.85355436546010    1.86003792016756
C       142.76797873836324    1.92542229866687    1.63752722053529
C       143.19541932721819    1.06328278554532    0.54576614061008
C       142.58935883789837    0.00515586677591   -0.01521959721272
C       143.28715845748241   -1.10712549183153   -0.58498239379255
C       142.93864041351580   -1.91698079006535   -1.62449195341244
C       143.95782329534788   -2.89201321590592   -1.82197555031641
C       144.92616008711366   -2.66223517855177   -0.89702787462799
N       144.53544325950850   -1.55930700960825   -0.11929208426525
C       146.16439550409845   -3.38319209974655   -0.65591878270529
C       147.28659433908319   -2.81180503233801   -0.18845991913694
C       148.34658809505802   -3.32121496051232    0.68646895807278
C       149.20940980862125   -2.31623564412291    0.81414282013538
C       148.75603667214679   -1.15839439904878    0.04599263804819
N       147.61751637661015   -1.48482889511744   -0.51018751941692
C       149.36985767483168    0.13273877348923   -0.13865135874939
C       148.69192890088016    1.29158653062490   -0.18988538201491
C       149.07644395552853    2.50374357523823   -0.91969286355387
C       148.11363120089683    3.38749952065485   -0.67036885583614
C       147.12628469513061    2.76872156735671    0.20364646556579
N       147.48224340198163    1.52460261856499    0.46173721259556
C       145.92110858565894    3.32621553046718    0.76215397741545
C       144.77410299597415    2.62194171038610    0.90948653164396
N       144.45559488955666    1.51657336876197    0.11209060516469
H       143.64263702152866    3.62066453719985    2.63329191599873
H       141.86081699495077    1.85149467720797    2.21218074132267
H       142.02397458501463   -1.80741488073785   -2.19992787744912
H       143.96179927432405   -3.66467301655670   -2.57921646665840
H       146.21712085325856   -4.45616148049557   -0.85627334728301
H       148.39710589143434   -4.29417019782073    1.14795641465280
H       150.10144930812513   -2.39552669935680    1.42318808439151
H       150.45600771073237    0.16370453933060   -0.24364906328390
H       149.93648305607101    2.67158851831204   -1.55346213338654
H       148.11527879755207    4.38292272458221   -1.09137166198178
H       145.94311728790828    4.37142453330719    1.08065216648223
C        55.72818437847978    0.01905329863953   -0.00915505242077
C        56.94976232402062    0.02640435027905   -0.00907283931553
C        58.33809459148043    0.02735189377095   -0.00399581589455
C        59.55584641485535    0.02516031463291   -0.01293933446194
C        69.10062101657753    0.02426412227309   -0.00874033135727
C        70.31717936681362    0.02650661578650   -0.00745137725605
C        71.68985564609798    0.02725608546435   -0.00428567770582
C        72.90723494329902    0.02504125836723   -0.01374767624328
C        82.45084246190372    0.02431352847860   -0.00855082997224
C        83.66726835080846    0.02652147904097   -0.00739661790661
C        85.04008805163244    0.02725487719556   -0.00431445218488
C        86.25732520509500    0.02502265433488   -0.01382287807718
C        95.80099755250623    0.02432152340819   -0.00851152318542
C        97.01742292220582    0.02652525621850   -0.00738078949827
C        98.39023710211217    0.02725387966282   -0.00431886357915
C        99.60747819725276    0.02501583014079   -0.01384274107164
C       109.15110912569116    0.02431532986172   -0.00851653081542
C       110.36763270047990    0.02652792835584   -0.00736753564657
C       111.74032772581737    0.02725275453583   -0.00431308474788
C       112.95767372565889    0.02500850665602   -0.01385139319094
C       122.50115694924226    0.02429544305015   -0.00854395307154
C       123.71792931732153    0.02653479671439   -0.00733199663530
C       125.09034226962564    0.02725162296126   -0.00429630776604
C       126.30790945191706    0.02499225464598   -0.01388061226288
C       135.85351781801847    0.02470677822138   -0.00808933590493
C       137.07024875448303    0.02647467561393   -0.00789159053505
C       138.46168702279357    0.02637826581763   -0.00408198525327
C       139.68426169572774    0.01832947237346   -0.00991693755724
Zn       64.36008420666390    0.04124488877156    0.00066007001755
C        62.09027540894249   -3.23807384165519   -0.90325089156111
C        61.12585571836922   -2.32136758549205   -1.00293792736626
C        61.54748959097045   -1.17609737989203   -0.21031524700099
C        60.90431899499622    0.00696373276310    0.00432760280843
C        61.60014803537210    1.26782197203727    0.22762823668595
C        61.23160717685320    2.36605929441198    0.94548844654450
C        62.24265284881802    3.36446195292409    0.85130644648447
C        63.22407318960001    2.84902679108288    0.06583303405058
N        62.85526506217438    1.54070802087621   -0.33670006657122
C        64.44880580385311    3.47809976149901   -0.34593736746309
C        65.57149854029036    2.79993897906528   -0.67841078026536
C        66.56008749750922    3.06907406943988   -1.70160298252066
C        67.46802674883428    2.09047055708572   -1.60878815706432
C        67.07315770482218    1.19050701433943   -0.52003547070574
N        65.94940548868568    1.62684482075728   -0.01074727801219
C        67.73071567481949    0.00627020739768   -0.00383279066347
C        67.08966845625231   -1.09256070804310    0.47404881189025
C        67.49357436617113   -2.00769141627065    1.53359904593393
C        66.53805308850957   -2.93963280102423    1.62633099120432
C        65.52481317113146   -2.63825065517375    0.63816196892164
N        65.86280926497473   -1.54790108199273   -0.01140620879565
C        64.30104830704575   -3.34244526723965    0.30777977507211
C        63.15536070449867   -2.72828628322296   -0.05494433534109
N        62.79432716044147   -1.45030732336833    0.34584290331323
H        62.09206326134862   -4.21025714576380   -1.39601018563539
H        60.22389478106896   -2.43709165491473   -1.58753670742282
H        60.31441799705694    2.46466488487289    1.51224972291315
H        62.28310158274451    4.34729795785407    1.30248225957838
H        64.53472107564046    4.57007699747573   -0.41161285337424
H        66.58337800990094    3.86713824288389   -2.43226598468115
H        68.34302902563782    1.98368157363491   -2.24086066593773
H        68.39305188387381   -1.93244507148664    2.14517355526358
H        66.55570273311110   -3.74314644250713    2.33594618552012
H        64.32462501273287   -4.43341034886094    0.35616624364620