 Entering Gaussian System
 *********************************************
 Gaussian 98:
 frequency output generated by the xtb code
 *********************************************
                         Standard orientation:
 --------------------------------------------------------------------
  Center     Atomic     Atomic              Coordinates (Angstroms)
  Number     Number      Type              X           Y           Z
 --------------------------------------------------------------------
    1         27             0        6.669469   -0.053192    0.007479
    2          6             0        9.122090   -3.494109    0.092400
    3          6             0       10.085729   -2.545898    0.119151
    4          6             0        9.411628   -1.284089    0.081543
    5          6             0       10.091955   -0.064679    0.069867
    6          6             0        9.420926    1.159505    0.033295
    7          6             0       10.104693    2.416556    0.015206
    8          6             0        9.147269    3.371096   -0.008109
    9          6             0        7.890147    2.686668   -0.002876
   10          7             0        8.068924    1.328150    0.018392
   11          6             0        6.678488    3.342831   -0.003385
   12          6             0        5.463838    2.692707    0.007504
   13          6             0        4.206624    3.381925    0.018694
   14          6             0        3.247988    2.430710    0.015897
   15          6             0        3.927163    1.167754    0.000275
   16          7             0        5.283165    1.337696    0.000977
   17          6             0        3.266891   -0.041628   -0.031022
   18          6             0        3.919716   -1.255228   -0.056261
   19          6             0        3.232771   -2.513138   -0.103248
   20          6             0        4.185154   -3.470655   -0.104159
   21          6             0        5.446314   -2.790363   -0.054868
   22          7             0        5.274298   -1.434305   -0.032329
   23          6             0        6.655865   -3.448830   -0.015315
   24          6             0        7.870797   -2.801047    0.040087
   25          7             0        8.058954   -1.443673    0.040253
   26          1             0        9.226466   -4.561559    0.105650
   27          1             0       11.151055   -2.664425    0.159001
   28          1             0       11.171512    2.528074    0.021259
   29          1             0        9.259333    4.437676   -0.025849
   30          1             0        6.682594    4.422235   -0.009843
   31          1             0        4.099941    4.449421    0.027279
   32          1             0        2.181380    2.545837    0.021397
   33          1             0        2.187650   -0.038080   -0.040613
   34          1             0        2.165706   -2.620896   -0.131127
   35          1             0        4.071716   -4.537103   -0.132682
   36          1             0        6.652826   -4.528218   -0.024911
   37          6             0       11.489034   -0.067872    0.085074
   38          6             0       12.708408   -0.065648    0.086504
   39          6             0       14.045149   -0.058095    0.088906
   40          6             0       15.268927   -0.046602    0.085123
   41          6             0       16.605511   -0.029969    0.088210
   42          6             0       17.824810   -0.011952    0.098828
   43         27             0       22.627286    0.054341   -0.020622
   44          6             0       20.149713    3.436640    0.396529
   45          6             0       19.195151    2.486416    0.270625
   46          6             0       19.882406    1.237553    0.143726
   47          6             0       19.221219    0.006838    0.110563
   48          6             0       19.916125   -1.204245    0.169933
   49          6             0       19.265624   -2.468957    0.327983
   50          6             0       20.247772   -3.393535    0.431138
   51          6             0       21.486573   -2.688342    0.300683
   52          7             0       21.270993   -1.343142    0.153694
   53          6             0       22.712054   -3.317404    0.240223
   54          6             0       23.885727   -2.654391   -0.049502
   55          6             0       25.131667   -3.323290   -0.286300
   56          6             0       26.022182   -2.366896   -0.629202
   57          6             0       25.323661   -1.116179   -0.562801
   58          7             0       24.014693   -1.304372   -0.218653
   59          6             0       25.939828    0.105804   -0.733594
   60          6             0       25.300268    1.304919   -0.497848
   61          6             0       25.974474    2.570575   -0.493191
   62          6             0       25.056967    3.493770   -0.130891
   63          6             0       23.819705    2.791188    0.046190
   64          7             0       23.982120    1.451186   -0.169607
   65          6             0       22.621233    3.421142    0.306115
   66          6             0       21.409561    2.762883    0.308635
   67          7             0       21.233286    1.412659    0.157139
   68          1             0       20.032965    4.495602    0.520937
   69          1             0       18.127943    2.594702    0.277250
   70          1             0       18.202256   -2.604535    0.367837
   71          1             0       20.162113   -4.454321    0.564957
   72          1             0       22.743704   -4.389429    0.362341
   73          1             0       25.275798   -4.383638   -0.209666
   74          1             0       27.058332   -2.470483   -0.887367
   75          1             0       26.986099    0.123041   -0.997917
   76          1             0       27.013729    2.705610   -0.722761
   77          1             0       25.177020    4.552637   -0.006686
   78          1             0       22.622954    4.490978    0.449599
 --------------------------------------------------------------------
     1 basis functions        1 primitive gaussians
     1 alpha electrons        1 beta electrons

 Harmonic frequencies (cm**-1), IR intensities (km*mol⁻¹),
 Raman scattering activities (A**4/amu), Raman depolarization ratios,
 reduced masses (AMU), force constants (mDyne/A) and normal coordinates:
                      1                      2                      3
                        a                      a                      a 
 Frequencies --   -13.1772                 2.5925                 6.4719
 Red. masses --    11.1854                11.2301                11.5635
 Frc consts  --     0.0000                 0.0000                 0.0000
 IR Inten    --    40.3579                11.1996                 4.5621
 Raman Activ --     0.0000                 0.0000                 0.0000
 Depolar     --     0.0000                 0.0000                 0.0000
 Atom AN      X      Y      Z        X      Y      Z        X      Y      Z
   1  27    -0.00   0.00   0.05     0.00   0.00  -0.00     0.00   0.04  -0.01
   2   6    -0.00   0.00   0.25    -0.01   0.00   0.19    -0.12  -0.07  -0.00
   3   6    -0.00   0.00   0.13    -0.00   0.00   0.14    -0.09  -0.11   0.00
   4   6    -0.00   0.00   0.05    -0.00   0.00   0.07    -0.04  -0.08   0.00
   5   6     0.00   0.00  -0.00     0.00  -0.00   0.00     0.00  -0.11   0.01
   6   6    -0.00   0.00   0.05     0.00  -0.00  -0.07     0.05  -0.08   0.01
   7   6    -0.00   0.00   0.14     0.00  -0.00  -0.14     0.09  -0.11   0.01
   8   6    -0.00   0.00   0.26     0.01  -0.00  -0.19     0.13  -0.07   0.01
   9   6    -0.00   0.00   0.22     0.01  -0.00  -0.15     0.10  -0.03   0.00
  10   7    -0.00   0.00   0.11     0.00   0.00  -0.08     0.06  -0.04   0.00
  11   6    -0.00   0.00   0.25     0.01   0.00  -0.19     0.12   0.02  -0.00
  12   6    -0.00   0.00   0.09     0.01   0.00  -0.16     0.10   0.06  -0.00
  13   6    -0.01  -0.00  -0.02     0.01   0.01  -0.20     0.13   0.11  -0.01
  14   6    -0.00  -0.00  -0.25     0.00   0.01  -0.15     0.09   0.14  -0.01
  15   6    -0.00   0.00  -0.26     0.00   0.01  -0.08     0.05   0.12  -0.01
  16   7    -0.00   0.00  -0.06     0.00   0.00  -0.09     0.06   0.07  -0.01
  17   6     0.00   0.00  -0.39     0.00   0.01  -0.01     0.00   0.14  -0.01
  18   6     0.00   0.00  -0.26    -0.00   0.00   0.07    -0.04   0.12  -0.01
  19   6     0.01  -0.00  -0.25    -0.00   0.00   0.14    -0.09   0.14  -0.01
  20   6     0.01  -0.00  -0.02    -0.01  -0.00   0.20    -0.12   0.11  -0.01
  21   6     0.00  -0.00   0.09    -0.00   0.00   0.16    -0.10   0.06  -0.01
  22   7     0.00  -0.00  -0.06    -0.00   0.00   0.09    -0.05   0.07  -0.01
  23   6    -0.00  -0.00   0.25    -0.01   0.00   0.20    -0.12   0.02  -0.01
  24   6    -0.00   0.00   0.22    -0.00   0.00   0.16    -0.10  -0.03  -0.00
  25   7    -0.00   0.00   0.11    -0.00   0.00   0.09    -0.05  -0.04  -0.00
  26   1    -0.00   0.00   0.10    -0.00   0.00   0.07    -0.05  -0.02  -0.00
  27   1    -0.00   0.00   0.03    -0.00   0.00   0.04    -0.03  -0.04   0.00
  28   1    -0.00   0.00   0.03     0.00  -0.00  -0.04     0.03  -0.04   0.00
  29   1    -0.00   0.00   0.10     0.00  -0.00  -0.07     0.05  -0.02   0.00
  30   1    -0.00   0.00   0.10     0.00   0.00  -0.07     0.05   0.00  -0.00
  31   1    -0.00  -0.00   0.02     0.00   0.00  -0.08     0.05   0.03  -0.00
  32   1    -0.00  -0.00  -0.11     0.00   0.00  -0.05     0.03   0.05  -0.00
  33   1     0.00   0.00  -0.16     0.00   0.00  -0.00     0.00   0.05  -0.00
  34   1     0.00  -0.00  -0.12    -0.00   0.00   0.04    -0.03   0.05  -0.00
  35   1     0.00  -0.00   0.02    -0.00  -0.00   0.08    -0.05   0.03  -0.00
  36   1    -0.00  -0.00   0.10    -0.00   0.00   0.08    -0.05   0.00  -0.00
  37   6     0.00  -0.00  -0.05     0.00  -0.00   0.00     0.00  -0.15   0.01
  38   6     0.00  -0.00  -0.07     0.00  -0.00   0.00     0.00  -0.18   0.01
  39   6     0.00  -0.00  -0.09     0.00  -0.00   0.00     0.00  -0.20   0.01
  40   6     0.00  -0.00  -0.09     0.00  -0.01   0.00     0.00  -0.20   0.02
  41   6     0.00  -0.00  -0.08     0.00  -0.01   0.00     0.00  -0.18   0.02
  42   6     0.00  -0.00  -0.06     0.00  -0.01   0.00     0.00  -0.15   0.02
  43  27     0.00  -0.00  -0.03    -0.00  -0.00   0.00    -0.01   0.04  -0.00
  44   6    -0.00  -0.00  -0.03     0.00  -0.03   0.20    -0.12  -0.07   0.00
  45   6    -0.00  -0.00  -0.04     0.00  -0.02   0.14    -0.09  -0.11   0.01
  46   6    -0.00  -0.00  -0.04     0.00  -0.01   0.07    -0.04  -0.08   0.01
  47   6     0.00  -0.00  -0.05     0.00  -0.01   0.00     0.00  -0.11   0.01
  48   6    -0.00  -0.00  -0.04     0.00  -0.01  -0.06     0.04  -0.08   0.02
  49   6    -0.00  -0.00  -0.04     0.00  -0.02  -0.13     0.09  -0.10   0.03
  50   6    -0.00  -0.00  -0.03     0.00  -0.03  -0.19     0.13  -0.07   0.04
  51   6    -0.00   0.00  -0.02     0.00  -0.02  -0.15     0.10  -0.02   0.03
  52   7    -0.00  -0.00  -0.03     0.00  -0.01  -0.08     0.05  -0.03   0.02
  53   6    -0.00   0.00  -0.01     0.00  -0.02  -0.19     0.12   0.02   0.03
  54   6     0.00   0.00   0.00     0.00   0.00  -0.16     0.10   0.06   0.02
  55   6     0.00   0.00   0.01    -0.00   0.02  -0.20     0.12   0.11   0.01
  56   6     0.01   0.00   0.02    -0.00   0.03  -0.15     0.08   0.14  -0.01
  57   6     0.01   0.00   0.01    -0.00   0.03  -0.08     0.04   0.11  -0.01
  58   7     0.00  -0.00  -0.00    -0.00   0.01  -0.09     0.05   0.07   0.00
  59   6     0.01   0.00   0.01    -0.00   0.04  -0.01    -0.01   0.13  -0.03
  60   6     0.00   0.00   0.01    -0.00   0.03   0.06    -0.05   0.11  -0.03
  61   6     0.00   0.00   0.01    -0.00   0.03   0.14    -0.10   0.14  -0.04
  62   6     0.00  -0.00   0.01    -0.00   0.01   0.19    -0.13   0.10  -0.04
  63   6     0.00  -0.00  -0.00    -0.00  -0.00   0.16    -0.10   0.06  -0.02
  64   7     0.00  -0.00  -0.00    -0.00   0.01   0.08    -0.06   0.07  -0.02
  65   6    -0.00  -0.00  -0.01     0.00  -0.02   0.19    -0.12   0.02  -0.01
  66   6    -0.00  -0.00  -0.02     0.00  -0.02   0.16    -0.10  -0.03  -0.00
  67   7    -0.00  -0.00  -0.03     0.00  -0.01   0.09    -0.05  -0.04   0.00
  68   1    -0.00  -0.00  -0.01     0.00  -0.01   0.07    -0.05  -0.02  -0.00
  69   1    -0.00  -0.00  -0.02     0.00  -0.01   0.04    -0.03  -0.04   0.00
  70   1    -0.00  -0.00  -0.02     0.00  -0.01  -0.04     0.03  -0.04   0.01
  71   1    -0.00   0.00  -0.01     0.00  -0.01  -0.07     0.05  -0.02   0.01
  72   1    -0.00   0.00  -0.00     0.00  -0.01  -0.07     0.05   0.01   0.01
  73   1     0.00   0.00   0.00    -0.00   0.00  -0.08     0.05   0.03   0.01
  74   1     0.00   0.00   0.01    -0.00   0.01  -0.05     0.02   0.05  -0.00
  75   1     0.00   0.00   0.01    -0.00   0.02  -0.00    -0.00   0.05  -0.01
  76   1     0.00   0.00   0.01    -0.00   0.01   0.04    -0.03   0.05  -0.02
  77   1     0.00  -0.00   0.00    -0.00  -0.00   0.07    -0.05   0.03  -0.01
  78   1    -0.00  -0.00  -0.00     0.00  -0.01   0.07    -0.05   0.01  -0.01
                      4                      5                      6
                        a                      a                      a 
 Frequencies --     7.0242                15.4601                23.0366
 Red. masses --    11.6254                11.7662                10.9578
 Frc consts  --     0.0000                 0.0000                 0.0000
 IR Inten    --    30.5095                37.2405                 8.9606
 Raman Activ --     0.0000                 0.0000                 0.0000
 Depolar     --     0.0000                 0.0000                 0.0000
 Atom AN      X      Y      Z        X      Y      Z        X      Y      Z
   1  27     0.01  -0.00  -0.06     0.01   0.00   0.00    -0.00  -0.00   0.00
   2   6     0.02   0.01   0.02     0.01   0.00  -0.04     0.01  -0.01  -0.30
   3   6     0.01   0.01   0.07     0.01   0.00  -0.14     0.01  -0.01  -0.30
   4   6     0.01   0.01   0.06     0.01   0.00  -0.14     0.00  -0.01  -0.14
   5   6     0.00   0.01   0.09     0.01   0.00  -0.19     0.00  -0.00   0.00
   6   6     0.00   0.01   0.06     0.01   0.00  -0.13    -0.00   0.00   0.15
   7   6    -0.00   0.01   0.08     0.00   0.00  -0.13    -0.00   0.00   0.31
   8   6    -0.00   0.01   0.03     0.00   0.00  -0.03     0.00   0.00   0.30
   9   6    -0.00   0.00  -0.00     0.00   0.00   0.03     0.00   0.00   0.14
  10   7     0.00   0.00   0.01     0.00   0.00  -0.04     0.00   0.00   0.08
  11   6    -0.00  -0.00  -0.05     0.00   0.00   0.11     0.00   0.00  -0.00
  12   6    -0.00  -0.01  -0.07     0.00  -0.00   0.10    -0.00   0.00  -0.14
  13   6    -0.01  -0.01  -0.10     0.00  -0.00   0.12    -0.00   0.01  -0.30
  14   6    -0.00  -0.01  -0.11     0.00  -0.00   0.07    -0.00   0.01  -0.29
  15   6     0.00  -0.01  -0.09     0.00  -0.00   0.03    -0.00   0.00  -0.14
  16   7     0.00  -0.01  -0.07     0.00  -0.00   0.05    -0.00   0.00  -0.08
  17   6     0.01  -0.01  -0.09     0.00  -0.00   0.00    -0.00   0.00   0.00
  18   6     0.01  -0.01  -0.09     0.00  -0.00   0.03    -0.01  -0.00   0.14
  19   6     0.02  -0.01  -0.12     0.00  -0.00   0.07    -0.01  -0.00   0.29
  20   6     0.02  -0.01  -0.11     0.00  -0.00   0.13    -0.01  -0.01   0.29
  21   6     0.02  -0.01  -0.08     0.00  -0.00   0.10    -0.01  -0.00   0.14
  22   7     0.01  -0.01  -0.07     0.01  -0.00   0.05    -0.01  -0.00   0.08
  23   6     0.02  -0.00  -0.06     0.01  -0.00   0.11    -0.00  -0.00  -0.00
  24   6     0.02   0.00  -0.01     0.01   0.00   0.02     0.00  -0.00  -0.14
  25   7     0.01   0.00   0.01     0.01   0.00  -0.05     0.00  -0.00  -0.08
  26   1     0.01   0.00   0.00     0.00   0.00  -0.00     0.00  -0.00  -0.11
  27   1     0.00   0.00   0.03     0.00   0.00  -0.06     0.00  -0.00  -0.11
  28   1    -0.00   0.00   0.03     0.00   0.00  -0.06    -0.00   0.00   0.12
  29   1    -0.00   0.00   0.01    -0.00   0.00   0.00     0.00   0.00   0.11
  30   1    -0.00  -0.00  -0.02    -0.00   0.00   0.04     0.00   0.00  -0.00
  31   1    -0.00  -0.00  -0.03    -0.00  -0.00   0.05     0.00   0.00  -0.11
  32   1    -0.00  -0.01  -0.04     0.00  -0.00   0.02    -0.00   0.00  -0.11
  33   1     0.00  -0.01  -0.03     0.00  -0.00  -0.00    -0.00   0.00   0.00
  34   1     0.01  -0.00  -0.04     0.00  -0.00   0.02    -0.00  -0.00   0.11
  35   1     0.01  -0.00  -0.04     0.00  -0.00   0.05    -0.00  -0.00   0.11
  36   1     0.01  -0.00  -0.02     0.00  -0.00   0.04    -0.00  -0.00  -0.00
  37   6     0.00   0.01   0.13     0.01   0.00  -0.26     0.00  -0.00   0.01
  38   6     0.00   0.02   0.16     0.01   0.00  -0.28     0.00  -0.00   0.01
  39   6     0.00   0.02   0.18     0.01   0.00  -0.28     0.00   0.00   0.00
  40   6     0.00   0.02   0.19     0.01   0.00  -0.24     0.00   0.00   0.00
  41   6     0.00   0.02   0.19     0.01   0.00  -0.19     0.00   0.00   0.00
  42   6     0.00   0.01   0.18     0.01   0.00  -0.11     0.00   0.00   0.00
  43  27    -0.02  -0.00  -0.01    -0.01  -0.00   0.09     0.00   0.00  -0.00
  44   6     0.03   0.00   0.18     0.02  -0.02   0.20     0.00   0.00   0.01
  45   6     0.02   0.01   0.20     0.01  -0.00   0.10     0.00   0.00   0.01
  46   6     0.01   0.01   0.14     0.01  -0.00   0.04     0.00   0.00   0.00
  47   6     0.00   0.01   0.15     0.01  -0.00  -0.03     0.00   0.00  -0.00
  48   6     0.00   0.01   0.13     0.01   0.00   0.01     0.00   0.00  -0.01
  49   6     0.01   0.01   0.19     0.01   0.00   0.06    -0.00   0.00  -0.01
  50   6     0.01   0.01   0.17     0.01   0.02   0.16    -0.00   0.00  -0.01
  51   6     0.01   0.01   0.10     0.01   0.02   0.16    -0.00   0.00  -0.01
  52   7     0.00   0.01   0.09     0.01   0.01   0.08     0.00   0.00  -0.00
  53   6     0.00   0.01   0.05     0.02   0.03   0.20    -0.00   0.00   0.00
  54   6    -0.02   0.00  -0.05     0.00   0.02   0.10     0.00  -0.00   0.01
  55   6    -0.03  -0.00  -0.14    -0.01   0.02   0.05     0.00  -0.00   0.02
  56   6    -0.06  -0.01  -0.24    -0.05   0.00  -0.10     0.00  -0.00   0.02
  57   6    -0.06  -0.01  -0.21    -0.05   0.00  -0.12     0.00  -0.00   0.01
  58   7    -0.03  -0.00  -0.10    -0.02   0.01   0.01     0.00  -0.00   0.01
  59   6    -0.07  -0.01  -0.27    -0.08   0.00  -0.21     0.00  -0.00   0.00
  60   6    -0.05  -0.01  -0.21    -0.05  -0.00  -0.14     0.00  -0.00  -0.01
  61   6    -0.04  -0.01  -0.25    -0.05  -0.00  -0.15     0.00  -0.00  -0.01
  62   6    -0.00  -0.02  -0.15    -0.01  -0.02  -0.00     0.00   0.00  -0.02
  63   6     0.01  -0.01  -0.06     0.00  -0.02   0.08     0.00   0.00  -0.01
  64   7    -0.02  -0.01  -0.10    -0.02  -0.01  -0.01     0.00  -0.00  -0.00
  65   6     0.03  -0.01   0.05     0.02  -0.03   0.19     0.00   0.00  -0.01
  66   6     0.03  -0.00   0.11     0.02  -0.02   0.18     0.00   0.00   0.00
  67   7     0.01   0.00   0.09     0.01  -0.01   0.09     0.00   0.00   0.00
  68   1     0.01  -0.00   0.06     0.01  -0.01   0.08     0.00   0.00   0.00
  69   1     0.01   0.00   0.07     0.00   0.00   0.02     0.00   0.00   0.00
  70   1     0.00   0.00   0.07     0.00  -0.00   0.01    -0.00   0.00  -0.01
  71   1     0.00   0.00   0.06     0.00   0.01   0.07    -0.00   0.00  -0.00
  72   1     0.00   0.00   0.02     0.01   0.01   0.08    -0.00   0.00   0.00
  73   1    -0.01  -0.00  -0.04     0.00   0.01   0.03     0.00  -0.00   0.01
  74   1    -0.02  -0.01  -0.09    -0.02  -0.00  -0.05     0.00  -0.00   0.01
  75   1    -0.03  -0.00  -0.10    -0.03   0.00  -0.09     0.00  -0.00   0.00
  76   1    -0.02  -0.00  -0.10    -0.02   0.00  -0.07     0.00  -0.00  -0.00
  77   1     0.00  -0.01  -0.04     0.00  -0.01   0.01     0.00   0.00  -0.01
  78   1     0.01  -0.00   0.02     0.01  -0.01   0.08     0.00   0.00  -0.00
                      7                      8                      9
                        a                      a                      a 
 Frequencies --    23.4703                27.2126                39.2970
 Red. masses --    12.1257                11.1029                11.4863
 Frc consts  --     0.0000                 0.0000                 0.0000
 IR Inten    --     5.7400                 3.3807               139.8423
 Raman Activ --     0.0000                 0.0000                 0.0000
 Depolar     --     0.0000                 0.0000                 0.0000
 Atom AN      X      Y      Z        X      Y      Z        X      Y      Z
   1  27     0.00  -0.09  -0.00    -0.00  -0.03   0.00     0.02  -0.00   0.06
   2   6    -0.11  -0.12  -0.00    -0.04  -0.04   0.02     0.01  -0.00   0.04
   3   6    -0.08  -0.15  -0.01    -0.03  -0.06   0.03     0.00  -0.00   0.17
   4   6    -0.04  -0.13  -0.01    -0.02  -0.05   0.02     0.00  -0.00   0.17
   5   6     0.00  -0.15  -0.01    -0.00  -0.06   0.02     0.00  -0.00   0.22
   6   6     0.04  -0.13  -0.01     0.01  -0.05   0.01     0.01  -0.00   0.17
   7   6     0.08  -0.15  -0.01     0.03  -0.06  -0.00     0.01  -0.00   0.17
   8   6     0.12  -0.12   0.00     0.04  -0.05  -0.01     0.01  -0.00   0.04
   9   6     0.09  -0.08   0.00     0.03  -0.03  -0.01     0.01  -0.00  -0.03
  10   7     0.05  -0.09  -0.00     0.02  -0.03   0.00     0.01  -0.00   0.07
  11   6     0.12  -0.04   0.01     0.04  -0.01  -0.01     0.01  -0.00  -0.14
  12   6     0.09   0.00   0.01     0.03   0.00  -0.00     0.01  -0.00  -0.12
  13   6     0.12   0.05   0.01     0.04   0.02   0.00     0.01   0.00  -0.14
  14   6     0.09   0.08   0.00     0.03   0.03   0.01     0.01   0.00  -0.02
  15   6     0.04   0.05  -0.00     0.01   0.02   0.01     0.01  -0.00   0.04
  16   7     0.05   0.01   0.00     0.02   0.00   0.00     0.01  -0.00  -0.02
  17   6     0.00   0.08  -0.01    -0.00   0.03   0.00     0.01  -0.00   0.10
  18   6    -0.04   0.06  -0.00    -0.02   0.02  -0.01     0.01  -0.00   0.04
  19   6    -0.08   0.08   0.00    -0.03   0.03  -0.02     0.01   0.00  -0.03
  20   6    -0.11   0.05   0.01    -0.04   0.02  -0.02     0.01   0.00  -0.14
  21   6    -0.09   0.00   0.01    -0.03   0.00  -0.01     0.01   0.00  -0.12
  22   7    -0.05   0.01   0.00    -0.02   0.00  -0.01     0.01   0.00  -0.02
  23   6    -0.11  -0.04   0.01    -0.04  -0.01  -0.01     0.01   0.00  -0.14
  24   6    -0.09  -0.08   0.00    -0.03  -0.03   0.01     0.01  -0.00  -0.03
  25   7    -0.05  -0.09  -0.00    -0.02  -0.03   0.01     0.01  -0.00   0.07
  26   1    -0.04  -0.04   0.00    -0.02  -0.01   0.01     0.00  -0.00  -0.00
  27   1    -0.02  -0.05  -0.00    -0.01  -0.02   0.01    -0.00  -0.00   0.07
  28   1     0.03  -0.05  -0.00     0.01  -0.02   0.00     0.00  -0.00   0.07
  29   1     0.04  -0.04   0.00     0.02  -0.01  -0.01     0.00  -0.00  -0.00
  30   1     0.04  -0.01   0.00     0.02  -0.00  -0.01     0.00  -0.00  -0.06
  31   1     0.04   0.01   0.00     0.02   0.00  -0.00     0.00   0.00  -0.06
  32   1     0.03   0.03  -0.00     0.01   0.01   0.00     0.00   0.00   0.00
  33   1     0.00   0.03  -0.00    -0.00   0.01   0.00     0.00  -0.00   0.04
  34   1    -0.02   0.03  -0.00    -0.01   0.01  -0.01     0.00   0.00   0.00
  35   1    -0.04   0.01   0.00    -0.02   0.01  -0.01     0.00   0.00  -0.07
  36   1    -0.04  -0.01   0.00    -0.02  -0.00  -0.00     0.00   0.00  -0.06
  37   6     0.00  -0.18  -0.01    -0.00  -0.06   0.02     0.00  -0.00   0.21
  38   6     0.00  -0.13  -0.01    -0.00  -0.04   0.02     0.00  -0.00   0.11
  39   6     0.00  -0.06  -0.01    -0.00  -0.00   0.02     0.00  -0.00  -0.01
  40   6    -0.00   0.05  -0.01    -0.00   0.04   0.01     0.00  -0.00  -0.15
  41   6    -0.00   0.11  -0.00    -0.00   0.07  -0.00     0.00   0.00  -0.24
  42   6    -0.00   0.17   0.00    -0.00   0.09  -0.01     0.00   0.00  -0.29
  43  27    -0.00   0.09   0.00     0.00   0.03  -0.01    -0.02   0.00  -0.03
  44   6     0.11   0.13  -0.08     0.07   0.03   0.27     0.00  -0.02   0.02
  45   6     0.08   0.16  -0.08     0.05   0.05   0.27     0.00   0.00  -0.15
  46   6     0.04   0.13  -0.04     0.02   0.05   0.12     0.00   0.00  -0.17
  47   6    -0.00   0.15   0.00    -0.00   0.07  -0.01     0.00   0.00  -0.24
  48   6    -0.04   0.13   0.05    -0.03   0.05  -0.15    -0.00   0.00  -0.16
  49   6    -0.08   0.16   0.10    -0.06   0.04  -0.30    -0.00   0.01  -0.13
  50   6    -0.11   0.13   0.09    -0.08   0.02  -0.30    -0.00   0.03   0.05
  51   6    -0.09   0.08   0.04    -0.06   0.02  -0.14     0.00   0.03   0.09
  52   7    -0.05   0.09   0.02    -0.03   0.03  -0.08    -0.00   0.01  -0.04
  53   6    -0.11   0.04  -0.01    -0.05   0.01  -0.01     0.02   0.04   0.20
  54   6    -0.10  -0.01  -0.06    -0.02   0.00   0.13     0.01   0.03   0.14
  55   6    -0.13  -0.05  -0.11     0.00  -0.01   0.28     0.00   0.02   0.13
  56   6    -0.10  -0.08  -0.11     0.03  -0.03   0.28    -0.03   0.00  -0.03
  57   6    -0.05  -0.05  -0.05     0.02  -0.03   0.13    -0.04   0.00  -0.08
  58   7    -0.06  -0.01  -0.03    -0.00  -0.01   0.08    -0.02   0.01   0.01
  59   6    -0.00  -0.07  -0.00     0.01  -0.04   0.01    -0.06   0.00  -0.16
  60   6     0.05  -0.05   0.05    -0.00  -0.02  -0.12    -0.04  -0.00  -0.07
  61   6     0.10  -0.08   0.10    -0.01  -0.02  -0.26    -0.03  -0.01  -0.00
  62   6     0.13  -0.05   0.11     0.01   0.00  -0.26     0.01  -0.03   0.15
  63   6     0.10  -0.01   0.05     0.03   0.01  -0.13     0.01  -0.03   0.15
  64   7     0.05  -0.01   0.03     0.01  -0.00  -0.07    -0.02  -0.01   0.02
  65   6     0.11   0.04   0.01     0.05   0.01  -0.00     0.01  -0.04   0.20
  66   6     0.08   0.08  -0.03     0.05   0.02   0.12     0.00  -0.02   0.08
  67   7     0.05   0.09  -0.02     0.03   0.03   0.06    -0.00  -0.01  -0.04
  68   1     0.04   0.04  -0.03     0.03   0.01   0.10    -0.00  -0.01   0.03
  69   1     0.02   0.06  -0.03     0.01   0.02   0.10     0.00   0.00  -0.07
  70   1    -0.02   0.06   0.04    -0.02   0.02  -0.11    -0.00  -0.00  -0.06
  71   1    -0.04   0.04   0.03    -0.03   0.00  -0.11    -0.00   0.01   0.04
  72   1    -0.04   0.01  -0.00    -0.02   0.00  -0.00     0.01   0.01   0.09
  73   1    -0.05  -0.02  -0.04     0.00  -0.00   0.10     0.01   0.01   0.06
  74   1    -0.03  -0.03  -0.04     0.01  -0.01   0.11    -0.01  -0.00  -0.03
  75   1    -0.00  -0.03  -0.00     0.00  -0.02   0.00    -0.02   0.00  -0.07
  76   1     0.03  -0.03   0.04    -0.01  -0.01  -0.10    -0.01   0.00  -0.02
  77   1     0.05  -0.02   0.04     0.00   0.00  -0.10     0.01  -0.01   0.07
  78   1     0.04   0.01   0.01     0.02   0.00  -0.00     0.01  -0.02   0.09
                     10                     11                     12
                        a                      a                      a 
 Frequencies --    71.1471                75.2184                91.5510
 Red. masses --    12.7563                19.0374                12.4777
 Frc consts  --     0.0000                 0.0000                 0.0000
 IR Inten    --    99.5421                12.4971                 0.2216
 Raman Activ --     0.0000                 0.0000                 0.0000
 Depolar     --     0.0000                 0.0000                 0.0000
 Atom AN      X      Y      Z        X      Y      Z        X      Y      Z
   1  27    -0.06  -0.00  -0.10    -0.28  -0.00   0.03     0.01  -0.07   0.01
   2   6    -0.03  -0.00  -0.08    -0.13   0.01   0.03    -0.05  -0.07  -0.01
   3   6    -0.02  -0.00  -0.14    -0.11  -0.01   0.04    -0.03  -0.09  -0.00
   4   6    -0.02  -0.00  -0.11    -0.08   0.01   0.03    -0.01  -0.08   0.00
   5   6    -0.01  -0.00  -0.09    -0.04  -0.01   0.02    -0.00  -0.08   0.01
   6   6    -0.02  -0.01  -0.11    -0.08  -0.02   0.03     0.01  -0.07   0.01
   7   6    -0.02  -0.00  -0.14    -0.11  -0.00   0.04     0.04  -0.09   0.00
   8   6    -0.03  -0.01  -0.08    -0.12  -0.02   0.02     0.05  -0.07  -0.00
   9   6    -0.02  -0.01  -0.01    -0.11  -0.04   0.00     0.04  -0.05  -0.00
  10   7    -0.02  -0.01  -0.07    -0.09  -0.04   0.02     0.02  -0.06   0.00
  11   6    -0.02  -0.01   0.11    -0.11  -0.04  -0.04     0.06  -0.02  -0.00
  12   6    -0.03  -0.00   0.11    -0.13  -0.02  -0.04     0.05  -0.01  -0.00
  13   6    -0.02  -0.00   0.16    -0.12  -0.01  -0.05     0.06   0.02  -0.00
  14   6    -0.03   0.00   0.02    -0.13   0.01  -0.01     0.05   0.03  -0.00
  15   6    -0.03   0.00  -0.07    -0.15  -0.00   0.02     0.03   0.02   0.00
  16   7    -0.03  -0.00  -0.01    -0.16  -0.02   0.00     0.03  -0.00   0.00
  17   6    -0.03   0.00  -0.14    -0.16   0.00   0.04     0.01   0.03  -0.00
  18   6    -0.03   0.00  -0.07    -0.15   0.00   0.02    -0.01   0.02  -0.00
  19   6    -0.03  -0.00   0.02    -0.14  -0.00  -0.01    -0.04   0.03  -0.01
  20   6    -0.03  -0.00   0.16    -0.12   0.01  -0.06    -0.05   0.02  -0.01
  21   6    -0.03   0.00   0.11    -0.13   0.02  -0.04    -0.04  -0.01  -0.00
  22   7    -0.04   0.00  -0.01    -0.16   0.02   0.00    -0.02  -0.00   0.00
  23   6    -0.03   0.00   0.11    -0.12   0.04  -0.04    -0.05  -0.03   0.00
  24   6    -0.03   0.00  -0.01    -0.12   0.03   0.01    -0.04  -0.05   0.00
  25   7    -0.02   0.00  -0.07    -0.10   0.03   0.02    -0.01  -0.06   0.01
  26   1    -0.01  -0.00  -0.02    -0.04   0.00   0.01    -0.02  -0.02  -0.00
  27   1    -0.01  -0.00  -0.06    -0.03  -0.01   0.02    -0.01  -0.03  -0.00
  28   1    -0.01   0.00  -0.06    -0.03   0.01   0.02     0.01  -0.03   0.00
  29   1    -0.01  -0.00  -0.02    -0.04  -0.00   0.00     0.02  -0.02  -0.00
  30   1    -0.01  -0.00   0.05    -0.03  -0.01  -0.02     0.02  -0.01  -0.00
  31   1    -0.01  -0.00   0.08    -0.03  -0.00  -0.03     0.02   0.01  -0.00
  32   1    -0.01   0.00  -0.00    -0.04   0.01   0.00     0.01   0.01  -0.00
  33   1    -0.01   0.00  -0.06    -0.04   0.00   0.02     0.00   0.01  -0.00
  34   1    -0.01  -0.00  -0.00    -0.04  -0.00  -0.00    -0.01   0.02  -0.00
  35   1    -0.01  -0.00   0.08    -0.03   0.00  -0.03    -0.02   0.01  -0.00
  36   1    -0.01   0.00   0.05    -0.03   0.01  -0.02    -0.02  -0.01  -0.00
  37   6    -0.01   0.00   0.04    -0.03  -0.00  -0.01    -0.00  -0.01   0.00
  38   6    -0.01   0.01   0.25    -0.02   0.01  -0.07    -0.00   0.36  -0.00
  39   6    -0.00   0.02   0.34    -0.00   0.01  -0.09    -0.00   0.51  -0.01
  40   6    -0.00   0.02   0.33     0.00   0.01  -0.08    -0.00   0.51  -0.01
  41   6     0.00   0.01   0.22     0.02   0.01  -0.05    -0.00   0.36  -0.01
  42   6     0.00   0.00   0.00     0.03  -0.00   0.00     0.00  -0.01  -0.00
  43  27     0.04  -0.00  -0.12     0.27   0.00  -0.05    -0.00  -0.08   0.03
  44   6     0.03  -0.01  -0.05     0.13  -0.02   0.06    -0.05  -0.07  -0.03
  45   6     0.03   0.00  -0.14     0.11  -0.00   0.07    -0.03  -0.09  -0.04
  46   6     0.02  -0.00  -0.13     0.08  -0.01   0.03    -0.01  -0.07  -0.01
  47   6     0.01  -0.00  -0.12     0.04  -0.00   0.02     0.00  -0.08   0.00
  48   6     0.02  -0.00  -0.13     0.08   0.01   0.03     0.01  -0.08   0.02
  49   6     0.03  -0.01  -0.13     0.11  -0.00   0.08     0.03  -0.08   0.02
  50   6     0.03   0.01  -0.05     0.13   0.02   0.07     0.05  -0.07   0.01
  51   6     0.03   0.02   0.01     0.12   0.04   0.02     0.04  -0.05   0.00
  52   7     0.02   0.01  -0.08     0.09   0.03  -0.00     0.02  -0.06   0.01
  53   6     0.05   0.04   0.14     0.12   0.04  -0.00     0.05  -0.03  -0.01
  54   6     0.05   0.03   0.13     0.13   0.02  -0.02     0.04  -0.01  -0.01
  55   6     0.06   0.03   0.18     0.12   0.01  -0.01     0.05   0.01  -0.02
  56   6     0.03   0.01   0.02     0.14  -0.00  -0.00     0.04   0.03  -0.01
  57   6     0.01   0.01  -0.09     0.15   0.01  -0.01     0.01   0.02   0.00
  58   7     0.03   0.02  -0.02     0.15   0.02  -0.03     0.02  -0.01   0.00
  59   6    -0.01   0.01  -0.17     0.16   0.00  -0.00    -0.01   0.03   0.00
  60   6     0.01  -0.00  -0.08     0.15  -0.00  -0.01    -0.03   0.02   0.00
  61   6     0.02  -0.01   0.02     0.14   0.01   0.01    -0.05   0.03  -0.01
  62   6     0.05  -0.04   0.18     0.12  -0.00  -0.01    -0.07   0.02  -0.01
  63   6     0.04  -0.04   0.13     0.13  -0.02  -0.02    -0.05  -0.01   0.01
  64   7     0.02  -0.02  -0.02     0.15  -0.02  -0.03    -0.03  -0.00   0.01
  65   6     0.04  -0.05   0.14     0.12  -0.04  -0.01    -0.06  -0.02   0.00
  66   6     0.03  -0.03   0.00     0.11  -0.04   0.01    -0.04  -0.05  -0.00
  67   7     0.02  -0.02  -0.08     0.09  -0.04  -0.00    -0.02  -0.06   0.01
  68   1     0.01  -0.00  -0.01     0.04  -0.01   0.03    -0.02  -0.02  -0.01
  69   1     0.01   0.01  -0.06     0.03   0.00   0.03    -0.01  -0.03  -0.02
  70   1     0.01  -0.01  -0.06     0.03  -0.01   0.03     0.01  -0.03   0.01
  71   1     0.01   0.00  -0.00     0.05   0.01   0.03     0.02  -0.02   0.00
  72   1     0.02   0.02   0.07     0.03   0.01   0.00     0.02  -0.01  -0.01
  73   1     0.03   0.01   0.09     0.03   0.00  -0.00     0.02   0.00  -0.01
  74   1     0.01   0.00  -0.00     0.04  -0.00   0.00     0.01   0.02  -0.00
  75   1    -0.01   0.00  -0.07     0.05   0.00   0.00    -0.00   0.01  -0.00
  76   1     0.00   0.00  -0.00     0.04   0.01   0.01    -0.02   0.02  -0.01
  77   1     0.02  -0.02   0.09     0.03  -0.00  -0.00    -0.03   0.01  -0.01
  78   1     0.01  -0.02   0.07     0.03  -0.01   0.00    -0.02  -0.01  -0.00
                     13                     14                     15
                        a                      a                      a 
 Frequencies --   100.2163               100.8523               109.2363
 Red. masses --    28.0517                28.3180                11.4987
 Frc consts  --     0.0000                 0.0000                 0.0000
 IR Inten    --   272.3055                 2.2834               130.5876
 Raman Activ --     0.0000                 0.0000                 0.0000
 Depolar     --     0.0000                 0.0000                 0.0000
 Atom AN      X      Y      Z        X      Y      Z        X      Y      Z
   1  27    -0.05   0.00  -0.03     0.01  -0.00  -0.61     0.01  -0.00   0.07
   2   6    -0.02   0.01   0.00    -0.01   0.00   0.26    -0.00  -0.00   0.17
   3   6    -0.02   0.00   0.00    -0.01   0.00   0.24    -0.00  -0.00   0.06
   4   6    -0.01   0.01  -0.00    -0.00   0.00  -0.02     0.00  -0.00  -0.05
   5   6     0.00   0.00   0.01    -0.00  -0.00  -0.04     0.00  -0.00  -0.16
   6   6    -0.01  -0.00  -0.00     0.00   0.00  -0.02     0.00  -0.00  -0.05
   7   6    -0.02   0.00   0.00     0.00   0.00   0.24     0.00  -0.00   0.06
   8   6    -0.02  -0.00  -0.00     0.00   0.01   0.26     0.00   0.00   0.17
   9   6    -0.02  -0.01  -0.00     0.00   0.00   0.01     0.00   0.00   0.08
  10   7    -0.01  -0.01  -0.01     0.00   0.00  -0.16     0.00   0.00   0.00
  11   6    -0.02  -0.01   0.00     0.00   0.00  -0.00     0.00   0.00  -0.03
  12   6    -0.03  -0.01   0.01     0.00  -0.00  -0.04     0.00   0.00  -0.11
  13   6    -0.02  -0.00   0.02     0.00  -0.00   0.17     0.00   0.00  -0.20
  14   6    -0.03   0.00   0.01     0.01  -0.01   0.22     0.00  -0.00  -0.03
  15   6    -0.03  -0.00  -0.01     0.00  -0.00   0.02     0.01  -0.00   0.11
  16   7    -0.03  -0.01  -0.01     0.00  -0.00  -0.16     0.01   0.00   0.04
  17   6    -0.03  -0.00  -0.01     0.00  -0.00   0.07     0.01  -0.00   0.21
  18   6    -0.03   0.00  -0.01    -0.00  -0.00   0.02     0.01  -0.00   0.10
  19   6    -0.02  -0.00   0.01    -0.01  -0.01   0.22     0.01   0.00  -0.04
  20   6    -0.02   0.00   0.02    -0.01  -0.01   0.17     0.01   0.01  -0.20
  21   6    -0.02   0.01   0.01    -0.00  -0.00  -0.04     0.01   0.00  -0.10
  22   7    -0.03   0.01  -0.01     0.00  -0.00  -0.16     0.01  -0.00   0.04
  23   6    -0.02   0.02   0.00    -0.00  -0.00  -0.00     0.00  -0.00  -0.03
  24   6    -0.02   0.01  -0.00    -0.01   0.00   0.01    -0.00  -0.00   0.09
  25   7    -0.01   0.01  -0.01    -0.00   0.00  -0.16     0.00  -0.00   0.00
  26   1    -0.01   0.00   0.00    -0.01   0.00   0.13    -0.00   0.00   0.08
  27   1    -0.00  -0.00   0.00    -0.01   0.00   0.12    -0.00   0.00   0.02
  28   1    -0.01   0.00   0.00     0.00   0.00   0.12     0.00  -0.00   0.02
  29   1    -0.01  -0.00   0.00     0.00   0.00   0.13     0.00   0.00   0.08
  30   1    -0.01  -0.00   0.00     0.00   0.00   0.03     0.00   0.00  -0.02
  31   1    -0.01  -0.00   0.01     0.00  -0.00   0.08     0.00   0.00  -0.10
  32   1    -0.01   0.00   0.00     0.00  -0.00   0.11     0.00  -0.00  -0.01
  33   1    -0.01  -0.00  -0.00    -0.00  -0.00   0.06     0.00  -0.00   0.08
  34   1    -0.01  -0.00   0.00    -0.00  -0.00   0.11     0.00   0.00  -0.01
  35   1    -0.00   0.00   0.01    -0.00  -0.00   0.08     0.00   0.00  -0.10
  36   1    -0.00   0.00   0.00    -0.00  -0.00   0.03     0.00  -0.00  -0.02
  37   6     0.01   0.00   0.02    -0.00  -0.00   0.01     0.00  -0.01  -0.27
  38   6     0.01  -0.02   0.03    -0.00   0.01   0.00    -0.00  -0.00  -0.26
  39   6     0.02  -0.02   0.02    -0.00   0.01  -0.00    -0.00   0.00  -0.13
  40   6     0.02  -0.02   0.01    -0.00   0.01  -0.02    -0.00   0.01   0.14
  41   6     0.02  -0.02  -0.01    -0.00   0.01  -0.02    -0.00   0.01   0.27
  42   6     0.02   0.00  -0.02    -0.00  -0.00  -0.01    -0.00   0.00   0.26
  43  27     0.11  -0.00   0.59    -0.00  -0.00  -0.02    -0.04  -0.00  -0.06
  44   6     0.02   0.04  -0.25    -0.00  -0.00   0.02     0.00   0.03  -0.18
  45   6     0.03   0.02  -0.24    -0.00  -0.00   0.01    -0.00   0.02  -0.08
  46   6     0.03   0.00   0.01    -0.00  -0.00  -0.00    -0.01   0.00   0.04
  47   6     0.03   0.00   0.03    -0.00  -0.00  -0.01    -0.00   0.00   0.15
  48   6     0.03  -0.00   0.01    -0.00  -0.00   0.00    -0.01  -0.01   0.05
  49   6     0.01  -0.02  -0.24     0.00  -0.00   0.02    -0.00  -0.02  -0.07
  50   6     0.00  -0.04  -0.25     0.00   0.00   0.02    -0.00  -0.03  -0.17
  51   6     0.02  -0.02  -0.00     0.00   0.00   0.00    -0.00  -0.01  -0.08
  52   7     0.03   0.00   0.15    -0.00  -0.00  -0.00    -0.01  -0.01   0.00
  53   6     0.02  -0.02   0.01     0.00  -0.00  -0.00     0.01   0.01   0.03
  54   6     0.02  -0.01   0.04    -0.00  -0.00  -0.01     0.02   0.02   0.10
  55   6    -0.02  -0.02  -0.16     0.00  -0.00  -0.00     0.05   0.04   0.20
  56   6    -0.05  -0.01  -0.21     0.00   0.00   0.01     0.00   0.02   0.04
  57   6    -0.01   0.00  -0.02     0.00   0.00   0.01    -0.03   0.01  -0.10
  58   7     0.03   0.00   0.15     0.00  -0.00  -0.00    -0.02   0.01  -0.04
  59   6    -0.03   0.00  -0.07     0.01   0.00   0.01    -0.06   0.00  -0.21
  60   6    -0.00   0.00  -0.02     0.00   0.00   0.01    -0.03  -0.00  -0.10
  61   6    -0.03   0.02  -0.21     0.00   0.00   0.01     0.00  -0.02   0.03
  62   6    -0.01   0.03  -0.16    -0.00   0.00  -0.00     0.04  -0.04   0.19
  63   6     0.03   0.01   0.04    -0.00   0.00  -0.01     0.02  -0.03   0.11
  64   7     0.04  -0.00   0.15     0.00   0.00  -0.00    -0.02  -0.01  -0.04
  65   6     0.02   0.02   0.01    -0.00  -0.00  -0.00     0.01  -0.01   0.03
  66   6     0.03   0.02  -0.00    -0.00  -0.00   0.00    -0.00   0.01  -0.08
  67   7     0.04  -0.00   0.15    -0.00  -0.00  -0.00    -0.01   0.01   0.00
  68   1     0.00   0.02  -0.12    -0.00  -0.00   0.01     0.00   0.01  -0.08
  69   1     0.01   0.01  -0.12    -0.00  -0.00   0.01    -0.00   0.01  -0.03
  70   1     0.00  -0.01  -0.12     0.00   0.00   0.01    -0.00  -0.01  -0.03
  71   1    -0.00  -0.02  -0.12     0.00   0.00   0.01    -0.00  -0.01  -0.08
  72   1     0.00  -0.01  -0.03     0.00   0.00  -0.00     0.01   0.00   0.02
  73   1    -0.01  -0.01  -0.08    -0.00  -0.00  -0.00     0.03   0.02   0.10
  74   1    -0.03  -0.00  -0.11     0.00   0.00   0.00     0.00   0.01   0.01
  75   1    -0.02   0.00  -0.06     0.00   0.00   0.01    -0.02   0.00  -0.08
  76   1    -0.02   0.01  -0.11     0.00   0.00   0.00    -0.00  -0.01   0.01
  77   1    -0.01   0.01  -0.08    -0.00   0.00  -0.00     0.02  -0.02   0.10
  78   1     0.00   0.01  -0.03    -0.00  -0.00  -0.00     0.01  -0.00   0.02
                     16                     17                     18
                        a                      a                      a 
 Frequencies --   119.0935               119.8546               133.3671
 Red. masses --    10.5110                10.6341                11.2432
 Frc consts  --     0.0000                 0.0000                 0.0000
 IR Inten    --     9.1456                 9.5225               100.8503
 Raman Activ --     0.0000                 0.0000                 0.0000
 Depolar     --     0.0000                 0.0000                 0.0000
 Atom AN      X      Y      Z        X      Y      Z        X      Y      Z
   1  27    -0.00  -0.00   0.00    -0.00   0.00   0.00    -0.00   0.00  -0.04
   2   6     0.00  -0.00  -0.05     0.00   0.00  -0.01     0.01  -0.00  -0.17
   3   6     0.01  -0.00  -0.31     0.00   0.00  -0.03    -0.00   0.00   0.03
   4   6     0.01  -0.00  -0.15     0.00   0.00  -0.01    -0.00   0.00   0.16
   5   6     0.00   0.00   0.00     0.00   0.00   0.00    -0.00   0.00   0.24
   6   6    -0.00   0.00   0.15    -0.00   0.00   0.01    -0.00   0.00   0.16
   7   6    -0.00   0.01   0.31    -0.00   0.01   0.03    -0.00  -0.00   0.03
   8   6    -0.00   0.00   0.05    -0.00   0.00   0.00     0.00  -0.00  -0.17
   9   6    -0.00  -0.00  -0.18    -0.00   0.00  -0.01    -0.00  -0.00  -0.10
  10   7    -0.00   0.00  -0.07    -0.00   0.00  -0.01    -0.00  -0.00   0.06
  11   6    -0.00  -0.00  -0.35    -0.00   0.00  -0.03     0.00  -0.00  -0.05
  12   6     0.00  -0.00  -0.17    -0.00  -0.00  -0.01     0.00  -0.00   0.06
  13   6     0.00  -0.00   0.05    -0.00  -0.00   0.00     0.00  -0.00   0.19
  14   6     0.00  -0.00   0.31    -0.00  -0.00   0.03     0.00  -0.00   0.06
  15   6     0.00  -0.00   0.15    -0.00  -0.00   0.01     0.00   0.00  -0.10
  16   7     0.00  -0.00  -0.05    -0.00  -0.00  -0.00     0.00   0.00  -0.07
  17   6     0.00   0.00  -0.00    -0.00  -0.00  -0.00     0.00   0.00  -0.20
  18   6     0.00   0.01  -0.16     0.00  -0.00  -0.01    -0.00   0.00  -0.10
  19   6     0.01   0.01  -0.31     0.00  -0.00  -0.03    -0.00  -0.00   0.06
  20   6     0.00   0.00  -0.05     0.00  -0.00  -0.00    -0.01  -0.01   0.19
  21   6    -0.01  -0.00   0.17     0.00   0.00   0.01    -0.00  -0.00   0.06
  22   7    -0.00   0.00   0.05     0.00   0.00   0.00    -0.00   0.00  -0.07
  23   6    -0.01  -0.00   0.35     0.00   0.00   0.03     0.00   0.00  -0.05
  24   6    -0.00  -0.00   0.18     0.00   0.00   0.01     0.00   0.00  -0.10
  25   7    -0.00  -0.00   0.07     0.00   0.00   0.01    -0.00   0.00   0.06
  26   1     0.00  -0.00  -0.01     0.00   0.00  -0.00     0.00  -0.00  -0.09
  27   1     0.01  -0.00  -0.16     0.00   0.00  -0.01    -0.00  -0.00   0.02
  28   1    -0.00   0.00   0.16    -0.00   0.00   0.01    -0.00  -0.00   0.02
  29   1    -0.00   0.00   0.01    -0.00   0.00   0.00     0.00  -0.00  -0.09
  30   1    -0.00  -0.00  -0.14    -0.00   0.00  -0.01     0.00  -0.00  -0.02
  31   1     0.00  -0.00   0.01    -0.00  -0.00   0.00     0.00  -0.00   0.10
  32   1     0.00  -0.00   0.16    -0.00  -0.00   0.01     0.00  -0.00   0.03
  33   1     0.00   0.00  -0.00    -0.00  -0.00  -0.00     0.00   0.00  -0.08
  34   1     0.00   0.00  -0.16     0.00  -0.00  -0.01    -0.00  -0.00   0.03
  35   1     0.00   0.00  -0.01     0.00  -0.00  -0.00    -0.00  -0.00   0.10
  36   1    -0.00  -0.00   0.14     0.00   0.00   0.01     0.00   0.00  -0.02
  37   6     0.00   0.00   0.00     0.00  -0.00   0.00    -0.00   0.00   0.18
  38   6     0.00   0.00   0.00     0.00  -0.03   0.00    -0.00   0.00  -0.08
  39   6     0.00  -0.00   0.00     0.00  -0.03   0.00    -0.00  -0.00  -0.21
  40   6     0.00  -0.00   0.00     0.00  -0.02   0.00    -0.00  -0.00  -0.21
  41   6     0.00  -0.01  -0.00     0.00   0.00  -0.00    -0.00  -0.00  -0.08
  42   6     0.00  -0.00  -0.00     0.00   0.03  -0.00    -0.00  -0.00   0.18
  43  27    -0.00   0.00  -0.00     0.00  -0.05  -0.00    -0.04   0.00  -0.03
  44   6    -0.00   0.00   0.00     0.03   0.01  -0.05     0.01   0.04  -0.17
  45   6    -0.00  -0.00   0.03     0.03   0.04  -0.30     0.00   0.02   0.03
  46   6    -0.00  -0.00   0.01     0.02   0.02  -0.15    -0.01   0.00   0.16
  47   6     0.00  -0.00  -0.00     0.00   0.03  -0.00    -0.00   0.00   0.24
  48   6     0.00  -0.00  -0.01    -0.01   0.02   0.14    -0.00  -0.00   0.16
  49   6     0.00  -0.00  -0.03    -0.02   0.05   0.30    -0.00  -0.02   0.03
  50   6     0.00  -0.00  -0.00    -0.03   0.01   0.06     0.00  -0.04  -0.16
  51   6     0.00   0.00   0.01    -0.03  -0.02  -0.17    -0.00  -0.02  -0.10
  52   7     0.00   0.00   0.01    -0.02  -0.01  -0.07    -0.01  -0.01   0.07
  53   6     0.00   0.00   0.03    -0.05  -0.04  -0.33     0.01  -0.01  -0.05
  54   6     0.00   0.00   0.01    -0.02  -0.03  -0.16     0.02   0.02   0.05
  55   6    -0.00  -0.00  -0.00     0.04   0.00   0.05     0.06   0.04   0.19
  56   6    -0.01  -0.00  -0.02     0.10   0.03   0.29     0.03   0.02   0.06
  57   6    -0.00  -0.00  -0.01     0.05   0.01   0.14    -0.02   0.01  -0.10
  58   7    -0.00   0.00   0.00     0.01  -0.01  -0.06    -0.01   0.01  -0.07
  59   6    -0.00  -0.00   0.00    -0.00   0.02   0.00    -0.04   0.00  -0.19
  60   6     0.00  -0.00   0.01    -0.05   0.02  -0.14    -0.02  -0.00  -0.10
  61   6     0.01  -0.00   0.02    -0.09   0.05  -0.29     0.02  -0.03   0.06
  62   6     0.00  -0.00   0.00    -0.04   0.01  -0.05     0.05  -0.04   0.18
  63   6    -0.00   0.00  -0.01     0.01  -0.03   0.16     0.02  -0.02   0.05
  64   7     0.00   0.00  -0.00    -0.01  -0.01   0.06    -0.01  -0.00  -0.07
  65   6    -0.00   0.00  -0.03     0.04  -0.05   0.33     0.01   0.01  -0.05
  66   6    -0.00   0.00  -0.01     0.03  -0.03   0.17     0.00   0.03  -0.10
  67   7    -0.00   0.00  -0.01     0.02  -0.01   0.07    -0.00   0.01   0.07
  68   1    -0.00   0.00   0.00     0.01   0.00  -0.01     0.00   0.02  -0.09
  69   1    -0.00  -0.00   0.01     0.01   0.02  -0.16     0.00   0.01   0.02
  70   1     0.00  -0.00  -0.01    -0.00   0.02   0.16     0.00  -0.01   0.02
  71   1     0.00  -0.00  -0.00    -0.01   0.00   0.02     0.00  -0.02  -0.09
  72   1     0.00   0.00   0.01    -0.02  -0.02  -0.13     0.01  -0.00  -0.02
  73   1    -0.00  -0.00  -0.00     0.01   0.00   0.01     0.03   0.02   0.10
  74   1    -0.00  -0.00  -0.01     0.05   0.02   0.15     0.01   0.01   0.03
  75   1    -0.00  -0.00   0.00    -0.00   0.01   0.00    -0.02   0.00  -0.07
  76   1     0.00  -0.00   0.01    -0.04   0.02  -0.15     0.01  -0.01   0.03
  77   1     0.00  -0.00   0.00    -0.01   0.00  -0.01     0.03  -0.02   0.10
  78   1    -0.00   0.00  -0.01     0.02  -0.02   0.13     0.01   0.00  -0.02
                     19                     20                     21
                        a                      a                      a 
 Frequencies --   173.5142               177.3526               183.9661
 Red. masses --    11.9867                12.8556                12.5106
 Frc consts  --     0.0000                 0.0000                 0.0000
 IR Inten    --    52.7068                 0.1591                 3.2187
 Raman Activ --     0.0000                 0.0000                 0.0000
 Depolar     --     0.0000                 0.0000                 0.0000
 Atom AN      X      Y      Z        X      Y      Z        X      Y      Z
   1  27    -0.03  -0.01  -0.05     0.05  -0.00  -0.03    -0.00   0.08   0.01
   2   6    -0.02   0.02   0.08     0.03  -0.05   0.04    -0.02   0.08  -0.00
   3   6     0.01  -0.01  -0.07    -0.02   0.01  -0.04    -0.03   0.08  -0.01
   4   6     0.06   0.01  -0.14    -0.10  -0.03  -0.08    -0.04   0.08  -0.01
   5   6     0.09  -0.00  -0.11    -0.16   0.00  -0.06     0.00   0.05  -0.01
   6   6     0.05  -0.02  -0.14    -0.10   0.03  -0.08     0.05   0.08  -0.01
   7   6     0.01   0.00  -0.07    -0.03  -0.01  -0.04     0.04   0.08  -0.00
   8   6    -0.02  -0.02   0.08     0.03   0.05   0.04     0.02   0.08   0.00
   9   6     0.00  -0.06   0.05    -0.01   0.11   0.03     0.03   0.06   0.00
  10   7     0.05  -0.06  -0.10    -0.09   0.10  -0.06     0.05   0.07  -0.00
  11   6    -0.01  -0.08   0.09     0.01   0.15   0.05    -0.00   0.01   0.00
  12   6    -0.02  -0.05   0.01     0.04   0.10   0.01     0.01  -0.03  -0.00
  13   6    -0.01  -0.02  -0.10     0.01   0.04  -0.06     0.00  -0.05  -0.00
  14   6    -0.03   0.01  -0.06     0.06  -0.01  -0.03     0.01  -0.06  -0.00
  15   6    -0.07  -0.01   0.06     0.12   0.02   0.04     0.02  -0.05   0.00
  16   7    -0.07  -0.05   0.07     0.12   0.09   0.04     0.02  -0.04   0.00
  17   6    -0.09  -0.00   0.12     0.16  -0.00   0.07    -0.00  -0.04   0.00
  18   6    -0.07   0.01   0.06     0.12  -0.02   0.04    -0.03  -0.05  -0.00
  19   6    -0.03  -0.00  -0.06     0.06   0.02  -0.03    -0.02  -0.06  -0.01
  20   6    -0.01   0.02  -0.10     0.01  -0.03  -0.05    -0.00  -0.05  -0.00
  21   6    -0.02   0.05   0.01     0.04  -0.10   0.01    -0.02  -0.03   0.00
  22   7    -0.06   0.05   0.07     0.12  -0.09   0.04    -0.03  -0.04   0.00
  23   6    -0.01   0.07   0.09     0.01  -0.15   0.05     0.00   0.01   0.01
  24   6    -0.00   0.06   0.05    -0.01  -0.11   0.03    -0.03   0.06   0.00
  25   7     0.05   0.05  -0.10    -0.09  -0.11  -0.06    -0.05   0.08  -0.01
  26   1    -0.02   0.01   0.05     0.02  -0.01   0.03    -0.00   0.02   0.00
  27   1     0.00  -0.01  -0.03    -0.01   0.02  -0.02    -0.01   0.02  -0.00
  28   1     0.00   0.01  -0.03    -0.01  -0.02  -0.02     0.01   0.03  -0.00
  29   1    -0.01  -0.01   0.05     0.02   0.01   0.03     0.00   0.02   0.00
  30   1    -0.00  -0.02   0.04     0.00   0.04   0.03    -0.01   0.00   0.00
  31   1     0.01  -0.00  -0.06    -0.01   0.01  -0.03    -0.00  -0.02  -0.00
  32   1    -0.01   0.01  -0.04     0.01  -0.02  -0.02     0.00  -0.02  -0.00
  33   1    -0.02  -0.00   0.04     0.04  -0.00   0.02    -0.00  -0.00   0.00
  34   1    -0.01  -0.01  -0.03     0.02   0.02  -0.02    -0.00  -0.02  -0.00
  35   1     0.01   0.01  -0.06    -0.01  -0.01  -0.03     0.00  -0.01  -0.00
  36   1    -0.00   0.02   0.04     0.00  -0.04   0.03     0.01   0.00   0.00
  37   6     0.09   0.01   0.11    -0.16   0.00   0.07     0.00  -0.10   0.00
  38   6     0.09   0.03   0.34    -0.17   0.00   0.19     0.00  -0.51   0.02
  39   6     0.09   0.02   0.24    -0.17   0.00   0.12     0.00  -0.38   0.02
  40   6     0.09  -0.02  -0.22    -0.17  -0.01  -0.14    -0.00   0.37  -0.01
  41   6     0.09  -0.02  -0.34    -0.17  -0.01  -0.19    -0.01   0.51  -0.02
  42   6     0.09  -0.01  -0.13    -0.16  -0.00  -0.05     0.00   0.09  -0.01
  43  27    -0.06   0.01   0.01     0.05   0.00   0.11    -0.00  -0.07  -0.00
  44   6    -0.02   0.05  -0.06     0.03  -0.03  -0.05     0.00  -0.06  -0.01
  45   6     0.01   0.01   0.07    -0.02   0.02   0.03     0.02  -0.07   0.00
  46   6     0.05   0.02   0.13    -0.10  -0.03   0.08     0.03  -0.06   0.01
  47   6     0.08   0.00   0.09    -0.15  -0.00   0.07     0.00  -0.04   0.01
  48   6     0.05  -0.01   0.13    -0.10   0.02   0.08    -0.03  -0.06   0.01
  49   6     0.01  -0.00   0.07    -0.02  -0.02   0.03    -0.02  -0.07   0.01
  50   6    -0.02  -0.05  -0.06     0.03   0.03  -0.05    -0.00  -0.06   0.01
  51   6     0.00  -0.08  -0.05    -0.01   0.10  -0.02    -0.01  -0.05   0.01
  52   7     0.05  -0.06   0.10    -0.09   0.10   0.07    -0.03  -0.06   0.01
  53   6    -0.01  -0.09  -0.09     0.01   0.14  -0.05     0.02  -0.01   0.01
  54   6    -0.01  -0.05  -0.02     0.04   0.10  -0.01     0.00   0.02   0.01
  55   6     0.04   0.00   0.10     0.02   0.04   0.03     0.01   0.04   0.01
  56   6    -0.00   0.02   0.07     0.07  -0.00   0.01    -0.00   0.04  -0.01
  57   6    -0.07  -0.01  -0.05     0.11   0.02  -0.05    -0.01   0.04  -0.01
  58   7    -0.07  -0.05  -0.07     0.11   0.09  -0.05    -0.01   0.02  -0.00
  59   6    -0.10  -0.00  -0.10     0.14   0.00  -0.08    -0.00   0.03  -0.00
  60   6    -0.07   0.00  -0.05     0.11  -0.02  -0.05     0.01   0.04   0.01
  61   6    -0.00  -0.03   0.07     0.07   0.01   0.01     0.00   0.04   0.02
  62   6     0.03  -0.01   0.10     0.03  -0.04   0.03    -0.01   0.03   0.00
  63   6    -0.02   0.05  -0.02     0.05  -0.10  -0.01    -0.00   0.02  -0.01
  64   7    -0.07   0.05  -0.07     0.11  -0.09  -0.05     0.01   0.02  -0.00
  65   6    -0.01   0.09  -0.09     0.02  -0.14  -0.05    -0.01  -0.00  -0.02
  66   6     0.00   0.08  -0.04    -0.00  -0.10  -0.03     0.01  -0.04  -0.01
  67   7     0.04   0.07   0.10    -0.08  -0.10   0.07     0.03  -0.05   0.00
  68   1    -0.01   0.02  -0.04     0.03  -0.00  -0.04    -0.00  -0.02  -0.01
  69   1     0.00  -0.01   0.03    -0.00   0.02   0.01     0.01  -0.02   0.00
  70   1     0.00   0.01   0.03    -0.00  -0.02   0.01    -0.00  -0.02   0.00
  71   1    -0.01  -0.02  -0.04     0.03   0.00  -0.03     0.00  -0.02   0.00
  72   1    -0.00  -0.03  -0.05     0.00   0.04  -0.02     0.01  -0.00   0.01
  73   1     0.03   0.00   0.06    -0.00   0.01   0.02     0.01   0.01   0.01
  74   1     0.01   0.02   0.04     0.02  -0.02   0.01    -0.00   0.02  -0.01
  75   1    -0.03   0.00  -0.03     0.04   0.00  -0.03    -0.00   0.01  -0.00
  76   1     0.01  -0.02   0.04     0.02   0.02   0.01     0.00   0.01   0.01
  77   1     0.03  -0.01   0.06    -0.00  -0.01   0.02    -0.01   0.01  -0.00
  78   1     0.00   0.03  -0.04     0.00  -0.04  -0.02    -0.01  -0.00  -0.01
                     22                     23                     24
                        a                      a                      a 
 Frequencies --   189.6033               192.3380               225.1290
 Red. masses --    12.1585                12.1331                12.6541
 Frc consts  --     0.0000                 0.0000                 0.0000
 IR Inten    --     0.3553                 0.2101                57.7546
 Raman Activ --     0.0000                 0.0000                 0.0000
 Depolar     --     0.0000                 0.0000                 0.0000
 Atom AN      X      Y      Z        X      Y      Z        X      Y      Z
   1  27    -0.00  -0.02   0.03    -0.00   0.02  -0.00     0.00   0.00   0.00
   2   6    -0.15   0.14  -0.00     0.02  -0.01   0.00     0.00   0.00  -0.01
   3   6    -0.15   0.13  -0.00     0.02  -0.01  -0.00     0.00   0.00  -0.00
   4   6    -0.13   0.14  -0.01     0.01  -0.01   0.00     0.01   0.00   0.02
   5   6    -0.00   0.07  -0.00    -0.00  -0.00  -0.00     0.01   0.00  -0.00
   6   6     0.13   0.14   0.00    -0.01  -0.01   0.00     0.01  -0.00  -0.02
   7   6     0.15   0.13  -0.00    -0.02  -0.01  -0.00     0.00   0.00   0.00
   8   6     0.15   0.14  -0.00    -0.02  -0.01  -0.00     0.00  -0.00   0.01
   9   6     0.15   0.13   0.00    -0.02  -0.01  -0.00     0.00  -0.01  -0.01
  10   7     0.15   0.15   0.00    -0.01  -0.01   0.00     0.01  -0.00  -0.03
  11   6     0.09  -0.00  -0.00    -0.01   0.00  -0.00     0.00  -0.01   0.00
  12   6     0.16  -0.14  -0.00    -0.02   0.02  -0.00    -0.00  -0.01  -0.01
  13   6     0.16  -0.15  -0.00    -0.02   0.01   0.00     0.00  -0.00   0.01
  14   6     0.16  -0.14  -0.00    -0.02   0.01   0.00    -0.00   0.00   0.00
  15   6     0.14  -0.14   0.00    -0.02   0.01  -0.00    -0.01  -0.00  -0.02
  16   7     0.16  -0.16   0.00    -0.02   0.02  -0.00    -0.01  -0.01  -0.03
  17   6     0.00  -0.08  -0.00     0.00   0.00   0.00    -0.01  -0.00  -0.00
  18   6    -0.14  -0.14  -0.01     0.02   0.01   0.00    -0.01   0.00   0.02
  19   6    -0.16  -0.14  -0.01     0.02   0.01   0.00     0.00  -0.00   0.00
  20   6    -0.16  -0.15  -0.01     0.02   0.01   0.00     0.01   0.00  -0.01
  21   6    -0.16  -0.14  -0.01     0.02   0.01   0.00     0.00   0.01   0.00
  22   7    -0.16  -0.16  -0.00     0.02   0.02   0.00    -0.01   0.01   0.02
  23   6    -0.09  -0.00  -0.00     0.01   0.00   0.00     0.00   0.01  -0.00
  24   6    -0.15   0.13  -0.01     0.02  -0.01   0.00     0.00   0.01   0.01
  25   7    -0.15   0.15  -0.01     0.01  -0.01   0.00     0.01   0.01   0.03
  26   1    -0.04   0.04  -0.00     0.01  -0.00   0.00     0.00   0.00  -0.01
  27   1    -0.04   0.04  -0.00     0.00  -0.00  -0.00     0.00  -0.00  -0.00
  28   1     0.04   0.04  -0.00    -0.00  -0.00  -0.00     0.00   0.00   0.00
  29   1     0.04   0.04  -0.00    -0.01  -0.00  -0.00    -0.00  -0.00   0.01
  30   1    -0.01  -0.00  -0.00    -0.00   0.00  -0.00    -0.00  -0.00   0.01
  31   1     0.05  -0.04  -0.00    -0.01   0.00   0.00     0.00  -0.00   0.01
  32   1     0.05  -0.04  -0.00    -0.01   0.00   0.00    -0.00   0.00   0.00
  33   1     0.00   0.02  -0.00     0.00  -0.00   0.00    -0.00  -0.00   0.00
  34   1    -0.05  -0.04  -0.00     0.01   0.00   0.00     0.00  -0.00  -0.00
  35   1    -0.05  -0.04  -0.00     0.01   0.00   0.00     0.00   0.00  -0.01
  36   1     0.01  -0.00   0.00     0.00   0.00   0.00     0.00   0.00  -0.01
  37   6    -0.00  -0.02  -0.00    -0.00  -0.02  -0.00     0.01  -0.00  -0.00
  38   6    -0.00   0.16  -0.00    -0.00  -0.11   0.00     0.00  -0.02  -0.00
  39   6    -0.00   0.11  -0.00    -0.00  -0.07   0.00     0.00  -0.01   0.00
  40   6     0.00  -0.09   0.00    -0.00   0.09  -0.00     0.00   0.02   0.00
  41   6     0.00  -0.13   0.00    -0.00   0.13  -0.00     0.00   0.02   0.00
  42   6    -0.00  -0.03  -0.00    -0.00  -0.02  -0.00    -0.00  -0.03  -0.00
  43  27     0.00   0.02   0.00     0.00  -0.02   0.03     0.01   0.13  -0.00
  44   6    -0.02   0.03   0.00    -0.15   0.14   0.00    -0.01  -0.04   0.15
  45   6    -0.02   0.03   0.00    -0.15   0.13   0.03    -0.02  -0.02   0.01
  46   6    -0.02   0.03   0.00    -0.13   0.14   0.03    -0.02   0.00  -0.21
  47   6    -0.00   0.02  -0.00    -0.00   0.08  -0.00    -0.00  -0.01   0.00
  48   6     0.02   0.03  -0.00     0.13   0.14  -0.03     0.01   0.01   0.22
  49   6     0.02   0.03  -0.01     0.15   0.14  -0.03     0.00  -0.02  -0.03
  50   6     0.02   0.03  -0.00     0.15   0.15  -0.01    -0.01  -0.04  -0.16
  51   6     0.02   0.03  -0.00     0.15   0.14  -0.01     0.00  -0.00   0.10
  52   7     0.02   0.03  -0.00     0.15   0.16  -0.02     0.02   0.03   0.36
  53   6     0.00   0.00  -0.01     0.09   0.00  -0.01    -0.02  -0.02  -0.07
  54   6     0.02  -0.02  -0.01     0.16  -0.14  -0.03    -0.00   0.00   0.04
  55   6     0.01  -0.02  -0.01     0.16  -0.15  -0.04    -0.07  -0.04  -0.19
  56   6     0.02  -0.03   0.00     0.16  -0.14  -0.02    -0.01  -0.02   0.03
  57   6     0.02  -0.02   0.00     0.14  -0.15  -0.01     0.06   0.01   0.24
  58   7     0.02  -0.02  -0.00     0.16  -0.16  -0.02     0.07   0.03   0.32
  59   6     0.00  -0.02  -0.00     0.00  -0.08  -0.00     0.02  -0.01   0.00
  60   6    -0.02  -0.02  -0.00    -0.14  -0.15   0.01    -0.03   0.01  -0.25
  61   6    -0.02  -0.03  -0.00    -0.16  -0.14   0.01     0.00  -0.01  -0.01
  62   6    -0.01  -0.03   0.00    -0.15  -0.15   0.03     0.04  -0.05   0.19
  63   6    -0.01  -0.02   0.01    -0.15  -0.14   0.02    -0.01  -0.02  -0.06
  64   7    -0.02  -0.02   0.00    -0.16  -0.16   0.02    -0.06   0.02  -0.36
  65   6    -0.01   0.00   0.01    -0.09  -0.00   0.00     0.00  -0.05   0.08
  66   6    -0.02   0.03   0.00    -0.15   0.13   0.01    -0.02  -0.01  -0.08
  67   7    -0.03   0.03   0.00    -0.15   0.15   0.02    -0.03   0.01  -0.33
  68   1    -0.00   0.01   0.00    -0.04   0.04  -0.00    -0.00  -0.02   0.12
  69   1    -0.01   0.01   0.00    -0.04   0.04   0.01    -0.01  -0.01   0.04
  70   1     0.01   0.01  -0.00     0.04   0.04  -0.01    -0.00  -0.01  -0.05
  71   1     0.00   0.01  -0.00     0.04   0.04   0.00    -0.00  -0.02  -0.12
  72   1    -0.01   0.00  -0.00    -0.02  -0.00   0.00    -0.02  -0.02  -0.11
  73   1     0.00  -0.01  -0.00     0.04  -0.04  -0.01    -0.04  -0.02  -0.13
  74   1     0.01  -0.01   0.00     0.05  -0.04  -0.00    -0.01  -0.01  -0.02
  75   1     0.00   0.00  -0.00    -0.00   0.02  -0.00     0.01  -0.01   0.00
  76   1    -0.01  -0.01  -0.00    -0.05  -0.04  -0.00     0.01  -0.00   0.03
  77   1    -0.00  -0.01   0.00    -0.04  -0.04   0.01     0.03  -0.03   0.14
  78   1     0.01   0.00   0.00     0.02   0.00  -0.01     0.01  -0.03   0.11
                     25                     26                     27
                        a                      a                      a 
 Frequencies --   226.5743               227.6000               229.5983
 Red. masses --    11.9533                12.8924                12.6398
 Frc consts  --     0.0000                 0.0000                 0.0000
 IR Inten    --   287.5856                73.3382               146.2350
 Raman Activ --     0.0000                 0.0000                 0.0000
 Depolar     --     0.0000                 0.0000                 0.0000
 Atom AN      X      Y      Z        X      Y      Z        X      Y      Z
   1  27    -0.03  -0.01   0.00     0.01   0.01   0.02    -0.02   0.03  -0.10
   2   6     0.02   0.00  -0.16     0.00   0.01   0.01    -0.01  -0.01  -0.03
   3   6     0.01   0.00  -0.03     0.01  -0.01  -0.05    -0.00  -0.01  -0.22
   4   6     0.00   0.01   0.21     0.02   0.00   0.02    -0.02  -0.01   0.07
   5   6     0.00   0.00  -0.00     0.02  -0.00  -0.01    -0.02  -0.01   0.02
   6   6     0.01  -0.00  -0.21     0.02  -0.01   0.05    -0.02  -0.00   0.06
   7   6     0.01  -0.00   0.03     0.01  -0.00  -0.06    -0.01  -0.01  -0.22
   8   6     0.01   0.00   0.16     0.00  -0.01  -0.02     0.00   0.00  -0.02
   9   6     0.01  -0.00  -0.10     0.01  -0.02   0.08    -0.01   0.02   0.24
  10   7     0.01  -0.01  -0.35     0.02  -0.02   0.15    -0.02   0.02   0.31
  11   6     0.01  -0.01   0.06     0.00  -0.03  -0.02    -0.00   0.03   0.08
  12   6     0.01  -0.01  -0.06     0.00  -0.03  -0.07    -0.00   0.02  -0.19
  13   6     0.02  -0.00   0.21     0.01  -0.01  -0.01    -0.01   0.00  -0.03
  14   6     0.01   0.01  -0.02    -0.00  -0.00   0.07     0.00  -0.01   0.14
  15   6    -0.01   0.00  -0.25    -0.02  -0.01  -0.01     0.02  -0.00  -0.05
  16   7    -0.01  -0.01  -0.35    -0.02  -0.03  -0.09     0.02   0.02  -0.31
  17   6    -0.02  -0.00  -0.00    -0.03  -0.00   0.01     0.02  -0.01   0.13
  18   6    -0.02  -0.01   0.25    -0.02   0.01  -0.05     0.01  -0.01  -0.04
  19   6     0.00  -0.01   0.02    -0.00  -0.01   0.07     0.00  -0.01   0.14
  20   6     0.02   0.01  -0.21     0.01   0.01   0.03    -0.00  -0.01  -0.04
  21   6     0.01   0.01   0.05     0.00   0.03  -0.09     0.01  -0.02  -0.19
  22   7    -0.02   0.01   0.35    -0.01   0.03  -0.15     0.02  -0.01  -0.29
  23   6     0.01   0.02  -0.07     0.00   0.04  -0.01    -0.01  -0.02   0.08
  24   6     0.01   0.01   0.10     0.01   0.02   0.07    -0.02  -0.01   0.24
  25   7    -0.00   0.01   0.36     0.02   0.02   0.09    -0.03  -0.01   0.33
  26   1     0.01   0.00  -0.12    -0.00   0.00  -0.00    -0.00  -0.00  -0.05
  27   1     0.00   0.00  -0.05     0.00  -0.00  -0.04     0.00  -0.00  -0.15
  28   1     0.00  -0.00   0.05     0.00   0.00  -0.04    -0.00  -0.01  -0.15
  29   1     0.00   0.00   0.12    -0.00  -0.00  -0.02     0.01  -0.00  -0.04
  30   1     0.00  -0.00   0.11    -0.00  -0.01  -0.01     0.00   0.01   0.04
  31   1     0.01  -0.00   0.15     0.01  -0.00   0.01    -0.01   0.00   0.01
  32   1     0.00   0.01   0.02    -0.00   0.00   0.05     0.00  -0.01   0.10
  33   1    -0.01   0.00   0.00    -0.01  -0.00   0.03     0.01  -0.00   0.12
  34   1     0.00  -0.01  -0.02    -0.00  -0.01   0.05    -0.00  -0.00   0.10
  35   1     0.01   0.00  -0.15     0.01   0.00   0.03    -0.00  -0.00   0.01
  36   1     0.01   0.01  -0.11    -0.00   0.01   0.00    -0.00  -0.01   0.03
  37   6     0.00  -0.00  -0.00     0.02  -0.00  -0.10    -0.01  -0.01  -0.08
  38   6     0.00   0.00  -0.00     0.02   0.00  -0.02    -0.01   0.00   0.05
  39   6    -0.00   0.00   0.00     0.01   0.00   0.04    -0.00   0.00   0.07
  40   6    -0.00  -0.00   0.00     0.01   0.00   0.08    -0.00  -0.00  -0.00
  41   6    -0.00  -0.00   0.00     0.00  -0.00   0.03     0.00  -0.00  -0.05
  42   6    -0.00   0.00  -0.01    -0.00  -0.00  -0.12     0.00  -0.00  -0.04
  43  27    -0.01  -0.01  -0.00    -0.14   0.02  -0.03     0.05  -0.00   0.07
  44   6     0.00   0.00  -0.01     0.01   0.00  -0.02    -0.00   0.00   0.02
  45   6    -0.00   0.00  -0.02     0.00   0.03  -0.20     0.00  -0.01   0.09
  46   6    -0.01  -0.00   0.02    -0.01  -0.01   0.07     0.01   0.00  -0.02
  47   6    -0.01   0.00   0.00    -0.01  -0.00   0.00     0.01   0.00  -0.03
  48   6    -0.01   0.00  -0.01    -0.01  -0.00   0.05     0.01  -0.00  -0.01
  49   6    -0.00  -0.00  -0.01     0.00  -0.04  -0.19     0.00   0.02   0.09
  50   6     0.00   0.00   0.01     0.02  -0.00  -0.01    -0.01  -0.00   0.01
  51   6    -0.00   0.01   0.01     0.01   0.05   0.22    -0.00  -0.03  -0.09
  52   7    -0.01   0.01  -0.00    -0.01   0.05   0.29     0.01  -0.02  -0.09
  53   6     0.00   0.02   0.01     0.01   0.06   0.05    -0.01  -0.04  -0.06
  54   6    -0.00   0.01  -0.02    -0.04   0.04  -0.20     0.01  -0.02   0.05
  55   6     0.00   0.01   0.01    -0.02   0.02  -0.02     0.02  -0.00   0.03
  56   6     0.01   0.00   0.01     0.05   0.00   0.13    -0.01   0.01  -0.03
  57   6     0.00   0.00  -0.03     0.03   0.00  -0.07    -0.02  -0.00   0.01
  58   7    -0.00   0.01  -0.05    -0.03   0.02  -0.32     0.00  -0.02   0.09
  59   6     0.02   0.00   0.01     0.09  -0.01   0.10    -0.05   0.00  -0.07
  60   6     0.01  -0.00   0.02     0.03  -0.01  -0.04    -0.02   0.01  -0.00
  61   6     0.00  -0.00   0.01     0.05  -0.02   0.13    -0.01  -0.00  -0.02
  62   6    -0.01  -0.00  -0.02    -0.01  -0.02  -0.04     0.02   0.01   0.03
  63   6    -0.00  -0.01  -0.01    -0.03  -0.03  -0.19     0.01   0.02   0.05
  64   7     0.01  -0.01   0.00    -0.03  -0.02  -0.28     0.00   0.02   0.08
  65   6    -0.00  -0.01  -0.00     0.01  -0.05   0.05    -0.00   0.03  -0.06
  66   6    -0.00  -0.01   0.02     0.00  -0.04   0.23     0.00   0.02  -0.09
  67   7    -0.01  -0.01   0.05    -0.01  -0.04   0.32     0.01   0.02  -0.10
  68   1     0.00   0.00  -0.01     0.00   0.00  -0.04    -0.00  -0.00   0.02
  69   1    -0.00   0.00  -0.01     0.00   0.02  -0.14     0.00  -0.01   0.06
  70   1    -0.00  -0.00  -0.01    -0.00  -0.03  -0.13     0.00   0.01   0.06
  71   1     0.00   0.00   0.00     0.01  -0.00  -0.03    -0.00   0.00   0.01
  72   1     0.00   0.01   0.01     0.01   0.02   0.03    -0.01  -0.01  -0.03
  73   1     0.00   0.00   0.01    -0.01   0.01   0.02     0.01  -0.00   0.01
  74   1     0.00  -0.00   0.01     0.03  -0.00   0.10    -0.01   0.01  -0.02
  75   1     0.01   0.00   0.01     0.05  -0.00   0.11    -0.02   0.00  -0.05
  76   1     0.00   0.00   0.01     0.03  -0.01   0.10    -0.00  -0.00  -0.02
  77   1    -0.01   0.00  -0.01    -0.01  -0.01   0.01     0.01   0.00   0.01
  78   1    -0.00  -0.00  -0.01     0.01  -0.01   0.02    -0.00   0.01  -0.03
                     28                     29                     30
                        a                      a                      a 
 Frequencies --   237.1201               240.1414               243.1412
 Red. masses --    13.9226                21.3995                10.7884
 Frc consts  --     0.0000                 0.0000                 0.0000
 IR Inten    --     2.6170                47.9271                 2.1930
 Raman Activ --     0.0000                 0.0000                 0.0000
 Depolar     --     0.0000                 0.0000                 0.0000
 Atom AN      X      Y      Z        X      Y      Z        X      Y      Z
   1  27    -0.09  -0.00   0.17     0.04   0.00   0.30    -0.00   0.01  -0.01
   2   6    -0.03  -0.04   0.01     0.01   0.02   0.06    -0.02  -0.00   0.20
   3   6    -0.07   0.00   0.08     0.03  -0.00   0.08    -0.00  -0.01  -0.26
   4   6    -0.10  -0.01   0.00     0.05   0.00  -0.03    -0.00  -0.01  -0.16
   5   6    -0.09  -0.00  -0.07     0.04  -0.00  -0.14    -0.01  -0.00   0.00
   6   6    -0.10   0.01  -0.02     0.05  -0.01  -0.02    -0.01   0.01   0.16
   7   6    -0.07  -0.00   0.06     0.03   0.00   0.10    -0.01   0.01   0.25
   8   6    -0.03   0.04   0.04     0.01  -0.02   0.04    -0.00   0.00  -0.20
   9   6    -0.06   0.09  -0.04     0.02  -0.05  -0.07    -0.00   0.00  -0.26
  10   7    -0.11   0.08  -0.03     0.05  -0.04  -0.03    -0.01   0.00  -0.12
  11   6    -0.02   0.17  -0.10     0.01  -0.08  -0.17    -0.00   0.01   0.01
  12   6    -0.02   0.16  -0.03     0.01  -0.08  -0.04     0.00   0.01   0.28
  13   6    -0.07   0.07   0.06     0.04  -0.03   0.08    -0.00   0.00   0.16
  14   6     0.01  -0.01   0.04    -0.00   0.01   0.06     0.00   0.00  -0.26
  15   6     0.10   0.04  -0.04    -0.05  -0.01  -0.06     0.01   0.00  -0.11
  16   7     0.09   0.15  -0.04    -0.04  -0.07  -0.03     0.01   0.01   0.18
  17   6     0.17   0.00  -0.10    -0.08   0.00  -0.17     0.01  -0.00   0.00
  18   6     0.11  -0.04  -0.02    -0.05   0.02  -0.07     0.01  -0.01   0.12
  19   6     0.01   0.01   0.02    -0.00  -0.01   0.09    -0.00  -0.01   0.26
  20   6    -0.07  -0.07   0.04     0.04   0.03   0.08     0.00  -0.00  -0.16
  21   6    -0.02  -0.16  -0.00     0.01   0.08  -0.07     0.01  -0.01  -0.28
  22   7     0.09  -0.15   0.02    -0.04   0.08  -0.07     0.01  -0.01  -0.18
  23   6    -0.02  -0.17  -0.10     0.02   0.08  -0.16    -0.00  -0.01   0.00
  24   6    -0.05  -0.10  -0.06     0.03   0.04  -0.05    -0.02  -0.00   0.26
  25   7    -0.11  -0.09  -0.02     0.05   0.04  -0.02    -0.01  -0.00   0.12
  26   1     0.01  -0.01   0.01    -0.00   0.00   0.04    -0.01  -0.00   0.10
  27   1    -0.02   0.01   0.05     0.01  -0.01   0.05     0.00  -0.00  -0.15
  28   1    -0.02  -0.01   0.04     0.01   0.01   0.06    -0.00   0.00   0.15
  29   1     0.01   0.01   0.02    -0.00  -0.00   0.03     0.00  -0.00  -0.10
  30   1     0.01   0.05  -0.04    -0.00  -0.02  -0.07     0.00   0.00  -0.01
  31   1    -0.05   0.02   0.04     0.02  -0.01   0.05    -0.00   0.00   0.07
  32   1    -0.00  -0.03   0.03     0.00   0.01   0.04    -0.00  -0.00  -0.16
  33   1     0.05   0.00  -0.04    -0.02   0.00  -0.07     0.00  -0.00   0.00
  34   1    -0.00   0.03   0.01     0.00  -0.02   0.06    -0.00  -0.00   0.16
  35   1    -0.05  -0.02   0.02     0.02   0.01   0.05    -0.00  -0.00  -0.07
  36   1     0.01  -0.05  -0.05    -0.00   0.02  -0.07    -0.00  -0.00   0.01
  37   6    -0.06  -0.00  -0.13     0.03  -0.00  -0.24    -0.01   0.00   0.01
  38   6    -0.04  -0.01  -0.01     0.02   0.00  -0.01    -0.00  -0.00   0.00
  39   6    -0.01  -0.00   0.06     0.00   0.01   0.13    -0.00  -0.00  -0.00
  40   6     0.01   0.00   0.09    -0.01   0.00   0.12    -0.00   0.00  -0.00
  41   6     0.04   0.00   0.01    -0.02  -0.00  -0.01     0.00   0.00   0.00
  42   6     0.06  -0.00  -0.16    -0.03  -0.00  -0.24     0.00   0.00   0.00
  43  27     0.05   0.02   0.06     0.00  -0.01   0.35     0.00   0.00  -0.01
  44   6     0.03   0.03   0.04    -0.03  -0.03   0.05     0.00   0.00  -0.00
  45   6     0.07  -0.01  -0.02    -0.04  -0.02   0.12     0.00   0.00  -0.01
  46   6     0.10   0.01  -0.01    -0.05  -0.01  -0.03     0.01   0.00   0.00
  47   6     0.10  -0.00  -0.08    -0.05  -0.00  -0.14     0.01  -0.00   0.00
  48   6     0.10  -0.01   0.01    -0.06   0.01  -0.03     0.01  -0.00   0.00
  49   6     0.07   0.00   0.00    -0.04   0.02   0.12     0.00  -0.00  -0.00
  50   6     0.03  -0.04   0.02    -0.03   0.03   0.06     0.00  -0.00  -0.00
  51   6     0.06  -0.09   0.03    -0.04   0.03  -0.09     0.00  -0.01   0.00
  52   7     0.11  -0.08   0.06    -0.06   0.03  -0.05     0.01  -0.00  -0.00
  53   6     0.02  -0.17  -0.06    -0.04   0.06  -0.18     0.00  -0.01   0.01
  54   6     0.01  -0.16  -0.05    -0.01   0.08  -0.04     0.00  -0.01   0.01
  55   6     0.09  -0.05   0.02     0.00   0.05   0.09     0.00  -0.01  -0.01
  56   6     0.02   0.03   0.06     0.03   0.02   0.06    -0.00  -0.00  -0.00
  57   6    -0.10  -0.03  -0.01     0.03   0.03  -0.07    -0.01  -0.00   0.01
  58   7    -0.09  -0.15  -0.03     0.03   0.08  -0.04    -0.00  -0.01   0.01
  59   6    -0.17  -0.00  -0.03     0.04   0.01  -0.19    -0.01  -0.00   0.01
  60   6    -0.11   0.03  -0.03     0.04  -0.02  -0.06    -0.01   0.00  -0.00
  61   6     0.02  -0.04   0.07     0.03  -0.02   0.05     0.00  -0.00   0.00
  62   6     0.09   0.05   0.03     0.00  -0.05   0.08     0.00   0.00  -0.00
  63   6     0.01   0.16  -0.07    -0.00  -0.07  -0.04    -0.00   0.01  -0.00
  64   7    -0.10   0.16  -0.09     0.05  -0.07  -0.02    -0.01   0.01  -0.01
  65   6     0.02   0.17  -0.05    -0.03  -0.06  -0.19     0.00   0.01   0.01
  66   6     0.06   0.09   0.04    -0.04  -0.03  -0.10     0.00   0.00   0.01
  67   7     0.11   0.08   0.06    -0.06  -0.04  -0.06     0.01   0.00   0.01
  68   1    -0.01   0.01   0.02    -0.00  -0.01   0.04    -0.00   0.00  -0.00
  69   1     0.02  -0.01  -0.01    -0.01  -0.01   0.07     0.00   0.00  -0.01
  70   1     0.02   0.01  -0.00    -0.01   0.01   0.07     0.00   0.00  -0.00
  71   1    -0.01  -0.01   0.01    -0.00   0.01   0.04     0.00  -0.00  -0.00
  72   1    -0.01  -0.05  -0.03    -0.01   0.01  -0.08    -0.00  -0.00   0.00
  73   1     0.05  -0.01   0.01    -0.00   0.02   0.05     0.00  -0.00  -0.00
  74   1     0.01   0.04   0.04     0.01  -0.00   0.04    -0.00   0.00  -0.00
  75   1    -0.05  -0.00  -0.01     0.00   0.00  -0.08    -0.00  -0.00   0.00
  76   1     0.02  -0.04   0.05     0.01   0.00   0.03     0.00  -0.00   0.00
  77   1     0.06   0.01   0.03    -0.00  -0.02   0.05     0.00   0.00   0.00
  78   1    -0.01   0.05  -0.02    -0.01  -0.01  -0.08    -0.00   0.00   0.00
                     31                     32                     33
                        a                      a                      a 
 Frequencies --   245.1149               249.2874               250.1862
 Red. masses --    10.9024                12.1236                12.0068
 Frc consts  --     0.0000                 0.0000                 0.0000
 IR Inten    --     0.5174                 1.2247                 5.2050
 Raman Activ --     0.0000                 0.0000                 0.0000
 Depolar     --     0.0000                 0.0000                 0.0000
 Atom AN      X      Y      Z        X      Y      Z        X      Y      Z
   1  27     0.00  -0.00  -0.01    -0.01   0.01  -0.00     0.00   0.00   0.01
   2   6     0.00   0.00  -0.01     0.01  -0.00  -0.19     0.00   0.00  -0.02
   3   6     0.00  -0.00   0.00    -0.00  -0.00   0.00     0.00  -0.00   0.01
   4   6     0.00   0.00   0.01    -0.01   0.00   0.26     0.00   0.00   0.03
   5   6     0.00   0.00   0.00    -0.01  -0.00   0.00     0.00  -0.00  -0.00
   6   6     0.00  -0.00  -0.01    -0.00  -0.01  -0.26     0.00  -0.00  -0.03
   7   6     0.00   0.00  -0.00    -0.00  -0.00  -0.00     0.00  -0.00  -0.00
   8   6     0.00  -0.00   0.00    -0.00   0.00   0.19     0.00  -0.00   0.03
   9   6     0.00  -0.00   0.00    -0.00   0.00  -0.08     0.00  -0.00  -0.01
  10   7     0.00  -0.00  -0.00    -0.00  -0.00  -0.37     0.00  -0.00  -0.04
  11   6     0.00  -0.01   0.00    -0.00   0.00   0.01     0.00  -0.01  -0.00
  12   6     0.00  -0.01   0.00    -0.00   0.00   0.07     0.00  -0.01   0.00
  13   6     0.00  -0.00  -0.01    -0.00   0.00  -0.18     0.00  -0.00  -0.02
  14   6     0.00   0.00   0.00    -0.00  -0.00  -0.00     0.00  -0.00   0.01
  15   6    -0.00  -0.00   0.01     0.00  -0.00   0.23    -0.00  -0.00   0.03
  16   7    -0.00  -0.01   0.01     0.00   0.00   0.34    -0.00  -0.01   0.04
  17   6    -0.01   0.00   0.00     0.01  -0.00   0.00    -0.01   0.00  -0.00
  18   6    -0.00   0.00  -0.01     0.01   0.00  -0.23    -0.00   0.00  -0.03
  19   6    -0.00   0.00  -0.01    -0.00  -0.00   0.00     0.00  -0.00  -0.00
  20   6     0.00   0.00   0.01    -0.01  -0.01   0.18     0.00   0.00   0.02
  21   6     0.00   0.01   0.00     0.00  -0.00  -0.07     0.00   0.01  -0.01
  22   7    -0.00   0.01  -0.00     0.01   0.00  -0.34    -0.00   0.01  -0.04
  23   6     0.00   0.01   0.00     0.00   0.00  -0.01     0.00   0.01  -0.00
  24   6     0.00   0.00  -0.00    -0.00   0.00   0.07     0.00   0.00   0.01
  25   7     0.00   0.00   0.00    -0.01   0.00   0.37     0.00   0.00   0.04
  26   1     0.00   0.00  -0.00     0.00  -0.00  -0.14     0.00   0.00  -0.02
  27   1     0.00  -0.00   0.00     0.00  -0.00  -0.04     0.00  -0.00  -0.00
  28   1     0.00   0.00  -0.00    -0.00  -0.00   0.04     0.00   0.00   0.00
  29   1    -0.00  -0.00   0.00    -0.00   0.00   0.14    -0.00  -0.00   0.02
  30   1    -0.00  -0.00   0.00     0.00   0.00   0.01    -0.00  -0.00   0.00
  31   1     0.00  -0.00  -0.01    -0.00   0.00  -0.13     0.00  -0.00  -0.02
  32   1     0.00   0.00  -0.00    -0.00  -0.00  -0.04     0.00   0.00  -0.00
  33   1    -0.00   0.00   0.00     0.00  -0.00   0.00    -0.00   0.00  -0.00
  34   1     0.00  -0.00  -0.00    -0.00  -0.00   0.04     0.00  -0.00   0.00
  35   1     0.00   0.00   0.00    -0.00  -0.00   0.13     0.00   0.00   0.02
  36   1    -0.00   0.00   0.00     0.00   0.00  -0.01    -0.00   0.00  -0.00
  37   6     0.00   0.00   0.01    -0.00  -0.00   0.00     0.00  -0.00  -0.00
  38   6     0.00   0.00  -0.00    -0.00   0.00   0.00    -0.00   0.00   0.00
  39   6    -0.00   0.00  -0.00    -0.00   0.00  -0.00    -0.00   0.00   0.00
  40   6    -0.00  -0.01   0.00    -0.00  -0.00  -0.00    -0.00  -0.00  -0.00
  41   6    -0.00  -0.00   0.00     0.00  -0.00  -0.00    -0.00  -0.00  -0.00
  42   6    -0.00   0.01   0.00     0.00  -0.00   0.00    -0.00   0.00   0.00
  43  27     0.00   0.01   0.01     0.00  -0.00  -0.01    -0.01   0.00  -0.00
  44   6    -0.01  -0.02   0.18     0.00  -0.00   0.02     0.01   0.03  -0.20
  45   6    -0.01   0.03  -0.25     0.00  -0.00   0.00     0.01  -0.00   0.02
  46   6    -0.01   0.02  -0.13     0.00   0.00  -0.03     0.01  -0.03   0.27
  47   6    -0.01   0.02  -0.00     0.00   0.00   0.00    -0.00  -0.01   0.00
  48   6     0.00   0.03   0.13     0.01   0.00   0.03    -0.02  -0.03  -0.27
  49   6     0.00   0.04   0.25     0.00  -0.00  -0.00    -0.01  -0.01  -0.02
  50   6    -0.00  -0.01  -0.18     0.00  -0.00  -0.02     0.00   0.03   0.20
  51   6    -0.01  -0.02  -0.27     0.00  -0.00   0.01    -0.01  -0.00  -0.06
  52   7    -0.00  -0.01  -0.15     0.01   0.00   0.05    -0.02  -0.04  -0.35
  53   6     0.02   0.00  -0.00     0.00  -0.01   0.00    -0.01   0.00   0.01
  54   6     0.07   0.03   0.27    -0.00  -0.01  -0.01     0.01   0.00   0.05
  55   6     0.04   0.01   0.15     0.01  -0.00   0.02    -0.06  -0.02  -0.18
  56   6    -0.06  -0.03  -0.25     0.00   0.00   0.00    -0.00   0.00   0.02
  57   6    -0.02  -0.02  -0.10    -0.01  -0.00  -0.03     0.05   0.02   0.24
  58   7     0.06   0.02   0.19    -0.01  -0.01  -0.04     0.07   0.03   0.32
  59   6     0.01  -0.02  -0.00    -0.01  -0.00   0.00     0.01   0.01  -0.00
  60   6     0.03  -0.03   0.09     0.00  -0.00   0.03    -0.05   0.03  -0.24
  61   6     0.06  -0.05   0.25    -0.00  -0.00  -0.00     0.00   0.01  -0.02
  62   6    -0.04   0.01  -0.14    -0.00   0.01  -0.02     0.05  -0.03   0.18
  63   6    -0.07   0.02  -0.28     0.00   0.01   0.01    -0.00   0.00  -0.05
  64   7    -0.04   0.01  -0.20     0.01   0.00   0.04    -0.06   0.04  -0.32
  65   6    -0.02  -0.01  -0.00     0.00   0.01   0.00     0.01   0.00  -0.01
  66   6    -0.01  -0.03   0.27     0.00   0.00  -0.01     0.01  -0.00   0.05
  67   7    -0.01  -0.01   0.15     0.00   0.01  -0.04     0.01  -0.03   0.35
  68   1    -0.00  -0.01   0.08    -0.00  -0.00   0.01     0.00   0.02  -0.15
  69   1    -0.00   0.02  -0.15     0.00  -0.00   0.00     0.00   0.00  -0.02
  70   1     0.00   0.02   0.15     0.00  -0.00  -0.01    -0.00   0.00   0.03
[...]
 Frc consts  --     0.0000                 0.0000                 0.0000
 IR Inten    --  2766.7834                67.9993                50.4815
 Raman Activ --     0.0000                 0.0000                 0.0000
 Depolar     --     0.0000                 0.0000                 0.0000
 Atom AN      X      Y      Z        X      Y      Z        X      Y      Z
   1  27    -0.00   0.00  -0.00     0.00   0.00   0.00    -0.00   0.00  -0.00
   2   6     0.01  -0.09   0.00     0.00   0.00   0.00    -0.00   0.00  -0.00
   3   6    -0.07   0.01  -0.00    -0.00   0.00  -0.00    -0.00   0.00  -0.00
   4   6    -0.00  -0.00  -0.00    -0.00  -0.00  -0.00    -0.00  -0.00   0.00
   5   6    -0.00   0.00  -0.00     0.00  -0.00   0.00    -0.00  -0.00  -0.00
   6   6    -0.00   0.00  -0.00     0.00  -0.00   0.00     0.00   0.00  -0.00
   7   6    -0.14  -0.02  -0.00     0.00   0.00   0.00    -0.00  -0.00  -0.00
   8   6     0.02   0.20  -0.00    -0.00  -0.00   0.00    -0.00  -0.00   0.00
   9   6    -0.01   0.00  -0.00     0.00   0.00  -0.00     0.00   0.00  -0.00
  10   7     0.00  -0.00   0.00    -0.00   0.00   0.00    -0.00   0.00  -0.00
  11   6    -0.00   0.01  -0.00     0.00  -0.00   0.00     0.00  -0.00   0.00
  12   6     0.00   0.00   0.00    -0.00  -0.00   0.00    -0.00  -0.00   0.00
  13   6    -0.00   0.00   0.00     0.01  -0.12  -0.00     0.00  -0.01  -0.00
  14   6     0.01  -0.00  -0.00     0.12  -0.01  -0.00     0.01  -0.00  -0.00
  15   6     0.00   0.00   0.00     0.00   0.00   0.00     0.00   0.00   0.00
  16   7    -0.00  -0.00  -0.00    -0.00   0.00   0.00    -0.00   0.00   0.00
  17   6     0.00  -0.00   0.00    -0.00  -0.00  -0.00     0.00  -0.00   0.00
  18   6     0.00  -0.00  -0.00    -0.00   0.01   0.00    -0.00   0.00   0.00
  19   6     0.00   0.00   0.00    -0.17  -0.01  -0.00    -0.00  -0.00  -0.00
  20   6    -0.00  -0.00  -0.00    -0.01  -0.17  -0.00    -0.00  -0.00  -0.00
  21   6     0.00  -0.00  -0.00     0.01  -0.00   0.00     0.00  -0.00   0.00
  22   7    -0.00   0.00   0.00     0.00   0.00   0.00     0.00   0.00   0.00
  23   6    -0.00  -0.00  -0.00    -0.00  -0.00  -0.00    -0.00  -0.00  -0.00
  24   6    -0.00  -0.00  -0.00    -0.00   0.00  -0.00     0.00  -0.00   0.00
  25   7     0.00   0.00   0.00     0.00   0.00   0.00     0.00  -0.00   0.00
  26   1    -0.03   0.33  -0.00    -0.00  -0.00   0.00     0.00  -0.00   0.00
  27   1     0.24  -0.03   0.01     0.01  -0.00   0.00     0.00  -0.00   0.00
  28   1     0.52   0.05   0.00    -0.00  -0.00  -0.00     0.00   0.00   0.00
  29   1    -0.07  -0.69   0.01     0.00   0.00  -0.00     0.00   0.00  -0.00
  30   1     0.00  -0.02   0.00     0.00   0.01  -0.00     0.00   0.00  -0.00
  31   1     0.00  -0.01  -0.00    -0.04   0.39   0.00    -0.00   0.03   0.00
  32   1    -0.03   0.00   0.00    -0.39   0.04   0.00    -0.03   0.00   0.00
  33   1    -0.00  -0.00  -0.00     0.00  -0.00   0.00    -0.00  -0.00  -0.00
  34   1    -0.02  -0.00  -0.00     0.54   0.05   0.01     0.01   0.00   0.00
  35   1     0.00   0.00   0.00     0.06   0.55   0.01     0.00   0.01   0.00
  36   1     0.00   0.01   0.00    -0.00   0.01   0.00    -0.00   0.00   0.00
  37   6     0.00  -0.00   0.00    -0.00   0.00  -0.00     0.00  -0.00   0.00
  38   6    -0.00   0.00  -0.00     0.00  -0.00   0.00    -0.00  -0.00   0.00
  39   6     0.00   0.00  -0.00    -0.00  -0.00   0.00     0.00   0.00  -0.00
  40   6    -0.00  -0.00   0.00    -0.00  -0.00  -0.00    -0.00   0.00   0.00
  41   6    -0.00   0.00   0.00     0.00  -0.00   0.00     0.00   0.00  -0.00
  42   6     0.00  -0.00   0.00    -0.00  -0.00  -0.00     0.00  -0.00  -0.00
  43  27    -0.00   0.00   0.00     0.00   0.00  -0.00    -0.00  -0.00   0.00
  44   6    -0.00   0.01   0.00     0.00  -0.00  -0.00    -0.00  -0.00  -0.00
  45   6     0.00  -0.00  -0.00     0.00  -0.00  -0.00     0.00  -0.00  -0.00
  46   6     0.00   0.00   0.00    -0.00   0.00   0.00     0.00   0.00   0.00
  47   6    -0.00   0.00  -0.00     0.00   0.00  -0.00    -0.00  -0.00   0.00
  48   6    -0.00   0.00  -0.00     0.00  -0.00   0.00    -0.00   0.00  -0.00
  49   6    -0.00   0.00   0.00     0.00   0.00  -0.00    -0.00  -0.00   0.00
  50   6    -0.00  -0.00   0.00     0.00   0.00  -0.00     0.00  -0.00   0.00
  51   6     0.00  -0.00   0.00    -0.00  -0.00   0.00     0.00  -0.00   0.00
  52   7     0.00   0.00  -0.00    -0.00  -0.00   0.00     0.00  -0.00  -0.00
  53   6    -0.00  -0.00   0.00     0.00  -0.00   0.00    -0.00   0.00  -0.00
  54   6     0.00  -0.00  -0.00    -0.00  -0.00   0.00     0.00   0.00  -0.00
  55   6    -0.00   0.00  -0.00     0.00  -0.00   0.00    -0.01   0.13  -0.01
  56   6    -0.00   0.00   0.00     0.00   0.00  -0.00    -0.12   0.01   0.03
  57   6     0.00  -0.00  -0.00     0.00   0.00  -0.00    -0.00  -0.00   0.00
  58   7    -0.00   0.00   0.00     0.00   0.00  -0.00     0.00  -0.00  -0.00
  59   6     0.00  -0.00  -0.00    -0.00  -0.00   0.00     0.00   0.00  -0.00
  60   6     0.00   0.00  -0.00    -0.00   0.00   0.00     0.00  -0.01  -0.00
  61   6    -0.00  -0.00   0.00    -0.01  -0.00   0.00     0.16   0.01  -0.04
  62   6    -0.00  -0.00  -0.00    -0.00  -0.01  -0.00     0.01   0.17   0.02
  63   6     0.00   0.00  -0.00     0.00  -0.00  -0.00    -0.01   0.00   0.00
  64   7    -0.00  -0.00   0.00     0.00   0.00  -0.00    -0.00  -0.00   0.00
  65   6    -0.00   0.00   0.00    -0.00  -0.00  -0.00     0.00   0.00   0.00
  66   6     0.00   0.00   0.00    -0.00   0.00   0.00    -0.00  -0.00  -0.00
  67   7    -0.00  -0.00  -0.00     0.00   0.00   0.00    -0.00  -0.00   0.00
  68   1     0.00  -0.02  -0.00    -0.00   0.00   0.00    -0.00   0.00   0.00
  69   1    -0.01   0.00   0.00    -0.00   0.00   0.00    -0.02   0.00   0.00
  70   1     0.00   0.00  -0.00    -0.00  -0.00   0.00     0.01   0.00  -0.00
  71   1     0.00   0.00  -0.00    -0.00  -0.00   0.00     0.00   0.00  -0.00
  72   1    -0.00   0.00  -0.00    -0.00   0.00  -0.00    -0.00  -0.01   0.00
  73   1     0.00  -0.00   0.00    -0.00   0.00  -0.00     0.05  -0.40   0.03
  74   1     0.00  -0.00  -0.00     0.00  -0.00  -0.00     0.38  -0.04  -0.10
  75   1    -0.00  -0.00   0.00     0.00  -0.00  -0.00    -0.00   0.00   0.00
  76   1     0.00   0.00  -0.00     0.03   0.00  -0.01    -0.52  -0.07   0.12
  77   1     0.00   0.00   0.00     0.00   0.03   0.00    -0.06  -0.53  -0.06
  78   1    -0.00  -0.00  -0.00    -0.00   0.00   0.00     0.00  -0.01  -0.00
                    223                    224                    225
                        a                      a                      a 
 Frequencies --  3163.9114              3164.0780              3167.8803
 Red. masses --     1.9806                 1.9804                 1.9747
 Frc consts  --     0.0000                 0.0000                 0.0000
 IR Inten    --  1011.3929                30.8881                44.8029
 Raman Activ --     0.0000                 0.0000                 0.0000
 Depolar     --     0.0000                 0.0000                 0.0000
 Atom AN      X      Y      Z        X      Y      Z        X      Y      Z
   1  27     0.00  -0.00   0.00     0.00  -0.00  -0.00    -0.00   0.00  -0.00
   2   6     0.00   0.00  -0.00    -0.00   0.00  -0.00     0.00  -0.02   0.00
   3   6    -0.00   0.00  -0.00    -0.01   0.00  -0.00     0.02  -0.00   0.00
   4   6    -0.00  -0.00   0.00    -0.00  -0.00   0.00     0.00   0.00  -0.00
   5   6     0.00  -0.00   0.00    -0.00   0.00   0.00     0.00  -0.00   0.00
   6   6    -0.00   0.00  -0.00    -0.00   0.00  -0.00    -0.00   0.00  -0.00
   7   6    -0.00  -0.00  -0.00    -0.01  -0.00  -0.00    -0.01  -0.00  -0.00
   8   6     0.00  -0.00   0.00    -0.00  -0.00   0.00    -0.00  -0.01   0.00
   9   6     0.00  -0.00  -0.00     0.00  -0.00  -0.00     0.00  -0.00   0.00
  10   7     0.00  -0.00  -0.00     0.00  -0.00  -0.00     0.00   0.00  -0.00
  11   6    -0.00   0.00  -0.00    -0.00   0.00  -0.00    -0.00  -0.00   0.00
  12   6     0.00   0.00  -0.00     0.00   0.00  -0.00    -0.00  -0.00  -0.00
  13   6    -0.01   0.11   0.00    -0.01   0.13   0.00     0.00  -0.00  -0.00
  14   6    -0.12   0.01   0.00    -0.13   0.01   0.00     0.00  -0.00  -0.00
  15   6    -0.00  -0.00  -0.00    -0.00  -0.00  -0.00     0.00   0.00  -0.00
  16   7     0.00  -0.00  -0.00     0.00  -0.00  -0.00    -0.00   0.00  -0.00
  17   6    -0.00   0.00  -0.00    -0.01   0.00  -0.00     0.00   0.00   0.00
  18   6    -0.00   0.00   0.00    -0.00   0.00   0.00     0.00  -0.00  -0.00
  19   6    -0.07  -0.00  -0.00    -0.10  -0.01  -0.00     0.00   0.00   0.00
  20   6    -0.00  -0.07  -0.00    -0.01  -0.09  -0.00     0.00   0.00   0.00
  21   6     0.00  -0.00   0.00     0.00  -0.00   0.00    -0.00   0.00   0.00
  22   7     0.00   0.00   0.00     0.00   0.00   0.00    -0.00   0.00   0.00
  23   6    -0.00  -0.00  -0.00    -0.00  -0.00  -0.00     0.00  -0.00   0.00
  24   6     0.00   0.00   0.00     0.00  -0.00   0.00    -0.00  -0.00  -0.00
  25   7     0.00   0.00  -0.00     0.00   0.00  -0.00    -0.00   0.00  -0.00
  26   1     0.00  -0.00   0.00     0.00  -0.01   0.00    -0.00   0.05  -0.00
  27   1     0.01  -0.00   0.00     0.03  -0.00   0.00    -0.06   0.01  -0.00
  28   1     0.01   0.00   0.00     0.03   0.00   0.00     0.05   0.01   0.00
  29   1     0.00   0.00  -0.00     0.00   0.01  -0.00     0.00   0.04  -0.00
  30   1    -0.00  -0.01   0.00    -0.00  -0.01   0.00    -0.00   0.00  -0.00
  31   1     0.04  -0.36  -0.00     0.04  -0.40  -0.00    -0.00   0.00   0.00
  32   1     0.37  -0.04  -0.00     0.42  -0.04  -0.00    -0.00   0.00   0.00
  33   1     0.01   0.00   0.00     0.02   0.00   0.00    -0.00   0.00  -0.00
  34   1     0.24   0.02   0.01     0.31   0.03   0.01    -0.00  -0.00  -0.00
  35   1     0.02   0.24   0.01     0.03   0.30   0.01    -0.00  -0.00  -0.00
  36   1    -0.00   0.01   0.00    -0.00   0.01   0.00     0.00   0.00   0.00
  37   6    -0.00   0.00  -0.00     0.00   0.00  -0.00    -0.00  -0.00   0.00
  38   6     0.00   0.00   0.00    -0.00   0.00   0.00     0.00   0.00  -0.00
  39   6    -0.00  -0.00   0.00     0.00   0.00  -0.00     0.00   0.00  -0.00
  40   6    -0.00   0.00  -0.00    -0.00  -0.00   0.00    -0.00  -0.00   0.00
  41   6     0.00   0.00  -0.00     0.00  -0.00   0.00     0.00  -0.00   0.00
  42   6    -0.00  -0.00   0.00    -0.00  -0.00  -0.00    -0.00   0.00  -0.00
  43  27     0.00  -0.00  -0.00    -0.00   0.00   0.00    -0.00  -0.00  -0.00
  44   6     0.00   0.00   0.00     0.00  -0.00  -0.00    -0.01   0.12   0.01
  45   6    -0.00   0.00   0.00     0.01  -0.00  -0.00    -0.15   0.01   0.00
  46   6    -0.00  -0.00  -0.00     0.00   0.00   0.00    -0.00  -0.01  -0.00
  47   6     0.00  -0.00  -0.00     0.00   0.00  -0.00    -0.00   0.00  -0.00
  48   6    -0.00   0.00  -0.00     0.00  -0.00   0.00     0.00  -0.01   0.00
  49   6    -0.00  -0.00   0.00     0.01   0.00  -0.00     0.17   0.02  -0.01
  50   6     0.00  -0.00   0.00     0.00   0.00  -0.00     0.00   0.14  -0.02
  51   6     0.00  -0.00   0.00    -0.00   0.00   0.00    -0.01   0.00   0.00
  52   7     0.00  -0.00   0.00    -0.00   0.00   0.00    -0.00  -0.00   0.00
  53   6    -0.00   0.00  -0.00     0.00  -0.00   0.00     0.00   0.00  -0.00
  54   6     0.00   0.00  -0.00    -0.00  -0.00   0.00     0.00  -0.00  -0.00
  55   6    -0.01   0.13  -0.01     0.01  -0.11   0.01    -0.00   0.00  -0.00
  56   6    -0.13   0.01   0.03     0.10  -0.01  -0.03    -0.00   0.00   0.00
  57   6    -0.00  -0.00   0.00     0.00   0.00  -0.00    -0.00  -0.00   0.00
  58   7     0.00  -0.00  -0.00    -0.00   0.00   0.00    -0.00  -0.00   0.00
  59   6    -0.00   0.00   0.00     0.00  -0.00  -0.00    -0.00   0.00   0.00
  60   6    -0.00   0.00   0.00     0.00  -0.00  -0.00     0.00  -0.00  -0.00
  61   6    -0.09  -0.01   0.02     0.08   0.01  -0.02     0.00   0.00  -0.00
  62   6    -0.01  -0.09  -0.01     0.01   0.08   0.01     0.00   0.00   0.00
  63   6     0.00  -0.00  -0.00    -0.00   0.00   0.00    -0.00  -0.00   0.00
  64   7     0.00   0.00  -0.00    -0.00  -0.00   0.00     0.00  -0.00  -0.00
  65   6    -0.00  -0.00  -0.00     0.00   0.00   0.00    -0.00   0.00   0.00
  66   6     0.00   0.00  -0.00    -0.00   0.00   0.00     0.00   0.00  -0.00
  67   7     0.00   0.00   0.00    -0.00  -0.00  -0.00     0.00  -0.00  -0.00
  68   1     0.00  -0.00  -0.00    -0.00   0.01   0.00     0.04  -0.38  -0.04
  69   1     0.01  -0.00  -0.00    -0.03   0.00   0.00     0.48  -0.05  -0.00
  70   1     0.02   0.00  -0.00    -0.04  -0.00   0.00    -0.56  -0.07   0.02
  71   1     0.00   0.00  -0.00    -0.00  -0.01   0.00    -0.04  -0.44   0.06
  72   1    -0.00  -0.01   0.00     0.00   0.01  -0.00     0.00  -0.01   0.00
  73   1     0.06  -0.41   0.03    -0.05   0.34  -0.02     0.00  -0.01   0.00
  74   1     0.40  -0.04  -0.10    -0.33   0.03   0.08     0.01  -0.00  -0.00
  75   1     0.02   0.00  -0.00    -0.02  -0.00   0.00     0.00  -0.00  -0.00
  76   1     0.29   0.04  -0.07    -0.27  -0.03   0.06    -0.00  -0.00   0.00
  77   1     0.03   0.29   0.03    -0.03  -0.26  -0.03    -0.00  -0.01  -0.00
  78   1    -0.00   0.01   0.00     0.00  -0.01  -0.00    -0.00  -0.01  -0.00
                    226                    227                    228
                        a                      a                      a 
 Frequencies --  3168.2517              3168.3711              3168.8186
 Red. masses --     1.9748                 1.9742                 1.9744
 Frc consts  --     0.0000                 0.0000                 0.0000
 IR Inten    --  2716.1916                42.9143               933.3351
 Raman Activ --     0.0000                 0.0000                 0.0000
 Depolar     --     0.0000                 0.0000                 0.0000
 Atom AN      X      Y      Z        X      Y      Z        X      Y      Z
   1  27    -0.00   0.00   0.00    -0.00   0.00  -0.00    -0.00  -0.00   0.00
   2   6     0.00  -0.04   0.00     0.01  -0.13   0.00     0.01  -0.11   0.00
   3   6     0.05  -0.00   0.00     0.18  -0.01   0.01     0.15  -0.01   0.01
   4   6     0.00   0.00  -0.00     0.00   0.01  -0.00     0.00   0.01  -0.00
   5   6     0.00  -0.00  -0.00     0.00  -0.00   0.00     0.00   0.00  -0.00
   6   6     0.00  -0.00   0.00    -0.00   0.01  -0.00     0.00  -0.01   0.00
   7   6     0.03   0.00   0.00    -0.15  -0.01  -0.00     0.17   0.01   0.00
   8   6     0.00   0.03  -0.00    -0.01  -0.12   0.00     0.01   0.13  -0.00
   9   6    -0.00   0.00  -0.00     0.00  -0.00   0.00    -0.01   0.00  -0.00
  10   7    -0.00  -0.00   0.00     0.00   0.00  -0.00    -0.00  -0.00   0.00
  11   6     0.00   0.00  -0.00    -0.00  -0.00   0.00     0.00   0.00  -0.00
  12   6    -0.00  -0.00   0.00    -0.00   0.00   0.00     0.00   0.00   0.00
  13   6     0.00  -0.00  -0.00     0.00  -0.00  -0.00    -0.00   0.01   0.00
  14   6     0.00  -0.00  -0.00     0.00   0.00  -0.00    -0.01   0.00   0.00
  15   6     0.00   0.00   0.00     0.00   0.00   0.00    -0.00  -0.00   0.00
  16   7    -0.00   0.00  -0.00     0.00   0.00  -0.00     0.00  -0.00  -0.00
  17   6     0.00  -0.00   0.00    -0.00  -0.00  -0.00    -0.00   0.00  -0.00
  18   6     0.00  -0.00  -0.00    -0.00   0.00   0.00    -0.00   0.00  -0.00
  19   6     0.00   0.00   0.00    -0.00  -0.00  -0.00    -0.01  -0.00  -0.00
  20   6     0.00   0.00   0.00    -0.00  -0.00  -0.00    -0.00  -0.01  -0.00
  21   6    -0.00   0.00  -0.00     0.00   0.00   0.00     0.00  -0.00   0.00
  22   7    -0.00  -0.00   0.00    -0.00   0.00  -0.00     0.00   0.00   0.00
  23   6     0.00  -0.00   0.00     0.00  -0.00   0.00     0.00  -0.00   0.00
  24   6    -0.00  -0.00  -0.00    -0.01  -0.00  -0.00    -0.00  -0.00  -0.00
  25   7    -0.00   0.00  -0.00    -0.00   0.00  -0.00    -0.00   0.00  -0.00
  26   1    -0.01   0.12  -0.00    -0.04   0.42  -0.01    -0.03   0.35  -0.00
  27   1    -0.16   0.02  -0.01    -0.57   0.06  -0.02    -0.47   0.05  -0.02
  28   1    -0.11  -0.01  -0.00     0.49   0.05   0.00    -0.57  -0.06  -0.00
  29   1    -0.01  -0.08   0.00     0.04   0.37  -0.01    -0.04  -0.42   0.01
  30   1     0.00  -0.00  -0.00    -0.00   0.01  -0.00     0.00  -0.01   0.00
  31   1    -0.00   0.01   0.00    -0.00   0.00   0.00     0.00  -0.03  -0.00
  32   1    -0.01   0.00   0.00    -0.00   0.00   0.00     0.02  -0.00  -0.00
  33   1    -0.00   0.00  -0.00     0.00   0.00   0.00     0.00  -0.00   0.00
  34   1    -0.01  -0.00  -0.00     0.01   0.00   0.00     0.02   0.00   0.00
  35   1    -0.00  -0.01  -0.00     0.00   0.01   0.00     0.00   0.02   0.00
  36   1     0.00   0.00   0.00     0.00   0.01   0.00     0.00   0.01   0.00
  37   6    -0.00  -0.00   0.00    -0.00  -0.00   0.00    -0.00   0.00  -0.00
  38   6     0.00   0.00  -0.00     0.00   0.00  -0.00     0.00  -0.00   0.00
  39   6     0.00   0.00  -0.00    -0.00   0.00  -0.00    -0.00  -0.00  -0.00
  40   6    -0.00   0.00   0.00     0.00  -0.00  -0.00     0.00   0.00  -0.00
  41   6     0.00   0.00   0.00    -0.00   0.00  -0.00    -0.00  -0.00  -0.00
  42   6    -0.00  -0.00  -0.00     0.00  -0.00   0.00    -0.00   0.00   0.00
  43  27    -0.00   0.00   0.00     0.00   0.00  -0.00     0.00  -0.00  -0.00
  44   6     0.01  -0.14  -0.02     0.00  -0.00  -0.00    -0.00   0.03   0.00
  45   6     0.17  -0.01  -0.00     0.00  -0.00  -0.00    -0.04   0.00   0.00
  46   6     0.00   0.01   0.00     0.00   0.00   0.00    -0.00  -0.00  -0.00
  47   6     0.00  -0.00  -0.00    -0.00  -0.00   0.00    -0.00   0.00   0.00
  48   6     0.00  -0.01   0.00    -0.00   0.00  -0.00    -0.00   0.00  -0.00
  49   6     0.14   0.01  -0.00    -0.03  -0.00   0.00    -0.04  -0.00   0.00
  50   6     0.00   0.11  -0.01    -0.00  -0.02   0.00    -0.00  -0.03   0.00
  51   6    -0.00   0.00   0.00     0.00  -0.00  -0.00     0.00  -0.00  -0.00
  52   7    -0.00  -0.00   0.00     0.00   0.00  -0.00     0.00   0.00  -0.00
  53   6     0.00   0.00  -0.00    -0.00  -0.00   0.00    -0.00  -0.00   0.00
  54   6     0.00  -0.00  -0.00    -0.00  -0.00   0.00    -0.00  -0.00   0.00
  55   6    -0.00   0.01  -0.00     0.00  -0.00   0.00     0.00  -0.01   0.00
  56   6    -0.01   0.00   0.00     0.00  -0.00  -0.00     0.00  -0.00  -0.00
  57   6    -0.00  -0.00   0.00     0.00   0.00  -0.00     0.00   0.00  -0.00
  58   7    -0.00  -0.00   0.00    -0.00   0.00  -0.00    -0.00   0.00   0.00
  59   6    -0.00  -0.00   0.00     0.00  -0.00  -0.00     0.00   0.00  -0.00
  60   6    -0.00   0.00   0.00     0.00  -0.00  -0.00     0.00  -0.00  -0.00
  61   6    -0.01  -0.00   0.00     0.00   0.00  -0.00     0.00   0.00  -0.00
  62   6    -0.00  -0.01  -0.00     0.00   0.00   0.00     0.00   0.01   0.00
  63   6     0.00   0.00  -0.00    -0.00   0.00   0.00    -0.00   0.00   0.00
  64   7    -0.00   0.00   0.00    -0.00  -0.00  -0.00    -0.00  -0.00   0.00
  65   6     0.00  -0.00  -0.00     0.00  -0.00  -0.00    -0.00   0.00   0.00
  66   6    -0.01  -0.00   0.00    -0.00  -0.00   0.00     0.00   0.00   0.00
  67   7    -0.00   0.00   0.00    -0.00   0.00   0.00     0.00  -0.00  -0.00
  68   1    -0.05   0.43   0.05    -0.00   0.01   0.00     0.01  -0.10  -0.01
  69   1    -0.56   0.06   0.00    -0.01   0.00   0.00     0.14  -0.01  -0.00
  70   1    -0.46  -0.06   0.02     0.09   0.01  -0.00     0.12   0.02  -0.00
  71   1    -0.03  -0.36   0.05     0.01   0.07  -0.01     0.01   0.09  -0.01
  72   1     0.00  -0.01   0.00    -0.00   0.00  -0.00    -0.00   0.00  -0.00
  73   1     0.00  -0.02   0.00    -0.00   0.00  -0.00    -0.00   0.02  -0.00
  74   1     0.02  -0.00  -0.00    -0.00   0.00   0.00    -0.01   0.00   0.00
  75   1     0.00   0.00  -0.00    -0.00   0.00   0.00    -0.00  -0.00   0.00
  76   1     0.02   0.00  -0.00    -0.00  -0.00   0.00    -0.02  -0.00   0.00
  77   1     0.00   0.02   0.00    -0.00  -0.00  -0.00    -0.00  -0.02  -0.00
  78   1     0.00   0.01   0.00     0.00   0.00   0.00    -0.00  -0.00  -0.00
