      -----------------------------------------------------------      
     |                   =====================                   |     
     |                           x T B                           |     
     |                   =====================                   |     
     |                         S. Grimme                         |     
     |          Mulliken Center for Theoretical Chemistry        |     
     |                    University of Bonn                     |     
      -----------------------------------------------------------      

   * xtb version 6.4.1 (bd6e46d) compiled by 'conda@4901f00b25ba' on 2021-06-10

   xtb is free software: you can redistribute it and/or modify it under
   the terms of the GNU Lesser General Public License as published by
   the Free Software Foundation, either version 3 of the License, or
   (at your option) any later version.
   
   xtb is distributed in the hope that it will be useful,
   but WITHOUT ANY WARRANTY; without even the implied warranty of
   MERCHANTABILITY or FITNESS FOR A PARTICULAR PURPOSE.  See the
   GNU Lesser General Public License for more details.
   
   Cite this work as:
   * C. Bannwarth, E. Caldeweyher, S. Ehlert, A. Hansen, P. Pracht,
     J. Seibert, S. Spicher, S. Grimme, WIREs Comput. Mol. Sci., 2020, 11,
     e01493. DOI: 10.1002/wcms.1493
   
   for GFN2-xTB:
   * C. Bannwarth, S. Ehlert and S. Grimme., J. Chem. Theory Comput., 2019,
     15, 1652-1671. DOI: 10.1021/acs.jctc.8b01176
   for GFN1-xTB:
   * S. Grimme, C. Bannwarth, P. Shushkov, J. Chem. Theory Comput., 2017,
     13, 1989-2009. DOI: 10.1021/acs.jctc.7b00118
   for GFN0-xTB:
   * P. Pracht, E. Caldeweyher, S. Ehlert, S. Grimme, ChemRxiv, 2019, preprint.
     DOI: 10.26434/chemrxiv.8326202.v1
   for GFN-FF:
   * S. Spicher and S. Grimme, Angew. Chem. Int. Ed., 2020, 59, 15665-15673.
     DOI: 10.1002/anie.202004239
   
   for DFT-D4:
   * E. Caldeweyher, C. Bannwarth and S. Grimme, J. Chem. Phys., 2017,
     147, 034112. DOI: 10.1063/1.4993215
   * E. Caldeweyher, S. Ehlert, A. Hansen, H. Neugebauer, S. Spicher,
     C. Bannwarth and S. Grimme, J. Chem. Phys., 2019, 150, 154122.
     DOI: 10.1063/1.5090222
   * E. Caldeweyher, J.-M. Mewes, S. Ehlert and S. Grimme, Phys. Chem. Chem. Phys.
     2020, 22, 8499-8512. DOI: 10.1039/D0CP00502A
   
   for sTDA-xTB:
   * S. Grimme and C. Bannwarth, J. Chem. Phys., 2016, 145, 054103.
     DOI: 10.1063/1.4959605
   
   in the mass-spec context:
   * V. Asgeirsson, C. Bauer and S. Grimme, Chem. Sci., 2017, 8, 4879.
     DOI: 10.1039/c7sc00601b
   * J. Koopman and S. Grimme, ACS Omega 2019, 4, 12, 15120-15133.
     DOI: 10.1021/acsomega.9b02011
   
   for metadynamics refer to:
   * S. Grimme, J. Chem. Theory Comput., 2019, 155, 2847-2862
     DOI: 10.1021/acs.jctc.9b00143
   
   for SPH calculations refer to:
   * S. Spicher and S. Grimme, J. Chem. Theory Comput., 2021, 17, 1701-1714
     DOI: 10.1021/acs.jctc.0c01306
   
   with help from (in alphabetical order)
   P. Atkinson, C. Bannwarth, F. Bohle, G. Brandenburg, E. Caldeweyher
   M. Checinski, S. Dohm, S. Ehlert, S. Ehrlich, I. Gerasimov, J. Koopman
   C. Lavigne, S. Lehtola, F. März, M. Müller, F. Musil, H. Neugebauer
   J. Pisarek, C. Plett, P. Pracht, J. Seibert, P. Shushkov, S. Spicher
   M. Stahn, M. Steiner, T. Strunk, J. Stückrath, T. Rose, and J. Unsleber
   
 * started run on 2021/11/19 at 10:50:39.662     

           -------------------------------------------------
          |                Calculation Setup                |
           -------------------------------------------------

          program call               : /home/jeff/miniconda3/bin/xtb input_structure_1.xyz --gfn 2 --ohess normal --parallel 1 --etemp 300 --chrg 0 --uhf 0 -I det_control.in
          hostname                   : jelfscompute1
          coordinate file            : input_structure_1.xyz
          omp threads                :                     1
          number of atoms            :                    78
          number of electrons        :                   264
          charge                     :                     0
          spin                       :                   0.0
          first test random number   :      0.25781851552338

   ID    Z sym.   atoms
    1   27 Co     1, 43
    2    6 C      2-9, 11-15, 17-21, 23, 24, 37-42, 44-51, 53-57, 59-63, 65,
                  66
    3    7 N      10, 16, 22, 25, 52, 58, 64, 67
    4    1 H      26-36, 68-78

           -------------------------------------------------
          |                 G F N 2 - x T B                 |
           -------------------------------------------------

        Reference                      10.1021/acs.jctc.8b01176
      * Hamiltonian:
        H0-scaling (s, p, d)           1.850000    2.230000    2.230000
        zeta-weighting                 0.500000
      * Dispersion:
        s8                             2.700000
        a1                             0.520000
        a2                             5.000000
        s9                             5.000000
      * Repulsion:
        kExp                           1.500000    1.000000
        rExp                           1.000000
      * Coulomb:
        alpha                          2.000000
        third order                    shell-resolved
        anisotropic                    true
        a3                             3.000000
        a5                             4.000000
        cn-shift                       1.200000
        cn-exp                         4.000000
        max-rad                        5.000000


          ...................................................
          :                      SETUP                      :
          :.................................................:
          :  # basis functions                 258          :
          :  # atomic orbitals                 256          :
          :  # shells                          136          :
          :  # electrons                       264          :
          :  max. iterations                   250          :
          :  Hamiltonian                  GFN2-xTB          :
          :  restarted?                      false          :
          :  GBSA solvation                  false          :
          :  PC potential                    false          :
          :  electronic temp.          300.0000000     K    :
          :  accuracy                    1.0000000          :
          :  -> integral cutoff          0.2500000E+02      :
          :  -> integral neglect         0.1000000E-07      :
          :  -> SCF convergence          0.1000000E-05 Eh   :
          :  -> wf. convergence          0.1000000E-03 e    :
          :  Broyden damping             0.4000000          :
          ...................................................

 iter      E             dE          RMSdq      gap      omega  full diag
   1   -141.5282927 -0.141528E+03  0.848E+00    0.32       0.0  T
   2   -128.8263002  0.127020E+02  0.951E+00    0.03       1.0  T
   3   -111.3883562  0.174379E+02  0.110E+01    0.13       1.0  T
   4   -138.5506407 -0.271623E+02  0.694E+00    0.31       1.0  T
   5   -129.4750716  0.907557E+01  0.662E+00    0.07       1.0  T
   6   -139.2141466 -0.973907E+01  0.503E+00    0.21       1.0  T
   7   -142.1173355 -0.290319E+01  0.303E+00    0.36       1.0  T
   8   -142.3086752 -0.191340E+00  0.272E+00    0.25       1.0  T
   9   -142.3467808 -0.381056E-01  0.257E+00    0.28       1.0  T
  10   -142.3543418 -0.756100E-02  0.255E+00    0.27       1.0  T
  11   -142.4634652 -0.109123E+00  0.203E+00    0.23       1.0  T
  12   -142.2926840  0.170781E+00  0.203E+00    0.05       1.0  T
  13   -142.3043277 -0.116437E-01  0.192E+00    0.04       1.0  T
  14   -141.6770384  0.627289E+00  0.310E+00    0.01       1.0  T
  15   -142.3584226 -0.681384E+00  0.182E+00    0.03       1.0  T
  16   -142.3560215  0.240110E-02  0.184E+00    0.03       1.0  T
  17   -142.5750358 -0.219014E+00  0.108E+00    0.02       1.0  T
  18   -142.2765666  0.298469E+00  0.199E+00    0.04       1.0  T
  19   -142.3795696 -0.103003E+00  0.170E+00    0.04       1.0  T
  20   -142.6823293 -0.302760E+00  0.512E-01    0.01       1.0  T
  21   -142.4762797  0.206050E+00  0.147E+00    0.04       1.0  T
  22   -142.5058748 -0.295951E-01  0.136E+00    0.04       1.0  T
  23   -142.6904066 -0.184532E+00  0.354E-01    0.01       1.0  T
  24   -142.6058713  0.845353E-01  0.927E-01    0.03       1.0  T
  25   -142.6981203 -0.922490E-01  0.235E-01    0.01       1.0  T
  26   -142.6719687  0.261516E-01  0.526E-01    0.02       1.0  T
  27   -142.6913627 -0.193940E-01  0.330E-01    0.01       1.0  T
  28   -142.6902611  0.110166E-02  0.331E-01    0.01       1.0  T
  29   -142.6907154 -0.454340E-03  0.321E-01    0.01       1.0  T
  30   -142.7028176 -0.121022E-01  0.521E-02    0.01       1.0  T
  31   -142.7024690  0.348567E-03  0.810E-02    0.01       1.0  T
  32   -142.6993518  0.311718E-02  0.182E-01    0.01       1.0  T
  33   -142.7023295 -0.297763E-02  0.830E-02    0.01       1.0  T
  34   -142.7002025  0.212697E-02  0.158E-01    0.01       1.0  T
  35   -142.7029007 -0.269822E-02  0.429E-02    0.01       1.0  T
  36   -142.7029821 -0.813479E-04  0.335E-02    0.01       1.0  T
  37   -142.7031026 -0.120579E-03  0.926E-03    0.01       1.2  T
  38   -142.7031119 -0.927850E-05  0.168E-03    0.01       6.7  T
  39   -142.7031120 -0.771213E-07  0.100E-03    0.01      11.3  T
  40   -142.7031108  0.114733E-05  0.319E-03    0.01       3.5  T
  41   -142.7031114 -0.532969E-06  0.235E-03    0.01       4.8  T
  42   -142.7031117 -0.294049E-06  0.175E-03    0.01       6.5  T
  43   -142.7031117 -0.651489E-07  0.157E-03    0.01       7.2  T
  44   -142.7031120 -0.270536E-06  0.397E-04    0.01      28.5  T
  45   -142.7031120 -0.839933E-08  0.329E-04    0.01      34.4  T

   *** convergence criteria satisfied after 45 iterations ***

         #    Occupation            Energy/Eh            Energy/eV
      -------------------------------------------------------------
         1        2.0000           -0.6863919             -18.6777
       ...           ...                  ...                  ...
       126        1.9804           -0.3426121              -9.3230
       127        1.9636           -0.3420170              -9.3068
       128        1.9043           -0.3410685              -9.2809
       129        1.8643           -0.3407160              -9.2714
       130        1.8079           -0.3403569              -9.2616
       131        1.6851           -0.3398207              -9.2470
       132        1.4465           -0.3391396              -9.2285 (HOMO)
       133        1.3534           -0.3389287              -9.2227 (LUMO)
       134                         -0.3194364              -8.6923
       135                         -0.3066018              -8.3431
       136                         -0.3028851              -8.2419
       137                         -0.3004736              -8.1763
       ...                                ...                  ...
       256                          2.9384858              79.9603
      -------------------------------------------------------------
                  HL-Gap            0.0002110 Eh            0.0057 eV
             Fermi-level           -0.3382270 Eh           -9.2036 eV

 SCC (total)                   0 d,  0 h,  0 min,  0.698 sec
 SCC setup                      ...        0 min,  0.001 sec (  0.211%)
 Dispersion                     ...        0 min,  0.003 sec (  0.423%)
 classical contributions        ...        0 min,  0.001 sec (  0.078%)
 integral evaluation            ...        0 min,  0.029 sec (  4.129%)
 iterations                     ...        0 min,  0.583 sec ( 83.496%)
 molecular gradient             ...        0 min,  0.080 sec ( 11.504%)
 printout                       ...        0 min,  0.001 sec (  0.157%)

         :::::::::::::::::::::::::::::::::::::::::::::::::::::
         ::                     SUMMARY                     ::
         :::::::::::::::::::::::::::::::::::::::::::::::::::::
         :: total energy            -139.670740367311 Eh    ::
         :: gradient norm              1.603034351117 Eh/a0 ::
         :: HOMO-LUMO gap              0.005740614608 eV    ::
         ::.................................................::
         :: SCC energy              -142.703112012466 Eh    ::
         :: -> isotropic ES            0.049308596019 Eh    ::
         :: -> anisotropic ES          0.016627537111 Eh    ::
         :: -> anisotropic XC          0.089226808985 Eh    ::
         :: -> dispersion             -0.117391326755 Eh    ::
         :: repulsion energy           3.032536214488 Eh    ::
         :: add. restraining           0.000000000000 Eh    ::
         :: total charge               0.000000000026 e     ::
         :::::::::::::::::::::::::::::::::::::::::::::::::::::

      ----------------------------------------------------------- 
     |                   =====================                   |
     |                        A N C O P T                        |
     |                   =====================                   |
     |               Approximate Normal Coordinate               |
     |                Rational Function Optimizer                |
      ----------------------------------------------------------- 

          ...................................................
          :                      SETUP                      :
          :.................................................:
          :   optimization level            normal          :
          :   max. optcycles                   234          :
          :   ANC micro-cycles                  20          :
          :   degrees of freedom               228          :
          :.................................................:
          :   RF solver                   davidson          :
          :   write xtbopt.log                true          :
          :   linear?                        false          :
          :   energy convergence         0.5000000E-05 Eh   :
          :   grad. convergence          0.1000000E-02 Eh/α :
          :   maximium RF displ.         1.0000000          :
          :   Hlow (freq-cutoff)         0.1000000E-01      :
          :   Hmax (freq-cutoff)         5.0000000          :
          :   S6 in model hess.         20.0000000          :
          ...................................................

generating ANC from model Hessian ...
Using Lindh-Hessian (1995)
 Shifting diagonal of input Hessian by    1.0028689730541536E-002
 Lowest  eigenvalues of input Hessian
    0.010000    0.010003    0.010007    0.000000    0.000000    0.000000
    0.000000    0.000000    0.000000    0.010079    0.010228    0.010781
    0.011079    0.011231    0.011470    0.011769    0.011898    0.012193
 Highest eigenvalues
    2.226775    2.628022    2.844493    2.912028    3.722891    3.821033


........................................................................
.............................. CYCLE    1 ..............................
........................................................................
   1   -142.7031120 -0.142703E+03  0.235E-04    0.01       0.0  T
   2   -142.7030596  0.524004E-04  0.208E-02    0.01       1.0  T
   3   -142.7031118 -0.521450E-04  0.147E-03    0.01       7.7  T
   4   -142.7031120 -0.257708E-06  0.195E-04    0.01      58.2  T
   5   -142.7031120 -0.321853E-08  0.538E-05    0.01     210.6  T
     SCC iter.                  ...        0 min,  0.060 sec
     gradient                   ...        0 min,  0.080 sec
 * total energy  :  -139.6707404 Eh     change       -0.1073701E-07 Eh
   gradient norm :     1.6030346 Eh/α   predicted     0.0000000E+00 (-100.00%)
   displ. norm   :     0.5359597 α      lambda       -0.7694800E+00
   maximum displ.:     0.2225614 α      in ANC's #228, #182, #227, ...

........................................................................
.............................. CYCLE    2 ..............................
........................................................................
   1   -142.7275335 -0.142728E+03  0.629E-01    0.01       0.0  T
   2   -141.4198946  0.130764E+01  0.324E+00    0.03       1.0  T
   3   -142.4642565 -0.104436E+01  0.159E+00    0.03       1.0  T
   4   -142.4285038  0.357527E-01  0.169E+00    0.04       1.0  T
   5   -142.6187736 -0.190270E+00  0.108E+00    0.04       1.0  T
   6   -142.5237425  0.950311E-01  0.142E+00    0.02       1.0  T
   7   -142.4844192  0.393233E-01  0.149E+00    0.02       1.0  T
   8   -142.7445167 -0.260097E+00  0.301E-01    0.01       1.0  T
   9   -142.7197045  0.248122E-01  0.545E-01    0.02       1.0  T
  10   -142.7467754 -0.270709E-01  0.258E-01    0.01       1.0  T
  11   -142.7347585  0.120169E-01  0.404E-01    0.02       1.0  T
  12   -142.7531085 -0.183500E-01  0.875E-02    0.00       1.0  T
  13   -142.7519858  0.112269E-02  0.130E-01    0.00       1.0  T
  14   -142.7530703 -0.108453E-02  0.852E-02    0.00       1.0  T
  15   -142.7538580 -0.787642E-03  0.189E-02    0.00       1.0  T
  16   -142.7538978 -0.398427E-04  0.645E-03    0.00       1.8  T
  17   -142.7538338  0.639877E-04  0.241E-02    0.00       1.0  T
  18   -142.7538793 -0.455043E-04  0.142E-02    0.00       1.0  T
  19   -142.7538977 -0.183999E-04  0.679E-03    0.00       1.7  T
  20   -142.7539028 -0.505292E-05  0.172E-03    0.00       6.6  T
  21   -142.7539031 -0.314635E-06  0.394E-04    0.00      28.7  T
  22   -142.7539030  0.109154E-06  0.104E-03    0.00      10.9  T
  23   -142.7539030 -0.603626E-07  0.753E-04    0.00      15.0  T
     SCC iter.                  ...        0 min,  0.275 sec
     gradient                   ...        0 min,  0.080 sec
 * total energy  :  -140.1065759 Eh     change       -0.4358356E+00 Eh
   gradient norm :     0.4149528 Eh/α   predicted    -0.4952718E+00 (  13.64%)
   displ. norm   :     0.5608914 α      lambda       -0.1638202E+00
   maximum displ.:     0.2240443 α      in ANC's #79, #70, #71, ...

........................................................................
.............................. CYCLE    3 ..............................
........................................................................
   1   -142.6701434 -0.142670E+03  0.982E-01    0.01       0.0  T
   2   -129.4302024  0.132399E+02  0.944E+00    0.68       1.0  T
   3   -142.3054239 -0.128752E+02  0.221E+00    0.04       1.0  T
   4   -142.4155327 -0.110109E+00  0.174E+00    0.04       1.0  T
   5   -142.7478833 -0.332351E+00  0.518E-01    0.02       1.0  T
   6   -142.7667107 -0.188274E-01  0.240E-01    0.01       1.0  T
   7   -142.7307904  0.359203E-01  0.611E-01    0.03       1.0  T
   8   -142.7405798 -0.978937E-02  0.541E-01    0.02       1.0  T
   9   -142.7677262 -0.271465E-01  0.206E-01    0.01       1.0  T
  10   -142.7501661  0.175601E-01  0.449E-01    0.02       1.0  T
  11   -142.7734833 -0.233172E-01  0.379E-02    0.00       1.0  T
  12   -142.7736723 -0.189045E-03  0.205E-02    0.00       1.0  T
  13   -142.7735139  0.158432E-03  0.342E-02    0.00       1.0  T
  14   -142.7736850 -0.171143E-03  0.970E-03    0.00       1.2  T
  15   -142.7735964  0.886428E-04  0.298E-02    0.00       1.0  T
  16   -142.7735144  0.820060E-04  0.396E-02    0.00       1.0  T
  17   -142.7736379 -0.123553E-03  0.220E-02    0.00       1.0  T
  18   -142.7736858 -0.478742E-04  0.560E-03    0.00       2.0  T
  19   -142.7736876 -0.183007E-05  0.277E-03    0.00       4.1  T
  20   -142.7736877 -0.865053E-07  0.210E-03    0.00       5.4  T
  21   -142.7736861  0.155330E-05  0.402E-03    0.00       2.8  T
  22   -142.7736875 -0.134832E-05  0.207E-03    0.00       5.5  T
  23   -142.7736879 -0.430200E-06  0.587E-04    0.00      19.3  T
  24   -142.7736880 -0.404915E-07  0.212E-04    0.00      53.3  T
     SCC iter.                  ...        0 min,  0.286 sec
     gradient                   ...        0 min,  0.080 sec
 * total energy  :  -140.2313733 Eh     change       -0.1247974E+00 Eh
   gradient norm :     0.2083003 Eh/α   predicted    -0.1076791E+00 ( -13.72%)
   displ. norm   :     0.6700462 α      lambda       -0.9590945E-01
   maximum displ.:     0.2743546 α      in ANC's #79, #55, #39, ...

........................................................................
.............................. CYCLE    4 ..............................
........................................................................
   1   -142.7084761 -0.142708E+03  0.102E+00    0.01       0.0  T
   2   -129.4277679  0.132807E+02  0.938E+00    0.74       1.0  T
   3   -142.3904648 -0.129627E+02  0.207E+00    0.04       1.0  T
   4   -142.4771471 -0.866823E-01  0.168E+00    0.04       1.0  T
   5   -142.7783453 -0.301198E+00  0.605E-01    0.03       1.0  T
   6   -142.6215473  0.156798E+00  0.123E+00    0.01       1.0  T
   7   -142.7903872 -0.168840E+00  0.499E-01    0.01       1.0  T
   8   -142.7048100  0.855772E-01  0.966E-01    0.04       1.0  T
   9   -142.7975327 -0.927228E-01  0.433E-01    0.02       1.0  T
  10   -142.8153111 -0.177784E-01  0.202E-01    0.01       1.0  T
  11   -142.8166380 -0.132685E-02  0.167E-01    0.01       1.0  T
  12   -142.8194877 -0.284972E-02  0.359E-02    0.00       1.0  T
  13   -142.8190418  0.445848E-03  0.803E-02    0.01       1.0  T
  14   -142.8195702 -0.528353E-03  0.380E-02    0.01       1.0  T
  15   -142.8196727 -0.102466E-03  0.138E-02    0.01       1.0  T
  16   -142.8196249  0.477647E-04  0.192E-02    0.00       1.0  T
  17   -142.8196559 -0.309708E-04  0.151E-02    0.01       1.0  T
  18   -142.8196795 -0.236278E-04  0.179E-03    0.01       6.3  T
  19   -142.8196776  0.192571E-05  0.468E-03    0.01       2.4  T
  20   -142.8196754  0.216967E-05  0.618E-03    0.01       1.8  T
  21   -142.8196785 -0.310954E-05  0.334E-03    0.01       3.4  T
  22   -142.8196797 -0.115804E-05  0.717E-04    0.01      15.8  T
  23   -142.8196797 -0.981913E-08  0.554E-04    0.01      20.5  T
  24   -142.8196797 -0.187042E-07  0.228E-04    0.01      49.6  T
     SCC iter.                  ...        0 min,  0.284 sec
     gradient                   ...        0 min,  0.080 sec
 * total energy  :  -140.3040987 Eh     change       -0.7272537E-01 Eh
   gradient norm :     0.0907431 Eh/α   predicted    -0.6948486E-01 (  -4.46%)
   displ. norm   :     0.7189576 α      lambda       -0.5277707E-01
   maximum displ.:     0.3004660 α      in ANC's #55, #39, #79, ...

........................................................................
.............................. CYCLE    5 ..............................
........................................................................
   1   -142.7722171 -0.142772E+03  0.942E-01    0.03       0.0  T
   2   -129.6959604  0.130763E+02  0.926E+00    0.79       1.0  T
   3   -142.4737071 -0.127777E+02  0.191E+00    0.04       1.0  T
   4   -142.7022655 -0.228558E+00  0.114E+00    0.04       1.0  T
   5   -142.5972286  0.105037E+00  0.147E+00    0.02       1.0  T
   6   -142.5805343  0.166944E-01  0.151E+00    0.02       1.0  T
   7   -142.7732268 -0.192692E+00  0.841E-01    0.02       1.0  T
   8   -142.8509055 -0.776787E-01  0.303E-01    0.02       1.0  T
   9   -142.8523807 -0.147519E-02  0.282E-01    0.02       1.0  T
  10   -142.8572234 -0.484274E-02  0.167E-01    0.00       1.0  T
  11   -142.8593616 -0.213819E-02  0.136E-01    0.01       1.0  T
  12   -142.8554373  0.392435E-02  0.226E-01    0.02       1.0  T
  13   -142.8559575 -0.520271E-03  0.215E-01    0.02       1.0  T
  14   -142.8569704 -0.101289E-02  0.193E-01    0.01       1.0  T
  15   -142.8601838 -0.321333E-02  0.954E-02    0.01       1.0  T
  16   -142.8609272 -0.743485E-03  0.483E-02    0.01       1.0  T
  17   -142.8606778  0.249484E-03  0.653E-02    0.01       1.0  T
  18   -142.8610812 -0.403488E-03  0.260E-02    0.01       1.0  T
  19   -142.8611516 -0.703609E-04  0.608E-03    0.01       1.9  T
  20   -142.8611458  0.582837E-05  0.902E-03    0.01       1.3  T
  21   -142.8611545 -0.870989E-05  0.215E-03    0.01       5.3  T
  22   -142.8611550 -0.497768E-06  0.108E-04    0.01     104.7  T
  23   -142.8611550 -0.876327E-09  0.348E-05    0.01     325.8  T
     SCC iter.                  ...        0 min,  0.274 sec
     gradient                   ...        0 min,  0.080 sec
 * total energy  :  -140.3464853 Eh     change       -0.4238657E-01 Eh
   gradient norm :     0.0670207 Eh/α   predicted    -0.4002877E-01 (  -5.56%)
   displ. norm   :     0.7356126 α      lambda       -0.3481137E-01
   maximum displ.:     0.3214523 α      in ANC's #39, #55, #79, ...

........................................................................
.............................. CYCLE    6 ..............................
........................................................................
   1   -142.8292787 -0.142829E+03  0.816E-01    0.03       0.0  T
   2   -130.9337951  0.118955E+02  0.884E+00    0.11       1.0  T
   3   -142.5251177 -0.115913E+02  0.183E+00    0.03       1.0  T
   4   -142.7851473 -0.260030E+00  0.952E-01    0.04       1.0  T
   5   -142.5793524  0.205795E+00  0.162E+00    0.04       1.0  T
   6   -142.5809184 -0.156591E-02  0.161E+00    0.04       1.0  T
   7   -142.8655325 -0.284614E+00  0.486E-01    0.02       1.0  T
   8   -142.8790394 -0.135069E-01  0.370E-01    0.02       1.0  T
   9   -142.8702767  0.876276E-02  0.439E-01    0.01       1.0  T
  10   -142.8900979 -0.198213E-01  0.197E-01    0.00       1.0  T
  11   -142.8901422 -0.442522E-04  0.215E-01    0.01       1.0  T
  12   -142.8950672 -0.492503E-02  0.482E-02    0.00       1.0  T
  13   -142.8943103  0.756878E-03  0.102E-01    0.01       1.0  T
  14   -142.8946337 -0.323373E-03  0.851E-02    0.01       1.0  T
  15   -142.8952247 -0.590962E-03  0.412E-02    0.01       1.0  T
  16   -142.8953395 -0.114836E-03  0.194E-02    0.01       1.0  T
  17   -142.8952707  0.688306E-04  0.296E-02    0.01       1.0  T
  18   -142.8953129 -0.422532E-04  0.209E-02    0.01       1.0  T
  19   -142.8953574 -0.444245E-04  0.714E-03    0.01       1.6  T
  20   -142.8953631 -0.575292E-05  0.705E-04    0.01      16.1  T
  21   -142.8953630  0.651368E-07  0.858E-04    0.01      13.2  T
  22   -142.8953631 -0.651278E-07  0.457E-04    0.01      24.8  T
     SCC iter.                  ...        0 min,  0.261 sec
     gradient                   ...        0 min,  0.080 sec
 * total energy  :  -140.3748025 Eh     change       -0.2831723E-01 Eh
   gradient norm :     0.0563817 Eh/α   predicted    -0.2682435E-01 (  -5.27%)
   displ. norm   :     0.7205086 α      lambda       -0.2317111E-01
   maximum displ.:     0.3171690 α      in ANC's #39, #55, #17, ...

........................................................................
.............................. CYCLE    7 ..............................
........................................................................
   1   -142.8787666 -0.142879E+03  0.677E-01    0.02       0.0  T
   2   -136.3648407  0.651393E+01  0.670E+00    0.01       1.0  T
   3   -142.5598032 -0.619496E+01  0.178E+00    0.03       1.0  T
   4   -142.8891706 -0.329367E+00  0.547E-01    0.03       1.0  T
   5   -142.6070602  0.282110E+00  0.162E+00    0.04       1.0  T
   6   -142.6674468 -0.603866E-01  0.142E+00    0.04       1.0  T
   7   -142.6144397  0.530072E-01  0.158E+00    0.04       1.0  T
   8   -142.7024882 -0.880485E-01  0.132E+00    0.03       1.0  T
   9   -142.7173523 -0.148641E-01  0.128E+00    0.04       1.0  T
  10   -142.8762907 -0.158938E+00  0.605E-01    0.03       1.0  T
  11   -142.9206558 -0.443651E-01  0.130E-01    0.01       1.0  T
  12   -142.9014391  0.192167E-01  0.414E-01    0.02       1.0  T
  13   -142.9222801 -0.208410E-01  0.367E-02    0.01       1.0  T
  14   -142.9222869 -0.679478E-05  0.264E-02    0.01       1.0  T
  15   -142.9210984  0.118858E-02  0.105E-01    0.01       1.0  T
  16   -142.9216756 -0.577224E-03  0.766E-02    0.01       1.0  T
  17   -142.9222237 -0.548087E-03  0.308E-02    0.01       1.0  T
  18   -142.9219646  0.259033E-03  0.554E-02    0.01       1.0  T
  19   -142.9222976 -0.332987E-03  0.104E-02    0.01       1.1  T
  20   -142.9222964  0.121888E-05  0.927E-03    0.01       1.2  T
  21   -142.9223038 -0.742117E-05  0.287E-03    0.01       3.9  T
  22   -142.9223041 -0.230877E-06  0.182E-03    0.01       6.2  T
  23   -142.9223042 -0.118550E-06  0.145E-03    0.00       7.8  T
  24   -142.9223044 -0.233078E-06  0.475E-04    0.00      23.8  T
  25   -142.9223044  0.305528E-08  0.505E-04    0.00      22.4  T
     SCC iter.                  ...        0 min,  0.305 sec
     gradient                   ...        0 min,  0.080 sec
 * total energy  :  -140.3932275 Eh     change       -0.1842497E-01 Eh
   gradient norm :     0.0384792 Eh/α   predicted    -0.1760000E-01 (  -4.48%)
   displ. norm   :     0.6894827 α      lambda       -0.1389370E-01
   maximum displ.:     0.2954229 α      in ANC's #17, #9, #39, ...

........................................................................
.............................. CYCLE    8 ..............................
........................................................................
   1   -142.9153068 -0.142915E+03  0.543E-01    0.01       0.0  T
   2   -141.6545784  0.126073E+01  0.315E+00    0.01       1.0  T
   3   -142.6334539 -0.978875E+00  0.160E+00    0.03       1.0  T
   4   -142.7407545 -0.107301E+00  0.127E+00    0.03       1.0  T
   5   -142.6432137  0.975407E-01  0.156E+00    0.03       1.0  T
   6   -142.7358793 -0.926656E-01  0.128E+00    0.03       1.0  T
   7   -142.9015732 -0.165694E+00  0.566E-01    0.02       1.0  T
   8   -142.8420152  0.595581E-01  0.897E-01    0.03       1.0  T
   9   -142.8344560  0.755913E-02  0.931E-01    0.03       1.0  T
  10   -142.9221318 -0.876758E-01  0.395E-01    0.02       1.0  T
  11   -142.9408539 -0.187221E-01  0.616E-02    0.01       1.0  T
  12   -142.9408715 -0.175526E-04  0.593E-02    0.01       1.0  T
  13   -142.9412010 -0.329505E-03  0.278E-02    0.00       1.0  T
  14   -142.9410514  0.149576E-03  0.450E-02    0.01       1.0  T
  15   -142.9409043  0.147145E-03  0.563E-02    0.01       1.0  T
  16   -142.9412783 -0.374041E-03  0.118E-02    0.01       1.0  T
  17   -142.9412939 -0.156332E-04  0.361E-03    0.01       3.1  T
  18   -142.9412955 -0.156890E-05  0.593E-04    0.01      19.1  T
  19   -142.9412953  0.230356E-06  0.148E-03    0.01       7.7  T
  20   -142.9412955 -0.263801E-06  0.218E-04    0.01      52.0  T
  21   -142.9412955  0.825775E-07  0.845E-04    0.01      13.4  T
     SCC iter.                  ...        0 min,  0.248 sec
     gradient                   ...        0 min,  0.080 sec
 * total energy  :  -140.4039764 Eh     change       -0.1074888E-01 Eh
   gradient norm :     0.0261317 Eh/α   predicted    -0.1024930E-01 (  -4.65%)
   displ. norm   :     0.6963782 α      lambda       -0.8772387E-02
   maximum displ.:     0.3471664 α      in ANC's #9, #17, #8, ...

........................................................................
.............................. CYCLE    9 ..............................
........................................................................
   1   -142.9422637 -0.142942E+03  0.365E-01    0.00       0.0  T
   2   -142.5268305  0.415433E+00  0.193E+00    0.03       1.0  T
   3   -142.7845013 -0.257671E+00  0.117E+00    0.03       1.0  T
   4   -142.6384148  0.146087E+00  0.162E+00    0.03       1.0  T
   5   -142.6497806 -0.113659E-01  0.157E+00    0.03       1.0  T
   6   -142.8187903 -0.169010E+00  0.103E+00    0.03       1.0  T
   7   -142.8947383 -0.759480E-01  0.680E-01    0.02       1.0  T
   8   -142.8573500  0.373883E-01  0.872E-01    0.03       1.0  T
   9   -142.9508158 -0.934658E-01  0.551E-02    0.01       1.0  T
  10   -142.9490392  0.177658E-02  0.128E-01    0.01       1.0  T
  11   -142.9436657  0.537348E-02  0.244E-01    0.02       1.0  T
  12   -142.9509553 -0.728956E-02  0.946E-03    0.01       1.2  T
  13   -142.9509492  0.604356E-05  0.113E-02    0.01       1.0  T
  14   -142.9509566 -0.742569E-05  0.809E-03    0.01       1.4  T
  15   -142.9509632 -0.653167E-05  0.351E-03    0.01       3.2  T
  16   -142.9509502  0.129961E-04  0.109E-02    0.01       1.0  T
  17   -142.9509646 -0.144458E-04  0.539E-04    0.01      21.0  T
  18   -142.9509632  0.144358E-05  0.347E-03    0.01       3.3  T
  19   -142.9509646 -0.146526E-05  0.319E-04    0.01      35.5  T
  20   -142.9509646  0.165974E-07  0.487E-04    0.01      23.3  T
  21   -142.9509647 -0.281841E-07  0.816E-05    0.01     138.7  T
     SCC iter.                  ...        0 min,  0.248 sec
     gradient                   ...        0 min,  0.080 sec
 * total energy  :  -140.4099119 Eh     change       -0.5935537E-02 Eh
   gradient norm :     0.0270799 Eh/α   predicted    -0.6513252E-02 (   9.73%)
   displ. norm   :     0.7356783 α      lambda       -0.8518724E-02
   maximum displ.:     0.3869155 α      in ANC's #9, #17, #13, ...

........................................................................
.............................. CYCLE   10 ..............................
........................................................................
   1   -142.9550051 -0.142955E+03  0.298E-01    0.01       0.0  T
   2   -142.5924111  0.362594E+00  0.176E+00    0.03       1.0  T
   3   -142.9209663 -0.328555E+00  0.566E-01    0.01       1.0  T
   4   -142.6527514  0.268215E+00  0.158E+00    0.03       1.0  T
   5   -142.9528457 -0.300094E+00  0.215E-01    0.00       1.0  T
   6   -142.9578540 -0.500828E-02  0.567E-02    0.01       1.0  T
   7   -142.8888234  0.690306E-01  0.749E-01    0.03       1.0  T
   8   -142.9509917 -0.621682E-01  0.241E-01    0.00       1.0  T
   9   -142.9554725 -0.448082E-02  0.148E-01    0.01       1.0  T
  10   -142.9561107 -0.638216E-03  0.128E-01    0.01       1.0  T
  11   -142.9580946 -0.198388E-02  0.212E-02    0.01       1.0  T
  12   -142.9580268  0.677899E-04  0.314E-02    0.01       1.0  T
  13   -142.9580869 -0.600756E-04  0.224E-02    0.01       1.0  T
  14   -142.9581471 -0.602453E-04  0.373E-03    0.01       3.0  T
  15   -142.9581488 -0.163434E-05  0.847E-04    0.01      13.4  T
  16   -142.9581488 -0.586996E-07  0.487E-04    0.01      23.2  T
  17   -142.9581488  0.218226E-07  0.644E-04    0.01      17.6  T
     SCC iter.                  ...        0 min,  0.200 sec
     gradient                   ...        0 min,  0.080 sec
 * total energy  :  -140.4146991 Eh     change       -0.4787248E-02 Eh
   gradient norm :     0.0272368 Eh/α   predicted    -0.6564626E-02 (  37.13%)
   displ. norm   :     0.5721790 α      lambda       -0.4702616E-02
   maximum displ.:     0.3870347 α      in ANC's #9, #17, #8, ...

........................................................................
.............................. CYCLE   11 ..............................
........................................................................
   1   -142.9559695 -0.142956E+03  0.147E-01    0.02       0.0  T
   2   -142.6406191  0.315350E+00  0.160E+00    0.02       1.0  T
   3   -142.9225493 -0.281930E+00  0.524E-01    0.03       1.0  T
   4   -142.7924549  0.130094E+00  0.114E+00    0.01       1.0  T
   5   -142.9217505 -0.129296E+00  0.523E-01    0.03       1.0  T
   6   -142.9528651 -0.311146E-01  0.168E-01    0.01       1.0  T
   7   -142.9442760  0.858907E-02  0.311E-01    0.00       1.0  T
   8   -142.9560794 -0.118034E-01  0.353E-02    0.01       1.0  T
   9   -142.9561353 -0.559057E-04  0.278E-02    0.01       1.0  T
  10   -142.9560070  0.128272E-03  0.425E-02    0.01       1.0  T
  11   -142.9562061 -0.199044E-03  0.151E-02    0.01       1.0  T
  12   -142.9562338 -0.277576E-04  0.218E-03    0.01       5.2  T
  13   -142.9562335  0.315505E-06  0.270E-03    0.01       4.2  T
  14   -142.9562344 -0.832049E-06  0.756E-04    0.01      15.0  T
  15   -142.9562342  0.187161E-06  0.143E-03    0.01       7.9  T
  16   -142.9562344 -0.252173E-06  0.208E-04    0.01      54.5  T
     SCC iter.                  ...        0 min,  0.190 sec
     gradient                   ...        0 min,  0.080 sec
 * total energy  :  -140.4186844 Eh     change       -0.3985266E-02 Eh
   gradient norm :     0.0244567 Eh/α   predicted    -0.3121100E-02 ( -21.68%)
   displ. norm   :     0.7104504 α      lambda       -0.5812474E-02
   maximum displ.:     0.4707943 α      in ANC's #9, #8, #17, ...

........................................................................
.............................. CYCLE   12 ..............................
........................................................................
   1   -142.9421469 -0.142942E+03  0.422E-01    0.03       0.0  T
   2   -142.4159380  0.526209E+00  0.224E+00    0.01       1.0  T
   3   -142.6455043 -0.229566E+00  0.159E+00    0.01       1.0  T
   4   -142.7879922 -0.142488E+00  0.117E+00    0.03       1.0  T
   5   -142.9589750 -0.170983E+00  0.119E-01    0.01       1.0  T
   6   -142.8433119  0.115663E+00  0.959E-01    0.01       1.0  T
   7   -142.7688679  0.744440E-01  0.122E+00    0.03       1.0  T
   8   -142.9570199 -0.188152E+00  0.155E-01    0.01       1.0  T
   9   -142.9567444  0.275571E-03  0.155E-01    0.01       1.0  T
  10   -142.9569566 -0.212238E-03  0.148E-01    0.02       1.0  T
  11   -142.9584173 -0.146068E-02  0.972E-02    0.01       1.0  T
  12   -142.9592804 -0.863130E-03  0.511E-02    0.02       1.0  T
  13   -142.9594904 -0.209922E-03  0.297E-02    0.01       1.0  T
  14   -142.9595248 -0.344639E-04  0.250E-02    0.01       1.0  T
  15   -142.9595927 -0.678739E-04  0.929E-03    0.01       1.2  T
  16   -142.9596023 -0.964569E-05  0.340E-03    0.01       3.3  T
  17   -142.9596038 -0.144645E-05  0.815E-05    0.01     139.0  T
  18   -142.9596038  0.187157E-09  0.651E-05    0.01     174.0  T
  19   -142.9596038  0.607272E-08  0.226E-04    0.01      50.0  T
     SCC iter.                  ...        0 min,  0.225 sec
     gradient                   ...        0 min,  0.080 sec
 * total energy  :  -140.4224632 Eh     change       -0.3778767E-02 Eh
   gradient norm :     0.0206626 Eh/α   predicted    -0.4373142E-02 (  15.73%)
   displ. norm   :     0.6969361 α      lambda       -0.5335762E-02
   maximum displ.:     0.4695616 α      in ANC's #9, #8, #17, ...

........................................................................
.............................. CYCLE   13 ..............................
........................................................................
   1   -142.9484286 -0.142948E+03  0.347E-01    0.02       0.0  T
   2   -142.4967354  0.451693E+00  0.202E+00    0.01       1.0  T
   3   -142.6559649 -0.159230E+00  0.155E+00    0.02       1.0  T
   4   -142.9185456 -0.262581E+00  0.571E-01    0.03       1.0  T
   5   -142.8786540  0.398917E-01  0.791E-01    0.03       1.0  T
   6   -142.9059746 -0.273207E-01  0.644E-01    0.02       1.0  T
   7   -142.9369256 -0.309510E-01  0.419E-01    0.01       1.0  T
   8   -142.8265569  0.110369E+00  0.102E+00    0.02       1.0  T
   9   -142.9570813 -0.130524E+00  0.133E-01    0.02       1.0  T
  10   -142.9569084  0.172871E-03  0.137E-01    0.01       1.0  T
  11   -142.9593576 -0.244920E-02  0.589E-03    0.01       1.9  T
  12   -142.9593578 -0.180820E-06  0.467E-03    0.01       2.4  T
  13   -142.9593376  0.201511E-04  0.127E-02    0.01       1.0  T
  14   -142.9593326  0.500798E-05  0.140E-02    0.01       1.0  T
  15   -142.9593579 -0.252738E-04  0.458E-04    0.01      24.7  T
  16   -142.9593579  0.169868E-07  0.527E-04    0.01      21.5  T
  17   -142.9593572  0.690728E-06  0.237E-03    0.01       4.8  T
  18   -142.9593579 -0.682471E-06  0.582E-04    0.01      19.5  T
     SCC iter.                  ...        0 min,  0.213 sec
     gradient                   ...        0 min,  0.080 sec
 * total energy  :  -140.4257348 Eh     change       -0.3271629E-02 Eh
   gradient norm :     0.0245544 Eh/α   predicted    -0.3963756E-02 (  21.16%)
   displ. norm   :     0.6590450 α      lambda       -0.3989186E-02
   maximum displ.:     0.4714154 α      in ANC's #9, #8, #17, ...

........................................................................
.............................. CYCLE   14 ..............................
........................................................................
   1   -142.9425471 -0.142943E+03  0.216E-01    0.01       0.0  T
   2   -142.5891695  0.353378E+00  0.170E+00    0.01       1.0  T
   3   -142.9236496 -0.334480E+00  0.410E-01    0.03       1.0  T
   4   -142.6405466  0.283103E+00  0.154E+00    0.02       1.0  T
   5   -142.8480191 -0.207473E+00  0.863E-01    0.03       1.0  T
   6   -142.8827715 -0.347524E-01  0.689E-01    0.03       1.0  T
   7   -142.9268808 -0.441093E-01  0.368E-01    0.00       1.0  T
   8   -142.9332720 -0.639119E-02  0.295E-01    0.00       1.0  T
   9   -142.9145280  0.187440E-01  0.479E-01    0.01       1.0  T
  10   -142.9395127 -0.249847E-01  0.193E-01    0.02       1.0  T
  11   -142.9411888 -0.167606E-02  0.155E-01    0.00       1.0  T
  12   -142.9440924 -0.290367E-02  0.405E-02    0.01       1.0  T
  13   -142.9442728 -0.180375E-03  0.151E-02    0.01       1.0  T
  14   -142.9443003 -0.275274E-04  0.419E-03    0.01       2.7  T
  15   -142.9443026 -0.222134E-05  0.563E-04    0.01      20.1  T
  16   -142.9443026 -0.774463E-09  0.541E-04    0.01      20.9  T
  17   -142.9443021  0.441282E-06  0.191E-03    0.01       5.9  T
  18   -142.9443026 -0.468240E-06  0.227E-04    0.01      49.8  T
     SCC iter.                  ...        0 min,  0.210 sec
     gradient                   ...        0 min,  0.080 sec
 * total energy  :  -140.4285964 Eh     change       -0.2861542E-02 Eh
   gradient norm :     0.0227624 Eh/α   predicted    -0.2860931E-02 (  -0.02%)
   displ. norm   :     0.6608026 α      lambda       -0.3262281E-02
   maximum displ.:     0.5038208 α      in ANC's #9, #8, #17, ...

........................................................................
.............................. CYCLE   15 ..............................
........................................................................
   1   -142.9366960 -0.142937E+03  0.283E-01    0.02       0.0  T
   2   -142.5165097  0.420186E+00  0.192E+00    0.01       1.0  T
   3   -142.6583089 -0.141799E+00  0.150E+00    0.02       1.0  T
   4   -142.8248456 -0.166537E+00  0.961E-01    0.03       1.0  T
   5   -142.7545929  0.702526E-01  0.121E+00    0.03       1.0  T
   6   -142.8120793 -0.574864E-01  0.101E+00    0.03       1.0  T
   7   -142.9440165 -0.131937E+00  0.112E-01    0.01       1.0  T
   8   -142.9437456  0.270906E-03  0.112E-01    0.01       1.0  T
   9   -142.9317944  0.119512E-01  0.314E-01    0.00       1.0  T
  10   -142.9390779 -0.728352E-02  0.206E-01    0.02       1.0  T
  11   -142.9386863  0.391624E-03  0.208E-01    0.00       1.0  T
  12   -142.9432090 -0.452271E-02  0.919E-02    0.01       1.0  T
  13   -142.9441893 -0.980316E-03  0.296E-02    0.01       1.0  T
  14   -142.9443003 -0.110980E-03  0.424E-03    0.01       2.7  T
  15   -142.9443025 -0.223336E-05  0.883E-04    0.01      12.8  T
  16   -142.9442991  0.345139E-05  0.518E-03    0.01       2.2  T
  17   -142.9443019 -0.279795E-05  0.228E-03    0.01       5.0  T
  18   -142.9443014  0.455375E-06  0.295E-03    0.01       3.8  T
  19   -142.9443025 -0.106265E-05  0.726E-04    0.01      15.6  T
  20   -142.9443025 -0.575402E-07  0.291E-04    0.01      38.9  T
  21   -142.9443025 -0.854985E-08  0.136E-04    0.01      83.2  T
     SCC iter.                  ...        0 min,  0.245 sec
     gradient                   ...        0 min,  0.079 sec
 * total energy  :  -140.4310696 Eh     change       -0.2473201E-02 Eh
   gradient norm :     0.0176976 Eh/α   predicted    -0.2343399E-02 (  -5.25%)
   displ. norm   :     0.7015771 α      lambda       -0.2861769E-02
   maximum displ.:     0.4977629 α      in ANC's #9, #8, #7, ...

........................................................................
.............................. CYCLE   16 ..............................
........................................................................
   1   -142.9284789 -0.142928E+03  0.455E-01    0.03       0.0  T
   2   -141.3033221  0.162516E+01  0.358E+00    0.03       1.0  T
   3   -142.6221930 -0.131887E+01  0.164E+00    0.02       1.0  T
   4   -142.7694172 -0.147224E+00  0.119E+00    0.02       1.0  T
   5   -142.6491857  0.120232E+00  0.154E+00    0.03       1.0  T
   6   -142.6319229  0.172628E-01  0.159E+00    0.03       1.0  T
   7   -142.6343911 -0.246813E-02  0.158E+00    0.03       1.0  T
   8   -142.6542097 -0.198186E-01  0.152E+00    0.03       1.0  T
   9   -142.6915018 -0.372922E-01  0.142E+00    0.03       1.0  T
  10   -142.8815236 -0.190022E+00  0.745E-01    0.03       1.0  T
  11   -142.7280643  0.153459E+00  0.131E+00    0.03       1.0  T
  12   -142.8105604 -0.824961E-01  0.104E+00    0.03       1.0  T
  13   -142.8472361 -0.366757E-01  0.896E-01    0.03       1.0  T
  14   -142.9043863 -0.571502E-01  0.612E-01    0.02       1.0  T
  15   -142.9039718  0.414506E-03  0.612E-01    0.02       1.0  T
  16   -142.9519101 -0.479383E-01  0.605E-02    0.01       1.0  T
  17   -142.9520117 -0.101615E-03  0.352E-02    0.01       1.0  T
  18   -142.9518491  0.162637E-03  0.434E-02    0.01       1.0  T
  19   -142.9520503 -0.201224E-03  0.672E-03    0.01       1.7  T
  20   -142.9515047  0.545632E-03  0.650E-02    0.01       1.0  T
  21   -142.9520280 -0.523295E-03  0.141E-02    0.01       1.0  T
  22   -142.9520531 -0.250685E-04  0.295E-03    0.01       3.8  T
  23   -142.9520514  0.169265E-05  0.455E-03    0.01       2.5  T
  24   -142.9520533 -0.196335E-05  0.236E-03    0.01       4.8  T
  25   -142.9520541 -0.716561E-06  0.296E-04    0.01      38.3  T
  26   -142.9520540  0.584598E-08  0.355E-04    0.01      31.9  T
     SCC iter.                  ...        0 min,  0.309 sec
     gradient                   ...        0 min,  0.079 sec
 * total energy  :  -140.4330834 Eh     change       -0.2013873E-02 Eh
   gradient norm :     0.0146170 Eh/α   predicted    -0.2135188E-02 (   6.02%)
   displ. norm   :     0.7036908 α      lambda       -0.2277363E-02
   maximum displ.:     0.5531256 α      in ANC's #9, #7, #8, ...

........................................................................
.............................. CYCLE   17 ..............................
........................................................................
   1   -142.9434933 -0.142943E+03  0.341E-01    0.02       0.0  T
   2   -142.4979727  0.445521E+00  0.199E+00    0.01       1.0  T
   3   -142.6448390 -0.146866E+00  0.156E+00    0.02       1.0  T
   4   -142.7495522 -0.104713E+00  0.126E+00    0.03       1.0  T
   5   -142.6754304  0.741217E-01  0.146E+00    0.03       1.0  T
   6   -142.7055821 -0.301517E-01  0.138E+00    0.04       1.0  T
   7   -142.9511575 -0.245575E+00  0.212E-01    0.00       1.0  T
   8   -142.9507006  0.456913E-03  0.212E-01    0.01       1.0  T
   9   -142.9299285  0.207721E-01  0.436E-01    0.01       1.0  T
  10   -142.9483034 -0.183749E-01  0.226E-01    0.02       1.0  T
  11   -142.9330221  0.152813E-01  0.404E-01    0.01       1.0  T
  12   -142.9532397 -0.202176E-01  0.929E-02    0.01       1.0  T
  13   -142.9531879  0.518214E-04  0.915E-02    0.00       1.0  T
  14   -142.9542498 -0.106195E-02  0.134E-02    0.01       1.0  T
  15   -142.9542687 -0.188669E-04  0.529E-03    0.01       2.1  T
  16   -142.9542696 -0.947108E-06  0.453E-03    0.01       2.5  T
  17   -142.9542719 -0.226837E-05  0.167E-03    0.01       6.8  T
  18   -142.9542723 -0.347955E-06  0.237E-04    0.01      47.8  T
  19   -142.9542722  0.374488E-07  0.589E-04    0.01      19.2  T
     SCC iter.                  ...        0 min,  0.225 sec
     gradient                   ...        0 min,  0.079 sec
 * total energy  :  -140.4345432 Eh     change       -0.1459727E-02 Eh
   gradient norm :     0.0162914 Eh/α   predicted    -0.1702536E-02 (  16.63%)
   displ. norm   :     0.6518369 α      lambda       -0.1892538E-02
   maximum displ.:     0.4987669 α      in ANC's #9, #8, #7, ...

........................................................................
.............................. CYCLE   18 ..............................
........................................................................
   1   -142.9451486 -0.142945E+03  0.176E-01    0.01       0.0  T
   2   -142.5998857  0.345263E+00  0.167E+00    0.02       1.0  T
   3   -142.9462619 -0.346376E+00  0.875E-02    0.01       1.0  T
   4   -142.8910053  0.552566E-01  0.650E-01    0.03       1.0  T
   5   -142.8901932  0.812071E-03  0.656E-01    0.02       1.0  T
   6   -142.9043173 -0.141241E-01  0.566E-01    0.03       1.0  T
   7   -142.9330321 -0.287148E-01  0.318E-01    0.02       1.0  T
   8   -142.9400876 -0.705551E-02  0.218E-01    0.00       1.0  T
   9   -142.9431448 -0.305726E-02  0.155E-01    0.00       1.0  T
  10   -142.9431860 -0.411177E-04  0.154E-01    0.00       1.0  T
  11   -142.9461873 -0.300137E-02  0.253E-02    0.01       1.0  T
  12   -142.9461854  0.196726E-05  0.254E-02    0.01       1.0  T
  13   -142.9462625 -0.771829E-04  0.736E-03    0.01       1.5  T
  14   -142.9462692 -0.665816E-05  0.170E-03    0.01       6.7  T
  15   -142.9462691  0.109641E-06  0.192E-03    0.01       5.9  T
  16   -142.9462694 -0.324488E-06  0.110E-03    0.01      10.3  T
  17   -142.9462696 -0.156872E-06  0.105E-04    0.01     108.1  T
  18   -142.9462696  0.141938E-07  0.345E-04    0.01      32.8  T
     SCC iter.                  ...        0 min,  0.213 sec
     gradient                   ...        0 min,  0.079 sec
 * total energy  :  -140.4357109 Eh     change       -0.1167717E-02 Eh
   gradient norm :     0.0174475 Eh/α   predicted    -0.1348335E-02 (  15.47%)
   displ. norm   :     0.5337045 α      lambda       -0.1403324E-02
   maximum displ.:     0.3965849 α      in ANC's #9, #7, #8, ...

........................................................................
.............................. CYCLE   19 ..............................
........................................................................
   1   -142.9476250 -0.142948E+03  0.146E-01    0.01       0.0  T
   2   -142.5963638  0.351261E+00  0.168E+00    0.02       1.0  T
   3   -142.9191764 -0.322813E+00  0.483E-01    0.01       1.0  T
   4   -142.6612236  0.257953E+00  0.149E+00    0.03       1.0  T
   5   -142.6591743  0.204926E-02  0.149E+00    0.03       1.0  T
   6   -142.8506602 -0.191486E+00  0.868E-01    0.03       1.0  T
   7   -142.9131691 -0.625089E-01  0.523E-01    0.02       1.0  T
   8   -142.9364146 -0.232455E-01  0.314E-01    0.02       1.0  T
   9   -142.9458522 -0.943764E-02  0.161E-01    0.01       1.0  T
  10   -142.9490714 -0.321918E-02  0.214E-02    0.01       1.0  T
  11   -142.9489458  0.125551E-03  0.342E-02    0.00       1.0  T
  12   -142.9483180  0.627877E-03  0.769E-02    0.01       1.0  T
  13   -142.9490620 -0.744039E-03  0.105E-02    0.01       1.1  T
  14   -142.9490586  0.343023E-05  0.114E-02    0.01       1.0  T
  15   -142.9490745 -0.158889E-04  0.267E-03    0.01       4.2  T
  16   -142.9490752 -0.684813E-06  0.774E-04    0.01      14.6  T
  17   -142.9490752 -0.622743E-07  0.301E-04    0.01      37.6  T
     SCC iter.                  ...        0 min,  0.198 sec
     gradient                   ...        0 min,  0.079 sec
 * total energy  :  -140.4367917 Eh     change       -0.1080859E-02 Eh
   gradient norm :     0.0151801 Eh/α   predicted    -0.9015303E-03 ( -16.59%)
   displ. norm   :     0.6052460 α      lambda       -0.1687823E-02
   maximum displ.:     0.4058419 α      in ANC's #9, #7, #8, ...

........................................................................
.............................. CYCLE   20 ..............................
........................................................................
   1   -142.9659134 -0.142966E+03  0.178E-01    0.01       0.0  T
   2   -142.6011455  0.364768E+00  0.173E+00    0.02       1.0  T
   3   -142.8834936 -0.282348E+00  0.810E-01    0.03       1.0  T
   4   -142.6669628  0.216531E+00  0.153E+00    0.03       1.0  T
   5   -142.6501569  0.168059E-01  0.157E+00    0.03       1.0  T
   6   -142.6490452  0.111172E-02  0.157E+00    0.03       1.0  T
   7   -142.6579462 -0.890099E-02  0.155E+00    0.03       1.0  T
   8   -142.7647300 -0.106784E+00  0.125E+00    0.04       1.0  T
   9   -142.8998664 -0.135136E+00  0.728E-01    0.04       1.0  T
  10   -142.8109772  0.888892E-01  0.110E+00    0.04       1.0  T
  11   -142.9667168 -0.155740E+00  0.119E-01    0.01       1.0  T
  12   -142.9658622  0.854568E-03  0.138E-01    0.00       1.0  T
  13   -142.9636266  0.223559E-02  0.189E-01    0.00       1.0  T
  14   -142.9677349 -0.410821E-02  0.677E-02    0.00       1.0  T
  15   -142.9673275  0.407394E-03  0.880E-02    0.01       1.0  T
  16   -142.9678718 -0.544340E-03  0.583E-02    0.01       1.0  T
  17   -142.9682383 -0.366495E-03  0.228E-02    0.00       1.0  T
  18   -142.9682783 -0.399576E-04  0.146E-02    0.01       1.0  T
  19   -142.9682893 -0.110303E-04  0.115E-02    0.01       1.0  T
  20   -142.9683059 -0.165985E-04  0.151E-03    0.01       7.5  T
  21   -142.9683059 -0.443227E-07  0.133E-03    0.01       8.5  T
  22   -142.9683061 -0.205741E-06  0.453E-04    0.01      25.0  T
  23   -142.9683062 -0.193976E-07  0.233E-04    0.01      48.7  T
     SCC iter.                  ...        0 min,  0.272 sec
     gradient                   ...        0 min,  0.079 sec
 * total energy  :  -140.4378841 Eh     change       -0.1092375E-02 Eh
   gradient norm :     0.0162670 Eh/α   predicted    -0.1153058E-02 (   5.56%)
   displ. norm   :     0.6557418 α      lambda       -0.1496588E-02
   maximum displ.:     0.4638310 α      in ANC's #9, #7, #8, ...
 * RMSD in coord.:     1.1122198 α      energy gain  -0.7671437E+00 Eh

generating ANC from model Hessian ...
Using Lindh-Hessian (1995)
 Shifting diagonal of input Hessian by    1.0026144060971054E-002
 Lowest  eigenvalues of input Hessian
    0.010000    0.010008    0.010011    0.000000    0.000000    0.000000
    0.000000    0.000000    0.000000    0.010051    0.010126    0.010384
    0.010723    0.011331    0.011605    0.011882    0.011964    0.012434
 Highest eigenvalues
    2.152179    2.154136    2.158661    2.258402    2.690053    3.023343


........................................................................
.............................. CYCLE   21 ..............................
........................................................................
   1   -142.9636174 -0.142964E+03  0.159E-01    0.01       0.0  T
   2   -142.6172688  0.346349E+00  0.167E+00    0.02       1.0  T
   3   -142.9584035 -0.341135E+00  0.233E-01    0.00       1.0  T
   4   -142.6800408  0.278363E+00  0.148E+00    0.03       1.0  T
   5   -142.8345618 -0.154521E+00  0.998E-01    0.03       1.0  T
   6   -142.8331767  0.138508E-02  0.100E+00    0.03       1.0  T
   7   -142.9544325 -0.121256E+00  0.283E-01    0.02       1.0  T
   8   -142.9647463 -0.103138E-01  0.341E-02    0.01       1.0  T
   9   -142.9647707 -0.244689E-04  0.263E-02    0.01       1.0  T
  10   -142.9646275  0.143227E-03  0.402E-02    0.01       1.0  T
  11   -142.9647874 -0.159903E-03  0.150E-02    0.01       1.0  T
  12   -142.9646334  0.154021E-03  0.367E-02    0.01       1.0  T
  13   -142.9647858 -0.152417E-03  0.105E-02    0.01       1.1  T
  14   -142.9647733  0.124865E-04  0.124E-02    0.01       1.0  T
  15   -142.9647837 -0.104137E-04  0.714E-03    0.01       1.6  T
  16   -142.9647894 -0.568136E-05  0.125E-03    0.01       9.0  T
  17   -142.9647896 -0.151930E-06  0.219E-04    0.01      51.7  T
  18   -142.9647896  0.901369E-08  0.343E-04    0.01      33.0  T
     SCC iter.                  ...        0 min,  0.213 sec
     gradient                   ...        0 min,  0.079 sec
 * total energy  :  -140.4389036 Eh     change       -0.1019503E-02 Eh
   gradient norm :     0.0158890 Eh/α   predicted     0.0000000E+00 (-100.00%)
   displ. norm   :     0.1796395 α      lambda       -0.8901731E-03
   maximum displ.:     0.1082483 α      in ANC's #9, #14, #17, ...

........................................................................
.............................. CYCLE   22 ..............................
........................................................................
   1   -142.9637269 -0.142964E+03  0.590E-02    0.01       0.0  T
   2   -142.7914162  0.172311E+00  0.115E+00    0.03       1.0  T
   3   -142.9620010 -0.170585E+00  0.120E-01    0.01       1.0  T
   4   -142.9611343  0.866777E-03  0.142E-01    0.00       1.0  T
   5   -142.9636609 -0.252667E-02  0.276E-02    0.01       1.0  T
   6   -142.9636074  0.535717E-04  0.333E-02    0.01       1.0  T
   7   -142.9637339 -0.126504E-03  0.125E-02    0.01       1.0  T
   8   -142.9637537 -0.198763E-04  0.159E-03    0.01       7.1  T
   9   -142.9637517  0.199138E-05  0.398E-03    0.01       2.8  T
  10   -142.9637536 -0.185452E-05  0.132E-03    0.01       8.6  T
  11   -142.9637538 -0.197280E-06  0.344E-04    0.01      32.9  T
  12   -142.9637538 -0.140687E-07  0.308E-05    0.01     367.9  T
     SCC iter.                  ...        0 min,  0.142 sec
     gradient                   ...        0 min,  0.079 sec
 * total energy  :  -140.4395638 Eh     change       -0.6602408E-03 Eh
   gradient norm :     0.0061194 Eh/α   predicted    -0.4594601E-03 ( -30.41%)
   displ. norm   :     0.3708830 α      lambda       -0.9429409E-03
   maximum displ.:     0.2312160 α      in ANC's #9, #14, #17, ...

........................................................................
.............................. CYCLE   23 ..............................
........................................................................
   1   -142.9613742 -0.142961E+03  0.122E-01    0.01       0.0  T
   2   -142.6562582  0.305116E+00  0.154E+00    0.03       1.0  T
   3   -142.9475857 -0.291328E+00  0.333E-01    0.02       1.0  T
   4   -142.8666025  0.809832E-01  0.852E-01    0.03       1.0  T
   5   -142.9596573 -0.930548E-01  0.122E-01    0.01       1.0  T
   6   -142.9583456  0.131171E-02  0.156E-01    0.00       1.0  T
   7   -142.9551791  0.316652E-02  0.219E-01    0.00       1.0  T
   8   -142.9604081 -0.522908E-02  0.914E-02    0.00       1.0  T
   9   -142.9614277 -0.101957E-02  0.233E-02    0.00       1.0  T
  10   -142.9614947 -0.669932E-04  0.477E-03    0.01       2.4  T
  11   -142.9614950 -0.328650E-06  0.422E-03    0.01       2.7  T
  12   -142.9614962 -0.118445E-05  0.297E-03    0.01       3.8  T
  13   -142.9614973 -0.105861E-05  0.829E-04    0.01      13.7  T
  14   -142.9614973  0.195284E-07  0.897E-04    0.01      12.6  T
  15   -142.9614974 -0.909814E-07  0.340E-04    0.01      33.3  T
     SCC iter.                  ...        0 min,  0.175 sec
     gradient                   ...        0 min,  0.079 sec
 * total energy  :  -140.4400743 Eh     change       -0.5104392E-03 Eh
   gradient norm :     0.0092123 Eh/α   predicted    -0.5363236E-03 (   5.07%)
   displ. norm   :     0.3939428 α      lambda       -0.8906000E-03
   maximum displ.:     0.2453407 α      in ANC's #9, #17, #14, ...

........................................................................
.............................. CYCLE   24 ..............................
........................................................................
   1   -142.9610900 -0.142961E+03  0.145E-01    0.01       0.0  T
   2   -142.6444543  0.316636E+00  0.157E+00    0.03       1.0  T
   3   -142.9359777 -0.291523E+00  0.446E-01    0.02       1.0  T
   4   -142.7964796  0.139498E+00  0.112E+00    0.03       1.0  T
   5   -142.9458259 -0.149346E+00  0.346E-01    0.02       1.0  T
   6   -142.9540986 -0.827265E-02  0.236E-01    0.00       1.0  T
   7   -142.9445389  0.955973E-02  0.357E-01    0.01       1.0  T
   8   -142.9586805 -0.141416E-01  0.141E-01    0.00       1.0  T
   9   -142.9612406 -0.256009E-02  0.135E-02    0.00       1.0  T
  10   -142.9611543  0.862613E-04  0.290E-02    0.00       1.0  T
  11   -142.9611927 -0.384130E-04  0.234E-02    0.00       1.0  T
  12   -142.9612588 -0.660866E-04  0.652E-03    0.00       1.7  T
  13   -142.9612638 -0.498351E-05  0.186E-03    0.01       6.1  T
  14   -142.9612641 -0.351007E-06  0.737E-04    0.01      15.4  T
  15   -142.9612642 -0.674333E-07  0.206E-04    0.01      55.0  T
     SCC iter.                  ...        0 min,  0.175 sec
     gradient                   ...        0 min,  0.079 sec
 * total energy  :  -140.4403552 Eh     change       -0.2809066E-03 Eh
   gradient norm :     0.0147331 Eh/α   predicted    -0.5144106E-03 (  83.13%)
   displ. norm   :     0.2043828 α      lambda       -0.6906926E-03
   maximum displ.:     0.1258161 α      in ANC's #9, #8, #17, ...

........................................................................
.............................. CYCLE   25 ..............................
........................................................................
   1   -142.9651402 -0.142965E+03  0.818E-02    0.01       0.0  T
   2   -142.6845988  0.280541E+00  0.148E+00    0.03       1.0  T
   3   -142.9633743 -0.278776E+00  0.127E-01    0.01       1.0  T
   4   -142.9527769  0.105974E-01  0.308E-01    0.01       1.0  T
   5   -142.9638830 -0.111061E-01  0.101E-01    0.01       1.0  T
   6   -142.9650296 -0.114662E-02  0.381E-02    0.00       1.0  T
   7   -142.9649841  0.454605E-04  0.420E-02    0.00       1.0  T
   8   -142.9651242 -0.140043E-03  0.264E-02    0.00       1.0  T
   9   -142.9651879 -0.636926E-04  0.142E-02    0.00       1.0  T
  10   -142.9652140 -0.260714E-04  0.165E-03    0.01       6.9  T
  11   -142.9652141 -0.158751E-06  0.119E-03    0.01       9.5  T
  12   -142.9652143 -0.142538E-06  0.572E-04    0.01      19.8  T
  13   -142.9652143 -0.413194E-07  0.967E-05    0.01     117.0  T
     SCC iter.                  ...        0 min,  0.151 sec
     gradient                   ...        0 min,  0.079 sec
 * total energy  :  -140.4407080 Eh     change       -0.3528296E-03 Eh
   gradient norm :     0.0106520 Eh/α   predicted    -0.3597767E-03 (   1.97%)
   displ. norm   :     0.2582371 α      lambda       -0.8546809E-03
   maximum displ.:     0.1679873 α      in ANC's #9, #8, #16, ...

........................................................................
.............................. CYCLE   26 ..............................
........................................................................
   1   -142.9711572 -0.142971E+03  0.102E-01    0.01       0.0  T
   2   -142.6468798  0.324277E+00  0.160E+00    0.03       1.0  T
   3   -142.9706138 -0.323734E+00  0.951E-02    0.01       1.0  T
   4   -142.9662482  0.436567E-02  0.199E-01    0.00       1.0  T
   5   -142.9599954  0.625273E-02  0.295E-01    0.02       1.0  T
   6   -142.9712263 -0.112309E-01  0.392E-02    0.00       1.0  T
   7   -142.9710599  0.166430E-03  0.525E-02    0.00       1.0  T
   8   -142.9711956 -0.135719E-03  0.417E-02    0.00       1.0  T
   9   -142.9712581 -0.625117E-04  0.353E-02    0.00       1.0  T
  10   -142.9713966 -0.138453E-03  0.138E-02    0.00       1.0  T
  11   -142.9714174 -0.208664E-04  0.543E-03    0.00       2.1  T
  12   -142.9714201 -0.270310E-05  0.297E-03    0.00       3.8  T
  13   -142.9714210 -0.832047E-06  0.156E-03    0.01       7.3  T
  14   -142.9714213 -0.315785E-06  0.121E-04    0.01      93.3  T
  15   -142.9714213 -0.139414E-08  0.603E-05    0.01     187.7  T
     SCC iter.                  ...        0 min,  0.176 sec
     gradient                   ...        0 min,  0.079 sec
 * total energy  :  -140.4410857 Eh     change       -0.3777095E-03 Eh
   gradient norm :     0.0058221 Eh/α   predicted    -0.4558416E-03 (  20.69%)
   displ. norm   :     0.2578913 α      lambda       -0.3713099E-03
   maximum displ.:     0.1845364 α      in ANC's #9, #8, #17, ...

........................................................................
.............................. CYCLE   27 ..............................
........................................................................
   1   -142.9715819 -0.142972E+03  0.697E-02    0.01       0.0  T
   2   -142.6498166  0.321765E+00  0.159E+00    0.03       1.0  T
   3   -142.9713355 -0.321519E+00  0.680E-02    0.00       1.0  T
   4   -142.9507726  0.205628E-01  0.401E-01    0.02       1.0  T
   5   -142.9710257 -0.202531E-01  0.772E-02    0.00       1.0  T
   6   -142.9717895 -0.763737E-03  0.101E-02    0.00       1.1  T
   7   -142.9716488  0.140634E-03  0.340E-02    0.00       1.0  T
   8   -142.9717513 -0.102495E-03  0.194E-02    0.00       1.0  T
   9   -142.9717574 -0.606135E-05  0.180E-02    0.00       1.0  T
  10   -142.9717925 -0.350768E-04  0.756E-03    0.00       1.5  T
  11   -142.9717972 -0.475008E-05  0.450E-03    0.00       2.5  T
  12   -142.9717989 -0.173392E-05  0.263E-03    0.00       4.3  T
  13   -142.9717997 -0.716039E-06  0.118E-03    0.00       9.6  T
  14   -142.9717998 -0.162445E-06  0.384E-04    0.00      29.5  T
  15   -142.9717998 -0.175328E-07  0.111E-04    0.00     102.1  T
     SCC iter.                  ...        0 min,  0.178 sec
     gradient                   ...        0 min,  0.079 sec
 * total energy  :  -140.4413995 Eh     change       -0.3137457E-03 Eh
   gradient norm :     0.0041866 Eh/α   predicted    -0.1980035E-03 ( -36.89%)
   displ. norm   :     0.3247677 α      lambda       -0.3834125E-03
   maximum displ.:     0.2334123 α      in ANC's #9, #8, #5, ...

........................................................................
.............................. CYCLE   28 ..............................
........................................................................
   1   -142.9711524 -0.142971E+03  0.902E-02    0.01       0.0  T
   2   -142.6384464  0.332706E+00  0.162E+00    0.03       1.0  T
   3   -142.9670423 -0.328596E+00  0.191E-01    0.00       1.0  T
   4   -142.8641754  0.102867E+00  0.907E-01    0.04       1.0  T
   5   -142.9592230 -0.950476E-01  0.308E-01    0.02       1.0  T
   6   -142.9519584  0.726458E-02  0.388E-01    0.01       1.0  T
   7   -142.9712642 -0.193058E-01  0.547E-02    0.01       1.0  T
   8   -142.9716155 -0.351297E-03  0.155E-02    0.00       1.0  T
   9   -142.9711822  0.433316E-03  0.592E-02    0.00       1.0  T
  10   -142.9715691 -0.386839E-03  0.236E-02    0.00       1.0  T
  11   -142.9715441  0.249985E-04  0.270E-02    0.00       1.0  T
  12   -142.9716223 -0.782074E-04  0.113E-02    0.00       1.0  T
  13   -142.9716254 -0.311437E-05  0.987E-03    0.00       1.1  T
  14   -142.9716361 -0.107293E-04  0.383E-03    0.00       3.0  T
  15   -142.9716378 -0.172689E-05  0.104E-03    0.00      10.9  T
  16   -142.9716380 -0.128154E-06  0.290E-04    0.00      39.0  T
  17   -142.9716380 -0.450203E-08  0.219E-04    0.00      51.7  T
     SCC iter.                  ...        0 min,  0.201 sec
     gradient                   ...        0 min,  0.079 sec
 * total energy  :  -140.4417201 Eh     change       -0.3206434E-03 Eh
   gradient norm :     0.0029016 Eh/α   predicted    -0.2119304E-03 ( -33.90%)
   displ. norm   :     0.3643415 α      lambda       -0.3420066E-03
   maximum displ.:     0.2598321 α      in ANC's #9, #8, #5, ...

........................................................................
.............................. CYCLE   29 ..............................
........................................................................
   1   -142.9707034 -0.142971E+03  0.940E-02    0.01       0.0  T
   2   -142.6342544  0.336449E+00  0.163E+00    0.03       1.0  T
   3   -142.9623532 -0.328099E+00  0.264E-01    0.01       1.0  T
   4   -142.8478897  0.114464E+00  0.973E-01    0.04       1.0  T
   5   -142.9295950 -0.817054E-01  0.564E-01    0.03       1.0  T
   6   -142.9410399 -0.114448E-01  0.481E-01    0.02       1.0  T
   7   -142.9705441 -0.295042E-01  0.796E-02    0.01       1.0  T
   8   -142.9712485 -0.704441E-03  0.279E-02    0.00       1.0  T
   9   -142.9699715  0.127696E-02  0.102E-01    0.00       1.0  T
  10   -142.9711808 -0.120922E-02  0.347E-02    0.00       1.0  T
  11   -142.9711008  0.800093E-04  0.421E-02    0.00       1.0  T
  12   -142.9712731 -0.172335E-03  0.211E-02    0.00       1.0  T
  13   -142.9713023 -0.292035E-04  0.143E-02    0.00       1.0  T
  14   -142.9713261 -0.237641E-04  0.470E-03    0.00       2.4  T
  15   -142.9713287 -0.262976E-05  0.128E-03    0.00       8.9  T
  16   -142.9713288 -0.117365E-06  0.848E-04    0.00      13.3  T
  17   -142.9713289 -0.800789E-07  0.323E-04    0.00      35.1  T
     SCC iter.                  ...        0 min,  0.201 sec
     gradient                   ...        0 min,  0.079 sec
 * total energy  :  -140.4420255 Eh     change       -0.3053934E-03 Eh
   gradient norm :     0.0032912 Eh/α   predicted    -0.1937061E-03 ( -36.57%)
   displ. norm   :     0.4234555 α      lambda       -0.3727767E-03
   maximum displ.:     0.2980327 α      in ANC's #9, #8, #5, ...

........................................................................
.............................. CYCLE   30 ..............................
........................................................................
   1   -142.9700049 -0.142970E+03  0.100E-01    0.01       0.0  T
   2   -142.6320619  0.337943E+00  0.164E+00    0.03       1.0  T
   3   -142.9629949 -0.330933E+00  0.246E-01    0.01       1.0  T
   4   -142.8283477  0.134647E+00  0.105E+00    0.04       1.0  T
   5   -142.9282164 -0.998687E-01  0.569E-01    0.03       1.0  T
   6   -142.9363647 -0.814830E-02  0.512E-01    0.02       1.0  T
   7   -142.9699780 -0.336133E-01  0.759E-02    0.01       1.0  T
   8   -142.9706582 -0.680240E-03  0.201E-02    0.00       1.0  T
   9   -142.9694091  0.124911E-02  0.990E-02    0.00       1.0  T
  10   -142.9706132 -0.120409E-02  0.256E-02    0.00       1.0  T
  11   -142.9704919  0.121319E-03  0.391E-02    0.00       1.0  T
  12   -142.9706304 -0.138509E-03  0.214E-02    0.00       1.0  T
  13   -142.9706569 -0.264733E-04  0.153E-02    0.00       1.0  T
  14   -142.9706823 -0.254589E-04  0.596E-03    0.00       1.9  T
  15   -142.9706866 -0.428225E-05  0.132E-03    0.00       8.6  T
  16   -142.9706867 -0.114340E-06  0.908E-04    0.00      12.5  T
  17   -142.9706868 -0.925514E-07  0.333E-04    0.00      34.0  T
     SCC iter.                  ...        0 min,  0.198 sec
     gradient                   ...        0 min,  0.079 sec
 * total energy  :  -140.4423654 Eh     change       -0.3398420E-03 Eh
   gradient norm :     0.0039912 Eh/α   predicted    -0.2198131E-03 ( -35.32%)
   displ. norm   :     0.5288164 α      lambda       -0.4395844E-03
   maximum displ.:     0.3696562 α      in ANC's #9, #8, #5, ...

........................................................................
.............................. CYCLE   31 ..............................
........................................................................
   1   -142.9692065 -0.142969E+03  0.114E-01    0.01       0.0  T
   2   -142.6295828  0.339624E+00  0.164E+00    0.03       1.0  T
   3   -142.9648623 -0.335279E+00  0.203E-01    0.00       1.0  T
   4   -142.7909327  0.173930E+00  0.117E+00    0.04       1.0  T
   5   -142.9336036 -0.142671E+00  0.527E-01    0.03       1.0  T
   6   -142.9259642  0.763939E-02  0.580E-01    0.02       1.0  T
   7   -142.9682250 -0.422608E-01  0.117E-01    0.01       1.0  T
   8   -142.9698658 -0.164082E-02  0.296E-02    0.00       1.0  T
   9   -142.9694332  0.432647E-03  0.640E-02    0.00       1.0  T
  10   -142.9699419 -0.508688E-03  0.145E-02    0.00       1.0  T
  11   -142.9698147  0.127187E-03  0.336E-02    0.00       1.0  T
  12   -142.9699321 -0.117401E-03  0.148E-02    0.00       1.0  T
  13   -142.9699203  0.117923E-04  0.169E-02    0.00       1.0  T
  14   -142.9699510 -0.307133E-04  0.643E-03    0.00       1.8  T
  15   -142.9699555 -0.446731E-05  0.138E-03    0.00       8.2  T
  16   -142.9699556 -0.112369E-06  0.936E-04    0.00      12.1  T
  17   -142.9699557 -0.983410E-07  0.287E-04    0.00      39.4  T
     SCC iter.                  ...        0 min,  0.202 sec
     gradient                   ...        0 min,  0.079 sec
 * total energy  :  -140.4427589 Eh     change       -0.3935249E-03 Eh
   gradient norm :     0.0041616 Eh/α   predicted    -0.2812599E-03 ( -28.53%)
   displ. norm   :     0.6305776 α      lambda       -0.4599810E-03
   maximum displ.:     0.4398187 α      in ANC's #9, #8, #5, ...

........................................................................
.............................. CYCLE   32 ..............................
........................................................................
   1   -142.9678517 -0.142968E+03  0.125E-01    0.01       0.0  T
   2   -142.6289843  0.338867E+00  0.164E+00    0.03       1.0  T
   3   -142.9674681 -0.338484E+00  0.108E-01    0.00       1.0  T
   4   -142.8313145  0.136154E+00  0.103E+00    0.04       1.0  T
   5   -142.9672784 -0.135964E+00  0.100E-01    0.01       1.0  T
   6   -142.9601402  0.713821E-02  0.254E-01    0.01       1.0  T
   7   -142.9685379 -0.839772E-02  0.151E-02    0.00       1.0  T
   8   -142.9684274  0.110580E-03  0.323E-02    0.00       1.0  T
   9   -142.9681433  0.284090E-03  0.564E-02    0.00       1.0  T
  10   -142.9685367 -0.393459E-03  0.132E-02    0.00       1.0  T
  11   -142.9684881  0.486190E-04  0.229E-02    0.00       1.0  T
  12   -142.9685458 -0.577262E-04  0.890E-03    0.00       1.3  T
  13   -142.9685466 -0.787354E-06  0.819E-03    0.00       1.4  T
  14   -142.9685544 -0.778028E-05  0.238E-03    0.00       4.8  T
  15   -142.9685550 -0.554511E-06  0.970E-04    0.00      11.7  T
  16   -142.9685550 -0.906161E-07  0.477E-04    0.00      23.7  T
     SCC iter.                  ...        0 min,  0.189 sec
     gradient                   ...        0 min,  0.079 sec
 * total energy  :  -140.4431562 Eh     change       -0.3973379E-03 Eh
   gradient norm :     0.0036164 Eh/α   predicted    -0.3214431E-03 ( -19.10%)
   displ. norm   :     0.6881393 α      lambda       -0.4094874E-03
   maximum displ.:     0.4810638 α      in ANC's #9, #8, #5, ...

........................................................................
.............................. CYCLE   33 ..............................
........................................................................
   1   -142.9669404 -0.142967E+03  0.129E-01    0.01       0.0  T
   2   -142.6299738  0.336967E+00  0.164E+00    0.03       1.0  T
   3   -142.9675371 -0.337563E+00  0.643E-02    0.00       1.0  T
   4   -142.9264219  0.411152E-01  0.561E-01    0.03       1.0  T
   5   -142.9579563 -0.315344E-01  0.271E-01    0.01       1.0  T
   6   -142.9657560 -0.779968E-02  0.117E-01    0.01       1.0  T
   7   -142.9664182 -0.662280E-03  0.932E-02    0.00       1.0  T
   8   -142.9664188 -0.545590E-06  0.932E-02    0.00       1.0  T
   9   -142.9669178 -0.499018E-03  0.695E-02    0.00       1.0  T
  10   -142.9675167 -0.598847E-03  0.160E-02    0.00       1.0  T
  11   -142.9675325 -0.158326E-04  0.114E-02    0.00       1.0  T
  12   -142.9675327 -0.214607E-06  0.113E-02    0.00       1.0  T
  13   -142.9675490 -0.163287E-04  0.166E-03    0.00       6.8  T
  14   -142.9675494 -0.355279E-06  0.164E-05    0.00     690.2  T
  15   -142.9675493  0.697949E-07  0.731E-04    0.00      15.5  T
     SCC iter.                  ...        0 min,  0.176 sec
     gradient                   ...        0 min,  0.079 sec
 * total energy  :  -140.4434954 Eh     change       -0.3391909E-03 Eh
   gradient norm :     0.0032135 Eh/α   predicted    -0.3016998E-03 ( -11.05%)
   displ. norm   :     0.6707801 α      lambda       -0.3125406E-03
   maximum displ.:     0.4711307 α      in ANC's #9, #8, #5, ...

........................................................................
.............................. CYCLE   34 ..............................
........................................................................
   1   -142.9670259 -0.142967E+03  0.122E-01    0.01       0.0  T
   2   -142.6331829  0.333843E+00  0.163E+00    0.03       1.0  T
   3   -142.9672451 -0.334062E+00  0.758E-02    0.01       1.0  T
   4   -142.9669208  0.324280E-03  0.675E-02    0.01       1.0  T
   5   -142.9630142  0.390668E-02  0.186E-01    0.00       1.0  T
   6   -142.9674639 -0.444978E-02  0.178E-02    0.00       1.0  T
   7   -142.9662763  0.118761E-02  0.969E-02    0.00       1.0  T
   8   -142.9669247 -0.648400E-03  0.666E-02    0.00       1.0  T
   9   -142.9672340 -0.309244E-03  0.453E-02    0.00       1.0  T
  10   -142.9674999 -0.265979E-03  0.406E-03    0.00       2.8  T
  11   -142.9674955  0.445413E-05  0.706E-03    0.00       1.6  T
  12   -142.9674940  0.150456E-05  0.782E-03    0.00       1.4  T
  13   -142.9675015 -0.751390E-05  0.197E-03    0.00       5.7  T
  14   -142.9675020 -0.506485E-06  0.183E-04    0.00      61.7  T
  15   -142.9675020  0.201831E-08  0.219E-04    0.00      51.6  T
     SCC iter.                  ...        0 min,  0.178 sec
     gradient                   ...        0 min,  0.079 sec
 * total energy  :  -140.4437462 Eh     change       -0.2508078E-03 Eh
   gradient norm :     0.0030676 Eh/α   predicted    -0.2265904E-03 (  -9.66%)
   displ. norm   :     0.5957448 α      lambda       -0.2199437E-03
   maximum displ.:     0.4203630 α      in ANC's #9, #8, #5, ...

........................................................................
.............................. CYCLE   35 ..............................
........................................................................
   1   -142.9689856 -0.142969E+03  0.106E-01    0.01       0.0  T
   2   -142.6392779  0.329708E+00  0.161E+00    0.03       1.0  T
   3   -142.9686911 -0.329413E+00  0.882E-02    0.01       1.0  T
   4   -142.9647861  0.390502E-02  0.187E-01    0.00       1.0  T
   5   -142.9606595  0.412663E-02  0.257E-01    0.01       1.0  T
   6   -142.9691387 -0.847925E-02  0.382E-02    0.00       1.0  T
   7   -142.9689230  0.215752E-03  0.554E-02    0.00       1.0  T
   8   -142.9690731 -0.150121E-03  0.439E-02    0.00       1.0  T
   9   -142.9691529 -0.797730E-04  0.361E-02    0.00       1.0  T
  10   -142.9693058 -0.152863E-03  0.117E-02    0.00       1.0  T
  11   -142.9693229 -0.171703E-04  0.186E-03    0.00       6.1  T
  12   -142.9693224  0.498428E-06  0.270E-03    0.00       4.2  T
  13   -142.9693232 -0.783541E-06  0.112E-03    0.00      10.2  T
  14   -142.9693234 -0.154736E-06  0.234E-04    0.00      48.4  T
  15   -142.9693234 -0.310771E-08  0.176E-04    0.00      64.2  T
     SCC iter.                  ...        0 min,  0.178 sec
     gradient                   ...        0 min,  0.079 sec
 * total energy  :  -140.4439198 Eh     change       -0.1735326E-03 Eh
   gradient norm :     0.0026572 Eh/α   predicted    -0.1490032E-03 ( -14.14%)
   displ. norm   :     0.5493043 α      lambda       -0.1517090E-03
   maximum displ.:     0.3889807 α      in ANC's #9, #8, #5, ...

........................................................................
.............................. CYCLE   36 ..............................
........................................................................
   1   -142.9704430 -0.142970E+03  0.975E-02    0.01       0.0  T
   2   -142.6429366  0.327506E+00  0.161E+00    0.03       1.0  T
   3   -142.9697387 -0.326802E+00  0.100E-01    0.01       1.0  T
   4   -142.9574875  0.122513E-01  0.318E-01    0.01       1.0  T
   5   -142.9671431 -0.965560E-02  0.166E-01    0.01       1.0  T
   6   -142.9706141 -0.347101E-02  0.299E-02    0.00       1.0  T
   7   -142.9702253  0.388764E-03  0.619E-02    0.00       1.0  T
   8   -142.9702986 -0.732464E-04  0.573E-02    0.00       1.0  T
[...]
    60   6 C       61   6 C                                       1.4340361
    61   6 C       62   6 C                                       1.3510631
    62   6 C       63   6 C                                       1.4338050
    60   6 C       64   7 N                                       1.3662540
    63   6 C       64   7 N                                       1.3669503
    63   6 C       65   6 C                                       1.3786731
    44   6 C       66   6 C                                       1.4313946
    65   6 C       66   6 C                                       1.3789342
    46   6 C       67   7 N                                       1.3622477
    66   6 C       67   7 N                                       1.3700840
    44   6 C       68   1 H                                       1.0726175
    45   6 C       69   1 H                                       1.0727084
    49   6 C       70   1 H                                       1.0727164
    50   6 C       71   1 H                                       1.0726192
    53   6 C       72   1 H                                       1.0794221
    55   6 C       73   1 H                                       1.0728399
    56   6 C       74   1 H                                       1.0728402
    59   6 C       75   1 H                                       1.0792810
    61   6 C       76   1 H                                       1.0728405
    62   6 C       77   1 H                                       1.0728641
    65   6 C       78   1 H                                       1.0794159

 * 3 distinct bonds (by element types)

   Z      Z             #   av. dist./Å        max./Å        min./Å
   1 H    6 C          22     1.0745542     1.0794348     1.0725980
   6 C    6 C          43     1.3843354     1.4340963     1.2193772
   6 C    7 N          16     1.3665204     1.3703955     1.3620659

           -------------------------------------------------
          |               Frequency Printout                |
           -------------------------------------------------
 projected vibrational frequencies (cm⁻¹)
eigval :       -0.00    -0.00    -0.00     0.00     0.00     0.00
eigval :      -13.18     2.59     6.47     7.02    15.46    23.04
eigval :       23.47    27.21    39.30    71.15    75.22    91.55
eigval :      100.22   100.85   109.24   119.09   119.85   133.37
eigval :      173.51   177.35   183.97   189.60   192.34   225.13
eigval :      226.57   227.60   229.60   237.12   240.14   243.14
eigval :      245.11   249.29   250.19   252.36   265.96   266.75
eigval :      270.56   271.36   300.29   306.57   316.23   317.60
eigval :      319.40   342.33   346.45   347.01   350.15   358.56
eigval :      360.37   363.75   379.54   381.62   383.97   388.81
eigval :      389.69   391.32   392.19   401.58   405.08   406.89
eigval :      422.27   423.07   436.87   437.93   458.80   459.71
eigval :      482.00   505.50   508.12   618.53   618.90   623.13
eigval :      623.34   625.40   625.84   637.26   638.50   643.10
eigval :      643.24   658.48   658.96   666.14   666.46   672.90
eigval :      673.55   706.48   723.04   724.11   725.19   727.78
eigval :      759.93   760.39   766.75   773.09   779.65   781.05
eigval :      781.71   783.08   799.09   799.99   800.31   800.48
eigval :      806.31   806.42   810.86   811.21   818.56   819.17
eigval :      826.25   826.74   834.05   834.61   837.18   837.76
eigval :      844.21   844.59   845.24   845.56   845.61   846.02
eigval :      846.15   846.52   897.60   960.79   989.15   991.34
eigval :     1002.59  1003.56  1015.22  1020.58  1022.17  1022.25
eigval :     1026.92  1027.04  1035.42  1035.56  1040.09  1040.34
eigval :     1066.73  1067.22  1069.49  1070.12  1071.77  1072.44
eigval :     1073.61  1073.94  1083.10  1134.90  1140.17  1141.12
eigval :     1149.38  1171.56  1173.95  1174.91  1180.18  1225.65
eigval :     1225.76  1244.83  1245.39  1268.90  1281.60  1282.00
eigval :     1305.95  1306.07  1307.46  1314.25  1318.34  1320.11
eigval :     1330.86  1331.34  1331.67  1332.05  1339.68  1345.53
eigval :     1354.09  1355.46  1356.34  1357.96  1432.06  1467.63
eigval :     1470.20  1470.44  1482.91  1489.05  1500.93  1504.81
eigval :     1508.34  1514.05  1519.01  1532.13  1532.29  1537.14
eigval :     1537.82  1544.06  1548.06  1559.51  1562.67  1573.31
eigval :     1578.44  1584.74  1589.75  1614.45  1620.21  2165.49
eigval :     2206.40  2268.22  3093.53  3093.56  3093.71  3093.77
eigval :     3094.76  3094.95  3149.65  3149.70  3150.03  3150.07
eigval :     3154.03  3154.23  3154.26  3154.51  3163.50  3163.52
eigval :     3163.91  3164.08  3167.88  3168.25  3168.37  3168.82
 reduced masses (amu)
   1: 17.98   2: 13.91   3: 18.23   4: 18.59   5: 18.76   6: 17.53   7: 11.19   8: 11.23
   9: 11.56  10: 11.63  11: 11.77  12: 10.96  13: 12.13  14: 11.10  15: 11.49  16: 12.76
  17: 19.04  18: 12.48  19: 28.05  20: 28.32  21: 11.50  22: 10.51  23: 10.63  24: 11.24
  25: 11.99  26: 12.86  27: 12.51  28: 12.16  29: 12.13  30: 12.65  31: 11.95  32: 12.89
  33: 12.64  34: 13.92  35: 21.40  36: 10.79  37: 10.90  38: 12.12  39: 12.01  40: 24.10
  41: 44.24  42: 44.39  43: 43.22  44: 43.23  45: 19.22  46: 14.44  47: 16.77  48: 12.14
  49: 12.29  50: 12.19  51: 12.06  52: 12.35  53: 12.01  54: 12.58  55: 12.31  56: 12.05
  57: 13.85  58: 14.29  59: 12.00  60: 10.06  61: 10.46  62: 14.78  63: 12.18  64: 14.16
  65: 14.48  66: 15.94  67:  9.96  68: 10.22  69: 10.26  70: 10.23  71: 11.76  72: 11.78
  73: 12.43  74: 11.72  75: 11.73  76: 11.07  77: 11.08  78: 11.15  79: 11.11  80: 10.77
  81: 10.75  82: 11.17  83: 11.18  84: 11.10  85: 11.11  86: 11.39  87: 11.40  88: 11.54
  89: 11.54  90: 11.50  91: 11.51  92: 11.68  93: 11.09  94: 10.95  95: 10.97  96: 11.01
  97: 11.16  98: 11.17  99: 11.27 100: 11.37 101: 11.33 102: 11.38 103: 10.83 104: 10.97
 105: 11.46 106:  4.96 107: 10.49 108:  4.22 109:  3.91 110:  4.20 111:  4.01 112:  3.99
 113:  4.33 114:  4.32 115:  3.88 116:  3.88 117:  3.90 118:  3.90 119:  4.04 120:  4.04
 121:  3.38 122:  3.38 123:  3.47 124:  3.48 125:  3.47 126:  3.50 127:  3.50 128:  3.51
 129: 11.47 130: 11.80 131: 12.33 132: 12.28 133: 12.10 134: 12.08 135: 11.66 136: 11.17
 137:  9.27 138:  9.21 139:  9.51 140:  9.46 141:  9.36 142:  9.38 143:  9.10 144:  9.11
 145:  1.56 146:  1.55 147:  1.78 148:  1.79 149:  1.90 150:  1.89 151:  2.07 152:  2.21
 153:  9.46 154:  5.35 155:  5.48 156:  5.54 157:  6.48 158:  6.23 159:  7.19 160:  7.26
 161:  6.93 162:  8.71 163:  8.68 164:  8.31 165:  8.27 166: 12.05 167:  8.86 168:  8.94
 169: 10.63 170: 10.77 171: 10.60 172: 10.77 173: 10.27 174: 10.23 175: 10.13 176: 11.50
 177:  9.95 178: 11.45 179: 12.21 180: 11.83 181:  9.65 182:  9.22 183:  9.14 184:  9.92
 185: 11.70 186: 11.51 187: 11.52 188: 11.57 189: 11.55 190: 11.66 191: 11.79 192: 11.45
 193: 11.44 194: 11.71 195: 11.72 196: 11.70 197: 11.83 198: 11.84 199: 11.77 200: 11.65
 201: 11.65 202: 11.60 203: 11.61 204: 11.62 205: 11.64 206: 11.64 207: 11.65 208: 11.75
 209: 11.76 210: 12.01 211: 12.01 212: 12.01 213:  1.82 214:  1.82 215:  1.82 216:  1.82
 217:  1.82 218:  1.82 219:  1.81 220:  1.81 221:  1.80 222:  1.81 223:  1.81 224:  1.81
 225:  1.81 226:  1.81 227:  1.98 228:  1.98 229:  1.98 230:  1.98 231:  1.97 232:  1.97
 233:  1.97 234:  1.97
 IR intensities (km·mol⁻¹)
   1: 87.45   2: 99.82   3: 89.07   4:  2.96   5:  5.98   6: 76.26   7: 40.36   8: 11.20
   9:  4.56  10: 30.51  11: 37.24  12:  8.96  13:  5.74  14:  3.38  15:139.84  16: 99.54
  17: 12.50  18:  0.22  19:272.31  20:  2.28  21:130.59  22:  9.15  23:  9.52  24:100.85
  25: 52.71  26:  0.16  27:  3.22  28:  0.36  29:  0.21  30: 57.75  31:287.59  32: 73.34
  33:146.24  34:  2.62  35: 47.93  36:  2.19  37:  0.52  38:  1.22  39:  5.21  40: 11.33
  41:  1.52  42: 25.16  43:  3.58  44: 64.09  45: 12.84  46:125.27  47: 81.72  48: 13.41
  49:  6.79  50:462.35  51: 73.42  52:392.11  53: 66.03  54: 29.42  55: 67.94  56: 56.80
  57: 17.69  58:  3.89  59:132.83  60: 62.38  61: 44.02  62:******  63: 37.36  64:  3.42
  65:  1.50  66:185.83  67:  8.73  68: 91.98  69: 14.80  70:106.01  71:  4.42  72:  0.20
  73:168.02  74: 56.85  75: 78.33  76:  7.75  77:200.43  78:  2.98  79:443.60  80:674.99
  81:  2.44  82: 26.97  83: 18.88  84:  0.97  85:******  86:117.93  87: 33.22  88:558.88
  89:  4.84  90: 21.19  91:236.35  92: 98.30  93: 31.09  94: 26.62  95:  1.58  96:  1.59
  97:109.76  98:  2.89  99:****** 100:  0.42 101:  8.52 102:  2.33 103: 22.62 104: 23.52
 105:  1.13 106: 30.00 107:  2.91 108: 56.45 109:  0.62 110:  7.92 111:176.22 112: 38.52
 113:  6.72 114: 69.73 115: 57.84 116:  5.04 117: 16.91 118:  8.25 119:946.19 120:108.34
 121: 30.82 122: 30.59 123: 75.70 124: 45.80 125:339.30 126:  5.94 127: 35.44 128: 35.36
 129: 14.78 130: 10.80 131:306.63 132: 17.99 133: 52.01 134: 73.28 135:115.48 136:  9.88
 137:  5.45 138:  0.03 139:  0.15 140:  4.04 141:460.48 142:  2.88 143:  5.28 144: 16.02
 145: 10.95 146:  6.16 147:393.79 148: 61.39 149: 17.68 150: 38.54 151:****** 152:******
 153:****** 154: 17.83 155: 17.69 156:  1.09 157:****** 158:  0.21 159:  3.39 160:  0.31
 161: 77.62 162:  1.76 163:  2.94 164:357.17 165: 73.54 166: 25.19 167: 11.33 168:  7.63
 169: 10.27 170:260.78 171:  6.86 172: 31.03 173:  2.10 174:  0.04 175:  6.25 176:254.75
 177:  5.07 178:143.70 179:316.88 180: 15.04 181:206.79 182:  8.76 183:  4.47 184:132.22
 185:  0.06 186: 24.73 187: 13.79 188:  5.55 189:935.16 190: 24.38 191:292.49 192:  0.15
 193:  0.58 194: 10.74 195:  4.74 196: 22.00 197:  2.44 198:  7.75 199:  6.21 200: 41.42
 201: 23.66 202:  6.27 203: 89.58 204: 10.54 205:  2.37 206:  0.57 207: 37.05 208:  3.40
 209:  0.25 210:134.68 211: 15.86 212:263.18 213:304.49 214:276.99 215:495.55 216:305.82
 217: 54.25 218: 13.17 219:  6.37 220:  7.82 221:  1.47 222:  8.34 223: 33.44 224:******
 225:406.57 226:****** 227: 68.00 228: 50.48 229:****** 230: 30.89 231: 44.80 232:******
 233: 42.91 234:933.34
 Raman intensities (amu)
   1:  0.00   2:  0.00   3:  0.00   4:  0.00   5:  0.00   6:  0.00   7:  0.00   8:  0.00
   9:  0.00  10:  0.00  11:  0.00  12:  0.00  13:  0.00  14:  0.00  15:  0.00  16:  0.00
  17:  0.00  18:  0.00  19:  0.00  20:  0.00  21:  0.00  22:  0.00  23:  0.00  24:  0.00
  25:  0.00  26:  0.00  27:  0.00  28:  0.00  29:  0.00  30:  0.00  31:  0.00  32:  0.00
  33:  0.00  34:  0.00  35:  0.00  36:  0.00  37:  0.00  38:  0.00  39:  0.00  40:  0.00
  41:  0.00  42:  0.00  43:  0.00  44:  0.00  45:  0.00  46:  0.00  47:  0.00  48:  0.00
  49:  0.00  50:  0.00  51:  0.00  52:  0.00  53:  0.00  54:  0.00  55:  0.00  56:  0.00
  57:  0.00  58:  0.00  59:  0.00  60:  0.00  61:  0.00  62:  0.00  63:  0.00  64:  0.00
  65:  0.00  66:  0.00  67:  0.00  68:  0.00  69:  0.00  70:  0.00  71:  0.00  72:  0.00
  73:  0.00  74:  0.00  75:  0.00  76:  0.00  77:  0.00  78:  0.00  79:  0.00  80:  0.00
  81:  0.00  82:  0.00  83:  0.00  84:  0.00  85:  0.00  86:  0.00  87:  0.00  88:  0.00
  89:  0.00  90:  0.00  91:  0.00  92:  0.00  93:  0.00  94:  0.00  95:  0.00  96:  0.00
  97:  0.00  98:  0.00  99:  0.00 100:  0.00 101:  0.00 102:  0.00 103:  0.00 104:  0.00
 105:  0.00 106:  0.00 107:  0.00 108:  0.00 109:  0.00 110:  0.00 111:  0.00 112:  0.00
 113:  0.00 114:  0.00 115:  0.00 116:  0.00 117:  0.00 118:  0.00 119:  0.00 120:  0.00
 121:  0.00 122:  0.00 123:  0.00 124:  0.00 125:  0.00 126:  0.00 127:  0.00 128:  0.00
 129:  0.00 130:  0.00 131:  0.00 132:  0.00 133:  0.00 134:  0.00 135:  0.00 136:  0.00
 137:  0.00 138:  0.00 139:  0.00 140:  0.00 141:  0.00 142:  0.00 143:  0.00 144:  0.00
 145:  0.00 146:  0.00 147:  0.00 148:  0.00 149:  0.00 150:  0.00 151:  0.00 152:  0.00
 153:  0.00 154:  0.00 155:  0.00 156:  0.00 157:  0.00 158:  0.00 159:  0.00 160:  0.00
 161:  0.00 162:  0.00 163:  0.00 164:  0.00 165:  0.00 166:  0.00 167:  0.00 168:  0.00
 169:  0.00 170:  0.00 171:  0.00 172:  0.00 173:  0.00 174:  0.00 175:  0.00 176:  0.00
 177:  0.00 178:  0.00 179:  0.00 180:  0.00 181:  0.00 182:  0.00 183:  0.00 184:  0.00
 185:  0.00 186:  0.00 187:  0.00 188:  0.00 189:  0.00 190:  0.00 191:  0.00 192:  0.00
 193:  0.00 194:  0.00 195:  0.00 196:  0.00 197:  0.00 198:  0.00 199:  0.00 200:  0.00
 201:  0.00 202:  0.00 203:  0.00 204:  0.00 205:  0.00 206:  0.00 207:  0.00 208:  0.00
 209:  0.00 210:  0.00 211:  0.00 212:  0.00 213:  0.00 214:  0.00 215:  0.00 216:  0.00
Refinement of some symmetry elements was terminated before convergence was reached.
Some symmetry elements may remain unidentified.
Molecule has no symmetry elements
It seems to be the C1 point group
 217:  0.00 218:  0.00 219:  0.00 220:  0.00 221:  0.00 222:  0.00 223:  0.00 224:  0.00
 225:  0.00 226:  0.00 227:  0.00 228:  0.00 229:  0.00 230:  0.00 231:  0.00 232:  0.00
 233:  0.00 234:  0.00
 output can be read by thermo (or use thermo option).
 writing <g98.out> molden fake output.
 recommended (thermochemical) frequency scaling factor: 1.0
           -------------------------------------------------
          |             Thermodynamic Functions             |
           -------------------------------------------------

c1  symmetry found (for desy threshold:  0.10E+00) used in thermo
 inverting freq            1   13.177172917756710     

          ...................................................
          :                      SETUP                      :
          :.................................................:
          :  # frequencies                         228      :
          :  # imaginary freq.                       0      :
          :  linear?                             false      :
          :  only rotor calc.                    false      :
          :  symmetry                               c1      :
          :  rotational number                       1      :
          :  scaling factor                  1.0000000      :
          :  rotor cutoff                   50.0000000 cm⁻¹ :
          :  imag. cutoff                  -20.0000000 cm⁻¹ :
          :.................................................:

    mode    ω/cm⁻¹     T·S(HO)/kcal·mol⁻¹    T·S(FR)/kcal·mol⁻¹   T·S(vib)
   ------------------------------------------------------------------------
       1     13.18    -2.22507 (  0.48%)    -1.45159 ( 99.52%)    -1.45530
       2      2.59    -3.18827 (  0.00%)    -1.93320 (100.00%)    -1.93321
       3      6.47    -2.64626 (  0.03%)    -1.66221 ( 99.97%)    -1.66249
       4      7.02    -2.59774 (  0.04%)    -1.63795 ( 99.96%)    -1.63833
       5     15.46    -2.13044 (  0.91%)    -1.40426 ( 99.09%)    -1.41084
       6     23.04    -1.89431 (  4.31%)    -1.28611 ( 95.69%)    -1.31234
       7     23.47    -1.88327 (  4.63%)    -1.28059 ( 95.37%)    -1.30849
       8     27.21    -1.79572 (  8.07%)    -1.23676 ( 91.93%)    -1.28185
       9     39.30    -1.57847 ( 27.62%)    -1.12790 ( 72.38%)    -1.25234
      10     71.15    -1.22878 ( 80.39%)    -0.95206 ( 19.61%)    -1.17452
      11     75.22    -1.19615 ( 83.66%)    -0.93557 ( 16.34%)    -1.15359
      12     91.55    -1.08128 ( 91.83%)    -0.87736 (  8.17%)    -1.06462
      13    100.22    -1.02865 ( 94.17%)    -0.85057 (  5.83%)    -1.01826
      14    100.85    -1.02497 ( 94.30%)    -0.84870 (  5.70%)    -1.01493
      15    109.24    -0.97866 ( 95.80%)    -0.82504 (  4.20%)    -0.97220
      16    119.09    -0.92874 ( 96.99%)    -0.79944 (  3.01%)    -0.92485
      17    119.85    -0.92507 ( 97.06%)    -0.79756 (  2.94%)    -0.92132
      18    133.37    -0.86371 ( 98.06%)    -0.76591 (  1.94%)    -0.86182
      19    173.51    -0.71469 ( 99.32%)    -0.68795 (  0.68%)    -0.71450
      20    177.35    -0.70247 ( 99.37%)    -0.68147 (  0.63%)    -0.70234
      21    183.97    -0.68210 ( 99.46%)    -0.67063 (  0.54%)    -0.68204
      22    189.60    -0.66538 ( 99.52%)    -0.66169 (  0.48%)    -0.66536
      23    192.34    -0.65747 ( 99.55%)    -0.65744 (  0.45%)    -0.65747
      24    225.13    -0.57169 ( 99.76%)    -0.61081 (  0.24%)    -0.57178
      25    226.57    -0.56825 ( 99.76%)    -0.60891 (  0.24%)    -0.56835
      26    227.60    -0.56583 ( 99.77%)    -0.60758 (  0.23%)    -0.56592
      27    229.60    -0.56114 ( 99.78%)    -0.60499 (  0.22%)    -0.56124
      28    237.12    -0.54394 ( 99.80%)    -0.59544 (  0.20%)    -0.54404
      29    240.14    -0.53721 ( 99.81%)    -0.59169 (  0.19%)    -0.53732
      30    243.14    -0.53064 ( 99.82%)    -0.58801 (  0.18%)    -0.53074
      31    245.11    -0.52637 ( 99.83%)    -0.58561 (  0.17%)    -0.52647
      32    249.29    -0.51747 ( 99.84%)    -0.58061 (  0.16%)    -0.51757
      33    250.19    -0.51558 ( 99.84%)    -0.57955 (  0.16%)    -0.51568
      34    252.36    -0.51103 ( 99.85%)    -0.57698 (  0.15%)    -0.51113
      35    265.96    -0.48369 ( 99.88%)    -0.56143 (  0.12%)    -0.48379
      36    266.75    -0.48217 ( 99.88%)    -0.56056 (  0.12%)    -0.48226
      37    270.56    -0.47485 ( 99.88%)    -0.55636 (  0.12%)    -0.47494
      38    271.36    -0.47333 ( 99.88%)    -0.55548 (  0.12%)    -0.47343
   ------------------------------------------------------------------------

   temp. (K)  partition function   enthalpy   heat capacity  entropy
                                   cal/mol     cal/K/mol   cal/K/mol   J/K/mol
 298.15  VIB  0.185E+22            26064.771    172.178    161.824
         ROT  0.243E+09              888.752      2.981     41.352
         INT  0.450E+30            26953.523    175.159    203.176
         TR   0.221E+29             1481.254      4.968     45.913
         TOT                       28434.7768   180.1269   249.0888  1042.1873

       T/K    H(0)-H(T)+PV         H(T)/Eh          T*S/Eh         G(T)/Eh
   ------------------------------------------------------------------------
    298.15    0.453137E-01    0.584894E+00    0.118350E+00    0.466544E+00
   ------------------------------------------------------------------------

         :::::::::::::::::::::::::::::::::::::::::::::::::::::
         ::                  THERMODYNAMIC                  ::
         :::::::::::::::::::::::::::::::::::::::::::::::::::::
         :: total free energy        -139.977656030505 Eh   ::
         ::.................................................::
         :: total energy             -140.444199556389 Eh   ::
         :: zero point energy           0.539579928725 Eh   ::
         :: G(RRHO) w/o ZPVE           -0.073036402841 Eh   ::
         :: G(RRHO) contrib.            0.466543525884 Eh   ::
         :::::::::::::::::::::::::::::::::::::::::::::::::::::
imag cut-off (cm-1) :    5.00
 found            1  significant imaginary frequency
 writing imag mode distorted coords to xtbhess.xyz
 for further optimization.

optimized geometry written to: xtbopt.xyz


           -------------------------------------------------
          | TOTAL ENERGY             -140.444199556389 Eh   |
          | TOTAL ENTHALPY           -139.859305926488 Eh   |
          | TOTAL FREE ENERGY        -139.977656030505 Eh   |
          | GRADIENT NORM               0.000427481703 Eh/α |
          | HOMO-LUMO GAP               0.003800790142 eV   |
           -------------------------------------------------

------------------------------------------------------------------------
 * finished run on 2021/11/19 at 10:52:25.581     
------------------------------------------------------------------------
 total:
 * wall-time:     0 d,  0 h,  1 min, 45.919 sec
 *  cpu-time:     0 d,  0 h,  1 min, 45.918 sec
 * ratio c/w:     1.000 speedup
 SCF:
 * wall-time:     0 d,  0 h,  0 min,  0.699 sec
 *  cpu-time:     0 d,  0 h,  0 min,  0.699 sec
 * ratio c/w:     1.000 speedup
 ANC optimizer:
 * wall-time:     0 d,  0 h,  0 min, 13.460 sec
 *  cpu-time:     0 d,  0 h,  0 min, 13.458 sec
 * ratio c/w:     1.000 speedup
 analytical hessian:
 * wall-time:     0 d,  0 h,  1 min, 31.694 sec
 *  cpu-time:     0 d,  0 h,  1 min, 31.695 sec
 * ratio c/w:     1.000 speedup

