78
 energy: -140.444199556365 gnorm: 0.000427477845 xtb: 6.4.1 (bd6e46d)
Co        6.66946889287904   -0.05319160487319    0.00747940280873
C         9.12209021625883   -3.49410887701083    0.09240046192264
C        10.08572945428638   -2.54589807751710    0.11915091929839
C         9.41162786553276   -1.28408862807490    0.08154306898664
C        10.09195493969010   -0.06467858253363    0.06986701749235
C         9.42092617992213    1.15950484256924    0.03329462881527
C        10.10469275547701    2.41655558659723    0.01520585010429
C         9.14726853938108    3.37109554837421   -0.00810871879607
C         7.89014743687099    2.68666795161596   -0.00287565096782
N         8.06892446155231    1.32815030239973    0.01839211476021
C         6.67848824149954    3.34283098423247   -0.00338472136782
C         5.46383803167321    2.69270681004308    0.00750365551907
C         4.20662404540833    3.38192462122660    0.01869382548908
C         3.24798831368732    2.43070973563084    0.01589695895233
C         3.92716291553985    1.16775386413883    0.00027498520749
N         5.28316528909254    1.33769633390393    0.00097728194856
C         3.26689100759414   -0.04162772623343   -0.03102157884553
C         3.91971601484707   -1.25522794623851   -0.05626083920082
C         3.23277052734188   -2.51313839230895   -0.10324821741840
C         4.18515366924666   -3.47065537618780   -0.10415854423656
C         5.44631351883081   -2.79036295499490   -0.05486795473846
N         5.27429843870755   -1.43430472773301   -0.03232891701700
C         6.65586530340811   -3.44883018247739   -0.01531452957246
C         7.87079653018289   -2.80104691175988    0.04008723109723
N         8.05895407931339   -1.44367346965554    0.04025336023999
H         9.22646577350115   -4.56155852557865    0.10565024436134
H        11.15105452232027   -2.66442492051810    0.15900127205705
H        11.17151230125120    2.52807428328076    0.02125856868233
H         9.25933313031083    4.43767572028079   -0.02584878881355
H         6.68259431239126    4.42223468646301   -0.00984294041670
H         4.09994077507238    4.44942077494459    0.02727921612066
H         2.18138047792614    2.54583717021503    0.02139682972601
H         2.18764991823969   -0.03807985902439   -0.04061338879803
H         2.16570557816926   -2.62089563076574   -0.13112723746445
H         4.07171594020734   -4.53710340874807   -0.13268152450234
H         6.65282570739137   -4.52821803703648   -0.02491096506952
C        11.48903353823849   -0.06787171207417    0.08507442824923
C        12.70840787650794   -0.06564839291533    0.08650438493061
C        14.04514910583376   -0.05809467880771    0.08890619147795
C        15.26892733159354   -0.04660197926241    0.08512306264489
C        16.60551112259793   -0.02996851471289    0.08821029312915
C        17.82480974686598   -0.01195193024828    0.09882752474311
Co       22.62728612014794    0.05434095333012   -0.02062184873490
C        20.14971273855570    3.43663986137842    0.39652860954187
C        19.19515088185330    2.48641595601060    0.27062474732022
C        19.88240584178940    1.23755258360266    0.14372601827798
C        19.22121921761693    0.00683809592288    0.11056329537822
C        19.91612523767716   -1.20424472860655    0.16993253172453
C        19.26562389381050   -2.46895710176105    0.32798271478100
C        20.24777205841054   -3.39353535631175    0.43113809261818
C        21.48657318962326   -2.68834188825141    0.30068325787317
N        21.27099329075477   -1.34314201060842    0.15369409369712
C        22.71205399952348   -3.31740428374998    0.24022317222342
C        23.88572731275952   -2.65439102240849   -0.04950187314804
C        25.13166665830270   -3.32328952069354   -0.28630034583986
C        26.02218159604749   -2.36689555951686   -0.62920247031260
C        25.32366114815007   -1.11617891207492   -0.56280109282176
N        24.01469293063811   -1.30437195020193   -0.21865297223280
C        25.93982766898618    0.10580440573570   -0.73359443051795
C        25.30026797581769    1.30491946598594   -0.49784817490566
C        25.97447419908400    2.57057495307665   -0.49319081393460
C        25.05696661165625    3.49377038663528   -0.13089064632408
C        23.81970483395637    2.79118780189145    0.04619029337622
N        23.98212009806057    1.45118551231496   -0.16960670622840
C        22.62123250238167    3.42114243292979    0.30611454512056
C        21.40956086616764    2.76288336242292    0.30863478000851
N        21.23328580131267    1.41265886377266    0.15713878231224
H        20.03296476392875    4.49560197887749    0.52093688418509
H        18.12794255160996    2.59470150224840    0.27724970797644
H        18.20225624490331   -2.60453486115154    0.36783652147632
H        20.16211313171780   -4.45432138247666    0.56495661330446
H        22.74370412927747   -4.38942919381317    0.36234139432998
H        25.27579809005104   -4.38363794791971   -0.20966592246511
H        27.05833166770125   -2.47048285886675   -0.88736678140098
H        26.98609907484355    0.12304056501199   -0.99791705060881
H        27.01372864734463    2.70561022311705   -0.72276108692323
H        25.17701980979226    4.55263670192335   -0.00668591393848
H        22.62295438376664    4.49097798406074    0.44959859449213
