78
 energy: -139.670740378048 gnorm: 1.603034559205 xtb: 6.4.1 (bd6e46d)
Co        6.92102300000000    0.02323200000000   -0.00510600000000
C         9.25001400000000   -3.12356100000000    1.31758300000000
C        10.16612100000000   -2.17935300000000    1.26730100000000
C         9.75494200000000   -1.12544900000000    0.34600900000000
C        10.37381200000000   -0.00110300000000   -0.00040100000000
C         9.66977000000000    1.21884500000000   -0.36450600000000
C         9.99788000000000    2.17890000000000   -1.21197900000000
C         8.96310100000000    3.19518500000000   -1.22887700000000
C         8.02683300000000    2.81872300000000   -0.38198600000000
N         8.42882300000000    1.58571200000000    0.18183100000000
C         6.76575800000000    3.46372300000000   -0.00283400000000
C         5.67054100000000    2.82894000000000    0.34792600000000
C         4.59691500000000    3.14689600000000    1.31695400000000
C         3.75935300000000    2.15014200000000    1.23978800000000
C         4.19765000000000    1.14645900000000    0.25933600000000
N         5.30258800000000    1.58531200000000   -0.22495600000000
C         3.58681500000000   -0.10681200000000   -0.15421200000000
C         4.25097600000000   -1.21131800000000   -0.40863600000000
C         3.87712700000000   -2.27426000000000   -1.36616400000000
C         4.82587400000000   -3.16801600000000   -1.27714400000000
C         5.81159800000000   -2.73056600000000   -0.29426700000000
N         5.45855200000000   -1.58476100000000    0.20253100000000
C         7.04248600000000   -3.38663600000000    0.15145400000000
C         8.16552800000000   -2.74077500000000    0.41857500000000
N         8.49412800000000   -1.49333400000000   -0.17982800000000
H         9.31027600000000   -4.03334100000000    1.93513000000000
H        11.08244800000000   -2.21930300000000    1.84534900000000
H        10.92524600000000    2.19569600000000   -1.81312300000000
H         8.98000000000000    4.09987400000000   -1.84149900000000
H         6.71803500000000    4.55852500000000   -0.00661100000000
H         4.54409400000000    4.02562100000000    1.94194700000000
H         2.84772200000000    2.11447200000000    1.85711200000000
H         2.48856500000000   -0.10390100000000   -0.25348300000000
H         3.00827100000000   -2.32672500000000   -2.01511400000000
H         4.82302800000000   -4.08432400000000   -1.87590400000000
H         7.00700400000000   -4.48243800000000    0.26337900000000
C        11.41616500000000    0.01324000000000    0.00480700000000
C        12.63169800000000   -0.01210300000000   -0.00567300000000
C        14.05321500000000   -0.03352700000000   -0.00984800000000
C        15.26177600000000   -0.03573800000000   -0.00974300000000
C        16.68285200000000   -0.01677800000000   -0.01037000000000
C        17.89399400000000    0.01324000000000    0.00480700000000
Co       22.42156600000000   -0.01037000000000   -0.16405400000000
C        19.87569700000000    3.22697400000000    1.12779700000000
C        18.94933700000000    2.29979900000000    0.98324900000000
C        19.55135000000000    1.13101900000000    0.32650500000000
C        18.95839800000000   -0.00110300000000   -0.00040100000000
C        19.59071200000000   -1.31429000000000   -0.02229200000000
C        19.07004900000000   -2.53385200000000    0.09922000000000
C        20.10559600000000   -3.53513400000000    0.01065300000000
C        21.25897100000000   -2.87966500000000   -0.16705900000000
N        20.97251800000000   -1.50894000000000   -0.19138400000000
C        22.60059500000000   -3.45128700000000   -0.31539800000000
C        23.74278900000000   -2.84605700000000   -0.14605100000000
C        25.02150100000000   -3.26490900000000    0.49050500000000
C        25.82137700000000   -2.25926100000000    0.35229500000000
C        25.17301500000000   -1.13369100000000   -0.35704900000000
N        23.98288600000000   -1.53123500000000   -0.61536200000000
C        25.68234000000000    0.18066200000000   -0.74387000000000
C        25.02295800000000    1.30982300000000   -0.64694100000000
C        25.42076500000000    2.59452800000000   -1.26735100000000
C        24.51356800000000    3.45765400000000   -0.92621000000000
C        23.50701000000000    2.78944100000000   -0.08781600000000
N        23.83693400000000    1.55074300000000    0.04962200000000
C        22.31156200000000    3.36070000000000    0.52574400000000
C        21.14493900000000    2.75031500000000    0.58523800000000
N        20.89392400000000    1.44795100000000    0.10090800000000
H        19.68407300000000    4.20917500000000    1.59557200000000
H        17.90702200000000    2.42465100000000    1.31518600000000
H        17.98403300000000   -2.70087600000000    0.24739700000000
H        19.93352000000000   -4.59664400000000    0.08019800000000
H        22.66152300000000   -4.51940300000000   -0.60147600000000
H        25.17465000000000   -4.22822900000000    0.95160700000000
H        26.84368300000000   -2.26201800000000    0.71926400000000
H        26.71640600000000    0.14733300000000   -1.14081700000000
H        26.29683000000000    2.79720700000000   -1.89031800000000
H        24.55322000000000    4.50889400000000   -1.24783700000000
H        22.39816000000000    4.35037600000000    0.95630400000000
78
 energy: -140.106575945155 gnorm: 0.414952799518 xtb: 6.4.1 (bd6e46d)
Co        6.92572807197127    0.02300207938024   -0.00449269086926
C         9.24615109256282   -3.13385422082907    1.31294021183538
C        10.17209823219439   -2.17697780412748    1.26400034318671
C         9.70428203857913   -1.15037699559281    0.35438664706870
C        10.27124980336938    0.01019760324555   -0.00034757967217
C         9.62671671240027    1.22727609149903   -0.36292724111137
C        10.00293804009897    2.19946583988468   -1.22498197831339
C         8.98352667245738    3.19980522794011   -1.23943622734338
C         8.01770906468571    2.80705684040018   -0.37520527676623
N         8.40013137259163    1.57273510524152    0.17975670149685
C         6.77964137247176    3.46667839117127   -0.00416190921873
C         5.66060535567870    2.81709830737611    0.34909385622006
C         4.60071842438086    3.15319799713696    1.30617409827278
C         3.74051506654445    2.14303320067806    1.24253468072395
C         4.19203198302577    1.14667317176115    0.27030062724745
N         5.33050528187143    1.57046315461147   -0.21504955374168
C         3.57713325442815   -0.08971961159170   -0.14910779545207
C         4.25512401994211   -1.21643762580486   -0.41249799725372
C         3.87067933952872   -2.27133674582770   -1.35779139723298
C         4.83264725587614   -3.18345947221466   -1.27593245266022
C         5.81916955714815   -2.73880992677067   -0.29917541760052
N         5.46816013520340   -1.56419847067064    0.18718893251258
C         7.02678345889962   -3.39446332621505    0.14591709577778
C         8.16943686340058   -2.73338309526392    0.42129070773680
N         8.47668807190843   -1.49270833231049   -0.15874286803772
H         9.30568815165850   -4.03006679927310    1.93051824799395
H        11.08361486418113   -2.21219613905355    1.84240796419614
H        10.92196396774280    2.19815731823262   -1.81252991340998
H         8.98336009530923    4.09802336250505   -1.84186582831936
H         6.72582987477484    4.55712284686814   -0.00314166224604
H         4.54788608232077    4.02452904234744    1.93886433080510
H         2.84639982721541    2.10926940981557    1.85571813617865
H         2.49007307163886   -0.09997812352663   -0.25623019941856
H         3.00972788924076   -2.32134564960098   -2.01089838241931
H         4.82911712131333   -4.08560601018355   -1.87344243180489
H         7.00421576973001   -4.48034561130082    0.26364682418326
C        11.53063547827458    0.02405201599214    0.00361695756341
C        12.70861273418813   -0.01133379394358   -0.00507013559949
C        14.04898839267330   -0.03295525439889   -0.01027475105126
C        15.26677878358390   -0.03524912936292   -0.01028825282085
C        16.61035722199732   -0.01999903302759   -0.01256849692960
C        17.78959826479094    0.00504100396590    0.00210328015258
Co       22.41500410957173   -0.00952221842964   -0.16528665244592
C        19.87989400395683    3.23622193443381    1.13075083102078
C        18.94637208281652    2.29768701560601    0.97839446126141
C        19.59822505194121    1.15798055662148    0.33241505039626
C        19.05015900710450   -0.01615041601749    0.00406731305428
C        19.63380602601016   -1.32129146362215   -0.02773297998436
C        19.06366424708701   -2.55198400549605    0.09965699782563
C        20.08635133982561   -3.53587317702586    0.00987884602252
C        21.26655306971359   -2.86777842214139   -0.17721908577728
N        20.99539907883565   -1.50036349604140   -0.18881229757766
C        22.58243631310501   -3.45712253621035   -0.31630357610285
C        23.75551622102289   -2.83191381948274   -0.14949206409153
C        25.01124101273590   -3.27151196520696    0.47823021059874
C        25.83934202687842   -2.24732802617540    0.34948365445090
C        25.17989788348789   -1.13596481523524   -0.35043326217510
N        23.95752572464558   -1.51755641959094   -0.59812015667555
C        25.69257010777359    0.16257974162942   -0.74282435426797
C        25.02082925577546    1.31501211999470   -0.65095516683662
C        25.42789078901334    2.58773625278213   -1.26571329588111
C        24.50640993712015    3.47279350032067   -0.91965127908878
C        23.50434667646973    2.79740979519875   -0.08685590571167
N        23.82855382544608    1.53292389980610    0.03699290732558
C        22.32427487129181    3.36568533405481    0.52220561316788
C        21.13771006012002    2.73922730184710    0.58809439927372
N        20.90865988782401    1.44899000442905    0.10686955172665
H        19.68971210864608    4.20609542668700    1.59322198056608
H        17.91183771083159    2.41740124377103    1.31075500038132
H        17.98959378398237   -2.70411878903753    0.24717698517634
H        19.93141143638960   -4.59638513555144    0.08061526848297
H        22.65372748804504   -4.51942195115728   -0.58930139743217
H        25.17113161709934   -4.22678709007466    0.95005740646809
H        26.84791698255812   -2.25691200428618    0.71995679334693
H        26.71380183424248    0.14764443948598   -1.13965012525389
H        26.29451303130692    2.79104544687467   -1.88744161050156
H        24.54679211531937    4.50849140370345   -1.24374840088491
H        22.39978515015340    4.35387949437402    0.95155213628349
78
 energy: -140.231373333754 gnorm: 0.208300336919 xtb: 6.4.1 (bd6e46d)
Co        6.92920056903144    0.02131281060999   -0.00270577621186
C         9.24170316910289   -3.14825113266096    1.29675611171571
C        10.17629956629500   -2.17990128474934    1.25239444018696
C         9.66494166550142   -1.15919245787470    0.36908876490476
C        10.23422855543438    0.03369818883469    0.00368579270695
C         9.57912327168993    1.23380338490228   -0.36617834967256
C        10.00306285099073    2.22945668234546   -1.23318381370916
C         9.00876047799732    3.20683113028353   -1.24142981109906
C         8.00386881003826    2.78908310864890   -0.37657793618368
N         8.33816945594124    1.53868879322604    0.14349515161542
C         6.79932622924825    3.46027661613289   -0.00237618315800
C         5.66151667480338    2.79238371102341    0.35523967583553
C         4.59879094930764    3.15547804587560    1.27765204488217
C         3.71391816811287    2.13950512783784    1.23503317587506
C         4.19312750045111    1.14139000418677    0.29478057660500
N         5.38629432216183    1.52524818792602   -0.16371876795577
C         3.56988521114301   -0.06770945454707   -0.14062681273090
C         4.26311084275478   -1.20930310283604   -0.42452905123548
C         3.86546544840993   -2.27369282958680   -1.33464304318702
C         4.83521267016393   -3.20491973284103   -1.26365661069614
C         5.83020838297802   -2.74190624886457   -0.31476284067068
N         5.49918351592180   -1.52008720965200    0.13099290190790
C         7.00360934424182   -3.40454439857414    0.13868651619902
C         8.15596741516010   -2.72881554344565    0.43369498343529
N         8.42969684141232   -1.47767078317590   -0.09110457679638
H         9.29172919072101   -4.02986448459898    1.91614699569896
H        11.08565665478311   -2.19448841682814    1.82968032130143
H        10.91500077737708    2.20891833395720   -1.81026150006801
H         8.99351869602274    4.09839435035198   -1.84062189564996
H         6.74913423780452    4.54838040534744    0.00368318952646
H         4.55837255470270    4.01967244062614    1.92119752412321
H         2.83529702565693    2.09544920825882    1.85105422145841
H         2.49150107720071   -0.08642536538140   -0.26026505217026
H         3.01269100033890   -2.30777371485990   -1.99385394215115
H         4.84544936087205   -4.09536604884650   -1.86449669521247
H         6.99284999582826   -4.48144190413189    0.26032575809307
C        11.53791971700522    0.04364525085708    0.00142428467617
C        12.75017647826324   -0.00819837646414   -0.00294776264933
C        14.05247346188673   -0.03166333598500   -0.01133423470804
C        15.26280414290605   -0.03583723568002   -0.01424160435608
C        16.56581253225127   -0.02804716833490   -0.01668266190314
C        17.77638313310446   -0.01609261725497    0.01043098602106
Co       22.40296830714189   -0.00541139279931   -0.17033437608041
C        19.89416189780507    3.24330712516763    1.13126235846798
C        18.95412500144471    2.29779613423705    0.96205337573756
C        19.63581331867435    1.17324098247662    0.33455004811783
C        19.08592854968222   -0.04151913043466    0.02104342065436
C        19.68386318153085   -1.32653072979556   -0.03810577778119
C        19.06778570898223   -2.57105880287693    0.09157051417519
C        20.06671191652178   -3.53075414588856   -0.00262437307253
C        21.27677689150960   -2.85247150713513   -0.19684417500803
N        21.03634005246846   -1.48749536696125   -0.17806109298000
C        22.55957536694361   -3.45464071316774   -0.31341940754622
C        23.75696380378264   -2.80627074664257   -0.15414377180697
C        24.99974009437537   -3.26818787353377    0.44291959999281
C        25.85914096507596   -2.23553358970314    0.33215958734937
C        25.18249178361637   -1.13389355713904   -0.33205904310954
N        23.91337555252506   -1.47885125525842   -0.53759599623664
C        25.70270272649415    0.13954989990952   -0.73712964251036
C        25.01483507686405    1.31017295326691   -0.66598430622983
C        25.42999803912127    2.57942276403967   -1.25370699975737
C        24.50351981739994    3.48603834864200   -0.89861269774459
C        23.50217110189526    2.80025055118372   -0.08970415149776
N        23.80385961004423    1.50249445529536   -0.00999848311208
C        22.34332520015840    3.37175801365982    0.51674909761513
C        21.14623072382956    2.72704912984543    0.59988518201200
N        20.93852041314550    1.44569430576523    0.13033325891963
H        19.71016061420417    4.20360815464793    1.58806717348514
H        17.92643752359536    2.39619945740666    1.29410215265628
H        18.00560920791727   -2.71267122238214    0.24633391422792
H        19.92727660593721   -4.59262079829525    0.07937655153769
H        22.62982750963848   -4.51917540177853   -0.54809803262631
H        25.15784890445419   -4.21579034971998    0.93497544059101
H        26.85931549187953   -2.24308830638828    0.71718951698964
H        26.71388926694607    0.14552172964716   -1.13218144305369
H        26.28904223259382    2.77368973833385   -1.87716519153829
H        24.52864658921932    4.51130564441484   -1.22703416021518
H        22.40565300756378    4.36733856790287    0.93012043478407
78
 energy: -140.304098708261 gnorm: 0.090743083103 xtb: 6.4.1 (bd6e46d)
Co        6.92021184528794    0.02063582163950    0.00173488219585
C         9.23253449519597   -3.15861106017878    1.28102545555787
C        10.17079581160566   -2.17820852662481    1.24044887207033
C         9.61938638756874   -1.15298062270960    0.39608555266492
C        10.20013725584760    0.05543194237489    0.00654168698841
C         9.52307984976717    1.22836580838667   -0.37766182761419
C         9.99748295353730    2.25521330278087   -1.23204622992756
C         9.02931916193530    3.21733469639472   -1.23501998809503
C         7.97967357758301    2.77070377391444   -0.38571822492851
N         8.26796006971589    1.50035993437265    0.08116061388335
C         6.81486680202875    3.44846295718423   -0.00099251363562
C         5.67502218995076    2.75412134490652    0.37746006982930
C         4.60182354518327    3.14996737674423    1.24984612889397
C         3.69092726774260    2.13879799729679    1.21841381617845
C         4.19827334126601    1.12876035783568    0.32543753138002
N         5.44712293514957    1.47170118525489   -0.09360645709969
C         3.57076407864468   -0.04861743160050   -0.13158177127539
C         4.28258804565047   -1.19258202102047   -0.45275162487105
C         3.86491002139836   -2.27207519806060   -1.31394949175574
C         4.83202355401632   -3.22261559172360   -1.24452382240492
C         5.84165092962760   -2.73869625114340   -0.33648187919026
N         5.53745186951431   -1.46615864677707    0.05753693635998
C         6.97883049253911   -3.41021661147546    0.13260800689016
C         8.13015113878208   -2.71809464562018    0.46153338797486
N         8.37075225262087   -1.45387559280815   -0.01062959576452
H         9.27800509540371   -4.03813017901346    1.89229192716888
H        11.08720853608552   -2.17392394712942    1.80311752729486
H        10.90971769382855    2.21762597321304   -1.79689469328812
H         9.00110368160831    4.10788329798465   -1.82981484342924
H         6.76826547766788    4.53340199585298    0.00269760052877
H         4.56776223585054    4.01605405340232    1.89052495616931
H         2.81760948079000    2.08306437779314    1.83343682247097
H         2.49656926671684   -0.07635668399714   -0.25252650630881
H         3.01115241257512   -2.29419880965572   -1.96804313266118
H         4.85897032001791   -4.11059093126131   -1.84310608574884
H         6.98090031835598   -4.48309684993316    0.24726223976316
C        11.54401245458397    0.06124708877111   -0.00312511935282
C        12.75305811655356   -0.00577246303160   -0.00244764897123
C        14.04570623768635   -0.03056959292571   -0.01217350356523
C        15.26426884837630   -0.03589452642259   -0.01993208915622
C        16.55716636057346   -0.03672859761548   -0.02041909001219
C        17.76563880996804   -0.03876307352212    0.02203101773431
Co       22.40326252231090   -0.00785504084297   -0.16924259696909
C        19.91782456031185    3.24384859730326    1.12992661678387
C        18.97453307758281    2.29080614239383    0.94445773102297
C        19.67361986655033    1.17732512096909    0.33836374235313
C        19.11605227778332   -0.06749109301890    0.04573721359220
C        19.73913336046598   -1.32392033984567   -0.04281030797966
C        19.08075790310685   -2.58138128719984    0.07754226074687
C        20.05440300017427   -3.52379275241842   -0.02267227615026
C        21.29516687451934   -2.83877776104542   -0.20875085783638
N        21.07993725942306   -1.47705735284472   -0.16715824647867
C        22.54108438863192   -3.44818712639491   -0.30000984967530
C        23.74920683750489   -2.76919967678519   -0.14468366484824
C        24.98290732623545   -3.25598995757740    0.40583769978041
C        25.87142670050700   -2.22498629269779    0.30477044923107
C        25.18113708375008   -1.12409202927641   -0.30769303179438
N        23.86851825541611   -1.43466458277526   -0.46722627075656
C        25.70605437348456    0.11967115420665   -0.72765966761503
C        24.99642504445735    1.30165073571123   -0.69528673295584
C        25.42677352133439    2.56747126070496   -1.24212222153664
C        24.50498979286086    3.49180720740265   -0.87087267263836
C        23.49808779772199    2.79847839251400   -0.09950455870300
N        23.76930390289087    1.46740804272278   -0.07451146577901
C        22.36526796645393    3.37687197060378    0.50803898632255
C        21.16529404178423    2.71260392690379    0.61792127715562
N        20.97733428635724    1.43336034844076    0.16325652922996
H        19.74037183064543    4.20202835261860    1.57921429809613
H        17.94750630857578    2.36724903837308    1.26522972197436
H        18.02610508846917   -2.71270448568614    0.24200437299790
H        19.93178826019079   -4.58767166556521    0.07043786622009
H        22.60862865553778   -4.51473203806762   -0.49688155129958
H        25.14252991239963   -4.20083408194974    0.90437930537049
H        26.86808825711126   -2.22887050383643    0.69944881612133
H        26.71703996236936    0.14617254665843   -1.10908013366858
H        26.28569838763075    2.75249301928795   -1.86178397953727
H        24.51174317585942    4.51442913805929   -1.19533468707564
H        22.41321692079015    4.38505364110110    0.89410199335715
78
 energy: -140.346485279451 gnorm: 0.067020765729 xtb: 6.4.1 (bd6e46d)
Co        6.89664307647812    0.01929320103428    0.00996661726471
C         9.21980979866124   -3.16255325534805    1.27297070075248
C        10.15389463149987   -2.17278351218034    1.23195470527771
C         9.57170755420571   -1.12957832282107    0.43453430379163
C        10.16636757290960    0.06972999581178    0.00966051303507
C         9.47387647803134    1.21178084220179   -0.40223491384983
C         9.98819744252975    2.26659210873172   -1.22919988323280
C         9.03515166058176    3.23102855610783   -1.22987695328585
C         7.95140957700896    2.75644138788395   -0.40952021567370
N         8.20476432309817    1.46524626607434    0.00351813077198
C         6.81769019063388    3.43522231060112    0.00163194160908
C         5.69427329572737    2.71524968668550    0.41228065622646
C         4.60167530026674    3.14141744276931    1.23387718885671
C         3.67682120715380    2.13862265174216    1.20489722551831
C         4.21018407559135    1.10552266574114    0.36340042776913
N         5.49371911795842    1.42180971955694   -0.01555611617884
C         3.57875643159039   -0.04054841096909   -0.12569610057328
C         4.30487191355772   -1.17265756317806   -0.49069880527049
C         3.86307690051598   -2.27018034831162   -1.30467001967102
C         4.82289424589386   -3.23177428573979   -1.23021181883696
C         5.85230294799226   -2.72660184623917   -0.36740670891960
N         5.57173495295621   -1.42184796494727   -0.01816306005937
C         6.95863436016059   -3.40972793994315    0.13120138154734
C         8.09608060535597   -2.70572386867233    0.50057454113076
N         8.30399901337125   -1.41983910134225    0.07622706692958
H         9.27086085136284   -4.05853082135538    1.85858479148284
H        11.08935705516199   -2.15742518806132    1.76232970861915
H        10.91266629607771    2.22655480627688   -1.77295280761387
H         9.00984437692351    4.13349103312678   -1.80672805620701
H         6.77695916215752    4.51704493914685   -0.00091187934864
H         4.56712517114266    4.02288431382909    1.84944534307664
H         2.78855636188165    2.08001935569837    1.79966126835932
H         2.50394601266141   -0.06990406473719   -0.23503114745251
H         2.99530651522876   -2.28789520326498   -1.93651828864636
H         4.85934509023323   -4.13475131524576   -1.80662359568212
H         6.96593068814459   -4.48447282673453    0.22462996818634
C        11.53248132961546    0.07334446310306   -0.00785398260240
C        12.74223511625351   -0.00484809272720   -0.00277206623498
C        14.04511899318036   -0.02983016276339   -0.01523268301231
C        15.25708855404339   -0.03561208595177   -0.02940333781074
C        16.56018949845614   -0.04454170298189   -0.02177644888257
C        17.76931544565894   -0.05755303494556    0.03962769863778
Co       22.41569435588690   -0.01132762330750   -0.16178210018111
C        19.94747057398262    3.23717515638079    1.12905716199268
C        19.00591706804589    2.28005869123531    0.93080161373102
C        19.70925487068604    1.16566418833405    0.35144461948511
C        19.14060068952722   -0.08495145191231    0.07197165868840
C        19.78083294164819   -1.31557647196912   -0.04102467975114
C        19.09698397159110   -2.57905240184857    0.05952685331002
C        20.05620174870849   -3.52177404936990   -0.04738869431293
C        21.31282331880855   -2.83175238020299   -0.21423555490015
N        21.11535822405320   -1.47096332790759   -0.15543536931808
C        22.53855641662950   -3.44311440935922   -0.27968010743626
C        23.73834476377462   -2.73463170955942   -0.12282769252022
C        24.97532970205138   -3.24180477239421    0.37732356159581
C        25.87700977054539   -2.21710069859028    0.27995543469318
C        25.17419275878518   -1.10355934813239   -0.27754518242114
N        23.83824828594371   -1.39572350664617   -0.39997612445928
C        25.70224728910648    0.11270611717601   -0.72038008288141
C        24.97252723960629    1.29271298494997   -0.73262276670323
C        25.42421883079510    2.55840484410698   -1.23736495375639
C        24.51209647594747    3.49044278312627   -0.84950709402684
C        23.49193018406551    2.79158506864043   -0.12054428035613
N        23.73696977193135    1.44229807433780   -0.13958201572946
C        22.38513239815715    3.37999953761961    0.49795189221901
C        21.19348419474614    2.69986229678118    0.64042599135286
N        21.02005336949531    1.41361960103851    0.20292616956437
H        19.77724700339880    4.20184018022007    1.56704849573499
H        17.97182052804647    2.33829841083505    1.22568872248307
H        18.04417659809283   -2.70295179839794    0.23195103768126
H        19.94435087590946   -4.58616775529233    0.04921477795584
H        22.60021361709233   -4.51527904384348   -0.43203233790117
H        25.13413270392365   -4.19321728777639    0.85679039337807
H        26.87937389013335   -2.21839956945261    0.66172875741102
H        26.72480475063661    0.14897169127850   -1.07014849435800
H        26.29263207871053    2.73357331507935   -1.84366719856555
H        24.50648805742667    4.52135783495970   -1.14707534838147
H        22.42449149019753    4.40555800220150    0.84221064688544
78
 energy: -140.374802510785 gnorm: 0.056381766967 xtb: 6.4.1 (bd6e46d)
Co        6.87856137074221    0.01194485886169    0.02002924074798
C         9.20468833765363   -3.15939055199638    1.27118348429151
C        10.13285824856574   -2.16489020584565    1.22882025772975
C         9.53088226567689   -1.09936227409591    0.47994545598597
C        10.14180922433023    0.07681474119773    0.01277262354601
C         9.43951718879710    1.19184827287594   -0.43703415468238
C         9.97935124976277    2.27125901334711   -1.22824409155066
C         9.03155590163983    3.23896674593578   -1.22944703089480
C         7.92337527624073    2.73881501509115   -0.44562207451732
N         8.15722392263567    1.43392144850156   -0.07773626613265
C         6.81074234447891    3.41856969109033    0.00574577428401
C         5.71069695243402    2.68023037392832    0.45180401755961
C         4.59536010178373    3.13341766618983    1.22578499274280
C         3.66720132551389    2.13688405467381    1.19886836952076
C         4.22132892065832    1.07772765535353    0.40569574795104
N         5.52484915062795    1.37628175264641    0.06660551036298
C         3.58637843722993   -0.04092971931749   -0.12118083992514
C         4.32012966889499   -1.15504835816757   -0.53011505392957
C         3.85564140754923   -2.26971572368402   -1.30319502089524
C         4.81057357953759   -3.23404508012685   -1.22400112114872
C         5.86067544468351   -2.70944543653706   -0.40400595478593
N         5.59673757442401   -1.38912926482784   -0.09148205610676
C         6.94317878570090   -3.39881055400503    0.12936196909068
C         8.05920038912758   -2.68663854967927    0.54630222360112
N         8.24746097781263   -1.38332978650899    0.16174740548922
H         9.26871478175478   -4.08461698539210    1.81365641203229
H        11.09324630868483   -2.14689428887530    1.71493203119911
H        10.92138822207619    2.24213310596095   -1.74294322657007
H         9.02272392379879    4.16445630465061   -1.77248061410671
H         6.77746893301925    4.49817259687982   -0.00022243780163
H         4.55611750771357    4.04066602899009    1.80112563102387
H         2.74989434019463    2.08654817123073    1.75391633347364
H         2.51040534881227   -0.06596051541142   -0.21404460213648
H         2.96460458292803   -2.28929069244222   -1.90087936038430
H         4.84628361870744   -4.16473166209606   -1.75914494877887
H         6.94894622810200   -4.47664074381734    0.19705070384260
C        11.51878019933767    0.08028511593769   -0.01032500861950
C        12.72686229613742   -0.00132685234624   -0.00640793713742
C        14.03941979306072   -0.02834689750895   -0.01826680339209
C        15.25183132466298   -0.03531446447710   -0.04106220701242
C        16.56437364358370   -0.05224483722760   -0.01850747553529
C        17.77152343355833   -0.07200979778507    0.06257311996164
Co       22.42796978966196   -0.01087334733110   -0.14587084825324
C        19.97699345384109    3.22733844173312    1.12968340375723
C        19.03721364390209    2.27088938414716    0.92319782945484
C        19.73680881672065    1.14765715223354    0.37223651940064
C        19.15182299287035   -0.09410708698868    0.09888056138885
C        19.80432856613037   -1.30790736592106   -0.03831624599267
C        19.11171106968481   -2.57317425335683    0.03923447667878
C        20.06514230967068   -3.51999657733126   -0.07209915235079
C        21.32572912247419   -2.82570467782173   -0.21454972125471