 Entering Gaussian System
 *********************************************
 Gaussian 98:
 frequency output generated by the xtb code
 *********************************************
                         Standard orientation:
 --------------------------------------------------------------------
  Center     Atomic     Atomic              Coordinates (Angstroms)
  Number     Number      Type              X           Y           Z
 --------------------------------------------------------------------
    1         27             0       17.908621   -0.005507   -0.006521
    2          6             0       20.404976   -3.415353    0.040667
    3          6             0       21.357459   -2.455668    0.024924
    4          6             0       20.667488   -1.202083    0.008622
    5          6             0       21.333016    0.025671   -0.001550
    6          6             0       20.645832    1.241418    0.002083
    7          6             0       21.312762    2.507408    0.012727
    8          6             0       20.342875    3.449568    0.025972
    9          6             0       19.094873    2.748874    0.019560
   10          7             0       19.291397    1.392622    0.005776
   11          6             0       17.874954    3.389640    0.019053
   12          6             0       16.668585    2.724774   -0.005122
   13          6             0       15.403109    3.398475   -0.023932
   14          6             0       14.456662    2.435674   -0.057303
   15          6             0       15.151266    1.181133   -0.054732
   16          7             0       16.504829    1.367572   -0.023361
   17          6             0       14.505821   -0.036470   -0.073691
   18          6             0       15.173187   -1.242180   -0.053003
   19          6             0       14.501441   -2.509110   -0.053930
   20          6             0       15.465158   -3.454528   -0.017544
   21          6             0       16.718178   -2.757958    0.001398
   22          7             0       16.529849   -1.403985   -0.019926
   23          6             0       17.936400   -3.400673    0.029513
   24          6             0       19.144380   -2.737614    0.030143
   25          7             0       19.316035   -1.378077    0.011540
   26          1             0       20.522335   -4.481362    0.055928
   27          1             0       22.424828   -2.561287    0.025415
   28          1             0       22.377982    2.632663    0.012005
   29          1             0       20.440717    4.517634    0.037242
   30          1             0       17.865497    4.468931    0.031314
   31          1             0       15.283096    4.464482   -0.014226
   32          1             0       13.388985    2.537710   -0.079989
   33          1             0       13.426909   -0.046225   -0.098815
   34          1             0       13.435829   -2.630574   -0.077561
   35          1             0       15.364489   -4.522521   -0.005782
   36          1             0       17.946637   -4.479908    0.044834
   37         27             0       65.866900    0.031864   -0.005595
   38          6             0       63.380264    3.382411    0.666655
   39          6             0       62.424998    2.445122    0.473157
   40          6             0       63.111322    1.214408    0.224183
   41          6             0       62.442615    0.011498   -0.012602
   42          6             0       63.126478   -1.186512   -0.229901
   43          6             0       62.455776   -2.430700   -0.453614
   44          6             0       63.422844   -3.363295   -0.607054
   45          6             0       64.672924   -2.677930   -0.479543
   46          7             0       64.480465   -1.340902   -0.248362
   47          6             0       65.890940   -3.313242   -0.587305
   48          6             0       67.099279   -2.659240   -0.486631
   49          6             0       68.362959   -3.323366   -0.619684
   50          6             0       69.312124   -2.372566   -0.482204
   51          6             0       68.620963   -1.135586   -0.261828
   52          7             0       67.266852   -1.320526   -0.265536
   53          6             0       69.269691    0.064976   -0.068617
   54          6             0       68.605631    1.249994    0.164452
   55          6             0       69.280861    2.495381    0.386755
   56          6             0       68.319945    3.420970    0.596042
   57          6             0       67.065069    2.734833    0.495433
   58          7             0       67.249531    1.406316    0.230533
   59          6             0       65.848803    3.364139    0.645850
   60          6             0       64.638900    2.714911    0.529421
   61          7             0       64.463286    1.382716    0.259986
   62          1             0       63.266007    4.427300    0.880151
   63          1             0       61.357931    2.551776    0.494137
   64          1             0       61.390229   -2.549657   -0.482442
   65          1             0       63.321773   -4.415229   -0.790551
   66          1             0       65.897240   -4.377448   -0.767633
   67          1             0       68.480028   -4.375016   -0.796303
   68          1             0       70.379573   -2.472488   -0.520004
   69          1             0       70.348612    0.076192   -0.092793
   70          1             0       70.346711    2.616927    0.380708
   71          1             0       68.423659    4.469396    0.798356
   72          1             0       65.841720    4.422458    0.857998
   73          6             0       22.730311    0.037026   -0.007002
   74          6             0       23.949728    0.054629   -0.010936
   75          6             0       25.286663    0.060807   -0.015296
   76          6             0       26.510712    0.064002   -0.010900
   77          6             0       27.847462    0.065747   -0.014942
   78          6             0       29.067188    0.066866   -0.013967
   79          6             0       38.719393    0.048759   -0.031668
   80          6             0       39.939207    0.042615   -0.034558
   81          6             0       41.275779    0.036899   -0.038018
   82          6             0       42.499984    0.031984   -0.037417
   83          6             0       43.836554    0.024781   -0.037991
   84          6             0       45.056372    0.021806   -0.032818
   85          6             0       54.708301   -0.017793   -0.030750
   86          6             0       55.927968   -0.017178   -0.033746
   87          6             0       57.264807   -0.015090   -0.030887
   88          6             0       58.488796   -0.011333   -0.035253
   89          6             0       59.825750   -0.005356   -0.028151
   90          6             0       61.045206    0.004338   -0.021816
   91         27             0       33.893144    0.058722   -0.018650
   92          6             0       31.420147   -3.345663    0.384518
   93          6             0       30.459722   -2.400000    0.274901
   94          6             0       31.139582   -1.149673    0.126199
   95          6             0       30.463894    0.064684   -0.015618
   96          6             0       31.143546    1.276712   -0.157454
   97          6             0       30.467748    2.529577   -0.303097
   98          6             0       31.431276    3.472245   -0.411437
   99          6             0       32.683435    2.784242   -0.330909
  100          7             0       32.496385    1.435474   -0.175522
  101          6             0       33.898867    3.428362   -0.403457
  102          6             0       35.112282    2.780642   -0.329970
  103          6             0       36.366767    3.464623   -0.408992
  104          6             0       37.327111    2.518268   -0.304681
  105          6             0       36.647119    1.267185   -0.162720
  106          7             0       35.294931    1.430798   -0.178024
  107          6             0       37.322816    0.052018   -0.027512
  108          6             0       36.643078   -1.160227    0.113460
  109          6             0       37.318922   -2.413397    0.255721
  110          6             0       36.355527   -3.355623    0.368765
  111          6             0       35.103318   -2.667066    0.293986
  112          7             0       35.290368   -1.318433    0.136918
  113          6             0       33.887823   -3.310158    0.373351
  114          6             0       32.674497   -2.662044    0.301356
  115          7             0       32.491840   -1.312954    0.143183
  116          1             0       31.311950   -4.405467    0.509383
  117          1             0       29.393217   -2.513084    0.290149
  118          1             0       29.401641    2.646182   -0.317900
  119          1             0       31.326437    4.532499   -0.534701
  120          1             0       33.900460    4.500933   -0.525566
  121          1             0       36.475238    4.524986   -0.528368
  122          1             0       38.393598    2.631439   -0.319570
  123          1             0       38.385003   -2.530738    0.265031
  124          1             0       36.460540   -4.415991    0.491063
  125          1             0       33.885892   -4.382382    0.498454
  126         27             0       49.882378    0.002924   -0.018517
  127          6             0       47.400395   -3.392856    0.403504
  128          6             0       46.442400   -2.445740    0.285447
  129          6             0       47.125474   -1.198470    0.126303
  130          6             0       46.452945    0.016020   -0.028728
  131          6             0       47.135840    1.225930   -0.174807
  132          6             0       46.463196    2.479464   -0.328994
  133          6             0       47.428949    3.420704   -0.429552
  134          6             0       48.679347    2.731044   -0.336798
  135          7             0       48.488907    1.382569   -0.182406
  136          6             0       49.896377    3.373421   -0.395941
  137          6             0       51.108006    2.723304   -0.314309
  138          6             0       52.364169    3.405420   -0.381541
  139          6             0       53.322129    2.456385   -0.279796
  140          6             0       52.639008    1.205661   -0.150701
  141          7             0       51.287150    1.372179   -0.170126
  142          6             0       53.311508   -0.012442   -0.027692
  143          6             0       52.628813   -1.223943    0.103202
  144          6             0       53.301431   -2.479909    0.236612
  145          6             0       52.335629   -3.419044    0.354917
  146          6             0       51.085255   -2.726031    0.290832
  147          7             0       51.275646   -1.377898    0.133888
  148          6             0       49.868276   -3.364866    0.381806
  149          6             0       48.656585   -2.713355    0.313657
  150          7             0       48.477299   -1.364972    0.145724
  151          1             0       47.289291   -4.451186    0.537543
  152          1             0       45.375641   -2.556108    0.301536
  153          1             0       45.397442    2.597745   -0.352917
  154          1             0       47.326690    4.481030   -0.554464
  155          1             0       49.900997    4.446335   -0.514892
  156          1             0       52.475218    4.466432   -0.492770
  157          1             0       54.388887    2.567447   -0.289040
  158          1             0       54.367195   -2.600720    0.237993
  159          1             0       52.437799   -4.480024    0.474358
  160          1             0       49.863909   -4.436584    0.511084
 --------------------------------------------------------------------
     1 basis functions        1 primitive gaussians
     1 alpha electrons        1 beta electrons

 Harmonic frequencies (cm**-1), IR intensities (km*mol⁻¹),
 Raman scattering activities (A**4/amu), Raman depolarization ratios,
 reduced masses (AMU), force constants (mDyne/A) and normal coordinates:
                      1                      2                      3
                        a                      a                      a 
 Frequencies --   -13.4593               -13.2162                -5.2017
 Red. masses --    11.1154                11.1313                17.1639
 Frc consts  --     0.0000                 0.0000                 0.0000
 IR Inten    --    87.8234               109.2763                 0.4501
 Raman Activ --     0.0000                 0.0000                 0.0000
 Depolar     --     0.0000                 0.0000                 0.0000
 Atom AN      X      Y      Z        X      Y      Z        X      Y      Z
   1  27    -0.00   0.00  -0.04    -0.00  -0.00   0.01     0.00  -0.02  -0.14
   2   6     0.00  -0.00  -0.25    -0.00   0.00   0.05    -0.00  -0.01  -0.07
   3   6     0.00   0.00  -0.12    -0.00  -0.00   0.02    -0.00  -0.01  -0.08
   4   6     0.00   0.00  -0.04    -0.00  -0.00   0.01    -0.00  -0.01  -0.08
   5   6     0.00   0.00   0.01    -0.00  -0.00  -0.00     0.00  -0.01  -0.09
   6   6    -0.00   0.00  -0.04    -0.00  -0.00   0.01     0.00  -0.01  -0.08
   7   6     0.00   0.00  -0.12    -0.00  -0.00   0.02     0.00  -0.01  -0.09
   8   6     0.00   0.00  -0.25    -0.00  -0.00   0.04     0.00  -0.01  -0.08
   9   6     0.00   0.00  -0.22    -0.00  -0.00   0.04     0.00  -0.01  -0.07
  10   7    -0.00   0.00  -0.10    -0.00  -0.00   0.02     0.00  -0.01  -0.08
  11   6     0.00   0.00  -0.24    -0.00  -0.00   0.04     0.00  -0.01  -0.06
  12   6    -0.00   0.00  -0.09    -0.00  -0.00   0.01     0.00  -0.01  -0.05
  13   6    -0.00   0.00   0.02    -0.00  -0.00  -0.00     0.00  -0.01  -0.05
  14   6    -0.01   0.00   0.25     0.00  -0.00  -0.04     0.00  -0.01  -0.05
  15   6    -0.01  -0.00   0.25     0.00  -0.00  -0.04     0.00  -0.01  -0.05
  16   7    -0.00   0.00   0.06     0.00  -0.00  -0.01     0.00  -0.01  -0.06
  17   6    -0.01  -0.00   0.38     0.00  -0.00  -0.07     0.00  -0.01  -0.05
  18   6    -0.01  -0.00   0.25     0.00  -0.00  -0.04    -0.00  -0.01  -0.05
  19   6    -0.01  -0.00   0.25     0.00  -0.00  -0.04    -0.00  -0.01  -0.04
  20   6    -0.00  -0.00   0.02    -0.00   0.00  -0.00    -0.00  -0.01  -0.04
  21   6     0.00  -0.00  -0.09    -0.00   0.00   0.02    -0.00  -0.01  -0.05
  22   7    -0.00  -0.00   0.06    -0.00  -0.00  -0.01    -0.00  -0.01  -0.06
  23   6     0.00  -0.00  -0.25    -0.00   0.00   0.04    -0.00  -0.01  -0.05
  24   6     0.00  -0.00  -0.22    -0.00   0.00   0.04    -0.00  -0.01  -0.07
  25   7     0.00  -0.00  -0.10    -0.00  -0.00   0.02    -0.00  -0.01  -0.08
  26   1     0.00  -0.00  -0.10    -0.00   0.00   0.02    -0.00  -0.00  -0.02
  27   1     0.00   0.00  -0.03    -0.00  -0.00   0.01    -0.00  -0.00  -0.03
  28   1     0.00   0.00  -0.03    -0.00  -0.00   0.01     0.00  -0.00  -0.03
  29   1    -0.00   0.00  -0.10    -0.00  -0.00   0.02     0.00  -0.00  -0.02
  30   1     0.00   0.00  -0.10    -0.00  -0.00   0.02     0.00  -0.00  -0.02
  31   1    -0.00   0.00  -0.02    -0.00  -0.00   0.00     0.00  -0.00  -0.01
  32   1    -0.00  -0.00   0.11     0.00  -0.00  -0.02     0.00  -0.00  -0.01
  33   1    -0.00  -0.00   0.16     0.00  -0.00  -0.03     0.00  -0.00  -0.01
  34   1    -0.00   0.00   0.11     0.00  -0.00  -0.02    -0.00  -0.00  -0.01
  35   1     0.00  -0.00  -0.02    -0.00   0.00   0.00    -0.00  -0.00  -0.01
  36   1     0.00  -0.00  -0.10    -0.00   0.00   0.02    -0.00  -0.00  -0.01
  37  27     0.00   0.00  -0.01     0.01   0.01  -0.04    -0.00  -0.01  -0.03
  38   6     0.00   0.01  -0.04     0.00   0.05  -0.24    -0.00  -0.00  -0.03
  39   6     0.00   0.01  -0.02     0.00   0.03  -0.12    -0.00  -0.00  -0.03
  40   6     0.00   0.00  -0.01     0.00   0.01  -0.04    -0.00  -0.00  -0.03
  41   6     0.00   0.00   0.00    -0.00   0.00   0.01    -0.00  -0.00  -0.03
  42   6     0.00   0.00  -0.01    -0.00   0.01  -0.05     0.00  -0.00  -0.03
  43   6    -0.00   0.00  -0.02    -0.00   0.03  -0.12     0.00  -0.00  -0.03
  44   6    -0.00   0.01  -0.04    -0.00   0.05  -0.25     0.00  -0.00  -0.02
  45   6    -0.00   0.01  -0.03    -0.00   0.04  -0.22     0.00  -0.00  -0.02
  46   7     0.00   0.00  -0.02    -0.00   0.02  -0.10     0.00  -0.00  -0.02
  47   6    -0.00   0.01  -0.04    -0.00   0.04  -0.24     0.00  -0.00  -0.01
  48   6    -0.00   0.00  -0.01    -0.00   0.01  -0.09     0.00  -0.00  -0.01
  49   6    -0.00  -0.00   0.00    -0.00  -0.01   0.01     0.00  -0.00  -0.00
  50   6     0.00  -0.01   0.04     0.00  -0.05   0.24     0.00  -0.00   0.00
  51   6     0.00  -0.01   0.04     0.01  -0.05   0.25     0.00  -0.00  -0.00
  52   7     0.00  -0.00   0.01     0.00  -0.01   0.06     0.00  -0.00  -0.01
  53   6     0.00  -0.01   0.06     0.01  -0.07   0.38    -0.00  -0.00   0.00
  54   6     0.00  -0.01   0.04     0.01  -0.05   0.25    -0.00  -0.00  -0.00
  55   6     0.00  -0.01   0.04     0.01  -0.05   0.25    -0.00  -0.00  -0.00
  56   6     0.00  -0.00   0.00     0.01  -0.00   0.02    -0.00  -0.00  -0.01
  57   6     0.00   0.00  -0.02     0.00   0.02  -0.08    -0.00  -0.00  -0.01
  58   7     0.00  -0.00   0.01     0.01  -0.01   0.06    -0.00  -0.00  -0.01
  59   6     0.00   0.01  -0.04     0.00   0.05  -0.24    -0.00  -0.00  -0.02
  60   6     0.00   0.01  -0.04     0.00   0.05  -0.21    -0.00  -0.00  -0.02
  61   7     0.00   0.00  -0.02     0.00   0.02  -0.10    -0.00  -0.00  -0.02
  62   1     0.00   0.00  -0.02     0.00   0.02  -0.10    -0.00  -0.00  -0.01
  63   1     0.00   0.00  -0.00     0.00   0.01  -0.03    -0.00  -0.00  -0.01
  64   1    -0.00   0.00  -0.00    -0.00   0.01  -0.03     0.00  -0.00  -0.01
  65   1    -0.00   0.00  -0.02    -0.00   0.02  -0.10     0.00  -0.00  -0.01
  66   1    -0.00   0.00  -0.02    -0.00   0.02  -0.10     0.00  -0.00  -0.00
  67   1    -0.00   0.00  -0.00    -0.00   0.00  -0.02     0.00  -0.00  -0.00
  68   1     0.00  -0.00   0.02     0.00  -0.02   0.11     0.00  -0.00   0.00
  69   1     0.00  -0.01   0.03     0.00  -0.03   0.15    -0.00  -0.00   0.00
  70   1     0.00  -0.00   0.02     0.00  -0.02   0.11    -0.00  -0.00   0.00
  71   1     0.00   0.00  -0.00     0.00   0.00  -0.02    -0.00  -0.00  -0.00
  72   1     0.00   0.00  -0.02     0.00   0.02  -0.10    -0.00  -0.00  -0.01
  73   6     0.00   0.00   0.06    -0.00  -0.00  -0.01     0.00  -0.01  -0.10
  74   6     0.00   0.00   0.09    -0.00  -0.00  -0.01     0.00  -0.01  -0.10
  75   6     0.00   0.00   0.10    -0.00  -0.00  -0.01     0.00  -0.01  -0.09
  76   6     0.00   0.00   0.10    -0.00  -0.00  -0.01     0.00  -0.01  -0.08
  77   6     0.00   0.00   0.09    -0.00  -0.00  -0.01     0.00  -0.01  -0.06
  78   6     0.00   0.00   0.08    -0.00  -0.00  -0.01     0.00  -0.00  -0.02
  79   6     0.00   0.00   0.02    -0.00   0.00   0.01     0.00  -0.00  -0.04
  80   6     0.00   0.00   0.03    -0.00   0.00   0.01    -0.00  -0.01  -0.07
  81   6     0.00   0.00   0.03    -0.00   0.00   0.02    -0.00  -0.01  -0.10
  82   6     0.00   0.00   0.03    -0.00   0.00   0.02    -0.00  -0.01  -0.11
  83   6     0.00   0.00   0.02    -0.00   0.00   0.02    -0.00  -0.01  -0.11
  84   6     0.00   0.00   0.02    -0.00   0.00   0.02    -0.00  -0.01  -0.10
  85   6     0.00  -0.00   0.02    -0.00  -0.01   0.07    -0.00  -0.00  -0.04
  86   6     0.00  -0.00   0.02    -0.00  -0.01   0.09    -0.00  -0.00  -0.04
  87   6     0.00  -0.00   0.02    -0.00  -0.01   0.10    -0.00  -0.01  -0.04
  88   6     0.00  -0.00   0.02    -0.00  -0.01   0.10    -0.00  -0.00  -0.04
  89   6     0.00  -0.00   0.02    -0.00  -0.01   0.08    -0.00  -0.00  -0.04
  90   6     0.00  -0.00   0.01    -0.00  -0.00   0.06    -0.00  -0.00  -0.04
  91  27     0.00  -0.00   0.01    -0.00   0.00  -0.00     0.00   0.04   0.30
  92   6     0.00  -0.00   0.00    -0.00   0.00  -0.01     0.00   0.02   0.19
  93   6     0.00  -0.00   0.03    -0.00   0.00  -0.01     0.00   0.01   0.10
  94   6     0.00   0.00   0.04    -0.00   0.00  -0.01     0.00   0.01   0.08
  95   6     0.00   0.00   0.05    -0.00   0.00  -0.01     0.00   0.00   0.03
  96   6    -0.00   0.00   0.04    -0.00   0.00  -0.01     0.00   0.01   0.08
  97   6    -0.00  -0.00   0.03    -0.00  -0.00  -0.01     0.00   0.01   0.11
  98   6    -0.00  -0.00   0.00    -0.00   0.00  -0.01     0.00   0.02   0.20
  99   6    -0.00  -0.00  -0.01    -0.00   0.00  -0.00     0.00   0.02   0.21
 100   7    -0.00  -0.00   0.01    -0.00   0.00  -0.00     0.00   0.02   0.15
 101   6    -0.00  -0.01  -0.03    -0.00   0.00  -0.00     0.00   0.03   0.26
 102   6    -0.00  -0.00  -0.02    -0.00   0.00   0.00     0.00   0.02   0.21
 103   6    -0.00  -0.00  -0.03    -0.00   0.00   0.00     0.00   0.02   0.19
 104   6    -0.00  -0.00  -0.00    -0.00   0.00   0.01     0.00   0.01   0.09
 105   6    -0.00   0.00   0.01    -0.00   0.00   0.01     0.00   0.01   0.07
 106   7    -0.00  -0.00  -0.01    -0.00   0.00   0.00     0.00   0.02   0.15
 107   6     0.00   0.00   0.01    -0.00   0.00   0.01     0.00   0.00   0.02
 108   6     0.00   0.00   0.00    -0.00   0.00   0.01     0.00   0.01   0.07
 109   6     0.00  -0.00  -0.01    -0.00   0.00   0.01     0.00   0.01   0.09
 110   6     0.00  -0.00  -0.03    -0.00   0.00   0.01     0.00   0.02   0.18
 111   6     0.00  -0.00  -0.02    -0.00   0.00   0.00     0.00   0.02   0.20
 112   7     0.00  -0.00  -0.01    -0.00   0.00   0.00     0.00   0.02   0.14
 113   6     0.00  -0.01  -0.03    -0.00   0.00  -0.00     0.00   0.03   0.25
 114   6     0.00  -0.00  -0.01    -0.00   0.00  -0.00     0.00   0.02   0.21
 115   7     0.00  -0.00   0.01    -0.00   0.00  -0.00     0.00   0.02   0.15
 116   1     0.00  -0.00  -0.00    -0.00   0.00  -0.00     0.00   0.01   0.07
 117   1     0.00   0.00   0.02    -0.00  -0.00  -0.00     0.00   0.00   0.02
 118   1    -0.00   0.00   0.01    -0.00  -0.00  -0.00     0.00   0.00   0.02
 119   1    -0.00  -0.00  -0.00    -0.00   0.00  -0.00     0.00   0.01   0.07
 120   1    -0.00  -0.00  -0.01    -0.00   0.00  -0.00     0.00   0.01   0.09
 121   1    -0.00  -0.00  -0.01    -0.00   0.00   0.00     0.00   0.01   0.07
 122   1    -0.00   0.00   0.00    -0.00   0.00   0.00     0.00   0.00   0.01
 123   1     0.00   0.00  -0.00    -0.00   0.00   0.00     0.00   0.00   0.01
 124   1     0.00  -0.00  -0.01    -0.00   0.00   0.00     0.00   0.01   0.07
 125   1     0.00  -0.00  -0.01    -0.00   0.00  -0.00     0.00   0.01   0.09
 126  27     0.00  -0.00   0.00    -0.00  -0.01   0.01    -0.00  -0.00  -0.05
 127   6    -0.00  -0.00  -0.00    -0.01  -0.01  -0.02    -0.00  -0.00  -0.02
 128   6    -0.00   0.00   0.00    -0.00  -0.00  -0.01    -0.00  -0.01  -0.05
 129   6    -0.00   0.00   0.01    -0.00  -0.00   0.00    -0.00  -0.01  -0.06
 130   6     0.00   0.00   0.01    -0.00   0.00   0.01    -0.00  -0.01  -0.08
 131   6     0.00   0.00   0.01     0.00  -0.00   0.00    -0.00  -0.01  -0.06
 132   6     0.00   0.00   0.01     0.00  -0.00  -0.01     0.00  -0.01  -0.06
 133   6     0.00  -0.00  -0.00     0.00  -0.01  -0.03     0.00  -0.00  -0.03
 134   6     0.00  -0.00  -0.01     0.00  -0.01  -0.02    -0.00  -0.00  -0.01
 135   7     0.00  -0.00   0.00     0.00  -0.01  -0.01    -0.00  -0.00  -0.04
 136   6     0.00  -0.00  -0.01     0.00  -0.01  -0.03    -0.00   0.00   0.01
 137   6     0.00  -0.00  -0.01     0.00  -0.01  -0.01    -0.00   0.00   0.00
 138   6     0.00  -0.00  -0.00     0.00  -0.01   0.00    -0.00   0.00   0.01
 139   6     0.00  -0.00   0.00     0.00  -0.01   0.03    -0.00  -0.00  -0.01
 140   6     0.00  -0.00   0.01     0.00  -0.01   0.04    -0.00  -0.00  -0.02
 141   7     0.00  -0.00   0.00     0.00  -0.01   0.01    -0.00  -0.00  -0.02
 142   6     0.00  -0.00   0.01    -0.00  -0.01   0.05    -0.00  -0.00  -0.03
 143   6     0.00  -0.00   0.01    -0.00  -0.01   0.04    -0.00  -0.00  -0.02
 144   6    -0.00  -0.00   0.00    -0.00  -0.01   0.04    -0.00  -0.00  -0.01
 145   6    -0.00  -0.00  -0.01    -0.01  -0.01   0.01    -0.00   0.00   0.01
 146   6    -0.00  -0.00  -0.01    -0.01  -0.01  -0.01    -0.00   0.00   0.01
 147   7    -0.00  -0.00   0.00    -0.00  -0.01   0.01    -0.00  -0.00  -0.01
 148   6    -0.00  -0.00  -0.01    -0.01  -0.01  -0.03    -0.00   0.00   0.01
 149   6    -0.00  -0.00  -0.01    -0.01  -0.01  -0.02    -0.00  -0.00  -0.01
 150   7    -0.00  -0.00   0.00    -0.00  -0.01  -0.01    -0.00  -0.00  -0.03
 151   1    -0.00  -0.00  -0.00    -0.00  -0.00  -0.01    -0.00   0.00  -0.00
 152   1    -0.00   0.00   0.00    -0.00  -0.00  -0.00    -0.00  -0.00  -0.02
 153   1     0.00   0.00   0.00     0.00  -0.00  -0.00     0.00  -0.00  -0.02
 154   1     0.00  -0.00  -0.00     0.00  -0.00  -0.01     0.00  -0.00  -0.00
 155   1     0.00  -0.00  -0.00     0.00  -0.00  -0.01    -0.00   0.00   0.01
 156   1     0.00  -0.00  -0.00     0.00  -0.00  -0.00    -0.00   0.00   0.01
 157   1     0.00  -0.00   0.00     0.00  -0.00   0.01    -0.00  -0.00  -0.01
 158   1    -0.00  -0.00   0.00    -0.00  -0.00   0.02    -0.00  -0.00  -0.00
 159   1    -0.00  -0.00  -0.00    -0.00  -0.00  -0.00    -0.00   0.00   0.01
 160   1    -0.00  -0.00  -0.01    -0.00  -0.00  -0.01    -0.00   0.00   0.01
                      4                      5                      6
                        a                      a                      a 
 Frequencies --    -5.0136                 1.1189                 1.6435
 Red. masses --    17.4051                11.7350                17.3552
 Frc consts  --     0.0000                 0.0000                 0.0000
 IR Inten    --     9.4057               692.4321                11.8071
 Raman Activ --     0.0000                 0.0000                 0.0000
 Depolar     --     0.0000                 0.0000                 0.0000
 Atom AN      X      Y      Z        X      Y      Z        X      Y      Z
   1  27     0.00  -0.00  -0.03    -0.00   0.05  -0.01    -0.00   0.18  -0.02
   2   6    -0.00  -0.00  -0.02    -0.01   0.02   0.18    -0.05   0.05  -0.07
   3   6    -0.00  -0.00  -0.03    -0.01   0.01   0.13    -0.03   0.04  -0.05
   4   6     0.00  -0.00  -0.03    -0.00   0.02   0.06    -0.02   0.05  -0.03
   5   6     0.00  -0.00  -0.03     0.00   0.01  -0.00    -0.00   0.04  -0.00
   6   6     0.00  -0.00  -0.03     0.00   0.01  -0.07     0.02   0.05   0.02
   7   6     0.00  -0.00  -0.03     0.01   0.01  -0.14     0.03   0.04   0.04
   8   6     0.00  -0.00  -0.02     0.01   0.02  -0.19     0.04   0.05   0.06
   9   6     0.00  -0.00  -0.02     0.01   0.02  -0.15     0.04   0.07   0.04
  10   7     0.00  -0.00  -0.02     0.00   0.02  -0.08     0.02   0.07   0.02
  11   6     0.00  -0.00  -0.01     0.01   0.02  -0.19     0.04   0.08   0.05
  12   6     0.00  -0.00  -0.01     0.01   0.03  -0.15     0.04   0.10   0.04
  13   6     0.00  -0.00  -0.00     0.01   0.03  -0.19     0.04   0.12   0.05
  14   6     0.00  -0.00   0.00     0.01   0.03  -0.14     0.03   0.13   0.03
  15   6     0.00  -0.00  -0.00     0.00   0.03  -0.07     0.01   0.12   0.01
  16   7     0.00  -0.00  -0.01     0.00   0.03  -0.08     0.02   0.11   0.02
  17   6     0.00  -0.00  -0.00    -0.00   0.03  -0.00    -0.00   0.13  -0.01
  18   6     0.00  -0.00  -0.00    -0.00   0.03   0.06    -0.02   0.12  -0.04
  19   6    -0.00  -0.00  -0.00    -0.01   0.03   0.13    -0.03   0.13  -0.06
  20   6    -0.00  -0.00  -0.00    -0.01   0.03   0.18    -0.05   0.12  -0.08
  21   6    -0.00  -0.00  -0.01    -0.01   0.03   0.15    -0.04   0.10  -0.06
  22   7     0.00  -0.00  -0.01    -0.00   0.03   0.08    -0.02   0.11  -0.04
  23   6    -0.00  -0.00  -0.01    -0.01   0.02   0.18    -0.05   0.08  -0.07
  24   6    -0.00  -0.00  -0.02    -0.01   0.02   0.14    -0.04   0.07  -0.06
  25   7     0.00  -0.00  -0.02    -0.00   0.02   0.08    -0.02   0.07  -0.04
  26   1    -0.00  -0.00  -0.01    -0.00   0.01   0.07    -0.02   0.01  -0.03
  27   1    -0.00  -0.00  -0.01    -0.00   0.00   0.04    -0.01   0.01  -0.01
  28   1     0.00  -0.00  -0.01     0.00   0.00  -0.04     0.01   0.01   0.01
  29   1     0.00  -0.00  -0.01     0.00   0.01  -0.07     0.02   0.01   0.02
  30   1     0.00  -0.00  -0.00     0.00   0.01  -0.07     0.02   0.02   0.02
  31   1     0.00  -0.00  -0.00     0.00   0.01  -0.07     0.02   0.03   0.02
  32   1     0.00   0.00   0.00     0.00   0.01  -0.04     0.01   0.04   0.01
  33   1     0.00   0.00   0.00    -0.00   0.01  -0.00    -0.00   0.04  -0.00
  34   1    -0.00   0.00   0.00    -0.00   0.01   0.04    -0.01   0.04  -0.02
  35   1    -0.00  -0.00  -0.00    -0.00   0.01   0.07    -0.02   0.03  -0.03
  36   1    -0.00  -0.00  -0.00    -0.00   0.01   0.07    -0.02   0.02  -0.03
  37  27    -0.00  -0.02  -0.15    -0.00   0.05  -0.01    -0.00   0.18  -0.02
  38   6    -0.01  -0.01  -0.08    -0.02  -0.02   0.17    -0.04   0.06  -0.05
  39   6    -0.01  -0.01  -0.08    -0.01  -0.02   0.12    -0.03   0.05  -0.03
  40   6    -0.00  -0.01  -0.08    -0.01   0.00   0.06    -0.01   0.05  -0.02
  41   6    -0.00  -0.01  -0.09     0.00   0.01  -0.00     0.00   0.04  -0.01
  42   6     0.00  -0.01  -0.08     0.01   0.02  -0.06     0.01   0.05   0.01
  43   6     0.00  -0.01  -0.08     0.01   0.03  -0.12     0.03   0.04   0.02
  44   6     0.00  -0.01  -0.07     0.02   0.04  -0.17     0.04   0.05   0.03
  45   6     0.00  -0.01  -0.07     0.01   0.04  -0.14     0.03   0.06   0.02
  46   7     0.00  -0.01  -0.08     0.01   0.03  -0.08     0.02   0.07   0.01
  47   6     0.00  -0.01  -0.06     0.02   0.05  -0.17     0.04   0.08   0.03
  48   6     0.00  -0.01  -0.06     0.01   0.06  -0.14     0.03   0.09   0.02
  49   6     0.00  -0.01  -0.05     0.02   0.07  -0.18     0.04   0.11   0.03
  50   6     0.00  -0.01  -0.05     0.01   0.07  -0.13     0.03   0.12   0.02
  51   6     0.00  -0.01  -0.05     0.01   0.05  -0.07     0.01   0.11   0.00
  52   7     0.00  -0.01  -0.06     0.01   0.05  -0.08     0.02   0.10   0.01
  53   6    -0.00  -0.00  -0.05    -0.00   0.04  -0.00    -0.00   0.12  -0.01
  54   6    -0.00  -0.01  -0.06    -0.01   0.03   0.06    -0.01   0.12  -0.03
  55   6    -0.01  -0.01  -0.05    -0.01   0.02   0.12    -0.03   0.13  -0.04
  56   6    -0.01  -0.01  -0.05    -0.02   0.01   0.17    -0.04   0.12  -0.05
  57   6    -0.01  -0.01  -0.06    -0.01   0.00   0.14    -0.03   0.10  -0.04
  58   7    -0.00  -0.01  -0.06    -0.01   0.02   0.07    -0.02   0.11  -0.03
  59   6    -0.01  -0.01  -0.06    -0.02  -0.01   0.17    -0.04   0.09  -0.05
  60   6    -0.01  -0.01  -0.07    -0.01  -0.01   0.14    -0.03   0.07  -0.04
  61   7    -0.00  -0.01  -0.08    -0.01   0.01   0.07    -0.02   0.07  -0.03
  62   1    -0.00  -0.00  -0.02    -0.01  -0.01   0.06    -0.02   0.02  -0.02
  63   1    -0.00  -0.00  -0.03    -0.00  -0.01   0.04    -0.01   0.01  -0.01
  64   1     0.00  -0.00  -0.03     0.00   0.01  -0.04     0.01   0.01   0.01
  65   1     0.00  -0.00  -0.02     0.01   0.02  -0.07     0.02   0.01   0.01
  66   1     0.00  -0.00  -0.02     0.01   0.02  -0.07     0.02   0.02   0.01
  67   1     0.00  -0.00  -0.01     0.01   0.02  -0.07     0.02   0.03   0.01
  68   1     0.00  -0.00  -0.01     0.00   0.02  -0.04     0.01   0.04   0.00
  69   1    -0.00  -0.00  -0.01    -0.00   0.01  -0.00    -0.00   0.04  -0.00
  70   1    -0.00  -0.00  -0.01    -0.00   0.01   0.04    -0.01   0.04  -0.01
  71   1    -0.00  -0.00  -0.01    -0.01  -0.00   0.06    -0.02   0.04  -0.02
  72   1    -0.00  -0.00  -0.02    -0.01  -0.01   0.06    -0.02   0.03  -0.02
  73   6     0.00  -0.00  -0.03    -0.00   0.01  -0.00    -0.00   0.02  -0.00
  74   6     0.00  -0.00  -0.04     0.00   0.01   0.00     0.00   0.01  -0.00
  75   6     0.00  -0.00  -0.04     0.00   0.00   0.00     0.00  -0.01   0.00
  76   6     0.00  -0.01  -0.04     0.00  -0.00   0.00     0.00  -0.02   0.00
  77   6     0.00  -0.00  -0.04     0.00  -0.00   0.00     0.00  -0.03   0.00
  78   6     0.00  -0.00  -0.04     0.00  -0.01   0.00     0.00  -0.04   0.00
  79   6     0.00  -0.01  -0.09     0.00  -0.03   0.00     0.00  -0.10   0.01
  80   6     0.00  -0.01  -0.10     0.00  -0.03   0.00     0.00  -0.10   0.01
  81   6     0.00  -0.01  -0.10     0.00  -0.03   0.00     0.00  -0.11   0.01
  82   6     0.00  -0.01  -0.09     0.00  -0.03   0.00     0.00  -0.11   0.01
  83   6     0.00  -0.01  -0.06     0.00  -0.03   0.00     0.00  -0.10   0.01
  84   6     0.00  -0.00  -0.03     0.00  -0.03   0.00     0.00  -0.10   0.01
  85   6    -0.00  -0.00  -0.02     0.00  -0.02  -0.00     0.00  -0.04   0.00
  86   6    -0.00  -0.01  -0.05     0.00  -0.01  -0.00     0.00  -0.03   0.00
  87   6    -0.00  -0.01  -0.08     0.00  -0.01  -0.00     0.00  -0.02   0.00
  88   6    -0.00  -0.01  -0.09     0.00  -0.01  -0.00     0.00  -0.01   0.00
  89   6    -0.00  -0.01  -0.10     0.00  -0.00  -0.00     0.00   0.01  -0.00
  90   6    -0.00  -0.01  -0.09    -0.00   0.00  -0.00     0.00   0.02  -0.00
  91  27     0.00  -0.01  -0.06     0.00  -0.04   0.01     0.00  -0.16   0.02
  92   6     0.00   0.00   0.00    -0.01  -0.01   0.06    -0.02  -0.06   0.00
  93   6     0.00  -0.00  -0.02    -0.00  -0.01   0.04    -0.01  -0.05   0.00
  94   6     0.00  -0.00  -0.03    -0.00  -0.01   0.02    -0.01  -0.06   0.00
  95   6     0.00  -0.00  -0.03     0.00  -0.01   0.00     0.00  -0.05   0.01
  96   6     0.00  -0.00  -0.03     0.00  -0.01  -0.02     0.01  -0.06   0.01
  97   6     0.00  -0.00  -0.01     0.00  -0.01  -0.04     0.01  -0.05   0.01
  98   6     0.00   0.00   0.00     0.01  -0.02  -0.05     0.02  -0.06   0.01
  99   6     0.00  -0.00  -0.00     0.01  -0.02  -0.04     0.02  -0.06   0.01
 100   7     0.00  -0.00  -0.02     0.00  -0.02  -0.02     0.01  -0.07   0.01
 101   6     0.00   0.00   0.00     0.01  -0.02  -0.05     0.02  -0.07   0.01
 102   6     0.00  -0.00  -0.02     0.01  -0.02  -0.03     0.02  -0.08   0.01
 103   6     0.00  -0.00  -0.03     0.01  -0.03  -0.04     0.02  -0.09   0.01
 104   6     0.00  -0.01  -0.06     0.00  -0.03  -0.03     0.01  -0.09   0.01
 105   6     0.00  -0.01  -0.06     0.00  -0.02  -0.01     0.01  -0.09   0.01
 106   7     0.00  -0.00  -0.04     0.00  -0.02  -0.02     0.01  -0.09   0.01
 107   6     0.00  -0.01  -0.07     0.00  -0.02   0.00     0.00  -0.09   0.01
 108   6     0.00  -0.01  -0.06    -0.00  -0.02   0.02    -0.01  -0.09   0.01
 109   6     0.00  -0.01  -0.06    -0.00  -0.02   0.03    -0.01  -0.09   0.01
 110   6     0.00  -0.00  -0.03    -0.01  -0.02   0.05    -0.02  -0.09   0.01
 111   6     0.00  -0.00  -0.02    -0.01  -0.01   0.04    -0.02  -0.08   0.01
 112   7     0.00  -0.00  -0.04    -0.00  -0.02   0.02    -0.01  -0.09   0.01
 113   6     0.00   0.00   0.00    -0.01  -0.01   0.05    -0.02  -0.07   0.01
 114   6     0.00  -0.00  -0.00    -0.01  -0.01   0.04    -0.02  -0.06   0.01
 115   7     0.00  -0.00  -0.02    -0.00  -0.01   0.03    -0.01  -0.07   0.01
 116   1     0.00   0.00   0.00    -0.00  -0.00   0.02    -0.01  -0.02   0.00
 117   1     0.00  -0.00  -0.01    -0.00  -0.00   0.01    -0.00  -0.01   0.00
 118   1     0.00  -0.00  -0.01     0.00  -0.00  -0.01     0.00  -0.01   0.00
 119   1     0.00   0.00   0.00     0.00  -0.01  -0.02     0.01  -0.02   0.00
 120   1     0.00   0.00   0.00     0.00  -0.01  -0.02     0.01  -0.02   0.00
 121   1     0.00  -0.00  -0.00     0.00  -0.01  -0.02     0.01  -0.03   0.00
 122   1     0.00  -0.00  -0.02     0.00  -0.01  -0.01     0.00  -0.03   0.00
 123   1     0.00  -0.00  -0.02    -0.00  -0.01   0.01    -0.00  -0.03   0.00
 124   1     0.00  -0.00  -0.01    -0.00  -0.00   0.02    -0.01  -0.03   0.00
 125   1     0.00   0.00   0.00    -0.00  -0.00   0.02    -0.01  -0.02   0.00
 126  27    -0.00   0.04   0.30    -0.00  -0.05   0.01     0.00  -0.15   0.02
 127   6    -0.00   0.02   0.19     0.00  -0.03  -0.05     0.02  -0.08   0.03
 128   6    -0.00   0.01   0.10     0.00  -0.03  -0.04     0.02  -0.09   0.03
 129   6    -0.00   0.01   0.07     0.00  -0.03  -0.02     0.01  -0.09   0.02
 130   6     0.00   0.00   0.03     0.00  -0.03   0.00     0.00  -0.09   0.01
 131   6     0.00   0.01   0.07    -0.00  -0.02   0.02    -0.01  -0.09   0.00
 132   6     0.00   0.01   0.10    -0.00  -0.02   0.04    -0.02  -0.09  -0.01
 133   6     0.00   0.02   0.19    -0.00  -0.02   0.06    -0.02  -0.09  -0.02
 134   6     0.00   0.02   0.21    -0.00  -0.02   0.05    -0.02  -0.08  -0.01
 135   7     0.00   0.02   0.15    -0.00  -0.02   0.03    -0.01  -0.09  -0.00
 136   6     0.00   0.03   0.26    -0.00  -0.02   0.06    -0.02  -0.07  -0.02
 137   6     0.00   0.02   0.21    -0.00  -0.02   0.05    -0.02  -0.06  -0.01
 138   6     0.00   0.02   0.20    -0.00  -0.01   0.07    -0.02  -0.06  -0.02
 139   6     0.00   0.01   0.11    -0.00  -0.01   0.05    -0.01  -0.05  -0.01
 140   6    -0.00   0.01   0.08    -0.00  -0.02   0.02    -0.01  -0.05  -0.00
 141   7    -0.00   0.02   0.15    -0.00  -0.02   0.03    -0.01  -0.07  -0.00
 142   6    -0.00   0.00   0.03     0.00  -0.02  -0.00     0.00  -0.05   0.01
 143   6    -0.00   0.01   0.08     0.00  -0.02  -0.02     0.01  -0.05   0.02
 144   6    -0.00   0.01   0.10     0.00  -0.02  -0.05     0.02  -0.05   0.02
 145   6    -0.00   0.02   0.19     0.00  -0.03  -0.06     0.02  -0.05   0.03
 146   6    -0.00   0.02   0.21     0.00  -0.03  -0.05     0.02  -0.06   0.03
 147   7    -0.00   0.02   0.15     0.00  -0.03  -0.03     0.01  -0.06   0.02
 148   6    -0.00   0.03   0.25     0.00  -0.03  -0.06     0.02  -0.07   0.03
 149   6    -0.00   0.02   0.20     0.00  -0.03  -0.04     0.02  -0.07   0.03
 150   7    -0.00   0.02   0.15     0.00  -0.03  -0.02     0.01  -0.08   0.02
 151   1    -0.00   0.01   0.07     0.00  -0.01  -0.02     0.01  -0.02   0.01
 152   1    -0.00   0.00   0.02     0.00  -0.01  -0.01     0.00  -0.03   0.01
 153   1     0.00   0.00   0.02    -0.00  -0.01   0.01    -0.00  -0.03  -0.00
 154   1     0.00   0.01   0.07    -0.00  -0.01   0.02    -0.01  -0.03  -0.01
 155   1     0.00   0.01   0.09    -0.00  -0.00   0.02    -0.01  -0.02  -0.01
 156   1     0.00   0.01   0.07    -0.00  -0.00   0.02    -0.01  -0.02  -0.01
 157   1     0.00   0.00   0.02    -0.00  -0.00   0.01    -0.00  -0.01  -0.00
 158   1    -0.00   0.00   0.02     0.00  -0.01  -0.01     0.00  -0.01   0.01
 159   1    -0.00   0.01   0.07     0.00  -0.01  -0.02     0.01  -0.01   0.01
 160   1    -0.00   0.01   0.09     0.00  -0.01  -0.02     0.01  -0.02   0.01
                      7                      8                      9
                        a                      a                      a 
 Frequencies --     2.6547                 3.7560                 4.0929
 Red. masses --    11.2658                11.3446                14.6401
 Frc consts  --     0.0000                 0.0000                 0.0000
 IR Inten    --   599.6475               353.9569                 6.8352
 Raman Activ --     0.0000                 0.0000                 0.0000
 Depolar     --     0.0000                 0.0000                 0.0000
 Atom AN      X      Y      Z        X      Y      Z        X      Y      Z
   1  27    -0.00   0.02  -0.00     0.00   0.01   0.03    -0.00  -0.00  -0.15
   2   6    -0.00   0.01   0.13    -0.00   0.00   0.05    -0.00  -0.00  -0.02
   3   6    -0.00   0.00   0.09    -0.00  -0.00   0.03    -0.00  -0.00   0.01
   4   6    -0.00   0.00   0.05    -0.00  -0.00   0.02    -0.00  -0.00  -0.01
   5   6     0.00   0.00   0.00     0.00  -0.00   0.00    -0.00  -0.00   0.01
   6   6     0.00   0.00  -0.04     0.00  -0.00  -0.01    -0.00  -0.00  -0.01
   7   6     0.00   0.00  -0.09     0.00  -0.00  -0.03    -0.00  -0.00  -0.01
   8   6     0.00   0.01  -0.13     0.00   0.00  -0.04    -0.00  -0.00  -0.04
   9   6     0.00   0.01  -0.10     0.00   0.00  -0.03    -0.00  -0.00  -0.06
  10   7     0.00   0.01  -0.06     0.00   0.00  -0.01    -0.00  -0.00  -0.05
  11   6     0.00   0.01  -0.13     0.00   0.00  -0.03    -0.00  -0.00  -0.09
  12   6     0.00   0.01  -0.11     0.00   0.00  -0.02    -0.00  -0.00  -0.11
  13   6     0.00   0.01  -0.14     0.00   0.00  -0.03    -0.00  -0.00  -0.13
  14   6     0.00   0.01  -0.10     0.00   0.01  -0.01    -0.00  -0.00  -0.14
  15   6     0.00   0.01  -0.05     0.00   0.00   0.00    -0.00  -0.00  -0.12
  16   7     0.00   0.01  -0.06     0.00   0.00  -0.00    -0.00  -0.00  -0.11
  17   6    -0.00   0.01  -0.00    -0.00   0.01   0.02    -0.00  -0.00  -0.12
  18   6    -0.00   0.01   0.04    -0.00   0.00   0.04    -0.00  -0.00  -0.11
  19   6    -0.00   0.01   0.09    -0.00   0.01   0.06    -0.00  -0.00  -0.12
  20   6    -0.00   0.01   0.13    -0.00   0.01   0.07    -0.00  -0.00  -0.11
  21   6    -0.00   0.01   0.10    -0.00   0.00   0.06    -0.00  -0.00  -0.09
  22   7    -0.00   0.01   0.06    -0.00   0.00   0.04    -0.00  -0.00  -0.10
  23   6    -0.00   0.01   0.13    -0.00   0.00   0.06    -0.00  -0.00  -0.07
  24   6    -0.00   0.01   0.10    -0.00   0.00   0.05    -0.00  -0.00  -0.05
  25   7    -0.00   0.01   0.06    -0.00   0.00   0.03    -0.00  -0.00  -0.04
  26   1    -0.00   0.00   0.05    -0.00   0.00   0.02    -0.00  -0.00  -0.01
  27   1    -0.00   0.00   0.03    -0.00  -0.00   0.01    -0.00  -0.00   0.01
  28   1     0.00   0.00  -0.03     0.00  -0.00  -0.01    -0.00  -0.00   0.01
  29   1     0.00   0.00  -0.05     0.00   0.00  -0.02    -0.00  -0.00  -0.01
  30   1     0.00   0.00  -0.05     0.00   0.00  -0.01    -0.00  -0.00  -0.03
  31   1     0.00   0.00  -0.05     0.00   0.00  -0.01    -0.00  -0.00  -0.04
  32   1     0.00   0.00  -0.03     0.00   0.00  -0.00     0.00  -0.00  -0.04
  33   1    -0.00   0.00  -0.00    -0.00   0.00   0.01     0.00  -0.00  -0.04
  34   1    -0.00   0.00   0.03    -0.00   0.00   0.02    -0.00  -0.00  -0.04
  35   1    -0.00   0.00   0.05    -0.00   0.00   0.03    -0.00  -0.00  -0.03
  36   1    -0.00   0.00   0.05    -0.00   0.00   0.02    -0.00  -0.00  -0.02
  37  27    -0.00   0.01  -0.00    -0.00   0.00   0.03     0.00  -0.02  -0.15
  38   6    -0.00   0.03  -0.14    -0.00  -0.01   0.07     0.03   0.00  -0.01
  39   6    -0.00   0.02  -0.10    -0.00  -0.01   0.05     0.03   0.01   0.01
  40   6    -0.00   0.01  -0.05    -0.00  -0.00   0.03     0.01   0.00  -0.00
  41   6    -0.00   0.00  -0.00    -0.00  -0.00   0.00     0.00   0.01   0.01
  42   6     0.00  -0.00   0.05     0.00   0.00  -0.02    -0.01   0.01  -0.01
  43   6     0.00  -0.01   0.10     0.00   0.01  -0.04    -0.02   0.01  -0.01
  44   6     0.00  -0.02   0.14     0.00   0.01  -0.06    -0.03   0.01  -0.04
  45   6     0.00  -0.01   0.11     0.00   0.01  -0.04    -0.02  -0.00  -0.06
  46   7     0.00  -0.01   0.06     0.00   0.00  -0.02    -0.01  -0.00  -0.05
  47   6     0.00  -0.02   0.14     0.00   0.01  -0.05    -0.03  -0.01  -0.09
  48   6     0.00  -0.02   0.12     0.00   0.01  -0.04    -0.02  -0.01  -0.11
  49   6     0.00  -0.02   0.15     0.00   0.01  -0.05    -0.03  -0.02  -0.13
  50   6     0.00  -0.02   0.11     0.00   0.01  -0.03    -0.02  -0.03  -0.14
  51   6     0.00  -0.01   0.05     0.00   0.01  -0.01    -0.01  -0.03  -0.12
  52   7     0.00  -0.01   0.06     0.00   0.01  -0.01    -0.01  -0.02  -0.11
  53   6    -0.00   0.00   0.00    -0.00   0.00   0.02     0.00  -0.03  -0.12
  54   6    -0.00   0.01  -0.05    -0.00  -0.00   0.04     0.01  -0.03  -0.11
  55   6    -0.00   0.02  -0.10    -0.00  -0.01   0.07     0.02  -0.03  -0.12
  56   6    -0.00   0.03  -0.15    -0.00  -0.01   0.09     0.03  -0.03  -0.10
  57   6    -0.00   0.03  -0.12    -0.00  -0.01   0.07     0.03  -0.02  -0.09
  58   7    -0.00   0.02  -0.06    -0.00  -0.00   0.05     0.02  -0.02  -0.09
  59   6    -0.00   0.03  -0.14    -0.00  -0.01   0.08     0.03  -0.01  -0.06
  60   6    -0.00   0.03  -0.11    -0.00  -0.01   0.06     0.03  -0.00  -0.04
  61   7    -0.00   0.02  -0.06    -0.00  -0.01   0.04     0.02  -0.00  -0.04
  62   1    -0.00   0.01  -0.05    -0.00  -0.01   0.03     0.01   0.00  -0.00
  63   1    -0.00   0.01  -0.03    -0.00  -0.00   0.01     0.01   0.00   0.01
  64   1     0.00  -0.00   0.03     0.00   0.00  -0.01    -0.01   0.00   0.01
  65   1     0.00  -0.01   0.05     0.00   0.00  -0.02    -0.01   0.00  -0.01
  66   1     0.00  -0.01   0.05     0.00   0.00  -0.02    -0.01  -0.00  -0.03
  67   1     0.00  -0.01   0.06     0.00   0.00  -0.02    -0.01  -0.01  -0.04
  68   1     0.00  -0.00   0.03     0.00   0.00  -0.01    -0.01  -0.01  -0.05
  69   1     0.00   0.00   0.00     0.00   0.00   0.01     0.00  -0.01  -0.04
  70   1    -0.00   0.01  -0.03    -0.00  -0.00   0.02     0.01  -0.01  -0.04
  71   1    -0.00   0.01  -0.06    -0.00  -0.00   0.03     0.01  -0.01  -0.03
  72   1    -0.00   0.01  -0.05    -0.00  -0.01   0.03     0.01  -0.00  -0.02
  73   6     0.00   0.00   0.00     0.00  -0.00  -0.00    -0.00  -0.00   0.04
  74   6     0.00  -0.00   0.00     0.00  -0.00  -0.01    -0.00  -0.00   0.06
  75   6     0.00  -0.00   0.00     0.00  -0.00  -0.01    -0.00  -0.00   0.08
  76   6     0.00  -0.00   0.00     0.00  -0.01  -0.01    -0.00  -0.00   0.09
  77   6     0.00  -0.00   0.00     0.00  -0.01  -0.01    -0.00  -0.00   0.09
  78   6     0.00  -0.01   0.00     0.00  -0.01  -0.01    -0.00  -0.01   0.08
  79   6     0.00  -0.01   0.00     0.00  -0.00  -0.03    -0.00   0.01   0.19
  80   6     0.00  -0.01   0.00    -0.00  -0.00  -0.04    -0.00   0.02   0.22
  81   6     0.00  -0.01   0.00    -0.00  -0.00  -0.04    -0.00   0.02   0.23
  82   6     0.00  -0.01   0.00    -0.00  -0.00  -0.04    -0.00   0.02   0.23
  83   6     0.00  -0.01   0.00     0.00  -0.00  -0.04    -0.00   0.02   0.22
  84   6     0.00  -0.01   0.00    -0.00  -0.00  -0.03    -0.00   0.02   0.19
  85   6     0.00   0.00   0.00    -0.00   0.00  -0.01     0.00   0.03   0.08
  86   6     0.00   0.00   0.00    -0.00   0.00  -0.01     0.00   0.03   0.08
  87   6     0.00   0.00   0.00    -0.00   0.00  -0.01     0.00   0.03   0.08
  88   6     0.00   0.00   0.00    -0.00  -0.00  -0.01     0.00   0.02   0.07
  89   6     0.00   0.00  -0.00    -0.00  -0.00  -0.01     0.00   0.02   0.06
  90   6     0.00   0.00  -0.00    -0.00  -0.00  -0.00     0.00   0.02   0.04
  91  27    -0.00  -0.02   0.00     0.00  -0.01  -0.02    -0.00  -0.02   0.09
  92   6    -0.00  -0.02  -0.15     0.00  -0.02  -0.17     0.00  -0.02  -0.05
  93   6    -0.00  -0.02  -0.11     0.00  -0.02  -0.13     0.00  -0.01   0.00
  94   6    -0.00  -0.01  -0.05     0.00  -0.01  -0.07    -0.00  -0.01   0.03
  95   6     0.00  -0.01   0.00     0.00  -0.00  -0.01    -0.00  -0.01   0.07
  96   6     0.00  -0.00   0.05    -0.00   0.00   0.06    -0.00  -0.01   0.05
  97   6     0.00   0.01   0.11    -0.00   0.01   0.13    -0.00  -0.01   0.04
  98   6     0.00   0.01   0.15    -0.00   0.02   0.18    -0.00  -0.01   0.00
  99   6     0.00   0.01   0.12    -0.00   0.01   0.14    -0.00  -0.01   0.00
 100   7     0.00   0.00   0.07    -0.00   0.00   0.07    -0.00  -0.01   0.04
 101   6     0.00   0.01   0.15    -0.00   0.02   0.17    -0.00  -0.01  -0.01
 102   6     0.00   0.01   0.12    -0.00   0.01   0.13    -0.00  -0.01   0.03
 103   6     0.00   0.01   0.16    -0.00   0.02   0.16    -0.00  -0.00   0.06
 104   6     0.00   0.00   0.11    -0.00   0.01   0.10    -0.00   0.00   0.12
 105   6     0.00  -0.00   0.06    -0.00   0.00   0.04    -0.00   0.00   0.12
 106   7     0.00  -0.00   0.07    -0.00   0.00   0.06    -0.00  -0.00   0.07
 107   6     0.00  -0.01   0.00     0.00  -0.00  -0.03    -0.00   0.01   0.15
 108   6    -0.00  -0.01  -0.06     0.00  -0.01  -0.08    -0.00   0.00   0.10
 109   6    -0.00  -0.02  -0.12     0.00  -0.02  -0.14     0.00  -0.00   0.08
 110   6    -0.00  -0.03  -0.16     0.00  -0.02  -0.18     0.00  -0.01   0.01
 111   6    -0.00  -0.02  -0.13     0.00  -0.02  -0.14     0.00  -0.01  -0.01
 112   7    -0.00  -0.02  -0.07     0.00  -0.01  -0.09    -0.00  -0.01   0.05
 113   6    -0.00  -0.03  -0.15     0.00  -0.02  -0.17     0.00  -0.02  -0.06
 114   6    -0.00  -0.02  -0.12     0.00  -0.02  -0.14     0.00  -0.02  -0.04
 115   7    -0.00  -0.02  -0.07     0.00  -0.01  -0.08    -0.00  -0.01   0.01
 116   1    -0.00  -0.01  -0.06     0.00  -0.01  -0.07     0.00  -0.01  -0.03
 117   1    -0.00  -0.01  -0.03     0.00  -0.01  -0.04     0.00  -0.00   0.00
 118   1     0.00   0.00   0.03    -0.00   0.00   0.04    -0.00  -0.00   0.02
 119   1     0.00   0.00   0.06    -0.00   0.01   0.07    -0.00  -0.00  -0.01
 120   1     0.00   0.00   0.06    -0.00   0.01   0.07    -0.00  -0.00  -0.01
 121   1     0.00   0.00   0.06    -0.00   0.01   0.06    -0.00  -0.00   0.01
 122   1     0.00   0.00   0.04    -0.00   0.00   0.03    -0.00   0.00   0.05
 123   1    -0.00  -0.01  -0.04     0.00  -0.01  -0.04     0.00   0.00   0.04
 124   1    -0.00  -0.01  -0.06     0.00  -0.01  -0.07     0.00  -0.00  -0.01
 125   1    -0.00  -0.01  -0.06     0.00  -0.01  -0.06     0.00  -0.01  -0.03
 126  27     0.00  -0.01  -0.00    -0.00   0.01  -0.01     0.00   0.03   0.08
 127   6     0.00  -0.02  -0.13    -0.00   0.03   0.18     0.01   0.01   0.06
 128   6     0.00  -0.02  -0.09    -0.00   0.02   0.12     0.01   0.02   0.12
 129   6     0.00  -0.01  -0.04    -0.00   0.01   0.05     0.00   0.02   0.12
 130   6     0.00  -0.01   0.00    -0.00  -0.00  -0.03    -0.00   0.02   0.14
 131   6    -0.00   0.00   0.05    -0.00  -0.01  -0.09    -0.00   0.01   0.09
 132   6    -0.00   0.01   0.09    -0.00  -0.02  -0.15    -0.00   0.01   0.08
 133   6    -0.00   0.01   0.12    -0.00  -0.02  -0.20    -0.01   0.00  -0.00
 134   6    -0.00   0.01   0.10    -0.00  -0.02  -0.15    -0.00   0.00  -0.02
 135   7    -0.00   0.00   0.05    -0.00  -0.01  -0.09    -0.00   0.01   0.04
 136   6    -0.00   0.01   0.12    -0.00  -0.02  -0.18    -0.01   0.00  -0.07
 137   6    -0.00   0.01   0.09    -0.00  -0.01  -0.15    -0.00   0.01  -0.05
 138   6    -0.00   0.01   0.11    -0.00  -0.02  -0.19    -0.01   0.01  -0.06
 139   6    -0.00   0.01   0.08    -0.00  -0.01  -0.14    -0.00   0.01  -0.01
 140   6    -0.00   0.00   0.04    -0.00  -0.01  -0.07    -0.00   0.02   0.03
 141   7    -0.00   0.00   0.05    -0.00  -0.01  -0.09    -0.00   0.01   0.00
 142   6     0.00  -0.00   0.00    -0.00   0.00  -0.01     0.00   0.02   0.06
 143   6     0.00  -0.01  -0.04    -0.00   0.01   0.06     0.00   0.02   0.05
 144   6     0.00  -0.01  -0.08    -0.00   0.02   0.14     0.01   0.02   0.04
 145   6     0.00  -0.01  -0.12     0.00   0.02   0.20     0.01   0.01   0.00
 146   6     0.00  -0.01  -0.09     0.00   0.02   0.16     0.01   0.01   0.00
 147   7     0.00  -0.01  -0.05    -0.00   0.01   0.08     0.00   0.02   0.03
 148   6     0.00  -0.02  -0.12     0.00   0.03   0.20     0.01   0.01  -0.01
 149   6     0.00  -0.02  -0.10    -0.00   0.02   0.15     0.01   0.01   0.03
 150   7     0.00  -0.01  -0.05    -0.00   0.01   0.07     0.00   0.01   0.07
 151   1     0.00  -0.01  -0.05    -0.00   0.01   0.07     0.00   0.00   0.01
 152   1     0.00  -0.01  -0.03    -0.00   0.01   0.03     0.00   0.01   0.05
 153   1    -0.00   0.00   0.03    -0.00  -0.01  -0.05    -0.00   0.00   0.03
 154   1    -0.00   0.00   0.05    -0.00  -0.01  -0.07    -0.00  -0.00  -0.01
 155   1    -0.00   0.00   0.04    -0.00  -0.01  -0.07    -0.00  -0.00  -0.03
 156   1    -0.00   0.00   0.04    -0.00  -0.01  -0.07    -0.00   0.00  -0.03
 157   1    -0.00   0.00   0.02    -0.00  -0.00  -0.04    -0.00   0.01   0.00
 158   1     0.00  -0.00  -0.02    -0.00   0.01   0.04     0.00   0.01   0.02
 159   1     0.00  -0.01  -0.04     0.00   0.01   0.08     0.00   0.00  -0.00
 160   1     0.00  -0.01  -0.05     0.00   0.01   0.08     0.00   0.00  -0.01
                     10                     11                     12
                        a                      a                      a 
 Frequencies --     4.3534                 7.8233                 8.2794
 Red. masses --    15.5773                11.6323                12.0960
 Frc consts  --     0.0000                 0.0000                 0.0000
 IR Inten    --     0.1378                 4.6989                 1.1929
 Raman Activ --     0.0000                 0.0000                 0.0000
 Depolar     --     0.0000                 0.0000                 0.0000
 Atom AN      X      Y      Z        X      Y      Z        X      Y      Z
   1  27    -0.00   0.08   0.01     0.00  -0.00   0.02     0.00   0.00  -0.05
   2   6    -0.08  -0.02   0.01     0.07   0.05  -0.01     0.04   0.03   0.02
   3   6    -0.06  -0.04   0.00     0.05   0.07  -0.03     0.03   0.04   0.08
   4   6    -0.03  -0.03   0.00     0.03   0.06  -0.02     0.01   0.03   0.07
   5   6    -0.00  -0.04   0.00    -0.00   0.07  -0.03     0.00   0.04   0.10
   6   6     0.03  -0.03   0.00    -0.03   0.06  -0.02    -0.01   0.03   0.07
   7   6     0.06  -0.04  -0.00    -0.05   0.07  -0.03    -0.03   0.04   0.08
   8   6     0.08  -0.02  -0.00    -0.07   0.05  -0.01    -0.04   0.03   0.03
   9   6     0.06   0.01   0.00    -0.06   0.02   0.01    -0.03   0.01  -0.01
  10   7     0.03   0.00   0.00    -0.03   0.03  -0.00    -0.02   0.02   0.01
  11   6     0.08   0.04   0.00    -0.07  -0.00   0.02    -0.04   0.00  -0.06
  12   6     0.06   0.06   0.00    -0.06  -0.03   0.03    -0.03  -0.01  -0.08
  13   6     0.08   0.09   0.00    -0.07  -0.05   0.04    -0.04  -0.03  -0.10
  14   6     0.05   0.11   0.01    -0.05  -0.07   0.04    -0.03  -0.04  -0.10
  15   6     0.03   0.10   0.01    -0.02  -0.06   0.03    -0.01  -0.03  -0.07
  16   7     0.03   0.07   0.01    -0.03  -0.03   0.03    -0.02  -0.02  -0.07
  17   6    -0.00   0.11   0.01     0.00  -0.07   0.03     0.00  -0.04  -0.08
  18   6    -0.03   0.10   0.01     0.03  -0.06   0.03     0.02  -0.03  -0.08
  19   6    -0.06   0.11   0.01     0.05  -0.07   0.04     0.03  -0.04  -0.10
  20   6    -0.08   0.09   0.01     0.07  -0.05   0.04     0.04  -0.03  -0.11
  21   6    -0.06   0.06   0.01     0.06  -0.03   0.03     0.03  -0.01  -0.08
  22   7    -0.04   0.07   0.01     0.03  -0.03   0.03     0.02  -0.02  -0.07
  23   6    -0.08   0.03   0.01     0.07   0.00   0.02     0.04   0.00  -0.06
  24   6    -0.06   0.01   0.01     0.06   0.03   0.01     0.03   0.01  -0.01
  25   7    -0.04   0.00   0.01     0.03   0.03  -0.00     0.02   0.02   0.01
  26   1    -0.03  -0.01   0.00     0.03   0.02  -0.00     0.01   0.01   0.00
  27   1    -0.02  -0.02   0.00     0.02   0.03  -0.01     0.01   0.02   0.03
  28   1     0.02  -0.02  -0.00    -0.02   0.03  -0.01    -0.01   0.02   0.03
  29   1     0.03  -0.01  -0.00    -0.03   0.02  -0.00    -0.02   0.01   0.00
  30   1     0.03   0.01   0.00    -0.03  -0.00   0.01    -0.02   0.00  -0.02
  31   1     0.03   0.03   0.00    -0.03  -0.02   0.01    -0.01  -0.01  -0.04
  32   1     0.02   0.04   0.00    -0.02  -0.03   0.01    -0.01  -0.02  -0.03
  33   1    -0.00   0.04   0.00     0.00  -0.03   0.01     0.00  -0.01  -0.03
  34   1    -0.02   0.04   0.00     0.02  -0.03   0.01     0.01  -0.01  -0.03
  35   1    -0.03   0.03   0.00     0.03  -0.02   0.01     0.02  -0.01  -0.04
  36   1    -0.03   0.01   0.00     0.03   0.00   0.01     0.02   0.00  -0.02
  37  27     0.00  -0.08   0.03     0.00  -0.00  -0.01    -0.00  -0.01   0.06
  38   6     0.07   0.02   0.01     0.09   0.06   0.02    -0.00   0.00  -0.02
  39   6     0.05   0.04   0.01     0.06   0.08   0.03    -0.00   0.01  -0.08
  40   6     0.03   0.02   0.00     0.03   0.07   0.03    -0.00   0.01  -0.07
  41   6     0.00   0.04  -0.00     0.00   0.08   0.04    -0.00   0.02  -0.10
  42   6    -0.02   0.02  -0.00    -0.03   0.07   0.03    -0.00   0.01  -0.07
  43   6    -0.05   0.04  -0.00    -0.06   0.08   0.03     0.00   0.01  -0.08
  44   6    -0.07   0.02  -0.00    -0.09   0.06   0.02     0.00   0.00  -0.03
  45   6    -0.06  -0.01   0.01    -0.07   0.03   0.00    -0.00  -0.00   0.01
  46   7    -0.03  -0.01   0.01    -0.04   0.04   0.01    -0.00   0.00  -0.01
  47   6    -0.07  -0.04   0.01    -0.09   0.00  -0.02    -0.00  -0.01   0.07
  48   6    -0.05  -0.06   0.01    -0.07  -0.03  -0.03    -0.00  -0.01   0.08
  49   6    -0.07  -0.09   0.01    -0.09  -0.06  -0.04     0.00  -0.02   0.11
  50   6    -0.05  -0.11   0.02    -0.06  -0.08  -0.04     0.00  -0.02   0.11
  51   6    -0.02  -0.09   0.02    -0.03  -0.07  -0.03    -0.00  -0.01   0.08
  52   7    -0.03  -0.07   0.02    -0.04  -0.04  -0.02    -0.00  -0.01   0.07
  53   6     0.00  -0.11   0.02     0.00  -0.08  -0.04    -0.00  -0.01   0.08
  54   6     0.03  -0.09   0.02     0.03  -0.07  -0.03    -0.00  -0.01   0.08
  55   6     0.05  -0.11   0.03     0.06  -0.08  -0.04    -0.00  -0.02   0.11
  56   6     0.07  -0.09   0.03     0.09  -0.06  -0.03    -0.00  -0.02   0.11
  57   6     0.06  -0.06   0.03     0.07  -0.03  -0.02    -0.00  -0.02   0.08
  58   7     0.03  -0.07   0.02     0.04  -0.04  -0.02    -0.00  -0.01   0.07
  59   6     0.07  -0.04   0.03     0.09   0.00  -0.01    -0.00  -0.01   0.07
  60   6     0.06  -0.01   0.02     0.07   0.03   0.00    -0.00  -0.00   0.02
  61   7     0.03  -0.01   0.01     0.04   0.04   0.01    -0.00   0.00  -0.01
  62   1     0.03   0.01   0.01     0.03   0.02   0.01    -0.00  -0.00  -0.00
  63   1     0.02   0.02   0.00     0.02   0.03   0.01    -0.00   0.01  -0.04
  64   1    -0.02   0.02  -0.00    -0.02   0.03   0.01     0.00   0.01  -0.04
  65   1    -0.03   0.01  -0.00    -0.03   0.02   0.00     0.00   0.00  -0.00
  66   1    -0.03  -0.01   0.00    -0.03   0.00  -0.01    -0.00  -0.00   0.02
  67   1    -0.03  -0.03   0.00    -0.03  -0.02  -0.01     0.00  -0.01   0.04
  68   1    -0.01  -0.04   0.01    -0.02  -0.03  -0.02     0.00  -0.01   0.04
  69   1     0.00  -0.04   0.01     0.00  -0.03  -0.01    -0.00  -0.00   0.03
  70   1     0.02  -0.04   0.01     0.02  -0.03  -0.01    -0.00  -0.01   0.03
  71   1     0.03  -0.03   0.01     0.03  -0.02  -0.01    -0.00  -0.01   0.04
  72   1     0.03  -0.01   0.01     0.03   0.00  -0.00    -0.00  -0.00   0.02
  73   6    -0.00  -0.07  -0.00    -0.00   0.10  -0.05     0.00   0.06   0.14
  74   6    -0.00  -0.09  -0.00    -0.00   0.11  -0.06     0.00   0.06   0.17
  75   6    -0.00  -0.11  -0.00    -0.00   0.12  -0.07     0.00   0.07   0.19
  76   6    -0.00  -0.12  -0.00    -0.00   0.12  -0.07     0.00   0.06   0.20
  77   6    -0.00  -0.13  -0.00    -0.00   0.11  -0.07     0.00   0.06   0.19
  78   6    -0.00  -0.12  -0.00    -0.00   0.09  -0.06     0.00   0.05   0.17
  79   6    -0.00  -0.04  -0.02    -0.00  -0.11  -0.02     0.00  -0.05   0.00
  80   6     0.00  -0.03  -0.03    -0.00  -0.13  -0.02     0.00  -0.05   0.00
  81   6     0.00  -0.01  -0.03    -0.00  -0.14  -0.02     0.00  -0.06   0.00
  82   6     0.00   0.01  -0.03    -0.00  -0.14  -0.02     0.00  -0.05  -0.00
  83   6     0.00   0.02  -0.03    -0.00  -0.13  -0.02     0.00  -0.05  -0.00
  84   6     0.00   0.04  -0.03    -0.00  -0.12  -0.02     0.00  -0.04  -0.00
  85   6     0.00   0.12  -0.02    -0.00   0.10   0.06    -0.00   0.03  -0.18
  86   6     0.00   0.12  -0.02    -0.00   0.12   0.07    -0.00   0.04  -0.20
  87   6     0.00   0.12  -0.02    -0.00   0.13   0.07    -0.00   0.04  -0.21
  88   6     0.00   0.11  -0.02    -0.00   0.14   0.07    -0.00   0.04  -0.21
  89   6     0.00   0.09  -0.01     0.00   0.13   0.06    -0.00   0.03  -0.19
  90   6     0.00   0.07  -0.01     0.00   0.11   0.05    -0.00   0.03  -0.15
  91  27    -0.00  -0.18   0.01    -0.00  -0.02  -0.01     0.00  -0.02   0.03
  92   6     0.03  -0.10   0.03    -0.08   0.05  -0.01    -0.03   0.01   0.04
  93   6     0.02  -0.11   0.02    -0.05   0.06  -0.03    -0.02   0.03   0.10
  94   6     0.01  -0.11   0.01    -0.03   0.05  -0.03    -0.01   0.02   0.10
  95   6    -0.00  -0.11   0.00    -0.00   0.06  -0.04     0.00   0.03   0.13
  96   6    -0.01  -0.11  -0.00     0.03   0.05  -0.03     0.01   0.02   0.09
  97   6    -0.02  -0.11  -0.00     0.05   0.06  -0.03     0.02   0.03   0.09
  98   6    -0.03  -0.10   0.00     0.07   0.05  -0.00     0.03   0.01   0.04
  99   6    -0.02  -0.09   0.00     0.06   0.02   0.00     0.02  -0.00   0.01
 100   7    -0.01  -0.10   0.00     0.03   0.02  -0.01     0.01   0.00   0.04
 101   6    -0.03  -0.08   0.00     0.07  -0.01   0.02     0.03  -0.02  -0.04
 102   6    -0.02  -0.07  -0.00     0.06  -0.03   0.01     0.02  -0.03  -0.04
 103   6    -0.03  -0.06  -0.01     0.07  -0.06   0.02     0.03  -0.04  -0.06
 104   6    -0.02  -0.05  -0.02     0.05  -0.08   0.00     0.02  -0.04  -0.03
 105   6    -0.01  -0.06  -0.01     0.03  -0.07  -0.01     0.01  -0.04  -0.01
 106   7    -0.01  -0.08  -0.01     0.03  -0.04  -0.00     0.01  -0.03  -0.01
 107   6    -0.00  -0.05  -0.02    -0.00  -0.09  -0.01     0.00  -0.04  -0.00
 108   6     0.01  -0.06  -0.00    -0.03  -0.07  -0.01    -0.01  -0.04  -0.01
 109   6     0.02  -0.05   0.00    -0.05  -0.08   0.00    -0.02  -0.04  -0.03
 110   6     0.03  -0.06   0.02    -0.08  -0.06   0.02    -0.03  -0.04  -0.06
 111   6     0.02  -0.07   0.02    -0.06  -0.03   0.01    -0.02  -0.03  -0.04
 112   7     0.01  -0.07   0.01    -0.03  -0.04   0.00    -0.01  -0.03  -0.01
 113   6     0.03  -0.08   0.03    -0.07  -0.01   0.02    -0.03  -0.02  -0.04
 114   6     0.02  -0.09   0.02    -0.06   0.02   0.00    -0.02  -0.00   0.01
 115   7     0.01  -0.10   0.01    -0.03   0.02  -0.01    -0.01   0.01   0.05
 116   1     0.01  -0.03   0.01    -0.03   0.01   0.00    -0.01   0.00   0.01
 117   1     0.01  -0.04   0.01    -0.02   0.03  -0.01    -0.01   0.01   0.04
 118   1    -0.01  -0.04  -0.00     0.02   0.03  -0.01     0.01   0.01   0.04
 119   1    -0.01  -0.03   0.00     0.03   0.01   0.00     0.01   0.00   0.01
 120   1    -0.01  -0.02   0.00     0.03  -0.00   0.01     0.01  -0.01  -0.02
 121   1    -0.01  -0.02  -0.00     0.03  -0.02   0.01     0.01  -0.01  -0.02
 122   1    -0.01  -0.01  -0.01     0.02  -0.03  -0.00     0.01  -0.02  -0.01
 123   1     0.01  -0.01  -0.00    -0.02  -0.03  -0.00    -0.01  -0.02  -0.01
 124   1     0.01  -0.02   0.01    -0.03  -0.02   0.01    -0.01  -0.01  -0.02
 125   1     0.01  -0.02   0.01    -0.03  -0.00   0.01    -0.01  -0.01  -0.02
 126  27     0.00   0.18  -0.03    -0.00  -0.02   0.01     0.00   0.01  -0.03
 127   6     0.03   0.06  -0.02     0.07  -0.07  -0.03     0.03  -0.01   0.07
 128   6     0.02   0.05  -0.03     0.05  -0.09  -0.02     0.02  -0.02   0.04
 129   6     0.01   0.06  -0.02     0.03  -0.07  -0.01     0.01  -0.02   0.01
 130   6     0.00   0.05  -0.03    -0.00  -0.09  -0.01     0.00  -0.02   0.00
 131   6    -0.01   0.06  -0.02    -0.03  -0.07  -0.01    -0.01  -0.02   0.01
 132   6    -0.02   0.05  -0.01    -0.05  -0.09  -0.02    -0.02  -0.02   0.03
 133   6    -0.03   0.06  -0.00    -0.07  -0.07  -0.02    -0.03  -0.01   0.06
 134   6    -0.02   0.07  -0.00    -0.06  -0.04  -0.01    -0.03   0.00   0.04
 135   7    -0.01   0.08  -0.01    -0.03  -0.05  -0.01    -0.01  -0.00   0.01
 136   6    -0.03   0.09   0.00    -0.07  -0.01  -0.01    -0.03   0.01   0.04
 137   6    -0.02   0.09   0.00    -0.06   0.02   0.01    -0.02   0.02  -0.01
 138   6    -0.03   0.11   0.00    -0.07   0.05   0.02    -0.03   0.03  -0.04
 139   6    -0.02   0.11  -0.00    -0.05   0.07   0.04    -0.02   0.03  -0.10
 140   6    -0.01   0.11  -0.01    -0.03   0.05   0.04    -0.01   0.02  -0.10
 141   7    -0.01   0.10  -0.01    -0.03   0.02   0.02    -0.01   0.02  -0.05
 142   6     0.00   0.11  -0.02    -0.00   0.07   0.05    -0.00   0.02  -0.13
 143   6     0.01   0.11  -0.02     0.03   0.05   0.04     0.01   0.02  -0.10
 144   6     0.02   0.11  -0.02     0.05   0.07   0.04     0.02   0.03  -0.10
 145   6     0.03   0.10  -0.01     0.07   0.05   0.02     0.03   0.03  -0.03
 146   6     0.02   0.09  -0.01     0.06   0.02   0.01     0.03   0.02  -0.00
 147   7     0.01   0.10  -0.02     0.03   0.02   0.02     0.01   0.02  -0.04
 148   6     0.03   0.08  -0.01     0.07  -0.01  -0.01     0.03   0.01   0.05
 149   6     0.02   0.07  -0.02     0.06  -0.04  -0.02     0.03   0.00   0.05
 150   7     0.01   0.08  -0.02     0.03  -0.05  -0.01     0.01  -0.00   0.02
 151   1     0.01   0.02  -0.01     0.03  -0.02  -0.01     0.01  -0.00   0.03
 152   1     0.01   0.01  -0.01     0.02  -0.03  -0.01     0.01  -0.01   0.01
 153   1    -0.01   0.01  -0.01    -0.02  -0.03  -0.01    -0.01  -0.01   0.01
 154   1    -0.01   0.02   0.00    -0.03  -0.02  -0.01    -0.01  -0.00   0.02
 155   1    -0.01   0.02   0.00    -0.03  -0.00  -0.00    -0.01   0.00   0.02
 156   1    -0.01   0.03   0.00    -0.03   0.01   0.01    -0.01   0.01  -0.01
 157   1    -0.01   0.04  -0.00    -0.02   0.03   0.02    -0.01   0.01  -0.04
 158   1     0.01   0.03  -0.01     0.02   0.03   0.02     0.01   0.01  -0.04
 159   1     0.01   0.03  -0.00     0.03   0.01   0.01     0.01   0.01  -0.00
 160   1     0.01   0.02  -0.00     0.03  -0.00  -0.00     0.01   0.00   0.02
                     13                     14                     15
                        a                      a                      a 
 Frequencies --     9.5174                17.4188                20.2218
 Red. masses --    11.7887                14.8490                10.9495
 Frc consts  --     0.0000                 0.0000                 0.0000
 IR Inten    --     5.3484                 0.0584                 9.6493
 Raman Activ --     0.0000                 0.0000                 0.0000
 Depolar     --     0.0000                 0.0000                 0.0000
 Atom AN      X      Y      Z        X      Y      Z        X      Y      Z
   1  27    -0.00  -0.00  -0.03    -0.00  -0.05   0.00     0.00   0.00  -0.00
   2   6    -0.00  -0.00   0.03    -0.09  -0.09   0.00     0.00   0.00  -0.02
   3   6    -0.00  -0.00   0.08    -0.06  -0.11   0.01     0.00   0.00  -0.02
   4   6    -0.00  -0.00   0.07    -0.03  -0.09   0.01     0.00   0.00  -0.01
   5   6     0.00  -0.00   0.10     0.00  -0.11   0.02     0.00   0.00   0.00
   6   6     0.00  -0.00   0.07     0.03  -0.09   0.01     0.00   0.00   0.01
   7   6     0.00  -0.00   0.08     0.06  -0.11   0.01     0.00   0.00   0.02
   8   6     0.00  -0.00   0.03     0.09  -0.09   0.01    -0.00   0.00   0.02
   9   6     0.00  -0.00  -0.01     0.07  -0.05  -0.00     0.00   0.00   0.01
  10   7     0.00  -0.00   0.02     0.04  -0.06   0.00     0.00   0.00   0.00
  11   6     0.00   0.00  -0.05     0.09  -0.02  -0.01     0.00   0.00  -0.00
  12   6     0.00   0.00  -0.06     0.07   0.01  -0.01     0.00  -0.00  -0.01
  13   6     0.00   0.00  -0.09     0.09   0.04  -0.01     0.00  -0.00  -0.02
  14   6     0.00   0.00  -0.08     0.06   0.06  -0.01     0.00  -0.00  -0.02
  15   6     0.00   0.00  -0.06     0.03   0.05  -0.00     0.00  -0.00  -0.01
  16   7     0.00   0.00  -0.05     0.04   0.01  -0.01     0.00  -0.00  -0.01
  17   6     0.00   0.00  -0.06    -0.00   0.06  -0.00     0.00  -0.00   0.00
  18   6    -0.00   0.00  -0.06    -0.03   0.05   0.00     0.00  -0.00   0.01
  19   6    -0.00   0.00  -0.08    -0.06   0.06  -0.00     0.00  -0.00   0.02
  20   6    -0.00   0.00  -0.09    -0.09   0.04  -0.01     0.00  -0.00   0.02
  21   6    -0.00   0.00  -0.07    -0.07   0.01  -0.01     0.00   0.00   0.01
  22   7    -0.00   0.00  -0.05    -0.04   0.01  -0.00     0.00  -0.00   0.01
  23   6    -0.00  -0.00  -0.05    -0.09  -0.03  -0.01     0.00   0.00   0.00
  24   6    -0.00  -0.00  -0.01    -0.07  -0.06  -0.00     0.00   0.00  -0.01
  25   7    -0.00  -0.00   0.02    -0.04  -0.07   0.00     0.00   0.00  -0.00
  26   1    -0.00  -0.00   0.00    -0.03  -0.03  -0.00     0.00   0.00  -0.01
  27   1    -0.00  -0.00   0.03    -0.02  -0.04   0.00     0.00   0.00  -0.01
  28   1     0.00  -0.00   0.03     0.02  -0.04   0.01     0.00   0.00   0.01
  29   1     0.00  -0.00   0.00     0.03  -0.03   0.00    -0.00   0.00   0.01
  30   1     0.00   0.00  -0.02     0.03  -0.01  -0.00    -0.00   0.00  -0.00
  31   1     0.00   0.00  -0.03     0.03   0.01  -0.01     0.00  -0.00  -0.01
  32   1     0.00   0.00  -0.03     0.02   0.03  -0.00     0.00  -0.00  -0.01
  33   1     0.00   0.00  -0.02    -0.00   0.03   0.00     0.00  -0.00   0.00
  34   1    -0.00   0.00  -0.03    -0.02   0.03   0.00     0.00  -0.00   0.01
  35   1    -0.00   0.00  -0.03    -0.03   0.01  -0.00     0.00  -0.00   0.01
  36   1    -0.00  -0.00  -0.02    -0.03  -0.01  -0.00     0.00   0.00   0.00
  37  27     0.00   0.01  -0.03    -0.00   0.05   0.01    -0.00   0.00  -0.00
  38   6     0.01   0.01   0.02     0.08   0.08   0.01    -0.00  -0.00   0.01
  39   6     0.01   0.00   0.07     0.06   0.11  -0.01    -0.00  -0.00   0.01
  40   6     0.00   0.00   0.06     0.03   0.09  -0.01    -0.00  -0.00   0.01
  41   6     0.00  -0.00   0.09    -0.00   0.11  -0.02    -0.00   0.00  -0.00
  42   6    -0.00   0.00   0.06    -0.03   0.09  -0.01    -0.00   0.00  -0.01
  43   6    -0.01   0.00   0.07    -0.06   0.11  -0.01    -0.00   0.00  -0.02
  44   6    -0.01   0.01   0.03    -0.08   0.08   0.01    -0.00   0.00  -0.01
  45   6    -0.01   0.01  -0.01    -0.06   0.05   0.01    -0.00   0.00  -0.01
  46   7    -0.00   0.00   0.02    -0.04   0.06   0.00    -0.00   0.00  -0.00
  47   6    -0.01   0.01  -0.05    -0.08   0.02   0.03    -0.00  -0.00   0.00
  48   6    -0.01   0.01  -0.06    -0.06  -0.01   0.02    -0.00  -0.00   0.01
  49   6    -0.01   0.01  -0.08    -0.08  -0.04   0.02    -0.00  -0.00   0.02
  50   6    -0.01   0.00  -0.07    -0.06  -0.06   0.00    -0.00  -0.00   0.02
  51   6    -0.00   0.00  -0.05    -0.03  -0.04  -0.00    -0.00  -0.00   0.01
  52   7    -0.00   0.00  -0.04    -0.04  -0.01   0.01    -0.00  -0.00   0.01
  53   6     0.00  -0.00  -0.05    -0.00  -0.06  -0.01    -0.00  -0.00   0.00
  54   6     0.00   0.00  -0.05     0.03  -0.04  -0.00    -0.00   0.00  -0.01
  55   6     0.01   0.00  -0.07     0.06  -0.06   0.01    -0.00   0.00  -0.02
  56   6     0.01   0.01  -0.08     0.08  -0.04   0.02    -0.00   0.00  -0.02
  57   6     0.01   0.01  -0.06     0.06  -0.01   0.02    -0.00   0.00  -0.01
  58   7     0.01   0.00  -0.04     0.03  -0.01   0.01    -0.00   0.00  -0.01
  59   6     0.01   0.01  -0.05     0.08   0.02   0.03    -0.00   0.00  -0.00
  60   6     0.01   0.01  -0.01     0.06   0.05   0.01    -0.00  -0.00   0.00
  61   7     0.01   0.00   0.02     0.03   0.06   0.00    -0.00  -0.00   0.00
  62   1     0.01   0.00   0.00     0.03   0.02   0.00    -0.00  -0.00   0.00
  63   1     0.00  -0.00   0.03     0.02   0.04  -0.01    -0.00  -0.00   0.01
  64   1    -0.00  -0.00   0.03    -0.02   0.04  -0.01    -0.00   0.00  -0.01
  65   1    -0.00   0.00   0.00    -0.03   0.02   0.00    -0.00   0.00  -0.01
  66   1    -0.00   0.00  -0.02    -0.03   0.00   0.01    -0.00  -0.00   0.00
  67   1    -0.00   0.00  -0.03    -0.03  -0.01   0.01    -0.00  -0.00   0.01
  68   1    -0.00  -0.00  -0.02    -0.02  -0.02  -0.00    -0.00  -0.00   0.01
  69   1     0.00  -0.00  -0.02    -0.00  -0.02  -0.01    -0.00  -0.00   0.00
  70   1     0.00  -0.00  -0.02     0.02  -0.02  -0.00    -0.00   0.00  -0.01
  71   1     0.00   0.00  -0.03     0.03  -0.01   0.01    -0.00   0.00  -0.01
  72   1     0.01   0.00  -0.02     0.03   0.00   0.01    -0.00   0.00  -0.00
  73   6     0.00  -0.00   0.14     0.00  -0.14   0.02     0.00   0.00   0.00
  74   6     0.00  -0.00   0.17     0.00  -0.12   0.02     0.00   0.00   0.00
  75   6     0.00  -0.00   0.18     0.00  -0.10   0.02     0.00   0.00   0.00
  76   6     0.00  -0.00   0.19     0.00  -0.05   0.02     0.00   0.00   0.00
  77   6     0.00  -0.00   0.18     0.00  -0.01   0.02     0.00   0.00   0.00
  78   6     0.00  -0.00   0.16     0.00   0.03   0.01     0.00  -0.00   0.00
  79   6    -0.00   0.01  -0.14     0.00   0.11  -0.01     0.00  -0.00   0.00
  80   6    -0.00   0.01  -0.16     0.00   0.07  -0.01     0.00  -0.00   0.00
  81   6    -0.00   0.01  -0.17     0.00   0.03  -0.00     0.00   0.00   0.00
  82   6    -0.00   0.00  -0.17     0.00  -0.04   0.00     0.00   0.00   0.00
  83   6    -0.00   0.00  -0.16    -0.00  -0.08   0.01     0.00   0.00   0.00
  84   6    -0.00   0.00  -0.14    -0.00  -0.12   0.02     0.00   0.00   0.00
  85   6    -0.00  -0.01   0.14    -0.00  -0.02  -0.03    -0.00  -0.00   0.00
  86   6    -0.00  -0.01   0.16    -0.00   0.02  -0.04    -0.00  -0.00   0.00
  87   6    -0.00  -0.01   0.17    -0.00   0.06  -0.04    -0.00  -0.00   0.00
  88   6    -0.00  -0.01   0.16    -0.00   0.10  -0.04    -0.00   0.00   0.00
  89   6    -0.00  -0.01   0.15    -0.00   0.12  -0.04    -0.00   0.00  -0.00
  90   6    -0.00  -0.00   0.13    -0.00   0.14  -0.03    -0.00   0.00  -0.00
  91  27     0.00   0.00  -0.00     0.00   0.18  -0.02     0.00  -0.00  -0.00
  92   6     0.02   0.00   0.09     0.03   0.06  -0.00     0.00  -0.03  -0.22
  93   6     0.01   0.00   0.12     0.02   0.05   0.00     0.00  -0.03  -0.22
  94   6     0.01   0.00   0.10     0.01   0.05   0.00     0.00  -0.01  -0.11
  95   6     0.00   0.00   0.12     0.00   0.05   0.01     0.00  -0.00   0.00
  96   6    -0.00   0.00   0.10    -0.01   0.05   0.00     0.00   0.01   0.11
  97   6    -0.01   0.00   0.12    -0.02   0.05   0.01     0.00   0.03   0.22
  98   6    -0.01   0.00   0.08    -0.03   0.06  -0.00     0.00   0.03   0.22
  99   6    -0.01   0.00   0.04    -0.03   0.07  -0.01     0.00   0.01   0.11
 100   7    -0.01   0.00   0.05    -0.01   0.07  -0.00     0.00   0.01   0.06
 101   6    -0.01   0.00  -0.01    -0.03   0.08  -0.01     0.00  -0.00   0.00
 102   6    -0.01   0.00  -0.05    -0.02   0.09  -0.02     0.00  -0.01  -0.10
 103   6    -0.01   0.00  -0.10    -0.03   0.10  -0.02     0.00  -0.03  -0.22
 104   6    -0.01   0.00  -0.12    -0.02   0.11  -0.02     0.00  -0.03  -0.22
 105   6    -0.01   0.00  -0.09    -0.01   0.10  -0.02     0.00  -0.01  -0.10
 106   7    -0.01   0.00  -0.06    -0.01   0.10  -0.01     0.00  -0.01  -0.06
 107   6    -0.00   0.00  -0.11     0.00   0.11  -0.02     0.00  -0.00  -0.00
 108   6     0.01   0.00  -0.09     0.01   0.10  -0.02     0.00   0.01   0.10
 109   6     0.01   0.00  -0.12     0.02   0.11  -0.02     0.00   0.02   0.22
 110   6     0.01   0.00  -0.09     0.03   0.10  -0.02     0.00   0.02   0.22
 111   6     0.01   0.00  -0.05     0.03   0.09  -0.02     0.00   0.01   0.10
 112   7     0.01   0.00  -0.05     0.01   0.10  -0.01     0.00   0.01   0.06
 113   6     0.01   0.00  -0.00     0.03   0.08  -0.01     0.00  -0.00  -0.00
 114   6     0.01   0.00   0.04     0.03   0.07  -0.01     0.00  -0.01  -0.11
 115   7     0.01   0.00   0.05     0.01   0.07  -0.00     0.00  -0.01  -0.06
 116   1     0.01   0.00   0.03     0.01   0.02  -0.00     0.00  -0.01  -0.08
 117   1     0.00   0.00   0.05     0.01   0.01   0.00     0.00  -0.01  -0.08
 118   1    -0.00   0.00   0.05    -0.01   0.01   0.00     0.00   0.01   0.08
 119   1    -0.01   0.00   0.02    -0.01   0.02  -0.00     0.00   0.01   0.08
 120   1    -0.01   0.00  -0.00    -0.01   0.02  -0.00     0.00   0.00   0.00
 121   1    -0.01   0.00  -0.03    -0.01   0.03  -0.01     0.00  -0.01  -0.08
 122   1    -0.00   0.00  -0.05    -0.01   0.03  -0.01     0.00  -0.01  -0.08
 123   1     0.00   0.00  -0.04     0.01   0.03  -0.01     0.00   0.01   0.08
 124   1     0.01   0.00  -0.03     0.01   0.03  -0.01     0.00   0.01   0.08
 125   1     0.01   0.00  -0.00     0.01   0.02  -0.00     0.00  -0.00  -0.00
 126  27    -0.00  -0.01  -0.00    -0.00  -0.17   0.02    -0.00   0.00   0.00
 127   6    -0.02  -0.00  -0.09     0.04  -0.10   0.03     0.00   0.02   0.19
 128   6    -0.01  -0.00  -0.12     0.03  -0.11   0.03     0.00   0.02   0.19
 129   6    -0.01  -0.00  -0.09     0.01  -0.11   0.02     0.00   0.01   0.09
 130   6    -0.00  -0.00  -0.11    -0.00  -0.11   0.02     0.00   0.00   0.00
 131   6     0.01  -0.00  -0.09    -0.01  -0.11   0.02     0.00  -0.01  -0.09
 132   6     0.01  -0.00  -0.11    -0.03  -0.11   0.02     0.00  -0.02  -0.19
 133   6     0.02  -0.00  -0.08    -0.04  -0.10   0.03     0.00  -0.02  -0.19
 134   6     0.01  -0.00  -0.04    -0.03  -0.09   0.02     0.00  -0.01  -0.09
 135   7     0.01  -0.00  -0.05    -0.02  -0.10   0.02     0.00  -0.01  -0.05
 136   6     0.01  -0.00   0.00    -0.04  -0.08   0.02     0.00   0.00   0.00
 137   6     0.01  -0.01   0.04    -0.03  -0.06   0.01    -0.00   0.01   0.09
 138   6     0.01  -0.01   0.08    -0.04  -0.05  -0.00    -0.00   0.02   0.20
 139   6     0.01  -0.01   0.11    -0.03  -0.04  -0.02    -0.00   0.02   0.20
 140   6     0.00  -0.01   0.09    -0.01  -0.05  -0.02    -0.00   0.01   0.09
 141   7     0.01  -0.01   0.05    -0.02  -0.07  -0.00    -0.00   0.01   0.05
 142   6    -0.00  -0.01   0.11    -0.00  -0.04  -0.02    -0.00  -0.00   0.00
 143   6    -0.01  -0.01   0.09     0.01  -0.05  -0.02    -0.00  -0.01  -0.09
 144   6    -0.01  -0.01   0.11     0.03  -0.04  -0.02    -0.00  -0.02  -0.20
 145   6    -0.02  -0.01   0.08     0.04  -0.05  -0.00    -0.00  -0.02  -0.20
 146   6    -0.01  -0.01   0.04     0.03  -0.06   0.01    -0.00  -0.01  -0.09
 147   7    -0.01  -0.01   0.05     0.02  -0.07  -0.00    -0.00  -0.01  -0.05
 148   6    -0.02  -0.00  -0.00     0.04  -0.08   0.02    -0.00   0.00  -0.00
 149   6    -0.01  -0.00  -0.04     0.03  -0.09   0.02     0.00   0.01   0.09
 150   7    -0.01  -0.00  -0.05     0.02  -0.10   0.02     0.00   0.01   0.05
 151   1    -0.01  -0.00  -0.03     0.01  -0.03   0.01     0.00   0.01   0.07
 152   1    -0.00  -0.00  -0.04     0.01  -0.04   0.01     0.00   0.01   0.07
 153   1     0.00  -0.00  -0.04    -0.01  -0.04   0.01     0.00  -0.01  -0.07
 154   1     0.01  -0.00  -0.03    -0.01  -0.03   0.01     0.00  -0.01  -0.07
 155   1     0.01  -0.00   0.00    -0.01  -0.02   0.01     0.00   0.00   0.00
 156   1     0.01  -0.00   0.03    -0.01  -0.01  -0.00    -0.00   0.01   0.07
 157   1     0.00  -0.00   0.04    -0.01  -0.01  -0.01    -0.00   0.01   0.07
 158   1    -0.00  -0.00   0.04     0.01  -0.01  -0.01    -0.00  -0.01  -0.07
 159   1    -0.01  -0.00   0.02     0.01  -0.01   0.00    -0.00  -0.01  -0.07
 160   1    -0.01  -0.00  -0.00     0.01  -0.02   0.01    -0.00  -0.00  -0.00
                     16                     17                     18
                        a                      a                      a 
 Frequencies --    20.7041                22.6394                22.7308
 Red. masses --    10.9489                10.9584                10.9640
 Frc consts  --     0.0000                 0.0000                 0.0000
 IR Inten    --  2035.0547               866.5641                 8.3808
 Raman Activ --     0.0000                 0.0000                 0.0000
 Depolar     --     0.0000                 0.0000                 0.0000
 Atom AN      X      Y      Z        X      Y      Z        X      Y      Z
   1  27     0.00   0.00   0.00    -0.00   0.00   0.00     0.00   0.00  -0.00
   2   6     0.00   0.00   0.02     0.00   0.00   0.01     0.00   0.01   0.30
   3   6     0.00   0.00   0.02     0.00   0.00   0.01     0.00   0.01   0.30
   4   6     0.00   0.00   0.01     0.00   0.00   0.01     0.00   0.01   0.14
   5   6     0.00   0.00  -0.00    -0.00   0.00  -0.00     0.00   0.01  -0.00
   6   6     0.00   0.00  -0.01    -0.00   0.00  -0.01    -0.00   0.01  -0.14
   7   6     0.00   0.00  -0.02    -0.00   0.00  -0.02    -0.00   0.01  -0.30
   8   6     0.00   0.00  -0.02    -0.00   0.00  -0.01    -0.00   0.01  -0.30
   9   6     0.00   0.00  -0.01    -0.00   0.00  -0.01    -0.00   0.00  -0.14
  10   7     0.00   0.00  -0.00    -0.00   0.00  -0.00    -0.00   0.00  -0.08
  11   6     0.00   0.00   0.00    -0.00   0.00   0.00    -0.00   0.00  -0.00
  12   6     0.00  -0.00   0.01    -0.00  -0.00   0.01    -0.01  -0.00   0.14
  13   6     0.00  -0.00   0.02    -0.00  -0.00   0.01    -0.01  -0.00   0.29
  14   6     0.00  -0.00   0.02    -0.00  -0.00   0.01    -0.01  -0.00   0.29
  15   6     0.00  -0.00   0.01    -0.00  -0.00   0.01    -0.00  -0.00   0.14
  16   7     0.00   0.00   0.01    -0.00  -0.00   0.00    -0.00  -0.00   0.08
  17   6     0.00  -0.00  -0.00     0.00  -0.00   0.00     0.00  -0.00   0.00
  18   6     0.00  -0.00  -0.01     0.00  -0.00  -0.01     0.00  -0.00  -0.14
[...]
  74   6    -0.00   0.00  -0.00     0.00   0.00  -0.00     0.00  -0.00  -0.00
  75   6     0.00   0.00   0.00     0.00  -0.00   0.00    -0.00  -0.00  -0.00
  76   6    -0.00   0.00  -0.00    -0.00   0.00  -0.00     0.00   0.00  -0.00
  77   6     0.00   0.00  -0.00     0.00   0.00  -0.00     0.00   0.00  -0.00
  78   6    -0.00  -0.00   0.00    -0.00  -0.00   0.00    -0.00  -0.00   0.00
  79   6    -0.00  -0.00   0.00    -0.00  -0.00   0.00     0.00   0.00  -0.00
  80   6     0.00   0.00  -0.00     0.00   0.00  -0.00    -0.00  -0.00   0.00
  81   6    -0.00   0.00  -0.00    -0.00   0.00  -0.00     0.00  -0.00   0.00
  82   6     0.00  -0.00   0.00     0.00  -0.00   0.00    -0.00   0.00  -0.00
  83   6    -0.00  -0.00   0.00    -0.00   0.00  -0.00     0.00   0.00  -0.00
  84   6     0.00   0.00  -0.00     0.00  -0.00   0.00    -0.00  -0.00   0.00
  85   6     0.00  -0.00   0.00    -0.00   0.00  -0.00     0.00  -0.00   0.00
  86   6    -0.00   0.00  -0.00     0.00  -0.00   0.00    -0.00   0.00  -0.00
  87   6     0.00   0.00  -0.00     0.00  -0.00   0.00    -0.00   0.00  -0.00
  88   6    -0.00   0.00   0.00    -0.00  -0.00  -0.00     0.00   0.00   0.00
  89   6    -0.00   0.00   0.00     0.00  -0.00  -0.00    -0.00   0.00   0.00
  90   6     0.00  -0.00  -0.00    -0.00   0.00   0.00     0.00  -0.00  -0.00
  91  27    -0.00   0.00  -0.00    -0.00   0.00  -0.00    -0.00   0.00  -0.00
  92   6    -0.00  -0.00   0.00     0.00   0.02  -0.00     0.00   0.02  -0.00
  93   6    -0.00   0.00  -0.00     0.03   0.00  -0.00     0.02   0.00  -0.00
  94   6    -0.00  -0.00   0.00     0.00  -0.00   0.00     0.00  -0.00   0.00
  95   6     0.00  -0.00   0.00     0.00  -0.00   0.00     0.00  -0.00   0.00
  96   6     0.00   0.00  -0.00     0.00   0.00  -0.00     0.00   0.00  -0.00
  97   6     0.06  -0.00   0.00     0.13  -0.01   0.00     0.07  -0.00   0.00
  98   6     0.00  -0.05   0.01     0.00  -0.09   0.01     0.00  -0.05   0.01
  99   6    -0.00  -0.00   0.00    -0.00  -0.00   0.00    -0.00  -0.00   0.00
 100   7    -0.00   0.00  -0.00    -0.00   0.00  -0.00    -0.00   0.00  -0.00
 101   6     0.00  -0.00   0.00     0.00  -0.00   0.00     0.00  -0.00   0.00
 102   6    -0.00   0.00  -0.00    -0.00   0.00  -0.00     0.00  -0.00   0.00
 103   6     0.00   0.02  -0.00     0.00   0.03  -0.00    -0.00  -0.02   0.00
 104   6     0.02   0.00  -0.00     0.04   0.00  -0.00    -0.03  -0.00   0.00
 105   6     0.00  -0.00   0.00     0.00  -0.00   0.00    -0.00   0.00  -0.00
 106   7    -0.00  -0.00   0.00    -0.00  -0.00   0.00     0.00   0.00  -0.00
 107   6     0.00  -0.00   0.00     0.00  -0.00   0.00    -0.00   0.00  -0.00
 108   6     0.00   0.00  -0.00     0.00   0.00  -0.00    -0.00  -0.00   0.00
 109   6     0.08  -0.01   0.00     0.09  -0.01   0.00    -0.05   0.00  -0.00
 110   6     0.00  -0.06   0.01     0.00  -0.06   0.01    -0.00   0.03  -0.00
 111   6    -0.00  -0.00   0.00    -0.00  -0.00   0.00     0.00   0.00  -0.00
 112   7    -0.00   0.00  -0.00    -0.00   0.00  -0.00     0.00  -0.00   0.00
 113   6     0.00  -0.00   0.00     0.00  -0.00   0.00    -0.00   0.00  -0.00
 114   6     0.00   0.00  -0.00    -0.00   0.00  -0.00    -0.00   0.00  -0.00
 115   7    -0.00   0.00  -0.00    -0.00  -0.00   0.00    -0.00  -0.00   0.00
 116   1     0.00   0.00  -0.00    -0.01  -0.06   0.01    -0.00  -0.05   0.01
 117   1     0.00   0.00  -0.00    -0.09  -0.01   0.00    -0.07  -0.01   0.00
 118   1    -0.20   0.02  -0.00    -0.41   0.04  -0.01    -0.22   0.02  -0.00
 119   1    -0.01   0.14  -0.02    -0.03   0.30  -0.03    -0.02   0.16  -0.02
 120   1     0.00   0.00  -0.00     0.00   0.00  -0.00     0.00   0.00  -0.00
 121   1    -0.00  -0.05   0.01    -0.01  -0.08   0.01     0.01   0.07  -0.01
 122   1    -0.07  -0.01   0.00    -0.12  -0.01   0.00     0.09   0.01  -0.00
 123   1    -0.26   0.03  -0.00    -0.28   0.03  -0.00     0.15  -0.02   0.00
 124   1    -0.02   0.19  -0.02    -0.02   0.20  -0.02     0.01  -0.11   0.01
 125   1     0.00   0.00  -0.00     0.00   0.00  -0.00    -0.00  -0.00   0.00
 126  27     0.00   0.00  -0.00    -0.00  -0.00   0.00    -0.00   0.00  -0.00
 127   6    -0.00  -0.06   0.01    -0.00  -0.01   0.00     0.00   0.02  -0.00
 128   6    -0.08  -0.01   0.00    -0.02  -0.00   0.00     0.03   0.00  -0.00
 129   6    -0.00   0.00  -0.00    -0.00   0.00  -0.00     0.00  -0.00   0.00
 130   6    -0.00   0.00  -0.00    -0.00  -0.00   0.00     0.00  -0.00   0.00
 131   6    -0.00  -0.00   0.00    -0.00  -0.00   0.00     0.00   0.00  -0.00
 132   6    -0.09   0.01  -0.00    -0.01   0.00  -0.00     0.05  -0.00   0.00
 133   6    -0.00   0.07  -0.01    -0.00   0.01  -0.00     0.00  -0.03   0.00
 134   6     0.00   0.00  -0.00     0.00   0.00   0.00    -0.00  -0.00   0.00
 135   7     0.00  -0.00   0.00     0.00  -0.00   0.00    -0.00   0.00  -0.00
 136   6    -0.00  -0.00   0.00     0.00   0.00  -0.00     0.00  -0.00   0.00
 137   6     0.00  -0.00   0.00    -0.00   0.00  -0.00     0.00  -0.00   0.00
 138   6    -0.01  -0.11   0.01     0.00   0.05  -0.00    -0.00  -0.02   0.00
 139   6    -0.15  -0.01   0.00     0.06   0.00  -0.00    -0.02  -0.00   0.00
 140   6    -0.00   0.01  -0.00     0.00  -0.00   0.00    -0.00   0.00  -0.00
 141   7     0.00   0.00  -0.00    -0.00  -0.00   0.00     0.00   0.00  -0.00
 142   6    -0.00  -0.00   0.00     0.00   0.00  -0.00    -0.00  -0.00   0.00
 143   6    -0.00  -0.00   0.00     0.00   0.00  -0.00    -0.00  -0.00   0.00
 144   6    -0.08   0.01   0.00     0.04  -0.00  -0.00    -0.01   0.00   0.00
 145   6    -0.00   0.06  -0.01     0.00  -0.03   0.00    -0.00   0.01  -0.00
 146   6     0.00   0.00  -0.00    -0.00  -0.00   0.00     0.00   0.00  -0.00
 147   7     0.00  -0.00   0.00    -0.00   0.00  -0.00     0.00  -0.00   0.00
 148   6    -0.00   0.00   0.00     0.00  -0.00   0.00     0.00   0.00  -0.00
 149   6     0.00  -0.00   0.00     0.00  -0.00   0.00    -0.00   0.00  -0.00
 150   7     0.00   0.00  -0.00     0.00   0.00  -0.00    -0.00  -0.00   0.00
 151   1     0.02   0.18  -0.02     0.00   0.04  -0.01    -0.01  -0.08   0.01
 152   1     0.25   0.03  -0.00     0.06   0.01  -0.00    -0.11  -0.01   0.00
 153   1     0.29  -0.03   0.01     0.04  -0.00   0.00    -0.15   0.02  -0.00
 154   1     0.02  -0.21   0.02     0.00  -0.03   0.00    -0.01   0.11  -0.01
 155   1    -0.00   0.00  -0.00     0.00  -0.00   0.00     0.00   0.00  -0.00
 156   1     0.04   0.35  -0.04    -0.02  -0.15   0.02     0.01   0.05  -0.01
 157   1     0.50   0.05  -0.00    -0.21  -0.02   0.00     0.07   0.01  -0.00
 158   1     0.27  -0.03   0.00    -0.12   0.01  -0.00     0.03  -0.00   0.00
 159   1     0.02  -0.20   0.02    -0.01   0.09  -0.01     0.00  -0.03   0.00
 160   1    -0.00  -0.00   0.00     0.00   0.00  -0.00     0.00  -0.00   0.00
                    472                    473                    474
                        a                      a                      a 
 Frequencies --  3169.3349              3169.4385              3169.6335
 Red. masses --     1.9734                 1.9745                 1.9744
 Frc consts  --     0.0000                 0.0000                 0.0000
 IR Inten    --  1791.3311             11223.8957                18.5685
 Raman Activ --     0.0000                 0.0000                 0.0000
 Depolar     --     0.0000                 0.0000                 0.0000
 Atom AN      X      Y      Z        X      Y      Z        X      Y      Z
   1  27    -0.00  -0.00   0.00    -0.00  -0.00   0.00     0.00   0.00  -0.00
   2   6     0.00  -0.04   0.00     0.00  -0.02   0.00    -0.00   0.04  -0.00
   3   6     0.05  -0.00  -0.00     0.02  -0.00  -0.00    -0.05   0.00   0.00
   4   6     0.00   0.00  -0.00     0.00   0.00  -0.00    -0.00  -0.00   0.00
   5   6     0.00   0.00   0.00     0.00   0.00   0.00    -0.00  -0.00  -0.00
   6   6     0.00  -0.00  -0.00     0.00  -0.00  -0.00    -0.00   0.00   0.00
   7   6     0.08   0.01  -0.00     0.03   0.00  -0.00    -0.06  -0.01   0.00
   8   6     0.00   0.05   0.00     0.00   0.02   0.00    -0.00  -0.05  -0.00
   9   6    -0.00   0.00  -0.00    -0.00   0.00  -0.00     0.00  -0.00  -0.00
  10   7    -0.00  -0.00  -0.00    -0.00  -0.00  -0.00     0.00   0.00   0.00
  11   6     0.00   0.00   0.00     0.00   0.00   0.00    -0.00  -0.00  -0.00
  12   6     0.00  -0.00   0.00     0.00  -0.00  -0.00    -0.00  -0.00  -0.00
  13   6    -0.00   0.00   0.00    -0.00   0.00   0.00     0.00  -0.00  -0.00
  14   6    -0.00   0.00  -0.00    -0.00   0.00  -0.00     0.00  -0.00   0.00
  15   6    -0.00  -0.00  -0.00    -0.00  -0.00   0.00     0.00   0.00   0.00
  16   7     0.00  -0.00   0.00    -0.00  -0.00   0.00    -0.00   0.00  -0.00
  17   6    -0.00   0.00  -0.00    -0.00   0.00  -0.00     0.00   0.00   0.00
  18   6    -0.00   0.00  -0.00     0.00   0.00   0.00     0.00  -0.00   0.00
  19   6    -0.00  -0.00  -0.00    -0.00  -0.00  -0.00     0.00   0.00   0.00
  20   6    -0.00  -0.00   0.00    -0.00  -0.00   0.00     0.00   0.00  -0.00
  21   6     0.00   0.00   0.00     0.00   0.00  -0.00    -0.00   0.00  -0.00
  22   7     0.00   0.00   0.00    -0.00  -0.00   0.00    -0.00  -0.00  -0.00
  23   6     0.00  -0.00   0.00     0.00  -0.00   0.00    -0.00   0.00  -0.00
  24   6    -0.00  -0.00  -0.00    -0.00  -0.00  -0.00     0.00   0.00   0.00
  25   7    -0.00   0.00  -0.00    -0.00   0.00  -0.00     0.00  -0.00   0.00
  26   1    -0.01   0.13  -0.00    -0.01   0.05  -0.00     0.01  -0.13   0.00
  27   1    -0.18   0.02  -0.00    -0.07   0.01  -0.00     0.17  -0.02   0.00
  28   1    -0.25  -0.03   0.00    -0.10  -0.01   0.00     0.20   0.02  -0.00
  29   1    -0.02  -0.17  -0.00    -0.01  -0.07  -0.00     0.01   0.14   0.00
  30   1     0.00  -0.00  -0.00     0.00  -0.00  -0.00    -0.00   0.00   0.00
  31   1     0.00  -0.01  -0.00     0.00  -0.00  -0.00    -0.00   0.02   0.00
  32   1     0.01  -0.00   0.00     0.00  -0.00   0.00    -0.01   0.00  -0.00
  33   1     0.00   0.00   0.00     0.00   0.00   0.00    -0.00  -0.00  -0.00
  34   1     0.01   0.00   0.00     0.00   0.00   0.00    -0.01  -0.00  -0.00
  35   1     0.00   0.01  -0.00     0.00   0.00  -0.00    -0.00  -0.02   0.00
  36   1     0.00   0.00  -0.00     0.00   0.00  -0.00    -0.00  -0.00   0.00
  37  27    -0.00  -0.00  -0.00    -0.00  -0.00  -0.00    -0.00  -0.00  -0.00
  38   6     0.00  -0.05  -0.01     0.00  -0.02  -0.00     0.00  -0.03  -0.01
  39   6     0.07  -0.00  -0.00     0.03  -0.00  -0.00     0.04  -0.00  -0.00
  40   6     0.00   0.00   0.00     0.00   0.00   0.00     0.00   0.00   0.00
  41   6     0.00   0.00   0.00     0.00   0.00   0.00     0.00   0.00   0.00
  42   6     0.00  -0.00  -0.00     0.00  -0.00  -0.00     0.00  -0.00  -0.00
  43   6     0.12   0.01   0.00     0.04   0.00   0.00     0.06   0.00   0.00
  44   6     0.00   0.08   0.01     0.00   0.03   0.00     0.00   0.04   0.01
  45   6    -0.00   0.00   0.00    -0.00   0.00   0.00    -0.00   0.00   0.00
  46   7    -0.00  -0.00  -0.00    -0.00  -0.00  -0.00    -0.00  -0.00  -0.00
  47   6     0.00   0.00   0.00     0.00   0.00   0.00     0.00   0.00   0.00
  48   6     0.00  -0.00  -0.00     0.00  -0.00  -0.00     0.00   0.00   0.00
  49   6    -0.00   0.00   0.00    -0.00   0.00   0.00    -0.00   0.00   0.00
  50   6    -0.00   0.00   0.00    -0.00   0.00   0.00    -0.00   0.00   0.00
  51   6    -0.00  -0.00  -0.00    -0.00  -0.00  -0.00    -0.00  -0.00  -0.00
  52   7     0.00  -0.00  -0.00    -0.00  -0.00  -0.00     0.00  -0.00  -0.00
  53   6    -0.00   0.00   0.00    -0.00  -0.00   0.00    -0.00  -0.00   0.00
  54   6    -0.00   0.00   0.00    -0.00   0.00   0.00    -0.00   0.00   0.00
  55   6    -0.00  -0.00   0.00    -0.00  -0.00   0.00    -0.00  -0.00   0.00
  56   6    -0.00  -0.00  -0.00    -0.00  -0.00  -0.00    -0.00  -0.00  -0.00
  57   6     0.00   0.00   0.00     0.00   0.00   0.00     0.00  -0.00  -0.00
  58   7     0.00   0.00   0.00    -0.00   0.00   0.00     0.00   0.00   0.00
  59   6     0.00  -0.00  -0.00     0.00  -0.00  -0.00     0.00  -0.00  -0.00
  60   6    -0.00  -0.00  -0.00    -0.00  -0.00  -0.00    -0.00  -0.00  -0.00
  61   7    -0.00   0.00   0.00    -0.00   0.00   0.00    -0.00   0.00   0.00
  62   1    -0.02   0.15   0.03    -0.01   0.06   0.01    -0.01   0.10   0.02
  63   1    -0.22   0.02   0.00    -0.09   0.01   0.00    -0.14   0.01   0.00
  64   1    -0.39  -0.04  -0.01    -0.12  -0.01  -0.00    -0.18  -0.02  -0.01
  65   1    -0.03  -0.26  -0.05    -0.01  -0.09  -0.01    -0.01  -0.13  -0.02
  66   1     0.00  -0.01  -0.00     0.00  -0.00  -0.00     0.00  -0.00  -0.00
  67   1     0.00  -0.01  -0.00     0.00  -0.00  -0.00     0.00  -0.01  -0.00
  68   1     0.01  -0.00  -0.00     0.00  -0.00  -0.00     0.01  -0.00  -0.00
  69   1     0.00   0.00  -0.00     0.00   0.00  -0.00     0.00   0.00  -0.00
  70   1     0.01   0.00  -0.00     0.00   0.00  -0.00     0.01   0.00  -0.00
  71   1     0.00   0.01   0.00     0.00   0.00   0.00     0.00   0.01   0.00
  72   1     0.00   0.00   0.00     0.00   0.00   0.00     0.00   0.00   0.00
  73   6    -0.00   0.00   0.00     0.00   0.00   0.00     0.00  -0.00  -0.00
  74   6     0.00  -0.00  -0.00     0.00  -0.00  -0.00    -0.00   0.00   0.00
  75   6    -0.00  -0.00  -0.00    -0.00   0.00  -0.00     0.00   0.00   0.00
  76   6     0.00  -0.00   0.00     0.00  -0.00   0.00    -0.00   0.00  -0.00
  77   6    -0.00  -0.00   0.00    -0.00  -0.00   0.00     0.00   0.00  -0.00
  78   6     0.00   0.00  -0.00     0.00   0.00  -0.00    -0.00  -0.00   0.00
  79   6     0.00   0.00  -0.00    -0.00  -0.00   0.00     0.00   0.00  -0.00
  80   6    -0.00  -0.00   0.00     0.00   0.00  -0.00    -0.00  -0.00   0.00
  81   6     0.00  -0.00   0.00     0.00   0.00  -0.00     0.00  -0.00   0.00
  82   6    -0.00  -0.00   0.00    -0.00   0.00  -0.00    -0.00   0.00  -0.00
  83   6    -0.00  -0.00   0.00     0.00   0.00  -0.00     0.00   0.00  -0.00
  84   6     0.00   0.00  -0.00    -0.00  -0.00   0.00    -0.00  -0.00   0.00
  85   6     0.00   0.00  -0.00     0.00  -0.00   0.00     0.00  -0.00  -0.00
  86   6    -0.00   0.00  -0.00    -0.00   0.00  -0.00    -0.00   0.00  -0.00
  87   6     0.00   0.00   0.00     0.00   0.00  -0.00     0.00   0.00   0.00
  88   6    -0.00  -0.00  -0.00    -0.00  -0.00  -0.00    -0.00  -0.00  -0.00
  89   6     0.00  -0.00  -0.00     0.00  -0.00  -0.00     0.00  -0.00  -0.00
  90   6    -0.00   0.00   0.00    -0.00   0.00   0.00    -0.00   0.00   0.00
  91  27     0.00  -0.00   0.00    -0.00  -0.00   0.00    -0.00   0.00  -0.00
  92   6    -0.00  -0.02   0.00    -0.00  -0.03   0.00     0.00   0.04  -0.00
  93   6    -0.03  -0.00   0.00    -0.03  -0.00   0.00     0.06   0.00  -0.00
  94   6    -0.00   0.00  -0.00    -0.00   0.00  -0.00     0.00  -0.00   0.00
  95   6    -0.00   0.00  -0.00    -0.00   0.00  -0.00     0.00  -0.00   0.00
  96   6    -0.00  -0.00   0.00    -0.00  -0.00   0.00     0.00   0.00  -0.00
  97   6    -0.09   0.01  -0.00    -0.08   0.01  -0.00     0.10  -0.01   0.00
  98   6    -0.00   0.07  -0.01    -0.00   0.06  -0.01     0.00  -0.08   0.01
  99   6     0.00   0.00  -0.00     0.00   0.00  -0.00    -0.00  -0.00   0.00
 100   7     0.00  -0.00   0.00     0.00  -0.00   0.00    -0.00   0.00  -0.00
 101   6    -0.00   0.00  -0.00    -0.00   0.00  -0.00     0.00  -0.00   0.00
 102   6     0.00  -0.00   0.00    -0.00   0.00  -0.00     0.00  -0.00   0.00
 103   6    -0.00  -0.03   0.00     0.00   0.05  -0.01    -0.00  -0.05   0.01
 104   6    -0.04  -0.00   0.00     0.07   0.00  -0.00    -0.06  -0.00   0.00
 105   6    -0.00   0.00  -0.00     0.00  -0.00   0.00    -0.00   0.00  -0.00
 106   7     0.00   0.00  -0.00    -0.00  -0.00   0.00     0.00   0.00  -0.00
 107   6    -0.00   0.00  -0.00     0.00  -0.00   0.00    -0.00   0.00  -0.00
 108   6    -0.00  -0.00   0.00     0.00   0.00  -0.00    -0.00  -0.00   0.00
 109   6    -0.09   0.01  -0.00     0.10  -0.01   0.00    -0.08   0.01  -0.00
 110   6    -0.00   0.07  -0.01     0.00  -0.08   0.01    -0.00   0.06  -0.01
 111   6     0.00   0.00  -0.00    -0.00  -0.00   0.00     0.00   0.00  -0.00
 112   7     0.00  -0.00   0.00    -0.00   0.00  -0.00     0.00  -0.00   0.00
 113   6    -0.00   0.00  -0.00     0.00  -0.00   0.00    -0.00   0.00  -0.00
 114   6     0.00  -0.00   0.00     0.00  -0.00   0.00    -0.00   0.00  -0.00
 115   7     0.00   0.00  -0.00     0.00   0.00  -0.00    -0.00  -0.00   0.00
 116   1     0.01   0.06  -0.01     0.01   0.08  -0.01    -0.01  -0.13   0.02
 117   1     0.09   0.01  -0.00     0.11   0.01  -0.00    -0.18  -0.02   0.00
 118   1     0.30  -0.03   0.00     0.26  -0.03   0.00    -0.33   0.04  -0.00
 119   1     0.02  -0.22   0.03     0.02  -0.19   0.02    -0.02   0.25  -0.03
 120   1    -0.00  -0.00   0.00    -0.00  -0.01   0.00     0.00   0.01  -0.00
 121   1     0.01   0.10  -0.01    -0.02  -0.16   0.02     0.02   0.15  -0.02
 122   1     0.14   0.02  -0.00    -0.21  -0.02   0.00     0.21   0.02  -0.00
 123   1     0.30  -0.03   0.00    -0.34   0.04  -0.00     0.27  -0.03   0.00
 124   1     0.02  -0.22   0.02    -0.02   0.25  -0.03     0.02  -0.20   0.02
 125   1    -0.00  -0.00   0.00     0.00   0.01  -0.00    -0.00  -0.01   0.00
 126  27     0.00  -0.00   0.00    -0.00   0.00  -0.00     0.00   0.00  -0.00
 127   6    -0.00  -0.03   0.00     0.00   0.07  -0.01     0.00   0.05  -0.01
 128   6    -0.04  -0.00   0.00     0.09   0.01  -0.00     0.07   0.00  -0.00
 129   6    -0.00   0.00  -0.00     0.00  -0.00   0.00     0.00  -0.00   0.00
 130   6    -0.00   0.00  -0.00     0.00  -0.00   0.00     0.00  -0.00   0.00
 131   6    -0.00  -0.00   0.00     0.00   0.00  -0.00     0.00   0.00  -0.00
 132   6    -0.06   0.00  -0.00     0.12  -0.01   0.00     0.08  -0.01   0.00
 133   6    -0.00   0.05  -0.01     0.00  -0.09   0.01     0.00  -0.06   0.01
 134   6     0.00   0.00  -0.00    -0.00  -0.00   0.00    -0.00  -0.00   0.00
 135   7     0.00  -0.00   0.00    -0.00   0.00  -0.00    -0.00   0.00  -0.00
 136   6    -0.00   0.00  -0.00     0.00  -0.00   0.00     0.00  -0.00   0.00
 137   6     0.00  -0.00   0.00     0.00  -0.00   0.00     0.00  -0.00   0.00
 138   6    -0.00  -0.03   0.00    -0.00  -0.05   0.01    -0.00  -0.05   0.01
 139   6    -0.05  -0.00   0.00    -0.07  -0.00   0.00    -0.07  -0.00   0.00
 140   6    -0.00   0.00  -0.00    -0.00   0.00  -0.00    -0.00   0.00  -0.00
 141   7     0.00   0.00  -0.00     0.00   0.00  -0.00     0.00   0.00  -0.00
 142   6    -0.00  -0.00  -0.00    -0.00  -0.00   0.00    -0.00  -0.00   0.00
 143   6    -0.00  -0.00   0.00    -0.00  -0.00   0.00    -0.00  -0.00   0.00
 144   6    -0.04   0.00   0.00    -0.05   0.00   0.00    -0.06   0.00   0.00
 145   6    -0.00   0.03  -0.00    -0.00   0.04  -0.00    -0.00   0.05  -0.01
 146   6     0.00   0.00  -0.00     0.00   0.00  -0.00     0.00   0.00  -0.00
 147   7     0.00  -0.00   0.00     0.00  -0.00   0.00     0.00  -0.00   0.00
 148   6    -0.00   0.00  -0.00     0.00   0.00  -0.00     0.00   0.00  -0.00
 149   6     0.00  -0.00   0.00    -0.00   0.00  -0.00    -0.00   0.00  -0.00
 150   7     0.00   0.00  -0.00    -0.00  -0.00   0.00    -0.00  -0.00   0.00
 151   1     0.01   0.08  -0.01    -0.02  -0.21   0.03    -0.02  -0.16   0.02
 152   1     0.12   0.01  -0.00    -0.29  -0.03   0.00    -0.22  -0.02   0.00
 153   1     0.21  -0.02   0.00    -0.38   0.04  -0.01    -0.25   0.03  -0.01
 154   1     0.01  -0.15   0.02    -0.03   0.28  -0.03    -0.02   0.19  -0.02
 155   1    -0.00  -0.00   0.00     0.00   0.01  -0.00     0.00   0.01  -0.00
 156   1     0.01   0.10  -0.01     0.02   0.15  -0.02     0.02   0.16  -0.02
 157   1     0.15   0.02  -0.00     0.22   0.02  -0.00     0.23   0.02  -0.00
 158   1     0.14  -0.02   0.00     0.17  -0.02   0.00     0.19  -0.02   0.00
 159   1     0.01  -0.10   0.01     0.01  -0.12   0.01     0.01  -0.15   0.02
 160   1    -0.00  -0.00   0.00     0.00  -0.01   0.00    -0.00  -0.01   0.00
