      -----------------------------------------------------------      
     |                   =====================                   |     
     |                           x T B                           |     
     |                   =====================                   |     
     |                         S. Grimme                         |     
     |          Mulliken Center for Theoretical Chemistry        |     
     |                    University of Bonn                     |     
      -----------------------------------------------------------      

   * xtb version 6.4.1 (bd6e46d) compiled by 'conda@4901f00b25ba' on 2021-06-10

   xtb is free software: you can redistribute it and/or modify it under
   the terms of the GNU Lesser General Public License as published by
   the Free Software Foundation, either version 3 of the License, or
   (at your option) any later version.
   
   xtb is distributed in the hope that it will be useful,
   but WITHOUT ANY WARRANTY; without even the implied warranty of
   MERCHANTABILITY or FITNESS FOR A PARTICULAR PURPOSE.  See the
   GNU Lesser General Public License for more details.
   
   Cite this work as:
   * C. Bannwarth, E. Caldeweyher, S. Ehlert, A. Hansen, P. Pracht,
     J. Seibert, S. Spicher, S. Grimme, WIREs Comput. Mol. Sci., 2020, 11,
     e01493. DOI: 10.1002/wcms.1493
   
   for GFN2-xTB:
   * C. Bannwarth, S. Ehlert and S. Grimme., J. Chem. Theory Comput., 2019,
     15, 1652-1671. DOI: 10.1021/acs.jctc.8b01176
   for GFN1-xTB:
   * S. Grimme, C. Bannwarth, P. Shushkov, J. Chem. Theory Comput., 2017,
     13, 1989-2009. DOI: 10.1021/acs.jctc.7b00118
   for GFN0-xTB:
   * P. Pracht, E. Caldeweyher, S. Ehlert, S. Grimme, ChemRxiv, 2019, preprint.
     DOI: 10.26434/chemrxiv.8326202.v1
   for GFN-FF:
   * S. Spicher and S. Grimme, Angew. Chem. Int. Ed., 2020, 59, 15665-15673.
     DOI: 10.1002/anie.202004239
   
   for DFT-D4:
   * E. Caldeweyher, C. Bannwarth and S. Grimme, J. Chem. Phys., 2017,
     147, 034112. DOI: 10.1063/1.4993215
   * E. Caldeweyher, S. Ehlert, A. Hansen, H. Neugebauer, S. Spicher,
     C. Bannwarth and S. Grimme, J. Chem. Phys., 2019, 150, 154122.
     DOI: 10.1063/1.5090222
   * E. Caldeweyher, J.-M. Mewes, S. Ehlert and S. Grimme, Phys. Chem. Chem. Phys.
     2020, 22, 8499-8512. DOI: 10.1039/D0CP00502A
   
   for sTDA-xTB:
   * S. Grimme and C. Bannwarth, J. Chem. Phys., 2016, 145, 054103.
     DOI: 10.1063/1.4959605
   
   in the mass-spec context:
   * V. Asgeirsson, C. Bauer and S. Grimme, Chem. Sci., 2017, 8, 4879.
     DOI: 10.1039/c7sc00601b
   * J. Koopman and S. Grimme, ACS Omega 2019, 4, 12, 15120-15133.
     DOI: 10.1021/acsomega.9b02011
   
   for metadynamics refer to:
   * S. Grimme, J. Chem. Theory Comput., 2019, 155, 2847-2862
     DOI: 10.1021/acs.jctc.9b00143
   
   for SPH calculations refer to:
   * S. Spicher and S. Grimme, J. Chem. Theory Comput., 2021, 17, 1701-1714
     DOI: 10.1021/acs.jctc.0c01306
   
   with help from (in alphabetical order)
   P. Atkinson, C. Bannwarth, F. Bohle, G. Brandenburg, E. Caldeweyher
   M. Checinski, S. Dohm, S. Ehlert, S. Ehrlich, I. Gerasimov, J. Koopman
   C. Lavigne, S. Lehtola, F. März, M. Müller, F. Musil, H. Neugebauer
   J. Pisarek, C. Plett, P. Pracht, J. Seibert, P. Shushkov, S. Spicher
   M. Stahn, M. Steiner, T. Strunk, J. Stückrath, T. Rose, and J. Unsleber
   
 * started run on 2021/11/19 at 14:23:22.237     

           -------------------------------------------------
          |                Calculation Setup                |
           -------------------------------------------------

          program call               : /home/jeff/miniconda3/bin/xtb input_structure_1.xyz --gfn 2 --ohess normal --parallel 1 --etemp 300 --chrg 0 --uhf 0 -I det_control.in
          hostname                   : jelfscompute1
          coordinate file            : input_structure_1.xyz
          omp threads                :                     1
          number of atoms            :                   160
          number of electrons        :                   550
          charge                     :                     0
          spin                       :                   0.0
          first test random number   :      0.47873031041226

   ID    Z sym.   atoms
    1   27 Co     1, 37, 91, 126
    2    6 C      2-9, 11-15, 17-21, 23, 24, 38-45, 47-51, 53-57, 59, 60,
                  73-90, 92-99, 101-105, 107-111, 113, 114, 127-134, 136-140,
                  142-146, 148, 149
    3    7 N      10, 16, 22, 25, 46, 52, 58, 61, 100, 106, 112, 115, 135,
                  141, 147, 150
    4    1 H      26-36, 62-72, 116-125, 151-160

molecular fragmentation (1/2 indicates fragments):
111111111111111111111111111111111111222222222222222222222222222222222222
222222222222222222222222222222222222222222222222222222222222222222222222
2222222222222222
# atoms in fragment 1/2:    36   124
 fragment masses (1/2) :      366.26     1312.96
CMA distance (Bohr)    :  61.029
constraining FC (au)   :  0.0500

           -------------------------------------------------
          |                 G F N 2 - x T B                 |
           -------------------------------------------------

        Reference                      10.1021/acs.jctc.8b01176
      * Hamiltonian:
        H0-scaling (s, p, d)           1.850000    2.230000    2.230000
        zeta-weighting                 0.500000
      * Dispersion:
        s8                             2.700000
        a1                             0.520000
        a2                             5.000000
        s9                             5.000000
      * Repulsion:
        kExp                           1.500000    1.000000
        rExp                           1.000000
      * Coulomb:
        alpha                          2.000000
        third order                    shell-resolved
        anisotropic                    true
        a3                             3.000000
        a5                             4.000000
        cn-shift                       1.200000
        cn-exp                         4.000000
        max-rad                        5.000000


          ...................................................
          :                      SETUP                      :
          :.................................................:
          :  # basis functions                 538          :
          :  # atomic orbitals                 534          :
          :  # shells                          282          :
          :  # electrons                       550          :
          :  max. iterations                   250          :
          :  Hamiltonian                  GFN2-xTB          :
          :  restarted?                      false          :
          :  GBSA solvation                  false          :
          :  PC potential                    false          :
          :  electronic temp.          300.0000000     K    :
          :  accuracy                    1.0000000          :
          :  -> integral cutoff          0.2500000E+02      :
          :  -> integral neglect         0.1000000E-07      :
          :  -> SCF convergence          0.1000000E-05 Eh   :
          :  -> wf. convergence          0.1000000E-03 e    :
          :  Broyden damping             0.4000000          :
          ...................................................

 iter      E             dE          RMSdq      gap      omega  full diag
   1   -294.2155826 -0.294216E+03  0.904E+00    0.07       0.0  T
   2   -259.7512618  0.344643E+02  0.130E+01    0.37       1.0  T
   3   -277.0649150 -0.173137E+02  0.814E+00    0.07       1.0  T
   4   -269.6488133  0.741610E+01  0.847E+00    0.00       1.0  T
   5   -202.8646070  0.667842E+02  0.923E+00    0.06       1.0  T
   6   -265.9534138 -0.630888E+02  0.648E+00    0.02       1.0  T
   7   -262.3316775  0.362174E+01  0.855E+00    0.06       1.0  T
   8   -283.2660100 -0.209343E+02  0.518E+00    0.10       1.0  T
   9   -281.5052943  0.176072E+01  0.566E+00    0.07       1.0  T
  10   -294.0089202 -0.125036E+02  0.429E+00    0.09       1.0  T
  11   -294.4961547 -0.487234E+00  0.390E+00    0.16       1.0  T
  12   -294.8090608 -0.312906E+00  0.363E+00    0.00       1.0  T
  13   -295.2554617 -0.446401E+00  0.359E+00    0.00       1.0  T
  14   -295.0629343  0.192527E+00  0.352E+00    0.00       1.0  T
  15   -295.1314313 -0.684971E-01  0.348E+00    0.02       1.0  T
  16   -295.1082964  0.231349E-01  0.357E+00    0.02       1.0  T
  17   -295.1092926 -0.996208E-03  0.358E+00    0.02       1.0  T
  18   -295.1963971 -0.871045E-01  0.328E+00    0.05       1.0  T
  19   -295.0512610  0.145136E+00  0.283E+00    0.05       1.0  T
  20   -295.2655884 -0.214327E+00  0.257E+00    0.08       1.0  T
  21   -295.1679860  0.976024E-01  0.259E+00    0.08       1.0  T
  22   -295.1385190  0.294670E-01  0.261E+00    0.09       1.0  T
  23   -294.8619102  0.276609E+00  0.246E+00    0.08       1.0  T
  24   -295.5354385 -0.673528E+00  0.225E+00    0.02       1.0  T
  25   -295.5934287 -0.579902E-01  0.221E+00    0.03       1.0  T
  26   -295.6379106 -0.444819E-01  0.225E+00    0.03       1.0  T
  27   -295.4632407  0.174670E+00  0.200E+00    0.02       1.0  T
  28   -295.5009831 -0.377424E-01  0.201E+00    0.04       1.0  T
  29   -295.8934749 -0.392492E+00  0.174E+00    0.04       1.0  T
  30   -296.1346956 -0.241221E+00  0.169E+00    0.01       1.0  T
  31   -296.1467991 -0.121035E-01  0.171E+00    0.02       1.0  T
  32   -296.0408955  0.105904E+00  0.174E+00    0.01       1.0  T
  33   -295.8744008  0.166495E+00  0.181E+00    0.03       1.0  T
  34   -287.5451913  0.832921E+01  0.654E+00    0.17       1.0  T
  35   -288.1488738 -0.603682E+00  0.620E+00    0.09       1.0  T
  36   -287.4547395  0.694134E+00  0.653E+00    0.17       1.0  T
  37   -287.3037880  0.150951E+00  0.655E+00    0.16       1.0  T
  38   -287.3775604 -0.737724E-01  0.655E+00    0.15       1.0  T
  39   -290.4321459 -0.305459E+01  0.520E+00    0.01       1.0  T
  40   -290.4791297 -0.469838E-01  0.517E+00    0.01       1.0  T
  41   -292.5119336 -0.203280E+01  0.429E+00    0.03       1.0  T
  42   -293.4863067 -0.974373E+00  0.383E+00    0.01       1.0  T
  43   -292.4868432  0.999463E+00  0.433E+00    0.04       1.0  T
  44   -294.0066908 -0.151985E+01  0.343E+00    0.01       1.0  T
  45   -294.2509886 -0.244298E+00  0.337E+00    0.00       1.0  T
  46   -295.9695138 -0.171853E+01  0.182E+00    0.00       1.0  T
  47   -296.1814242 -0.211910E+00  0.161E+00    0.01       1.0  T
  48   -296.3511030 -0.169679E+00  0.152E+00    0.01       1.0  T
  49   -296.3732578 -0.221547E-01  0.149E+00    0.01       1.0  T
  50   -296.3984585 -0.252007E-01  0.146E+00    0.01       1.0  T
  51   -295.6788055  0.719653E+00  0.204E+00    0.01       1.0  T
  52   -296.1296772 -0.450872E+00  0.172E+00    0.01       1.0  T
  53   -296.0972394  0.324378E-01  0.176E+00    0.01       1.0  T
  54   -296.3024264 -0.205187E+00  0.159E+00    0.00       1.0  T
  55   -296.5643259 -0.261899E+00  0.116E+00    0.01       1.0  T
  56   -296.6531296 -0.888037E-01  0.973E-01    0.01       1.0  T
  57   -296.4069319  0.246198E+00  0.166E+00    0.01       1.0  T
  58   -296.3518945  0.550375E-01  0.170E+00    0.02       1.0  T
  59   -295.9933832  0.358511E+00  0.196E+00    0.03       1.0  T
  60   -295.9263193  0.670639E-01  0.201E+00    0.03       1.0  T
  61   -295.7500110  0.176308E+00  0.215E+00    0.03       1.0  T
  62   -295.5895618  0.160449E+00  0.223E+00    0.03       1.0  T
  63   -295.7518011 -0.162239E+00  0.213E+00    0.03       1.0  T
  64   -295.7426644  0.913672E-02  0.212E+00    0.03       1.0  T
  65   -295.6416257  0.101039E+00  0.215E+00    0.02       1.0  T
  66   -296.1523439 -0.510718E+00  0.165E+00    0.00       1.0  T
  67   -296.3627812 -0.210437E+00  0.140E+00    0.01       1.0  T
  68   -296.4014351 -0.386539E-01  0.131E+00    0.02       1.0  T
  69   -296.4903445 -0.889094E-01  0.117E+00    0.02       1.0  T
  70   -296.4892572  0.108730E-02  0.120E+00    0.01       1.0  T
  71   -296.4982319 -0.897472E-02  0.119E+00    0.01       1.0  T
  72   -296.5677390 -0.695071E-01  0.113E+00    0.01       1.0  T
  73   -296.5835176 -0.157786E-01  0.112E+00    0.01       1.0  T
  74   -296.5322735  0.512442E-01  0.121E+00    0.01       1.0  T
  75   -296.5670340 -0.347605E-01  0.117E+00    0.01       1.0  T
  76   -296.6175903 -0.505564E-01  0.111E+00    0.02       1.0  T
  77   -296.6643801 -0.467898E-01  0.103E+00    0.02       1.0  T
  78   -296.6811219 -0.167417E-01  0.991E-01    0.02       1.0  T
  79   -296.6856246 -0.450273E-02  0.963E-01    0.02       1.0  T
  80   -296.7002740 -0.146494E-01  0.895E-01    0.02       1.0  T
  81   -296.6955031  0.477086E-02  0.853E-01    0.02       1.0  T
  82   -296.7274938 -0.319907E-01  0.785E-01    0.02       1.0  T
  83   -296.7087789  0.187149E-01  0.801E-01    0.02       1.0  T
  84   -296.7342439 -0.254651E-01  0.730E-01    0.02       1.0  T
  85   -296.7334912  0.752743E-03  0.722E-01    0.02       1.0  T
  86   -296.7713724 -0.378813E-01  0.596E-01    0.02       1.0  T
  87   -296.8094693 -0.380969E-01  0.452E-01    0.01       1.0  T
  88   -296.8304844 -0.210150E-01  0.330E-01    0.02       1.0  T
  89   -296.8373820 -0.689759E-02  0.286E-01    0.02       1.0  T
  90   -296.8408132 -0.343129E-02  0.263E-01    0.02       1.0  T
  91   -296.8482590 -0.744576E-02  0.191E-01    0.01       1.0  T
  92   -296.8489158 -0.656789E-03  0.159E-01    0.01       1.0  T
  93   -296.8490361 -0.120281E-03  0.154E-01    0.01       1.0  T
  94   -296.8508773 -0.184120E-02  0.942E-02    0.01       1.0  T
  95   -296.8515609 -0.683660E-03  0.892E-02    0.01       1.0  T
  96   -296.8472780  0.428298E-02  0.143E-01    0.01       1.0  T
  97   -296.8495608 -0.228284E-02  0.108E-01    0.02       1.0  T
  98   -296.8517389 -0.217814E-02  0.803E-02    0.01       1.0  T
  99   -296.8521620 -0.423065E-03  0.606E-02    0.01       1.0  T
 100   -296.8528321 -0.670151E-03  0.465E-02    0.01       1.0  T
 101   -296.8516719  0.116024E-02  0.824E-02    0.01       1.0  T
 102   -296.8530251 -0.135321E-02  0.450E-02    0.01       1.0  T
 103   -296.8517681  0.125701E-02  0.811E-02    0.01       1.0  T
 104   -296.8528763 -0.110819E-02  0.504E-02    0.01       1.0  T
 105   -296.8524842  0.392094E-03  0.627E-02    0.01       1.0  T
 106   -296.8533335 -0.849287E-03  0.299E-02    0.01       1.0  T
 107   -296.8535011 -0.167660E-03  0.175E-02    0.01       1.0  T
 108   -296.8535045 -0.335664E-05  0.178E-02    0.01       1.0  T
 109   -296.8535610 -0.565096E-04  0.940E-03    0.01       1.0  T
 110   -296.8535600  0.976662E-06  0.921E-03    0.01       1.0  T
 111   -296.8535479  0.121691E-04  0.101E-02    0.01       1.0  T
 112   -296.8535669 -0.190056E-04  0.693E-03    0.01       1.1  T
 113   -296.8535651  0.179235E-05  0.708E-03    0.01       1.1  T
 114   -296.8535801 -0.150151E-04  0.270E-03    0.01       2.9  T
 115   -296.8535818 -0.173293E-05  0.208E-03    0.01       3.8  T
 116   -296.8535824 -0.528930E-06  0.208E-03    0.01       3.8  T
 117   -296.8535816  0.754524E-06  0.252E-03    0.01       3.1  T
 118   -296.8535811  0.451556E-06  0.264E-03    0.01       3.0  T
 119   -296.8535820 -0.820355E-06  0.206E-03    0.01       3.8  T
 120   -296.8535828 -0.813673E-06  0.127E-03    0.01       6.2  T
 121   -296.8535832 -0.385265E-06  0.530E-04    0.01      14.9  T
 122   -296.8535832 -0.186333E-07  0.522E-04    0.01      15.1  T

   *** convergence criteria satisfied after 122 iterations ***

         #    Occupation            Energy/Eh            Energy/eV
      -------------------------------------------------------------
         1        2.0000           -0.6836430             -18.6029
       ...           ...                  ...                  ...
       269        1.7828           -0.3475034              -9.4560
       270        1.7761           -0.3474709              -9.4552
       271        1.7161           -0.3472128              -9.4481
       272        1.7093           -0.3471867              -9.4474
       273        1.6384           -0.3469389              -9.4407
       274        1.5891           -0.3467885              -9.4366
       275        1.5802           -0.3467629              -9.4359 (HOMO)
       276        1.3835           -0.3462715              -9.4225 (LUMO)
       277        1.2582           -0.3460055              -9.4153
       278        0.0005           -0.3376182              -9.1871
       279        0.0004           -0.3373953              -9.1810
       280                         -0.3242462              -8.8232
       ...                                ...                  ...
       534                          2.2635852              61.5953
      -------------------------------------------------------------
                  HL-Gap            0.0004914 Eh            0.0134 eV
             Fermi-level           -0.3455035 Eh           -9.4016 eV

 SCC (total)                   0 d,  0 h,  0 min,  8.666 sec
 SCC setup                      ...        0 min,  0.005 sec (  0.054%)
 Dispersion                     ...        0 min,  0.010 sec (  0.118%)
 classical contributions        ...        0 min,  0.001 sec (  0.013%)
 integral evaluation            ...        0 min,  0.086 sec (  0.997%)
 iterations                     ...        0 min,  8.323 sec ( 96.038%)
 molecular gradient             ...        0 min,  0.233 sec (  2.683%)
 printout                       ...        0 min,  0.008 sec (  0.097%)

         :::::::::::::::::::::::::::::::::::::::::::::::::::::
         ::                     SUMMARY                     ::
         :::::::::::::::::::::::::::::::::::::::::::::::::::::
         :: total energy            -290.899607714705 Eh    ::
         :: gradient norm              1.470434943596 Eh/a0 ::
         :: HOMO-LUMO gap              0.013371338730 eV    ::
         ::.................................................::
         :: SCC energy              -296.853583187728 Eh    ::
         :: -> isotropic ES            0.104546074540 Eh    ::
         :: -> anisotropic ES          0.032006339619 Eh    ::
         :: -> anisotropic XC          0.205162440328 Eh    ::
         :: -> dispersion             -0.241275526040 Eh    ::
         :: repulsion energy           5.954123261096 Eh    ::
         :: add. restraining           0.000000000000 Eh    ::
         :: total charge               0.000000001200 e     ::
         :::::::::::::::::::::::::::::::::::::::::::::::::::::

      ----------------------------------------------------------- 
     |                   =====================                   |
     |                        A N C O P T                        |
     |                   =====================                   |
     |               Approximate Normal Coordinate               |
     |                Rational Function Optimizer                |
      ----------------------------------------------------------- 

          ...................................................
          :                      SETUP                      :
          :.................................................:
          :   optimization level            normal          :
          :   max. optcycles                   480          :
          :   ANC micro-cycles                  20          :
          :   degrees of freedom               474          :
          :.................................................:
          :   RF solver                   davidson          :
          :   write xtbopt.log                true          :
          :   linear?                        false          :
          :   energy convergence         0.5000000E-05 Eh   :
          :   grad. convergence          0.1000000E-02 Eh/α :
          :   maximium RF displ.         1.0000000          :
          :   Hlow (freq-cutoff)         0.1000000E-01      :
          :   Hmax (freq-cutoff)         5.0000000          :
          :   S6 in model hess.         20.0000000          :
          ...................................................

generating ANC from model Hessian ...
Using Lindh-Hessian (1995)
 Shifting diagonal of input Hessian by    1.0134276708835517E-002
 Lowest  eigenvalues of input Hessian
    0.010000    0.010034    0.010100    0.010101    0.010110    0.010112
    0.010114    0.010119    0.010124    0.010127    0.010129    0.000000
    0.000000    0.000000    0.000000    0.000000    0.000000    0.010144
 Highest eigenvalues
    2.682207    2.687821    3.325869    3.327672    3.495154    3.495768


........................................................................
.............................. CYCLE    1 ..............................
........................................................................
   1   -296.8535832 -0.296854E+03  0.484E-04    0.01       0.0  T
   2   -296.8534716  0.111633E-03  0.212E-02    0.01       1.0  T
   3   -296.8535738 -0.102278E-03  0.569E-03    0.01       1.4  T
   4   -296.8535801 -0.630321E-05  0.339E-03    0.01       2.3  T
   5   -296.8535814 -0.120628E-05  0.269E-03    0.01       2.9  T
   6   -296.8535823 -0.924011E-06  0.190E-03    0.01       4.2  T
   7   -296.8535581  0.241693E-04  0.975E-03    0.01       1.0  T
   8   -296.8535818 -0.236710E-04  0.227E-03    0.01       3.5  T
   9   -296.8535817  0.107957E-06  0.233E-03    0.01       3.4  T
  10   -296.8535819 -0.266018E-06  0.220E-03    0.01       3.6  T
  11   -296.8535827 -0.766094E-06  0.139E-03    0.01       5.7  T
  12   -296.8535832 -0.522533E-06  0.287E-04    0.01      27.6  T
  13   -296.8535832  0.162299E-07  0.367E-04    0.01      21.5  T
     SCC iter.                  ...        0 min,  0.884 sec
     gradient                   ...        0 min,  0.231 sec
 * total energy  :  -290.8996077 Eh     change       -0.2370712E-07 Eh
   gradient norm :     1.4704373 Eh/α   predicted     0.0000000E+00 (-100.00%)
   displ. norm   :     0.5872584 α      lambda       -0.7734523E+00
   maximum displ.:     0.1449766 α      in ANC's #378, #379, #474, ...

........................................................................
.............................. CYCLE    2 ..............................
........................................................................
   1   -296.8472009 -0.296847E+03  0.538E-01    0.00       0.0  T
   2   -291.2304118  0.561679E+01  0.425E+00    0.02       1.0  T
   3   -294.9650413 -0.373463E+01  0.257E+00    0.03       1.0  T
   4   -295.4094140 -0.444373E+00  0.239E+00    0.02       1.0  T
   5   -295.9463860 -0.536972E+00  0.188E+00    0.03       1.0  T
   6   -295.5280908  0.418295E+00  0.233E+00    0.03       1.0  T
   7   -293.0488661  0.247922E+01  0.378E+00    0.01       1.0  T
   8   -296.5900025 -0.354114E+01  0.109E+00    0.02       1.0  T
   9   -295.9935101  0.596492E+00  0.181E+00    0.02       1.0  T
  10   -296.6113964 -0.617886E+00  0.108E+00    0.01       1.0  T
  11   -296.5478438  0.635526E-01  0.115E+00    0.00       1.0  T
  12   -296.6842826 -0.136439E+00  0.854E-01    0.01       1.0  T
  13   -296.7521504 -0.678678E-01  0.755E-01    0.00       1.0  T
  14   -296.8235541 -0.714038E-01  0.550E-01    0.01       1.0  T
  15   -296.7023980  0.121156E+00  0.838E-01    0.00       1.0  T
  16   -296.8664420 -0.164044E+00  0.332E-01    0.01       1.0  T
  17   -296.8668633 -0.421294E-03  0.354E-01    0.00       1.0  T
  18   -296.8793454 -0.124821E-01  0.268E-01    0.00       1.0  T
  19   -296.8844345 -0.508913E-02  0.230E-01    0.00       1.0  T
  20   -296.8669242  0.175103E-01  0.340E-01    0.00       1.0  T
  21   -296.8304043  0.365199E-01  0.516E-01    0.02       1.0  T
  22   -296.8790077 -0.486034E-01  0.273E-01    0.02       1.0  T
  23   -296.8911811 -0.121734E-01  0.162E-01    0.02       1.0  T
  24   -296.8894511  0.172996E-02  0.182E-01    0.02       1.0  T
  25   -296.8922694 -0.281823E-02  0.148E-01    0.02       1.0  T
  26   -296.8939877 -0.171828E-02  0.123E-01    0.02       1.0  T
  27   -296.8930711  0.916600E-03  0.136E-01    0.02       1.0  T
  28   -296.8932245 -0.153493E-03  0.132E-01    0.02       1.0  T
  29   -296.8944906 -0.126605E-02  0.111E-01    0.02       1.0  T
  30   -296.8957397 -0.124915E-02  0.844E-02    0.02       1.0  T
  31   -296.8963496 -0.609861E-03  0.677E-02    0.02       1.0  T
  32   -296.8966361 -0.286529E-03  0.583E-02    0.02       1.0  T
  33   -296.8969884 -0.352249E-03  0.444E-02    0.02       1.0  T
  34   -296.8971476 -0.159251E-03  0.360E-02    0.02       1.0  T
  35   -296.8972699 -0.122255E-03  0.278E-02    0.02       1.0  T
  36   -296.8973612 -0.913006E-04  0.196E-02    0.02       1.0  T
  37   -296.8974343 -0.730878E-04  0.930E-03    0.02       1.0  T
  38   -296.8974527 -0.184480E-04  0.328E-03    0.01       2.4  T
  39   -296.8974545 -0.180823E-05  0.174E-03    0.01       4.5  T
  40   -296.8974547 -0.137500E-06  0.144E-03    0.01       5.5  T
  41   -296.8974549 -0.179469E-06  0.108E-03    0.01       7.3  T
  42   -296.8974550 -0.152650E-06  0.712E-04    0.01      11.1  T
  43   -296.8974551 -0.735662E-07  0.447E-04    0.01      17.7  T
     SCC iter.                  ...        0 min,  2.915 sec
     gradient                   ...        0 min,  0.232 sec
 * total energy  :  -291.4199309 Eh     change       -0.5203232E+00 Eh
   gradient norm :     0.5771403 Eh/α   predicted    -0.5201059E+00 (  -0.04%)
   displ. norm   :     0.6305702 α      lambda       -0.2909669E+00
   maximum displ.:     0.1965388 α      in ANC's #166, #163, #164, ...

........................................................................
.............................. CYCLE    3 ..............................
........................................................................
   1   -296.9182565 -0.296918E+03  0.466E-01    0.02       0.0  T
   2   -294.0483750  0.286988E+01  0.269E+00    0.02       1.0  T
   3   -295.0565372 -0.100816E+01  0.270E+00    0.03       1.0  T
   4   -296.5830487 -0.152651E+01  0.117E+00    0.00       1.0  T
   5   -292.2036086  0.437944E+01  0.401E+00    0.04       1.0  T
   6   -295.7779891 -0.357438E+01  0.216E+00    0.01       1.0  T
   7   -294.7057205  0.107227E+01  0.286E+00    0.03       1.0  T
   8   -296.4821146 -0.177639E+01  0.130E+00    0.02       1.0  T
   9   -295.2462883  0.123583E+01  0.250E+00    0.03       1.0  T
  10   -296.6719385 -0.142565E+01  0.101E+00    0.00       1.0  T
  11   -296.5490793  0.122859E+00  0.113E+00    0.00       1.0  T
  12   -296.4128523  0.136227E+00  0.135E+00    0.01       1.0  T
  13   -296.7509835 -0.338131E+00  0.882E-01    0.01       1.0  T
  14   -296.7783062 -0.273227E-01  0.814E-01    0.01       1.0  T
  15   -296.8777805 -0.994743E-01  0.467E-01    0.01       1.0  T
  16   -296.4458053  0.431975E+00  0.134E+00    0.01       1.0  T
  17   -296.9052465 -0.459441E+00  0.400E-01    0.01       1.0  T
  18   -296.8963096  0.893685E-02  0.451E-01    0.00       1.0  T
  19   -296.9155704 -0.192607E-01  0.323E-01    0.00       1.0  T
  20   -296.8684055  0.471649E-01  0.549E-01    0.01       1.0  T
  21   -296.8927723 -0.243668E-01  0.466E-01    0.01       1.0  T
  22   -296.9265049 -0.337326E-01  0.294E-01    0.01       1.0  T
  23   -296.9426425 -0.161376E-01  0.122E-01    0.00       1.0  T
  24   -296.9418024  0.840130E-03  0.138E-01    0.00       1.0  T
  25   -296.9376985  0.410388E-02  0.188E-01    0.01       1.0  T
  26   -296.9392652 -0.156671E-02  0.172E-01    0.00       1.0  T
  27   -296.9327857  0.647951E-02  0.222E-01    0.01       1.0  T
  28   -296.9335860 -0.800264E-03  0.212E-01    0.01       1.0  T
  29   -296.9376348 -0.404881E-02  0.166E-01    0.01       1.0  T
  30   -296.9377216 -0.868599E-04  0.161E-01    0.01       1.0  T
  31   -296.9394596 -0.173797E-02  0.137E-01    0.01       1.0  T
  32   -296.9403705 -0.910867E-03  0.122E-01    0.01       1.0  T
  33   -296.9401098  0.260692E-03  0.124E-01    0.01       1.0  T
  34   -296.9405353 -0.425488E-03  0.117E-01    0.01       1.0  T
  35   -296.9416404 -0.110516E-02  0.966E-02    0.01       1.0  T
  36   -296.9421536 -0.513203E-03  0.844E-02    0.01       1.0  T
  37   -296.9430872 -0.933583E-03  0.597E-02    0.00       1.0  T
  38   -296.9431955 -0.108314E-03  0.559E-02    0.00       1.0  T
  39   -296.9434862 -0.290633E-03  0.438E-02    0.00       1.0  T
  40   -296.9437199 -0.233722E-03  0.313E-02    0.00       1.0  T
  41   -296.9438490 -0.129092E-03  0.212E-02    0.00       1.0  T
  42   -296.9439001 -0.511040E-04  0.149E-02    0.00       1.0  T
  43   -296.9439339 -0.338708E-04  0.861E-03    0.00       1.0  T
  44   -296.9439351 -0.112619E-05  0.766E-03    0.00       1.0  T
  45   -296.9439454 -0.103264E-04  0.379E-03    0.00       2.1  T
  46   -296.9439473 -0.189530E-05  0.239E-03    0.00       3.3  T
  47   -296.9439479 -0.591298E-06  0.169E-03    0.00       4.7  T
  48   -296.9439484 -0.488678E-06  0.858E-04    0.00       9.2  T
  49   -296.9439484 -0.540336E-07  0.684E-04    0.00      11.6  T
     SCC iter.                  ...        0 min,  3.331 sec
     gradient                   ...        0 min,  0.232 sec
 * total energy  :  -291.6452536 Eh     change       -0.2253227E+00 Eh
   gradient norm :     0.2843549 Eh/α   predicted    -0.2033306E+00 (  -9.76%)
   displ. norm   :     0.7252978 α      lambda       -0.1667360E+00
   maximum displ.:     0.2585922 α      in ANC's #166, #163, #164, ...

........................................................................
.............................. CYCLE    4 ..............................
........................................................................
   1   -296.9955893 -0.296996E+03  0.547E-01    0.01       0.0  T
   2   -292.2671107  0.472848E+01  0.331E+00    0.06       1.0  T
   3   -295.4590730 -0.319196E+01  0.245E+00    0.02       1.0  T
   4   -296.3566325 -0.897560E+00  0.160E+00    0.01       1.0  T
   5   -292.7626796  0.359395E+01  0.388E+00    0.04       1.0  T
   6   -293.6676953 -0.905016E+00  0.364E+00    0.03       1.0  T
   7   -296.5217030 -0.285401E+01  0.135E+00    0.01       1.0  T
   8   -295.9818772  0.539826E+00  0.193E+00    0.02       1.0  T
   9   -296.2473775 -0.265500E+00  0.169E+00    0.02       1.0  T
  10   -296.7723636 -0.524986E+00  0.985E-01    0.01       1.0  T
  11   -296.7681160  0.424762E-02  0.101E+00    0.01       1.0  T
  12   -296.8333881 -0.652721E-01  0.807E-01    0.01       1.0  T
  13   -296.8056592  0.277289E-01  0.871E-01    0.00       1.0  T
  14   -296.8221961 -0.165369E-01  0.850E-01    0.00       1.0  T
  15   -296.8008543  0.213418E-01  0.874E-01    0.00       1.0  T
  16   -296.9305091 -0.129655E+00  0.623E-01    0.01       1.0  T
  17   -296.9542824 -0.237733E-01  0.580E-01    0.00       1.0  T
  18   -296.8153985  0.138884E+00  0.893E-01    0.01       1.0  T
  19   -296.8646161 -0.492177E-01  0.782E-01    0.01       1.0  T
  20   -296.9004204 -0.358043E-01  0.706E-01    0.01       1.0  T
  21   -296.9184631 -0.180427E-01  0.644E-01    0.00       1.0  T
  22   -297.0326833 -0.114220E+00  0.198E-01    0.00       1.0  T
  23   -296.9458019  0.868815E-01  0.578E-01    0.01       1.0  T
  24   -296.9759155 -0.301137E-01  0.488E-01    0.00       1.0  T
  25   -296.9299046  0.460109E-01  0.622E-01    0.02       1.0  T
  26   -296.9520740 -0.221694E-01  0.563E-01    0.01       1.0  T
  27   -296.9789936 -0.269196E-01  0.467E-01    0.01       1.0  T
  28   -297.0247803 -0.457867E-01  0.257E-01    0.01       1.0  T
  29   -297.0276201 -0.283980E-02  0.228E-01    0.01       1.0  T
  30   -297.0329547 -0.533461E-02  0.175E-01    0.00       1.0  T
  31   -297.0356369 -0.268216E-02  0.130E-01    0.00       1.0  T
  32   -297.0349706  0.666305E-03  0.136E-01    0.00       1.0  T
  33   -297.0359577 -0.987111E-03  0.120E-01    0.00       1.0  T
  34   -297.0385455 -0.258782E-02  0.670E-02    0.00       1.0  T
  35   -297.0387015 -0.156001E-03  0.598E-02    0.00       1.0  T
  36   -297.0389565 -0.254985E-03  0.506E-02    0.00       1.0  T
  37   -297.0393514 -0.394903E-03  0.332E-02    0.00       1.0  T
  38   -297.0394978 -0.146420E-03  0.224E-02    0.00       1.0  T
  39   -297.0395195 -0.216638E-04  0.180E-02    0.00       1.0  T
  40   -297.0395160  0.354055E-05  0.158E-02    0.00       1.0  T
  41   -297.0395117  0.422110E-05  0.150E-02    0.00       1.0  T
  42   -297.0395212 -0.951427E-05  0.133E-02    0.00       1.0  T
  43   -297.0395346 -0.133779E-04  0.110E-02    0.00       1.0  T
  44   -297.0395476 -0.130198E-04  0.840E-03    0.00       1.0  T
  45   -297.0395598 -0.121027E-04  0.485E-03    0.00       1.6  T
  46   -297.0395635 -0.374414E-05  0.281E-03    0.00       2.8  T
  47   -297.0395651 -0.156876E-05  0.104E-03    0.00       7.6  T
  48   -297.0395652 -0.162179E-06  0.611E-04    0.00      12.9  T
  49   -297.0395653 -0.635450E-07  0.326E-04    0.00      24.3  T
     SCC iter.                  ...        0 min,  3.330 sec
     gradient                   ...        0 min,  0.233 sec
 * total energy  :  -291.7778752 Eh     change       -0.1326216E+00 Eh
   gradient norm :     0.1435657 Eh/α   predicted    -0.1272248E+00 (  -4.07%)
   displ. norm   :     0.7889666 α      lambda       -0.1054349E+00
   maximum displ.:     0.2787094 α      in ANC's #166, #163, #126, ...

........................................................................
.............................. CYCLE    5 ..............................
........................................................................
   1   -297.0676677 -0.297068E+03  0.609E-01    0.01       0.0  T
   2   -291.8305871  0.523708E+01  0.342E+00    0.05       1.0  T
   3   -296.1011947 -0.427061E+01  0.201E+00    0.01       1.0  T
   4   -294.6509151  0.145028E+01  0.284E+00    0.03       1.0  T
   5   -293.1384798  0.151244E+01  0.376E+00    0.02       1.0  T
   6   -294.7607187 -0.162224E+01  0.305E+00    0.03       1.0  T
   7   -296.8264996 -0.206578E+01  0.105E+00    0.01       1.0  T
   8   -296.6340165  0.192483E+00  0.128E+00    0.02       1.0  T
   9   -296.3201143  0.313902E+00  0.161E+00    0.00       1.0  T
  10   -296.5450863 -0.224972E+00  0.139E+00    0.02       1.0  T
  11   -296.4576082  0.874780E-01  0.147E+00    0.00       1.0  T
  12   -296.3722185  0.853898E-01  0.160E+00    0.02       1.0  T
  13   -296.1761178  0.196101E+00  0.182E+00    0.02       1.0  T
  14   -296.7500722 -0.573954E+00  0.111E+00    0.02       1.0  T
  15   -296.7866905 -0.366183E-01  0.111E+00    0.02       1.0  T
  16   -297.0597388 -0.273048E+00  0.532E-01    0.00       1.0  T
  17   -297.0447347  0.150041E-01  0.604E-01    0.00       1.0  T
  18   -296.9047986  0.139936E+00  0.902E-01    0.02       1.0  T
  19   -297.0441130 -0.139314E+00  0.586E-01    0.00       1.0  T
  20   -297.0538615 -0.974853E-02  0.547E-01    0.01       1.0  T
  21   -297.0592722 -0.541069E-02  0.528E-01    0.00       1.0  T
  22   -297.0585972  0.675005E-03  0.536E-01    0.01       1.0  T
  23   -297.0656699 -0.707274E-02  0.500E-01    0.01       1.0  T
  24   -297.0928739 -0.272039E-01  0.386E-01    0.00       1.0  T
  25   -297.1013307 -0.845683E-02  0.334E-01    0.00       1.0  T
  26   -297.1074081 -0.607743E-02  0.297E-01    0.00       1.0  T
  27   -297.1113530 -0.394493E-02  0.267E-01    0.00       1.0  T
  28   -297.1222836 -0.109306E-01  0.151E-01    0.00       1.0  T
  29   -297.1212904  0.993278E-03  0.159E-01    0.00       1.0  T
  30   -297.1238167 -0.252629E-02  0.126E-01    0.00       1.0  T
  31   -297.1223839  0.143273E-02  0.139E-01    0.00       1.0  T
  32   -297.1253200 -0.293609E-02  0.907E-02    0.00       1.0  T
  33   -297.1256251 -0.305025E-03  0.837E-02    0.00       1.0  T
  34   -297.1256563 -0.312222E-04  0.805E-02    0.00       1.0  T
  35   -297.1270989 -0.144263E-02  0.283E-02    0.00       1.0  T
  36   -297.1269535  0.145361E-03  0.350E-02    0.00       1.0  T
  37   -297.1268707  0.828573E-04  0.380E-02    0.00       1.0  T
  38   -297.1270694 -0.198731E-03  0.264E-02    0.00       1.0  T
  39   -297.1271450 -0.755976E-04  0.208E-02    0.00       1.0  T
  40   -297.1271733 -0.282401E-04  0.182E-02    0.00       1.0  T
  41   -297.1271887 -0.154539E-04  0.167E-02    0.00       1.0  T
  42   -297.1272155 -0.267820E-04  0.136E-02    0.00       1.0  T
  43   -297.1272443 -0.288502E-04  0.942E-03    0.00       1.0  T
  44   -297.1272666 -0.222723E-04  0.367E-03    0.00       2.2  T
  45   -297.1272690 -0.240999E-05  0.225E-03    0.00       3.5  T
  46   -297.1272694 -0.401060E-06  0.165E-03    0.00       4.8  T
  47   -297.1272698 -0.332478E-06  0.114E-03    0.00       7.0  T
  48   -297.1272698 -0.334058E-07  0.930E-04    0.00       8.5  T
  49   -297.1272696  0.204337E-06  0.118E-03    0.00       6.7  T
  50   -297.1272696 -0.600070E-07  0.102E-03    0.00       7.7  T
  51   -297.1272699 -0.233231E-06  0.422E-04    0.00      18.7  T
     SCC iter.                  ...        0 min,  3.467 sec
     gradient                   ...        0 min,  0.233 sec
 * total energy  :  -291.8670657 Eh     change       -0.8919053E-01 Eh
   gradient norm :     0.1057437 Eh/α   predicted    -0.8553329E-01 (  -4.10%)
   displ. norm   :     0.8182697 α      lambda       -0.7796422E-01
   maximum displ.:     0.2661205 α      in ANC's #89, #166, #163, ...

........................................................................
.............................. CYCLE    6 ..............................
........................................................................
   1   -297.1378873 -0.297138E+03  0.630E-01    0.01       0.0  T
   2   -292.0137293  0.512416E+01  0.336E+00    0.01       1.0  T
   3   -296.5233434 -0.450961E+01  0.170E+00    0.02       1.0  T
   4   -292.2093231  0.431402E+01  0.413E+00    0.02       1.0  T
   5   -293.7384654 -0.152914E+01  0.352E+00    0.03       1.0  T
   6   -294.1898102 -0.451345E+00  0.348E+00    0.02       1.0  T
   7   -296.2061270 -0.201632E+01  0.189E+00    0.01       1.0  T
   8   -295.7926364  0.413491E+00  0.235E+00    0.02       1.0  T
   9   -296.4081202 -0.615484E+00  0.152E+00    0.02       1.0  T
  10   -296.0322238  0.375896E+00  0.150E+00    0.01       1.0  T
  11   -296.7188557 -0.686632E+00  0.128E+00    0.03       1.0  T
  12   -296.9879437 -0.269088E+00  0.804E-01    0.00       1.0  T
  13   -297.1686915 -0.180748E+00  0.387E-01    0.01       1.0  T
  14   -297.1003105  0.683810E-01  0.644E-01    0.00       1.0  T
  15   -297.0942163  0.609416E-02  0.661E-01    0.00       1.0  T
  16   -297.0664267  0.277896E-01  0.737E-01    0.01       1.0  T
  17   -296.6687148  0.397712E+00  0.135E+00    0.02       1.0  T
  18   -297.0534906 -0.384776E+00  0.734E-01    0.02       1.0  T
  19   -297.1560250 -0.102534E+00  0.438E-01    0.02       1.0  T
  20   -297.0571241  0.989010E-01  0.724E-01    0.02       1.0  T
  21   -297.1870650 -0.129941E+00  0.277E-01    0.00       1.0  T
  22   -297.1826512  0.441380E-02  0.300E-01    0.00       1.0  T
  23   -297.1808503  0.180096E-02  0.321E-01    0.01       1.0  T
  24   -297.1809008 -0.505061E-04  0.320E-01    0.01       1.0  T
  25   -297.1798345  0.106627E-02  0.321E-01    0.00       1.0  T
  26   -297.1766244  0.321011E-02  0.336E-01    0.00       1.0  T
  27   -297.1694025  0.722192E-02  0.362E-01    0.01       1.0  T
  28   -297.1726680 -0.326556E-02  0.346E-01    0.01       1.0  T
  29   -297.1805584 -0.789040E-02  0.302E-01    0.00       1.0  T
  30   -297.1874113 -0.685286E-02  0.246E-01    0.00       1.0  T
  31   -297.1840696  0.334165E-02  0.271E-01    0.01       1.0  T
  32   -297.1895500 -0.548042E-02  0.223E-01    0.01       1.0  T
  33   -297.1915846 -0.203453E-02  0.203E-01    0.01       1.0  T
  34   -297.1968018 -0.521728E-02  0.137E-01    0.00       1.0  T
  35   -297.1992917 -0.248985E-02  0.870E-02    0.00       1.0  T
  36   -297.1998008 -0.509101E-03  0.706E-02    0.00       1.0  T
  37   -297.2007077 -0.906938E-03  0.350E-02    0.00       1.0  T
  38   -297.2008305 -0.122781E-03  0.281E-02    0.00       1.0  T
  39   -297.2009357 -0.105170E-03  0.180E-02    0.00       1.0  T
  40   -297.2009935 -0.577849E-04  0.683E-03    0.00       1.2  T
  41   -297.2009843  0.916225E-05  0.902E-03    0.00       1.0  T
  42   -297.2009971 -0.128422E-04  0.511E-03    0.00       1.5  T
  43   -297.2009965  0.617929E-06  0.547E-03    0.00       1.4  T
  44   -297.2009989 -0.241226E-05  0.440E-03    0.00       1.8  T
  45   -297.2009999 -0.925729E-06  0.397E-03    0.00       2.0  T
  46   -297.2010012 -0.130151E-05  0.332E-03    0.00       2.4  T
  47   -297.2010029 -0.177182E-05  0.213E-03    0.00       3.7  T
  48   -297.2010040 -0.103643E-05  0.991E-04    0.00       8.0  T
  49   -297.2010041 -0.173669E-06  0.612E-04    0.00      12.9  T
  50   -297.2010042 -0.527693E-07  0.381E-04    0.00      20.7  T
     SCC iter.                  ...        0 min,  3.396 sec
     gradient                   ...        0 min,  0.233 sec
 * total energy  :  -291.9339975 Eh     change       -0.6693175E-01 Eh
   gradient norm :     0.0848482 Eh/α   predicted    -0.6508320E-01 (  -2.76%)
   displ. norm   :     0.8202225 α      lambda       -0.5784493E-01
   maximum displ.:     0.3111812 α      in ANC's #89, #88, #122, ...

........................................................................
.............................. CYCLE    7 ..............................
........................................................................
   1   -297.2117510 -0.297212E+03  0.575E-01    0.01       0.0  T
   2   -292.6169452  0.459481E+01  0.318E+00    0.04       1.0  T
   3   -296.5062996 -0.388935E+01  0.151E+00    0.03       1.0  T
   4   -292.9714132  0.353489E+01  0.385E+00    0.01       1.0  T
   5   -294.7525244 -0.178111E+01  0.316E+00    0.01       1.0  T
   6   -295.2218777 -0.469353E+00  0.293E+00    0.01       1.0  T
   7   -296.4582549 -0.123638E+01  0.154E+00    0.02       1.0  T
   8   -294.9798767  0.147838E+01  0.293E+00    0.01       1.0  T
   9   -295.9342939 -0.954417E+00  0.163E+00    0.07       1.0  T
  10   -296.6032743 -0.668980E+00  0.156E+00    0.02       1.0  T
  11   -297.1293749 -0.526101E+00  0.687E-01    0.02       1.0  T
  12   -296.8518856  0.277489E+00  0.114E+00    0.01       1.0  T
  13   -297.0862941 -0.234409E+00  0.830E-01    0.02       1.0  T
  14   -297.1170387 -0.307446E-01  0.736E-01    0.01       1.0  T
  15   -296.8820638  0.234975E+00  0.120E+00    0.02       1.0  T
  16   -297.2153524 -0.333289E+00  0.443E-01    0.00       1.0  T
  17   -297.2147247  0.627712E-03  0.430E-01    0.00       1.0  T
  18   -297.2499013 -0.351766E-01  0.223E-01    0.00       1.0  T
  19   -297.2116883  0.382130E-01  0.390E-01    0.02       1.0  T
  20   -297.2529994 -0.413110E-01  0.203E-01    0.01       1.0  T
  21   -297.2506405  0.235887E-02  0.227E-01    0.01       1.0  T
  22   -297.2385508  0.120896E-01  0.292E-01    0.02       1.0  T
  23   -297.2405906 -0.203971E-02  0.293E-01    0.01       1.0  T
  24   -297.2360215  0.456908E-02  0.316E-01    0.01       1.0  T
  25   -297.2361774 -0.155936E-03  0.322E-01    0.01       1.0  T
  26   -297.2512812 -0.151038E-01  0.234E-01    0.01       1.0  T
  27   -297.2528011 -0.151986E-02  0.220E-01    0.01       1.0  T
  28   -297.2529291 -0.128015E-03  0.217E-01    0.01       1.0  T
  29   -297.2530125 -0.834430E-04  0.212E-01    0.01       1.0  T
  30   -297.2569860 -0.397346E-02  0.171E-01    0.01       1.0  T
  31   -297.2582305 -0.124451E-02  0.153E-01    0.01       1.0  T
  32   -297.2596295 -0.139897E-02  0.131E-01    0.01       1.0  T
  33   -297.2605052 -0.875756E-03  0.114E-01    0.01       1.0  T
  34   -297.2603232  0.182050E-03  0.112E-01    0.01       1.0  T
  35   -297.2608783 -0.555111E-03  0.992E-02    0.01       1.0  T
  36   -297.2619923 -0.111400E-02  0.734E-02    0.01       1.0  T
  37   -297.2622142 -0.221948E-03  0.638E-02    0.01       1.0  T
  38   -297.2626831 -0.468849E-03  0.469E-02    0.00       1.0  T
  39   -297.2628445 -0.161415E-03  0.385E-02    0.00       1.0  T
  40   -297.2630790 -0.234514E-03  0.238E-02    0.00       1.0  T
  41   -297.2631150 -0.359450E-04  0.186E-02    0.00       1.0  T
  42   -297.2631439 -0.289332E-04  0.146E-02    0.00       1.0  T
  43   -297.2631764 -0.324581E-04  0.929E-03    0.00       1.0  T
  44   -297.2631948 -0.183947E-04  0.457E-03    0.00       1.7  T
  45   -297.2631948 -0.885163E-07  0.435E-03    0.00       1.8  T
  46   -297.2631959 -0.102665E-05  0.383E-03    0.00       2.1  T
  47   -297.2631981 -0.227344E-05  0.264E-03    0.00       3.0  T
  48   -297.2631996 -0.145880E-05  0.143E-03    0.00       5.5  T
  49   -297.2632000 -0.398048E-06  0.810E-04    0.00       9.8  T
  50   -297.2632001 -0.889615E-07  0.544E-04    0.00      14.5  T
     SCC iter.                  ...        0 min,  3.396 sec
     gradient                   ...        0 min,  0.234 sec
 * total energy  :  -291.9833648 Eh     change       -0.4936725E-01 Eh
   gradient norm :     0.0625966 Eh/α   predicted    -0.4838051E-01 (  -2.00%)
   displ. norm   :     0.8068095 α      lambda       -0.4115286E-01
   maximum displ.:     0.3273251 α      in ANC's #89, #88, #32, ...

........................................................................
.............................. CYCLE    8 ..............................
........................................................................
   1   -297.2762436 -0.297276E+03  0.485E-01    0.01       0.0  T
   2   -293.6901413  0.358610E+01  0.284E+00    0.06       1.0  T
   3   -296.4575085 -0.276737E+01  0.161E+00    0.02       1.0  T
   4   -295.6585972  0.798911E+00  0.250E+00    0.01       1.0  T
   5   -295.9075007 -0.248903E+00  0.240E+00    0.01       1.0  T
   6   -296.5528958 -0.645395E+00  0.153E+00    0.03       1.0  T
   7   -296.4501140  0.102782E+00  0.176E+00    0.02       1.0  T
   8   -296.4893945 -0.392805E-01  0.186E+00    0.01       1.0  T
   9   -296.6635797 -0.174185E+00  0.140E+00    0.03       1.0  T
  10   -296.9103894 -0.246810E+00  0.122E+00    0.01       1.0  T
  11   -296.8234768  0.869126E-01  0.113E+00    0.03       1.0  T
  12   -296.3391139  0.484363E+00  0.188E+00    0.01       1.0  T
  13   -297.1467075 -0.807594E+00  0.804E-01    0.00       1.0  T
  14   -297.2314503 -0.847428E-01  0.583E-01    0.00       1.0  T
  15   -297.1523666  0.790837E-01  0.805E-01    0.01       1.0  T
  16   -297.1956297 -0.432631E-01  0.644E-01    0.02       1.0  T
  17   -297.1233491  0.722807E-01  0.873E-01    0.00       1.0  T
  18   -297.2143396 -0.909905E-01  0.617E-01    0.00       1.0  T
  19   -297.2624630 -0.481234E-01  0.394E-01    0.00       1.0  T
  20   -297.2887725 -0.263095E-01  0.252E-01    0.01       1.0  T
  21   -297.3014143 -0.126418E-01  0.190E-01    0.01       1.0  T
  22   -297.3008900  0.524306E-03  0.166E-01    0.00       1.0  T
  23   -297.3059003 -0.501037E-02  0.104E-01    0.00       1.0  T
  24   -297.3041389  0.176147E-02  0.134E-01    0.01       1.0  T
  25   -297.3076621 -0.352328E-02  0.867E-02    0.00       1.0  T
  26   -297.3093118 -0.164967E-02  0.600E-02    0.00       1.0  T
  27   -297.3095410 -0.229144E-03  0.476E-02    0.00       1.0  T
  28   -297.3094947  0.462826E-04  0.444E-02    0.00       1.0  T
  29   -297.3095796 -0.849144E-04  0.451E-02    0.00       1.0  T
  30   -297.3096642 -0.846140E-04  0.405E-02    0.00       1.0  T
  31   -297.3100202 -0.356025E-03  0.165E-02    0.00       1.0  T
  32   -297.3100242 -0.396398E-05  0.160E-02    0.00       1.0  T
  33   -297.3100477 -0.235419E-04  0.116E-02    0.00       1.0  T
  34   -297.3100622 -0.144690E-04  0.846E-03    0.00       1.0  T
  35   -297.3100654 -0.314565E-05  0.730E-03    0.00       1.1  T
  36   -297.3100751 -0.973041E-05  0.419E-03    0.00       1.9  T
  37   -297.3100773 -0.224501E-05  0.293E-03    0.00       2.7  T
  38   -297.3100778 -0.514877E-06  0.248E-03    0.00       3.2  T
  39   -297.3100791 -0.129237E-05  0.944E-04    0.00       8.4  T
  40   -297.3100788  0.332508E-06  0.145E-03    0.00       5.4  T
  41   -297.3100793 -0.449245E-06  0.588E-04    0.00      13.4  T
  42   -297.3100792  0.245706E-07  0.627E-04    0.00      12.6  T
     SCC iter.                  ...        0 min,  2.847 sec
     gradient                   ...        0 min,  0.234 sec
 * total energy  :  -292.0178745 Eh     change       -0.3450972E-01 Eh
   gradient norm :     0.0435140 Eh/α   predicted    -0.3397051E-01 (  -1.56%)
   displ. norm   :     0.7844586 α      lambda       -0.2745609E-01
   maximum displ.:     0.3278072 α      in ANC's #32, #89, #88, ...

........................................................................
.............................. CYCLE    9 ..............................
........................................................................
   1   -297.3193890 -0.297319E+03  0.406E-01    0.00       0.0  T
   2   -295.3261285  0.199326E+01  0.227E+00    0.03       1.0  T
   3   -295.5267985 -0.200670E+00  0.265E+00    0.01       1.0  T
   4   -295.9150192 -0.388221E+00  0.238E+00    0.00       1.0  T
   5   -296.1780644 -0.263045E+00  0.223E+00    0.01       1.0  T
   6   -294.5718654  0.160620E+01  0.355E+00    0.02       1.0  T
   7   -296.9677957 -0.239593E+01  0.113E+00    0.02       1.0  T
   8   -296.4399897  0.527806E+00  0.139E+00    0.01       1.0  T
   9   -296.8243481 -0.384358E+00  0.140E+00    0.02       1.0  T
  10   -296.7417349  0.826132E-01  0.154E+00    0.01       1.0  T
  11   -296.9116935 -0.169959E+00  0.120E+00    0.03       1.0  T
  12   -297.3176261 -0.405933E+00  0.311E-01    0.01       1.0  T
  13   -297.1102106  0.207416E+00  0.891E-01    0.02       1.0  T
  14   -297.2935104 -0.183300E+00  0.430E-01    0.00       1.0  T
  15   -297.3090955 -0.155850E-01  0.360E-01    0.00       1.0  T
  16   -297.2776725  0.314230E-01  0.479E-01    0.00       1.0  T
  17   -297.3100998 -0.324273E-01  0.339E-01    0.00       1.0  T
  18   -297.3273294 -0.172296E-01  0.231E-01    0.00       1.0  T
  19   -297.2717836  0.555458E-01  0.480E-01    0.01       1.0  T
  20   -297.3121979 -0.404143E-01  0.314E-01    0.01       1.0  T
  21   -297.3277806 -0.155827E-01  0.212E-01    0.01       1.0  T
  22   -297.3337960 -0.601536E-02  0.133E-01    0.01       1.0  T
  23   -297.3341796 -0.383658E-03  0.126E-01    0.00       1.0  T
  24   -297.3346919 -0.512297E-03  0.122E-01    0.00       1.0  T
  25   -297.3379974 -0.330546E-02  0.630E-02    0.00       1.0  T
  26   -297.3384340 -0.436564E-03  0.494E-02    0.00       1.0  T
  27   -297.3383232  0.110753E-03  0.548E-02    0.00       1.0  T
  28   -297.3386382 -0.315014E-03  0.421E-02    0.00       1.0  T
  29   -297.3386881 -0.498484E-04  0.426E-02    0.00       1.0  T
  30   -297.3387740 -0.859134E-04  0.382E-02    0.00       1.0  T
  31   -297.3388836 -0.109583E-03  0.314E-02    0.00       1.0  T
  32   -297.3390216 -0.138019E-03  0.184E-02    0.00       1.0  T
  33   -297.3390552 -0.336322E-04  0.136E-02    0.00       1.0  T
  34   -297.3390713 -0.160657E-04  0.105E-02    0.00       1.0  T
  35   -297.3390862 -0.148855E-04  0.600E-03    0.00       1.3  T
  36   -297.3390901 -0.393246E-05  0.414E-03    0.00       1.9  T
  37   -297.3390916 -0.151739E-05  0.285E-03    0.00       2.8  T
  38   -297.3390921 -0.529771E-06  0.208E-03    0.00       3.8  T
  39   -297.3390926 -0.439491E-06  0.854E-04    0.00       9.3  T
  40   -297.3390926 -0.146686E-07  0.722E-04    0.00      11.0  T
     SCC iter.                  ...        0 min,  2.711 sec
     gradient                   ...        0 min,  0.234 sec
 * total energy  :  -292.0405120 Eh     change       -0.2263749E-01 Eh
   gradient norm :     0.0323214 Eh/α   predicted    -0.2217603E-01 (  -2.04%)
   displ. norm   :     0.7821655 α      lambda       -0.1811106E-01
   maximum displ.:     0.4526134 α      in ANC's #32, #30, #89, ...

........................................................................
.............................. CYCLE   10 ..............................
........................................................................
   1   -297.3441157 -0.297344E+03  0.350E-01    0.00       0.0  T
   2   -296.6430162  0.701099E+00  0.164E+00    0.01       1.0  T
   3   -295.5600626  0.108295E+01  0.270E+00    0.01       1.0  T
   4   -296.2033122 -0.643250E+00  0.229E+00    0.01       1.0  T
   5   -294.8801824  0.132313E+01  0.342E+00    0.01       1.0  T
   6   -296.5221614 -0.164198E+01  0.179E+00    0.00       1.0  T
   7   -296.9770674 -0.454906E+00  0.115E+00    0.02       1.0  T
   8   -296.9583194  0.187480E-01  0.128E+00    0.02       1.0  T
   9   -296.9115308  0.467886E-01  0.107E+00    0.02       1.0  T
  10   -297.1889408 -0.277410E+00  0.779E-01    0.01       1.0  T
  11   -297.2857548 -0.968139E-01  0.562E-01    0.00       1.0  T
  12   -297.2202740  0.654808E-01  0.682E-01    0.00       1.0  T
  13   -297.2425895 -0.223156E-01  0.656E-01    0.00       1.0  T
  14   -297.3054422 -0.628527E-01  0.470E-01    0.00       1.0  T
  15   -297.2886087  0.168336E-01  0.475E-01    0.01       1.0  T
  16   -297.3411446 -0.525359E-01  0.242E-01    0.01       1.0  T
  17   -297.3293275  0.118171E-01  0.331E-01    0.00       1.0  T
  18   -297.3420558 -0.127283E-01  0.234E-01    0.00       1.0  T
  19   -297.3497937 -0.773786E-02  0.164E-01    0.00       1.0  T
  20   -297.3548142 -0.502056E-02  0.747E-02    0.00       1.0  T
  21   -297.3531946  0.161961E-02  0.107E-01    0.00       1.0  T
  22   -297.3541707 -0.976128E-03  0.877E-02    0.00       1.0  T
  23   -297.3506865  0.348420E-02  0.147E-01    0.00       1.0  T
  24   -297.3540124 -0.332588E-02  0.915E-02    0.00       1.0  T
  25   -297.3537281  0.284310E-03  0.926E-02    0.00       1.0  T
  26   -297.3545814 -0.853300E-03  0.697E-02    0.00       1.0  T
  27   -297.3548598 -0.278435E-03  0.606E-02    0.00       1.0  T
  28   -297.3552295 -0.369673E-03  0.461E-02    0.00       1.0  T
  29   -297.3555324 -0.302862E-03  0.280E-02    0.00       1.0  T
  30   -297.3556704 -0.138083E-03  0.149E-02    0.00       1.0  T
  31   -297.3556908 -0.203218E-04  0.106E-02    0.00       1.0  T
  32   -297.3557120 -0.212359E-04  0.355E-03    0.00       2.2  T
  33   -297.3557138 -0.178705E-05  0.151E-03    0.00       5.2  T
  34   -297.3557133  0.492659E-06  0.204E-03    0.00       3.9  T
  35   -297.3557138 -0.490673E-06  0.142E-03    0.00       5.6  T
  36   -297.3557141 -0.299038E-06  0.779E-04    0.00      10.1  T
  37   -297.3557142 -0.735349E-07  0.544E-04    0.00      14.5  T
     SCC iter.                  ...        0 min,  2.479 sec
     gradient                   ...        0 min,  0.222 sec
 * total energy  :  -292.0558225 Eh     change       -0.1531056E-01 Eh
   gradient norm :     0.0283414 Eh/α   predicted    -0.1459557E-01 (  -4.67%)
   displ. norm   :     0.8411962 α      lambda       -0.1450502E-01
   maximum displ.:     0.5714337 α      in ANC's #32, #30, #16, ...

........................................................................
.............................. CYCLE   11 ..............................
........................................................................
   1   -297.3539555 -0.297354E+03  0.348E-01    0.00       0.0  T
   2   -291.9577388  0.539622E+01  0.440E+00    0.01       1.0  T
   3   -295.6413266 -0.368359E+01  0.262E+00    0.00       1.0  T
   4   -296.8416820 -0.120036E+01  0.145E+00    0.01       1.0  T
   5   -295.7571212  0.108456E+01  0.278E+00    0.01       1.0  T
   6   -294.7985767  0.958544E+00  0.353E+00    0.01       1.0  T
   7   -296.7871799 -0.198860E+01  0.147E+00    0.01       1.0  T
   8   -295.5448585  0.124232E+01  0.269E+00    0.01       1.0  T
   9   -296.9670649 -0.142221E+01  0.133E+00    0.01       1.0  T
  10   -297.0116667 -0.446018E-01  0.107E+00    0.01       1.0  T
  11   -296.5780758  0.433591E+00  0.178E+00    0.01       1.0  T
  12   -296.8639561 -0.285880E+00  0.145E+00    0.01       1.0  T
  13   -296.8980874 -0.341313E-01  0.140E+00    0.01       1.0  T
  14   -297.0775230 -0.179436E+00  0.111E+00    0.00       1.0  T
  15   -297.1839700 -0.106447E+00  0.910E-01    0.00       1.0  T
  16   -297.1191828  0.647872E-01  0.104E+00    0.01       1.0  T
  17   -297.1032786  0.159042E-01  0.106E+00    0.01       1.0  T
  18   -297.2064879 -0.103209E+00  0.834E-01    0.01       1.0  T
  19   -297.1143804  0.921075E-01  0.995E-01    0.01       1.0  T
  20   -297.2418972 -0.127517E+00  0.738E-01    0.00       1.0  T
  21   -297.3150906 -0.731934E-01  0.494E-01    0.01       1.0  T
  22   -297.3469514 -0.318608E-01  0.278E-01    0.00       1.0  T
  23   -297.3552969 -0.834547E-02  0.204E-01    0.00       1.0  T
  24   -297.3557534 -0.456449E-03  0.233E-01    0.00       1.0  T
  25   -297.3626364 -0.688299E-02  0.114E-01    0.00       1.0  T
  26   -297.3634009 -0.764512E-03  0.106E-01    0.00       1.0  T
  27   -297.3641663 -0.765415E-03  0.955E-02    0.00       1.0  T
  28   -297.3636947  0.471562E-03  0.104E-01    0.00       1.0  T
  29   -297.3652595 -0.156474E-02  0.528E-02    0.00       1.0  T
  30   -297.3648538  0.405669E-03  0.684E-02    0.00       1.0  T
  31   -297.3648978 -0.439921E-04  0.645E-02    0.00       1.0  T
  32   -297.3655632 -0.665410E-03  0.358E-02    0.00       1.0  T
  33   -297.3655939 -0.307099E-04  0.343E-02    0.00       1.0  T
  34   -297.3657667 -0.172756E-03  0.183E-02    0.00       1.0  T
  35   -297.3657446  0.220362E-04  0.211E-02    0.00       1.0  T
  36   -297.3657977 -0.530382E-04  0.133E-02    0.00       1.0  T
  37   -297.3658057 -0.804312E-05  0.111E-02    0.00       1.0  T
  38   -297.3658241 -0.184012E-04  0.534E-03    0.00       1.5  T
  39   -297.3658267 -0.262439E-05  0.352E-03    0.00       2.2  T
  40   -297.3658232  0.348368E-05  0.542E-03    0.00       1.5  T
  41   -297.3658259 -0.266459E-05  0.357E-03    0.00       2.2  T
  42   -297.3658267 -0.825870E-06  0.272E-03    0.00       2.9  T
  43   -297.3658268 -0.107876E-06  0.243E-03    0.00       3.3  T
  44   -297.3658266  0.217769E-06  0.232E-03    0.00       3.4  T
  45   -297.3658270 -0.335263E-06  0.170E-03    0.00       4.7  T
  46   -297.3658271 -0.175813E-06  0.150E-03    0.00       5.3  T
  47   -297.3658273 -0.148082E-06  0.131E-03    0.00       6.0  T
  48   -297.3658272  0.663264E-07  0.146E-03    0.00       5.4  T
  49   -297.3658276 -0.333752E-06  0.914E-04    0.00       8.7  T
  50   -297.3658277 -0.188144E-06  0.245E-04    0.00      32.3  T
     SCC iter.                  ...        0 min,  3.207 sec
     gradient                   ...        0 min,  0.222 sec
 * total energy  :  -292.0689154 Eh     change       -0.1309285E-01 Eh
   gradient norm :     0.0313935 Eh/α   predicted    -0.1238448E-01 (  -5.41%)
   displ. norm   :     0.9205016 α      lambda       -0.1568637E-01
   maximum displ.:     0.6369087 α      in ANC's #32, #16, #30, ...

........................................................................
.............................. CYCLE   12 ..............................
........................................................................
   1   -297.3625918 -0.297363E+03  0.351E-01    0.00       0.0  T
   2   -293.0136621  0.434893E+01  0.377E+00    0.00       1.0  T
   3   -295.9026613 -0.288900E+01  0.243E+00    0.01       1.0  T
   4   -295.8789789  0.236824E-01  0.246E+00    0.01       1.0  T
   5   -296.7055748 -0.826596E+00  0.178E+00    0.00       1.0  T
   6   -296.8521346 -0.146560E+00  0.162E+00    0.01       1.0  T
   7   -297.0049489 -0.152814E+00  0.119E+00    0.00       1.0  T
   8   -296.9816027  0.233462E-01  0.128E+00    0.01       1.0  T
   9   -296.8722856  0.109317E+00  0.125E+00    0.01       1.0  T
  10   -296.1664377  0.705848E+00  0.231E+00    0.01       1.0  T
  11   -296.9488164 -0.782379E+00  0.143E+00    0.01       1.0  T
  12   -297.0577109 -0.108894E+00  0.124E+00    0.01       1.0  T
  13   -296.3857098  0.672001E+00  0.211E+00    0.01       1.0  T
  14   -296.0479320  0.337778E+00  0.243E+00    0.01       1.0  T
  15   -296.7993145 -0.751382E+00  0.162E+00    0.01       1.0  T
  16   -296.6447529  0.154562E+00  0.176E+00    0.01       1.0  T
  17   -297.2761639 -0.631411E+00  0.654E-01    0.01       1.0  T
  18   -297.1540494  0.122115E+00  0.974E-01    0.01       1.0  T
  19   -297.1362846  0.177648E-01  0.104E+00    0.01       1.0  T
  20   -297.2046196 -0.683351E-01  0.898E-01    0.01       1.0  T
  21   -297.2867223 -0.821027E-01  0.658E-01    0.00       1.0  T
  22   -297.3146388 -0.279165E-01  0.555E-01    0.00       1.0  T
  23   -297.3367360 -0.220973E-01  0.444E-01    0.00       1.0  T
  24   -297.3401717 -0.343566E-02  0.414E-01    0.00       1.0  T
  25   -297.3609921 -0.208204E-01  0.256E-01    0.00       1.0  T
  26   -297.3605881  0.403947E-03  0.258E-01    0.00       1.0  T
  27   -297.3643162 -0.372804E-02  0.227E-01    0.00       1.0  T
  28   -297.3715009 -0.718473E-02  0.138E-01    0.00       1.0  T
  29   -297.3646625  0.683834E-02  0.223E-01    0.00       1.0  T
  30   -297.3699847 -0.532216E-02  0.164E-01    0.00       1.0  T
  31   -297.3704802 -0.495447E-03  0.157E-01    0.00       1.0  T
  32   -297.3714758 -0.995624E-03  0.142E-01    0.00       1.0  T
  33   -297.3739536 -0.247782E-02  0.970E-02    0.00       1.0  T
  34   -297.3746845 -0.730940E-03  0.791E-02    0.00       1.0  T
  35   -297.3754462 -0.761650E-03  0.552E-02    0.00       1.0  T
  36   -297.3759137 -0.467532E-03  0.330E-02    0.00       1.0  T
  37   -297.3760358 -0.122094E-03  0.241E-02    0.00       1.0  T
  38   -297.3761020 -0.662241E-04  0.176E-02    0.00       1.0  T
  39   -297.3761380 -0.359926E-04  0.127E-02    0.00       1.0  T
  40   -297.3761520 -0.139270E-04  0.103E-02    0.00       1.0  T
  41   -297.3761625 -0.105748E-04  0.778E-03    0.00       1.0  T
  42   -297.3761685 -0.594389E-05  0.563E-03    0.00       1.4  T
  43   -297.3761717 -0.323828E-05  0.419E-03    0.00       1.9  T
  44   -297.3761748 -0.312466E-05  0.105E-03    0.00       7.6  T
  45   -297.3761750 -0.124666E-06  0.761E-04    0.00      10.4  T
  46   -297.3761750 -0.156833E-07  0.626E-04    0.00      12.6  T
     SCC iter.                  ...        0 min,  2.954 sec
     gradient                   ...        0 min,  0.222 sec
 * total energy  :  -292.0835932 Eh     change       -0.1467784E-01 Eh
   gradient norm :     0.0353968 Eh/α   predicted    -0.1448891E-01 (  -1.29%)
   displ. norm   :     0.9337860 α      lambda       -0.1725298E-01
   maximum displ.:     0.6593037 α      in ANC's #32, #16, #30, ...

........................................................................
.............................. CYCLE   13 ..............................
........................................................................
   1   -297.3640782 -0.297364E+03  0.373E-01    0.00       0.0  T
   2   -292.3618999  0.500218E+01  0.399E+00    0.01       1.0  T
   3   -296.5540482 -0.419215E+01  0.198E+00    0.01       1.0  T
   4   -296.4315726  0.122476E+00  0.193E+00    0.01       1.0  T
   5   -295.5872657  0.844307E+00  0.271E+00    0.00       1.0  T
   6   -295.8651244 -0.277859E+00  0.272E+00    0.02       1.0  T
   7   -297.0470691 -0.118194E+01  0.127E+00    0.01       1.0  T
   8   -295.8084572  0.123861E+01  0.255E+00    0.02       1.0  T
   9   -296.2751121 -0.466655E+00  0.212E+00    0.01       1.0  T
  10   -296.9261189 -0.651007E+00  0.137E+00    0.01       1.0  T
  11   -297.1291502 -0.203031E+00  0.106E+00    0.01       1.0  T
  12   -296.9319576  0.197193E+00  0.138E+00    0.02       1.0  T
  13   -296.9669584 -0.350007E-01  0.132E+00    0.01       1.0  T
  14   -297.0902775 -0.123319E+00  0.113E+00    0.00       1.0  T
  15   -297.1166631 -0.263856E-01  0.107E+00    0.00       1.0  T
  16   -297.2719535 -0.155290E+00  0.719E-01    0.00       1.0  T
  17   -297.3279448 -0.559913E-01  0.522E-01    0.00       1.0  T
  18   -297.3328348 -0.488999E-02  0.493E-01    0.00       1.0  T
  19   -297.3266292  0.620556E-02  0.518E-01    0.00       1.0  T
  20   -297.3481104 -0.214812E-01  0.409E-01    0.01       1.0  T
  21   -297.3359556  0.121547E-01  0.478E-01    0.00       1.0  T
  22   -297.3399338 -0.397819E-02  0.443E-01    0.00       1.0  T
  23   -297.3267256  0.132082E-01  0.490E-01    0.00       1.0  T
  24   -297.3589310 -0.322053E-01  0.337E-01    0.00       1.0  T
  25   -297.3679367 -0.900572E-02  0.275E-01    0.00       1.0  T
  26   -297.3843595 -0.164228E-01  0.100E-01    0.00       1.0  T
  27   -297.3842105  0.148907E-03  0.980E-02    0.00       1.0  T
  28   -297.3859938 -0.178323E-02  0.507E-02    0.00       1.0  T
  29   -297.3862945 -0.300726E-03  0.325E-02    0.00       1.0  T
  30   -297.3864678 -0.173317E-03  0.194E-02    0.00       1.0  T
  31   -297.3865139 -0.461261E-04  0.139E-02    0.00       1.0  T
  32   -297.3865523 -0.384031E-04  0.598E-03    0.00       1.3  T
  33   -297.3865596 -0.729429E-05  0.355E-03    0.00       2.2  T
  34   -297.3865585  0.113026E-05  0.384E-03    0.00       2.1  T
  35   -297.3865570  0.154128E-05  0.452E-03    0.00       1.7  T
  36   -297.3865571 -0.137868E-06  0.441E-03    0.00       1.8  T
  37   -297.3865591 -0.199327E-05  0.339E-03    0.00       2.3  T
  38   -297.3865599 -0.760218E-06  0.285E-03    0.00       2.8  T
  39   -297.3865615 -0.162121E-05  0.118E-03    0.00       6.7  T
  40   -297.3865618 -0.277716E-06  0.561E-04    0.00      14.1  T
  41   -297.3865618 -0.548503E-07  0.248E-04    0.00      31.8  T
     SCC iter.                  ...        0 min,  2.633 sec
     gradient                   ...        0 min,  0.222 sec
 * total energy  :  -292.1021530 Eh     change       -0.1855977E-01 Eh
   gradient norm :     0.0473381 Eh/α   predicted    -0.1614843E-01 ( -12.99%)
   displ. norm   :     0.9090986 α      lambda       -0.2085505E-01
   maximum displ.:     0.6236746 α      in ANC's #32, #16, #30, ...

........................................................................
.............................. CYCLE   14 ..............................
........................................................................
   1   -297.3499778 -0.297350E+03  0.371E-01    0.01       0.0  T
   2   -291.6412685  0.570871E+01  0.434E+00    0.01       1.0  T
   3   -295.4837285 -0.384246E+01  0.280E+00    0.00       1.0  T
   4   -295.2832712  0.200457E+00  0.301E+00    0.02       1.0  T
   5   -296.7850955 -0.150182E+01  0.160E+00    0.02       1.0  T
   6   -297.0606268 -0.275531E+00  0.119E+00    0.00       1.0  T
   7   -296.7083441  0.352283E+00  0.162E+00    0.02       1.0  T
   8   -296.3704809  0.337863E+00  0.199E+00    0.02       1.0  T
   9   -297.2304778 -0.859997E+00  0.799E-01    0.00       1.0  T
  10   -297.2346646 -0.418675E-02  0.778E-01    0.01       1.0  T
  11   -297.1800778  0.545868E-01  0.896E-01    0.01       1.0  T
  12   -297.2445780 -0.645003E-01  0.759E-01    0.00       1.0  T
  13   -297.3218901 -0.773120E-01  0.469E-01    0.00       1.0  T
  14   -297.3346093 -0.127192E-01  0.409E-01    0.00       1.0  T
  15   -297.3386095 -0.400014E-02  0.390E-01    0.00       1.0  T
  16   -297.3648692 -0.262597E-01  0.207E-01    0.00       1.0  T
  17   -297.3634351  0.143414E-02  0.221E-01    0.00       1.0  T
  18   -297.3525267  0.109084E-01  0.308E-01    0.00       1.0  T
  19   -297.3723820 -0.198554E-01  0.108E-01    0.00       1.0  T
  20   -297.3721913  0.190696E-03  0.110E-01    0.00       1.0  T
  21   -297.3745346 -0.234323E-02  0.379E-02    0.01       1.0  T
  22   -297.3736541  0.880476E-03  0.711E-02    0.01       1.0  T
  23   -297.3741785 -0.524425E-03  0.537E-02    0.01       1.0  T
  24   -297.3740068  0.171666E-03  0.593E-02    0.00       1.0  T
  25   -297.3742930 -0.286106E-03  0.477E-02    0.00       1.0  T
  26   -297.3747273 -0.434370E-03  0.218E-02    0.00       1.0  T
  27   -297.3748217 -0.943347E-04  0.895E-03    0.00       1.0  T
  28   -297.3748340 -0.123097E-04  0.551E-03    0.00       1.4  T
  29   -297.3748382 -0.418732E-05  0.356E-03    0.00       2.2  T
  30   -297.3748407 -0.249941E-05  0.120E-03    0.00       6.6  T
  31   -297.3748409 -0.213673E-06  0.759E-04    0.00      10.4  T
  32   -297.3748409 -0.794411E-07  0.500E-04    0.00      15.8  T
     SCC iter.                  ...        0 min,  2.055 sec
     gradient                   ...        0 min,  0.222 sec
 * total energy  :  -292.1257056 Eh     change       -0.2355264E-01 Eh
   gradient norm :     0.0640772 Eh/α   predicted    -0.1904547E-01 ( -19.14%)
   displ. norm   :     0.8740593 α      lambda       -0.2751653E-01
   maximum displ.:     0.5668989 α      in ANC's #32, #16, #30, ...

........................................................................
.............................. CYCLE   15 ..............................
........................................................................
   1   -297.3444047 -0.297344E+03  0.368E-01    0.01       0.0  T
   2   -292.8474910  0.449691E+01  0.393E+00    0.02       1.0  T
   3   -295.3304119 -0.248292E+01  0.292E+00    0.01       1.0  T
   4   -295.3462453 -0.158334E-01  0.288E+00    0.02       1.0  T
   5   -297.0686979 -0.172245E+01  0.110E+00    0.00       1.0  T
   6   -296.4757034  0.592994E+00  0.189E+00    0.02       1.0  T
   7   -297.0377750 -0.562072E+00  0.118E+00    0.00       1.0  T
   8   -296.9794440  0.583310E-01  0.128E+00    0.02       1.0  T
   9   -297.1010928 -0.121649E+00  0.105E+00    0.00       1.0  T
  10   -297.1818675 -0.807746E-01  0.873E-01    0.02       1.0  T
  11   -297.2541166 -0.722491E-01  0.703E-01    0.00       1.0  T
  12   -297.2495372  0.457940E-02  0.720E-01    0.01       1.0  T
  13   -297.2669588 -0.174216E-01  0.635E-01    0.01       1.0  T
  14   -297.3056839 -0.387251E-01  0.519E-01    0.00       1.0  T
  15   -297.3269948 -0.213109E-01  0.427E-01    0.00       1.0  T
  16   -297.2351033  0.918915E-01  0.750E-01    0.01       1.0  T
  17   -297.3598999 -0.124797E+00  0.181E-01    0.01       1.0  T
  18   -297.3566986  0.320134E-02  0.208E-01    0.00       1.0  T
  19   -297.3625851 -0.588653E-02  0.139E-01    0.00       1.0  T
  20   -297.3630404 -0.455250E-03  0.131E-01    0.00       1.0  T
  21   -297.3661255 -0.308510E-02  0.694E-02    0.00       1.0  T
  22   -297.3670961 -0.970587E-03  0.261E-02    0.00       1.0  T
  23   -297.3671486 -0.524764E-04  0.228E-02    0.00       1.0  T
  24   -297.3672398 -0.912072E-04  0.114E-02    0.01       1.0  T
  25   -297.3672546 -0.148009E-04  0.833E-03    0.01       1.0  T
  26   -297.3672545  0.293443E-07  0.807E-03    0.01       1.0  T
  27   -297.3672534  0.111717E-05  0.812E-03    0.01       1.0  T
  28   -297.3672593 -0.585377E-05  0.618E-03    0.01       1.3  T
  29   -297.3672671 -0.780501E-05  0.255E-03    0.01       3.1  T
  30   -297.3672685 -0.141045E-05  0.813E-04    0.01       9.7  T
  31   -297.3672685 -0.642432E-07  0.659E-04    0.01      12.0  T
  32   -297.3672686 -0.726696E-07  0.328E-04    0.01      24.1  T
     SCC iter.                  ...        0 min,  2.053 sec
     gradient                   ...        0 min,  0.221 sec
 * total energy  :  -292.1568820 Eh     change       -0.3117636E-01 Eh
   gradient norm :     0.0808260 Eh/α   predicted    -0.2426932E-01 ( -22.15%)
   displ. norm   :     0.8540005 α      lambda       -0.3583226E-01
   maximum displ.:     0.5226896 α      in ANC's #32, #16, #56, ...

........................................................................
.............................. CYCLE   16 ..............................
........................................................................
   1   -297.3399332 -0.297340E+03  0.335E-01    0.01       0.0  T
   2   -295.7643384  0.157559E+01  0.259E+00    0.02       1.0  T
   3   -295.3060932  0.458245E+00  0.292E+00    0.01       1.0  T
   4   -296.7502546 -0.144416E+01  0.159E+00    0.01       1.0  T
   5   -296.0648573  0.685397E+00  0.224E+00    0.03       1.0  T
   6   -295.7340434  0.330814E+00  0.261E+00    0.03       1.0  T
   7   -296.7756499 -0.104161E+01  0.157E+00    0.03       1.0  T
   8   -296.7385765  0.370734E-01  0.164E+00    0.01       1.0  T
   9   -296.6939492  0.446274E-01  0.168E+00    0.01       1.0  T
  10   -297.0057532 -0.311804E+00  0.119E+00    0.01       1.0  T
  11   -297.2194861 -0.213733E+00  0.765E-01    0.00       1.0  T
  12   -297.2517700 -0.322838E-01  0.667E-01    0.01       1.0  T
  13   -297.2124143  0.393556E-01  0.797E-01    0.00       1.0  T
  14   -297.2850547 -0.726404E-01  0.563E-01    0.01       1.0  T
  15   -297.3351384 -0.500837E-01  0.317E-01    0.00       1.0  T
  16   -297.3215697  0.135686E-01  0.393E-01    0.01       1.0  T
  17   -297.3250419 -0.347218E-02  0.371E-01    0.01       1.0  T
  18   -297.3413663 -0.163244E-01  0.268E-01    0.01       1.0  T
  19   -297.3477537 -0.638738E-02  0.210E-01    0.01       1.0  T
  20   -297.3457508  0.200286E-02  0.230E-01    0.01       1.0  T
  21   -297.3439453  0.180551E-02  0.244E-01    0.01       1.0  T
  22   -297.3513896 -0.744433E-02  0.166E-01    0.01       1.0  T
  23   -297.3555987 -0.420910E-02  0.101E-01    0.01       1.0  T
  24   -297.3569968 -0.139809E-02  0.667E-02    0.01       1.0  T
  25   -297.3579048 -0.907989E-03  0.270E-02    0.01       1.0  T
  26   -297.3580056 -0.100823E-03  0.185E-02    0.01       1.0  T
  27   -297.3580323 -0.266408E-04  0.139E-02    0.01       1.0  T
  28   -297.3580381 -0.581174E-05  0.128E-02    0.01       1.0  T
  29   -297.3580640 -0.259335E-04  0.720E-03    0.01       1.1  T
  30   -297.3580744 -0.104050E-04  0.239E-03    0.01       3.3  T
  31   -297.3580723  0.208828E-05  0.381E-03    0.01       2.1  T
  32   -297.3580748 -0.245874E-05  0.196E-03    0.01       4.0  T
  33   -297.3580757 -0.879722E-06  0.299E-04    0.01      26.4  T
  34   -297.3580757 -0.139075E-07  0.174E-04    0.01      45.5  T
     SCC iter.                  ...        0 min,  2.185 sec
     gradient                   ...        0 min,  0.221 sec
 * total energy  :  -292.1957396 Eh     change       -0.3885757E-01 Eh
   gradient norm :     0.0917729 Eh/α   predicted    -0.3098268E-01 ( -20.27%)
   displ. norm   :     0.8482729 α      lambda       -0.4240261E-01
   maximum displ.:     0.5052776 α      in ANC's #32, #16, #56, ...

........................................................................
.............................. CYCLE   17 ..............................
........................................................................
   1   -297.3389695 -0.297339E+03  0.296E-01    0.01       0.0  T
   2   -296.2365493  0.110242E+01  0.220E+00    0.01       1.0  T
   3   -295.3830361  0.853513E+00  0.284E+00    0.01       1.0  T
   4   -296.8908586 -0.150782E+01  0.138E+00    0.00       1.0  T
   5   -296.8465283  0.443303E-01  0.145E+00    0.01       1.0  T
   6   -296.2377505  0.608778E+00  0.213E+00    0.03       1.0  T
   7   -296.6113522 -0.373602E+00  0.176E+00    0.03       1.0  T
   8   -296.7284450 -0.117093E+00  0.163E+00    0.01       1.0  T
   9   -296.2121876  0.516257E+00  0.214E+00    0.03       1.0  T
  10   -297.0189706 -0.806783E+00  0.119E+00    0.02       1.0  T
  11   -297.3107743 -0.291804E+00  0.423E-01    0.02       1.0  T
  12   -297.2909464  0.198279E-01  0.517E-01    0.01       1.0  T
  13   -297.3288157 -0.378693E-01  0.320E-01    0.00       1.0  T
  14   -297.3269023  0.191336E-02  0.327E-01    0.00       1.0  T
  15   -297.3339901 -0.708780E-02  0.277E-01    0.00       1.0  T
  16   -297.3427390 -0.874887E-02  0.203E-01    0.00       1.0  T
  17   -297.3426016  0.137390E-03  0.203E-01    0.00       1.0  T
  18   -297.3417217  0.879931E-03  0.210E-01    0.00       1.0  T
  19   -297.3443164 -0.259471E-02  0.180E-01    0.01       1.0  T
  20   -297.3463749 -0.205854E-02  0.154E-01    0.01       1.0  T
  21   -297.3471059 -0.730971E-03  0.143E-01    0.01       1.0  T
  22   -297.3490251 -0.191926E-02  0.114E-01    0.01       1.0  T
  23   -297.3494057 -0.380596E-03  0.108E-01    0.01       1.0  T
  24   -297.3511879 -0.178212E-02  0.681E-02    0.01       1.0  T
  25   -297.3519100 -0.722121E-03  0.424E-02    0.01       1.0  T
  26   -297.3523278 -0.417783E-03  0.126E-02    0.01       1.0  T
  27   -297.3523502 -0.224710E-04  0.838E-03    0.01       1.0  T
  28   -297.3523648 -0.145808E-04  0.360E-03    0.00       2.2  T
  29   -297.3523679 -0.313428E-05  0.566E-04    0.00      14.0  T
  30   -297.3523680 -0.579001E-07  0.242E-04    0.00      32.7  T
  31   -297.3523680 -0.867607E-08  0.137E-04    0.00      57.5  T
     SCC iter.                  ...        0 min,  1.992 sec
     gradient                   ...        0 min,  0.221 sec
 * total energy  :  -292.2372761 Eh     change       -0.4153651E-01 Eh
   gradient norm :     0.0884436 Eh/α   predicted    -0.3645708E-01 ( -12.23%)
   displ. norm   :     0.8970054 α      lambda       -0.5688428E-01
   maximum displ.:     0.3776943 α      in ANC's #32, #16, #56, ...

........................................................................
.............................. CYCLE   18 ..............................
........................................................................
   1   -297.2724886 -0.297272E+03  0.419E-01    0.01       0.0  T
   2   -295.1978498  0.207464E+01  0.295E+00    0.00       1.0  T
   3   -295.7657701 -0.567920E+00  0.254E+00    0.01       1.0  T
   4   -295.2118989  0.553871E+00  0.287E+00    0.02       1.0  T
   5   -297.0031712 -0.179127E+01  0.110E+00    0.03       1.0  T
   6   -295.7335154  0.126966E+01  0.245E+00    0.02       1.0  T
   7   -297.0539539 -0.132044E+01  0.101E+00    0.02       1.0  T
   8   -297.0852452 -0.312913E-01  0.951E-01    0.00       1.0  T
   9   -296.5291781  0.556067E+00  0.174E+00    0.02       1.0  T
  10   -297.2743808 -0.745203E+00  0.299E-01    0.01       1.0  T
  11   -297.2890058 -0.146250E-01  0.192E-01    0.00       1.0  T
  12   -297.2319416  0.570641E-01  0.509E-01    0.00       1.0  T
  13   -297.2827563 -0.508146E-01  0.236E-01    0.01       1.0  T
  14   -297.2959294 -0.131731E-01  0.752E-02    0.00       1.0  T
  15   -297.2962156 -0.286216E-03  0.618E-02    0.00       1.0  T
  16   -297.2965867 -0.371138E-03  0.382E-02    0.00       1.0  T
  17   -297.2964946  0.921351E-04  0.383E-02    0.00       1.0  T
  18   -297.2966644 -0.169751E-03  0.215E-02    0.00       1.0  T
  19   -297.2964965  0.167874E-03  0.330E-02    0.00       1.0  T
  20   -297.2964695  0.269686E-04  0.346E-02    0.00       1.0  T
  21   -297.2966890 -0.219522E-03  0.178E-02    0.00       1.0  T
  22   -297.2967676 -0.785539E-04  0.289E-03    0.00       2.7  T
  23   -297.2967673  0.283338E-06  0.269E-03    0.00       2.9  T
  24   -297.2967675 -0.145260E-06  0.238E-03    0.00       3.3  T
  25   -297.2967667  0.708134E-06  0.279E-03    0.00       2.8  T
  26   -297.2967683 -0.150698E-05  0.130E-03    0.00       6.1  T
  27   -297.2967687 -0.402489E-06  0.294E-04    0.00      26.9  T
  28   -297.2967686  0.608719E-08  0.335E-04    0.00      23.6  T
     SCC iter.                  ...        0 min,  1.800 sec
     gradient                   ...        0 min,  0.221 sec
 * total energy  :  -292.2760836 Eh     change       -0.3880749E-01 Eh
   gradient norm :     0.1314559 Eh/α   predicted    -0.5132722E-01 (  32.26%)
   displ. norm   :     0.6727278 α      lambda       -0.4128310E-01
   maximum displ.:     0.3755014 α      in ANC's #32, #16, #34, ...

........................................................................
.............................. CYCLE   19 ..............................
........................................................................
   1   -297.2993422 -0.297299E+03  0.195E-01    0.00       0.0  T
   2   -295.7214270  0.157792E+01  0.250E+00    0.03       1.0  T
   3   -295.8666619 -0.145235E+00  0.241E+00    0.02       1.0  T
   4   -295.4059408  0.460721E+00  0.277E+00    0.02       1.0  T
   5   -297.1007785 -0.169484E+01  0.914E-01    0.00       1.0  T
[...]
 193: 13.35 194:  4.30 195: 60.06 196: 24.96 197:****** 198: 79.38 199:223.55 200:168.83
 201:****** 202:101.21 203:  0.05 204: 12.21 205:648.66 206:191.18 207:  2.35 208:  7.54
 209:****** 210:  2.14 211:959.26 212: 26.13 213: 61.82 214: 64.11 215: 29.95 216:  2.97
 217:661.38 218:  4.84 219: 37.90 220:  6.01 221: 32.06 222: 53.78 223:  1.66 224:  5.52
 225: 15.92 226: 19.16 227:  0.24 228: 59.47 229:  2.50 230:  1.01 231:  1.96 232:  1.87
 233: 52.30 234:  6.79 235:  0.26 236:  0.94 237:  5.15 238: 36.98 239:244.54 240:  5.54
 241:  6.74 242:  8.05 243: 16.74 244:  2.60 245:  0.15 246:114.56 247:183.16 248: 15.54
 249: 96.38 250: 87.56 251: 53.55 252:  1.93 253: 36.22 254:  0.98 255: 13.32 256:  4.33
 257:  2.18 258:  1.98 259:  1.45 260:  6.70 261:  2.95 262: 26.36 263:  0.46 264:  6.36
 265: 11.77 266: 10.81 267:****** 268: 48.75 269:  1.18 270: 34.66 271:****** 272:  2.68
 273:  1.13 274:  0.11 275: 17.16 276:218.48 277:217.31 278: 60.87 279:  2.20 280:127.14
 281:****** 282: 26.44 283:  0.95 284:  1.70 285: 53.25 286: 13.33 287:133.35 288:  3.77
 289: 19.62 290:  0.63 291:762.43 292:  0.04 293: 47.37 294:  3.42 295: 12.69 296: 20.83
 297: 10.77 298: 42.97 299:  6.55 300:  9.98 301:****** 302:  0.61 303:  0.01 304:  9.04
 305:  0.42 306:  7.71 307:  1.70 308: 29.63 309: 23.56 310: 88.02 311:385.02 312: 82.19
 313:****** 314:206.74 315:****** 316: 28.78 317: 68.00 318:  1.49 319:176.97 320: 28.86
 321: 44.63 322:  0.74 323:****** 324:  2.77 325:  8.46 326:178.72 327:****** 328: 29.83
 329: 18.98 330: 16.81 331: 19.55 332: 37.39 333:  2.93 334:  2.99 335:  2.15 336:******
 337:226.97 338: 28.74 339: 79.36 340:  4.52 341: 12.91 342: 12.44 343:205.90 344: 76.28
 345: 10.41 346: 79.51 347:  2.53 348: 14.16 349:****** 350: 38.21 351: 36.25 352:  5.84
 353:****** 354: 28.93 355:  6.22 356: 12.44 357:  8.48 358:  0.97 359:  0.41 360: 11.22
 361:427.87 362: 15.20 363:  3.21 364:  6.83 365:  0.43 366: 23.13 367:  0.81 368:  0.23
 369: 40.09 370:  5.15 371: 13.56 372: 84.75 373:****** 374:  1.50 375: 11.92 376: 11.89
 377: 40.61 378: 37.08 379:****** 380: 89.30 381:  8.14 382:  0.09 383:  5.96 384: 17.36
 385: 22.27 386: 32.31 387: 53.62 388: 13.83 389:209.89 390: 27.67 391:****** 392: 99.81
 393:525.27 394: 16.27 395:  1.09 396: 10.60 397:  7.60 398:130.04 399:****** 400: 23.51
 401: 77.73 402: 43.25 403: 29.67 404:224.32 405:****** 406: 96.85 407:145.44 408:133.88
 409:379.11 410:  1.41 411: 33.92 412: 30.39 413: 28.51 414:  0.05 415:  6.54 416: 10.05
 417:293.99 418:  0.07 419: 11.71 420: 11.00 421:  8.63 422:351.71 423: 51.42 424:410.18
 425: 26.08 426:  1.91 427: 11.92 428:  0.60 429: 50.11 430:  0.08 431:418.21 432: 35.32
 433: 10.04 434:208.27 435:238.73 436:359.63 437: 17.26 438:200.03 439:****** 440:******
 441:****** 442: 88.15 443:****** 444:899.38 445: 33.41 446:557.49 447:****** 448:957.04
 449:  7.83 450:  9.42 451:723.21 452:714.45 453:  1.01 454:  6.40 455: 14.46 456:161.87
 457:  4.97 458: 35.94 459:****** 460:650.82 461: 45.98 462:130.18 463:407.53 464: 14.68
 465: 35.59 466: 41.01 467:****** 468:112.17 469:****** 470: 73.13 471: 24.77 472:******
 473:122.47 474:724.69 475:****** 476:****** 477:****** 478:****** 479:****** 480: 18.57
 Raman intensities (amu)
   1:  0.00   2:  0.00   3:  0.00   4:  0.00   5:  0.00   6:  0.00   7:  0.00   8:  0.00
   9:  0.00  10:  0.00  11:  0.00  12:  0.00  13:  0.00  14:  0.00  15:  0.00  16:  0.00
  17:  0.00  18:  0.00  19:  0.00  20:  0.00  21:  0.00  22:  0.00  23:  0.00  24:  0.00
  25:  0.00  26:  0.00  27:  0.00  28:  0.00  29:  0.00  30:  0.00  31:  0.00  32:  0.00
  33:  0.00  34:  0.00  35:  0.00  36:  0.00  37:  0.00  38:  0.00  39:  0.00  40:  0.00
  41:  0.00  42:  0.00  43:  0.00  44:  0.00  45:  0.00  46:  0.00  47:  0.00  48:  0.00
  49:  0.00  50:  0.00  51:  0.00  52:  0.00  53:  0.00  54:  0.00  55:  0.00  56:  0.00
  57:  0.00  58:  0.00  59:  0.00  60:  0.00  61:  0.00  62:  0.00  63:  0.00  64:  0.00
  65:  0.00  66:  0.00  67:  0.00  68:  0.00  69:  0.00  70:  0.00  71:  0.00  72:  0.00
  73:  0.00  74:  0.00  75:  0.00  76:  0.00  77:  0.00  78:  0.00  79:  0.00  80:  0.00
  81:  0.00  82:  0.00  83:  0.00  84:  0.00  85:  0.00  86:  0.00  87:  0.00  88:  0.00
  89:  0.00  90:  0.00  91:  0.00  92:  0.00  93:  0.00  94:  0.00  95:  0.00  96:  0.00
  97:  0.00  98:  0.00  99:  0.00 100:  0.00 101:  0.00 102:  0.00 103:  0.00 104:  0.00
 105:  0.00 106:  0.00 107:  0.00 108:  0.00 109:  0.00 110:  0.00 111:  0.00 112:  0.00
 113:  0.00 114:  0.00 115:  0.00 116:  0.00 117:  0.00 118:  0.00 119:  0.00 120:  0.00
 121:  0.00 122:  0.00 123:  0.00 124:  0.00 125:  0.00 126:  0.00 127:  0.00 128:  0.00
 129:  0.00 130:  0.00 131:  0.00 132:  0.00 133:  0.00 134:  0.00 135:  0.00 136:  0.00
 137:  0.00 138:  0.00 139:  0.00 140:  0.00 141:  0.00 142:  0.00 143:  0.00 144:  0.00
 145:  0.00 146:  0.00 147:  0.00 148:  0.00 149:  0.00 150:  0.00 151:  0.00 152:  0.00
 153:  0.00 154:  0.00 155:  0.00 156:  0.00 157:  0.00 158:  0.00 159:  0.00 160:  0.00
 161:  0.00 162:  0.00 163:  0.00 164:  0.00 165:  0.00 166:  0.00 167:  0.00 168:  0.00
 169:  0.00 170:  0.00 171:  0.00 172:  0.00 173:  0.00 174:  0.00 175:  0.00 176:  0.00
 177:  0.00 178:  0.00 179:  0.00 180:  0.00 181:  0.00 182:  0.00 183:  0.00 184:  0.00
 185:  0.00 186:  0.00 187:  0.00 188:  0.00 189:  0.00 190:  0.00 191:  0.00 192:  0.00
 193:  0.00 194:  0.00 195:  0.00 196:  0.00 197:  0.00 198:  0.00 199:  0.00 200:  0.00
 201:  0.00 202:  0.00 203:  0.00 204:  0.00 205:  0.00 206:  0.00 207:  0.00 208:  0.00
 209:  0.00 210:  0.00 211:  0.00 212:  0.00 213:  0.00 214:  0.00 215:  0.00 216:  0.00
 217:  0.00 218:  0.00 219:  0.00 220:  0.00 221:  0.00 222:  0.00 223:  0.00 224:  0.00
 225:  0.00 226:  0.00 227:  0.00 228:  0.00 229:  0.00 230:  0.00 231:  0.00 232:  0.00
 233:  0.00 234:  0.00 235:  0.00 236:  0.00 237:  0.00 238:  0.00 239:  0.00 240:  0.00
 241:  0.00 242:  0.00 243:  0.00 244:  0.00 245:  0.00 246:  0.00 247:  0.00 248:  0.00
 249:  0.00 250:  0.00 251:  0.00 252:  0.00 253:  0.00 254:  0.00 255:  0.00 256:  0.00
 257:  0.00 258:  0.00 259:  0.00 260:  0.00 261:  0.00 262:  0.00 263:  0.00 264:  0.00
 265:  0.00 266:  0.00 267:  0.00 268:  0.00 269:  0.00 270:  0.00 271:  0.00 272:  0.00
 273:  0.00 274:  0.00 275:  0.00 276:  0.00 277:  0.00 278:  0.00 279:  0.00 280:  0.00
 281:  0.00 282:  0.00 283:  0.00 284:  0.00 285:  0.00 286:  0.00 287:  0.00 288:  0.00
 289:  0.00 290:  0.00 291:  0.00 292:  0.00 293:  0.00 294:  0.00 295:  0.00 296:  0.00
 297:  0.00 298:  0.00 299:  0.00 300:  0.00 301:  0.00 302:  0.00 303:  0.00 304:  0.00
 305:  0.00 306:  0.00 307:  0.00 308:  0.00 309:  0.00 310:  0.00 311:  0.00 312:  0.00
 313:  0.00 314:  0.00 315:  0.00 316:  0.00 317:  0.00 318:  0.00 319:  0.00 320:  0.00
 321:  0.00 322:  0.00 323:  0.00 324:  0.00 325:  0.00 326:  0.00 327:  0.00 328:  0.00
 329:  0.00 330:  0.00 331:  0.00 332:  0.00 333:  0.00 334:  0.00 335:  0.00 336:  0.00
 337:  0.00 338:  0.00 339:  0.00 340:  0.00 341:  0.00 342:  0.00 343:  0.00 344:  0.00
 345:  0.00 346:  0.00 347:  0.00 348:  0.00 349:  0.00 350:  0.00 351:  0.00 352:  0.00
Refinement of some symmetry elements was terminated before convergence was reached.
Some symmetry elements may remain unidentified.
Molecule has no symmetry elements
It seems to be the C1 point group
 353:  0.00 354:  0.00 355:  0.00 356:  0.00 357:  0.00 358:  0.00 359:  0.00 360:  0.00
 361:  0.00 362:  0.00 363:  0.00 364:  0.00 365:  0.00 366:  0.00 367:  0.00 368:  0.00
 369:  0.00 370:  0.00 371:  0.00 372:  0.00 373:  0.00 374:  0.00 375:  0.00 376:  0.00
 377:  0.00 378:  0.00 379:  0.00 380:  0.00 381:  0.00 382:  0.00 383:  0.00 384:  0.00
 385:  0.00 386:  0.00 387:  0.00 388:  0.00 389:  0.00 390:  0.00 391:  0.00 392:  0.00
 393:  0.00 394:  0.00 395:  0.00 396:  0.00 397:  0.00 398:  0.00 399:  0.00 400:  0.00
 401:  0.00 402:  0.00 403:  0.00 404:  0.00 405:  0.00 406:  0.00 407:  0.00 408:  0.00
 409:  0.00 410:  0.00 411:  0.00 412:  0.00 413:  0.00 414:  0.00 415:  0.00 416:  0.00
 417:  0.00 418:  0.00 419:  0.00 420:  0.00 421:  0.00 422:  0.00 423:  0.00 424:  0.00
 425:  0.00 426:  0.00 427:  0.00 428:  0.00 429:  0.00 430:  0.00 431:  0.00 432:  0.00
 433:  0.00 434:  0.00 435:  0.00 436:  0.00 437:  0.00 438:  0.00 439:  0.00 440:  0.00
 441:  0.00 442:  0.00 443:  0.00 444:  0.00 445:  0.00 446:  0.00 447:  0.00 448:  0.00
 449:  0.00 450:  0.00 451:  0.00 452:  0.00 453:  0.00 454:  0.00 455:  0.00 456:  0.00
 457:  0.00 458:  0.00 459:  0.00 460:  0.00 461:  0.00 462:  0.00 463:  0.00 464:  0.00
 465:  0.00 466:  0.00 467:  0.00 468:  0.00 469:  0.00 470:  0.00 471:  0.00 472:  0.00
 473:  0.00 474:  0.00 475:  0.00 476:  0.00 477:  0.00 478:  0.00 479:  0.00 480:  0.00
 output can be read by thermo (or use thermo option).
 writing <g98.out> molden fake output.
 recommended (thermochemical) frequency scaling factor: 1.0
           -------------------------------------------------
          |             Thermodynamic Functions             |
           -------------------------------------------------

c1  symmetry found (for desy threshold:  0.10E+00) used in thermo
 inverting freq            1   13.459263805230544     
 inverting freq            2   13.216194454951815     
 inverting freq            3   5.2016977948059582     
 inverting freq            4   5.0135799857881977     

          ...................................................
          :                      SETUP                      :
          :.................................................:
          :  # frequencies                         474      :
          :  # imaginary freq.                       0      :
          :  linear?                             false      :
          :  only rotor calc.                    false      :
          :  symmetry                               c1      :
          :  rotational number                       1      :
          :  scaling factor                  1.0000000      :
          :  rotor cutoff                   50.0000000 cm⁻¹ :
          :  imag. cutoff                  -20.0000000 cm⁻¹ :
          :.................................................:

    mode    ω/cm⁻¹     T·S(HO)/kcal·mol⁻¹    T·S(FR)/kcal·mol⁻¹   T·S(vib)
   ------------------------------------------------------------------------
       1     13.46    -2.21252 (  0.52%)    -1.44532 ( 99.48%)    -1.44933
       2     13.22    -2.22331 (  0.49%)    -1.45072 ( 99.51%)    -1.45448
       3      5.20    -2.77570 (  0.01%)    -1.72696 ( 99.99%)    -1.72708
       4      5.01    -2.79752 (  0.01%)    -1.73787 ( 99.99%)    -1.73797
       5      1.12    -3.68613 (  0.00%)    -2.18217 (100.00%)    -2.18217
       6      1.64    -3.45831 (  0.00%)    -2.06826 (100.00%)    -2.06826
       7      2.65    -3.17421 (  0.00%)    -1.92622 (100.00%)    -1.92623
       8      3.76    -2.96861 (  0.00%)    -1.82342 (100.00%)    -1.82345
       9      4.09    -2.91772 (  0.00%)    -1.79797 (100.00%)    -1.79802
      10      4.35    -2.88117 (  0.01%)    -1.77969 ( 99.99%)    -1.77976
      11      7.82    -2.53391 (  0.06%)    -1.60605 ( 99.94%)    -1.60661
      12      8.28    -2.50034 (  0.08%)    -1.58927 ( 99.92%)    -1.58995
      13      9.52    -2.41779 (  0.13%)    -1.54799 ( 99.87%)    -1.54913
      14     17.42    -2.05980 (  1.45%)    -1.36893 ( 98.55%)    -1.37896
      15     20.22    -1.97146 (  2.61%)    -1.32473 ( 97.39%)    -1.34158
      16     20.70    -1.95750 (  2.86%)    -1.31774 ( 97.14%)    -1.33602
      17     22.64    -1.90460 (  4.03%)    -1.29127 ( 95.97%)    -1.31601
      18     22.73    -1.90222 (  4.10%)    -1.29008 ( 95.90%)    -1.31515
      19     24.07    -1.86824 (  5.10%)    -1.27307 ( 94.90%)    -1.30342
      20     27.89    -1.78121 (  8.82%)    -1.22950 ( 91.18%)    -1.27819
      21     29.33    -1.75134 ( 10.59%)    -1.21454 ( 89.41%)    -1.27139
      22     32.90    -1.68341 ( 15.79%)    -1.18051 ( 84.21%)    -1.25993
      23     36.61    -1.62035 ( 22.32%)    -1.14890 ( 77.68%)    -1.25414
      24     37.94    -1.59915 ( 24.91%)    -1.13828 ( 75.09%)    -1.25307
      25     60.79    -1.32124 ( 68.60%)    -0.99868 ( 31.40%)    -1.21995
      26     69.98    -1.23849 ( 79.33%)    -0.95696 ( 20.67%)    -1.18029
      27     72.53    -1.21753 ( 81.57%)    -0.94637 ( 18.43%)    -1.16756
      28     79.47    -1.16397 ( 86.45%)    -0.91929 ( 13.55%)    -1.13082
      29     88.19    -1.10310 ( 90.63%)    -0.88844 (  9.37%)    -1.08300
      30     91.63    -1.08080 ( 91.85%)    -0.87712 (  8.15%)    -1.06421
      31     95.86    -1.05447 ( 93.11%)    -0.86372 (  6.89%)    -1.04132
      32    100.82    -1.02514 ( 94.30%)    -0.84878 (  5.70%)    -1.01508
      33    100.87    -1.02484 ( 94.31%)    -0.84863 (  5.69%)    -1.01481
      34    101.43    -1.02165 ( 94.42%)    -0.84700 (  5.58%)    -1.01192
      35    102.57    -1.01515 ( 94.66%)    -0.84369 (  5.34%)    -1.00599
      36    105.46    -0.99902 ( 95.19%)    -0.83545 (  4.81%)    -0.99116
      37    105.90    -0.99665 ( 95.27%)    -0.83424 (  4.73%)    -0.98896
      38    116.40    -0.94193 ( 96.71%)    -0.80622 (  3.29%)    -0.93747
      39    117.35    -0.93727 ( 96.81%)    -0.80382 (  3.19%)    -0.93301
      40    117.46    -0.93670 ( 96.82%)    -0.80353 (  3.18%)    -0.93247
      41    119.02    -0.92909 ( 96.98%)    -0.79962 (  3.02%)    -0.92518
      42    119.06    -0.92893 ( 96.98%)    -0.79954 (  3.02%)    -0.92502
      43    128.09    -0.88684 ( 97.73%)    -0.77786 (  2.27%)    -0.88436
      44    137.30    -0.84711 ( 98.27%)    -0.75731 (  1.73%)    -0.84556
      45    165.08    -0.74263 ( 99.17%)    -0.70272 (  0.83%)    -0.74229
      46    167.80    -0.73345 ( 99.22%)    -0.69788 (  0.78%)    -0.73317
      47    174.99    -0.70994 ( 99.34%)    -0.68544 (  0.66%)    -0.70978
      48    182.01    -0.68804 ( 99.43%)    -0.67379 (  0.57%)    -0.68796
      49    183.20    -0.68440 ( 99.45%)    -0.67186 (  0.55%)    -0.68433
      50    184.48    -0.68055 ( 99.46%)    -0.66980 (  0.54%)    -0.68049
      51    185.61    -0.67717 ( 99.48%)    -0.66799 (  0.52%)    -0.67712
      52    189.14    -0.66674 ( 99.51%)    -0.66241 (  0.49%)    -0.66672
      53    189.40    -0.66599 ( 99.52%)    -0.66201 (  0.48%)    -0.66597
      54    190.17    -0.66373 ( 99.52%)    -0.66080 (  0.48%)    -0.66371
      55    191.59    -0.65961 ( 99.54%)    -0.65859 (  0.46%)    -0.65960
      56    193.30    -0.65471 ( 99.55%)    -0.65596 (  0.45%)    -0.65472
      57    225.54    -0.57070 ( 99.76%)    -0.61026 (  0.24%)    -0.57079
      58    226.10    -0.56936 ( 99.76%)    -0.60953 (  0.24%)    -0.56946
      59    226.32    -0.56886 ( 99.76%)    -0.60925 (  0.24%)    -0.56896
      60    226.65    -0.56806 ( 99.76%)    -0.60881 (  0.24%)    -0.56816
      61    226.68    -0.56799 ( 99.76%)    -0.60877 (  0.24%)    -0.56809
      62    229.23    -0.56200 ( 99.77%)    -0.60546 (  0.23%)    -0.56210
      63    229.29    -0.56187 ( 99.77%)    -0.60539 (  0.23%)    -0.56197
      64    231.04    -0.55779 ( 99.78%)    -0.60313 (  0.22%)    -0.55789
      65    234.01    -0.55098 ( 99.79%)    -0.59935 (  0.21%)    -0.55108
      66    235.97    -0.54653 ( 99.80%)    -0.59688 (  0.20%)    -0.54663
      67    239.93    -0.53767 ( 99.81%)    -0.59194 (  0.19%)    -0.53778
      68    240.03    -0.53746 ( 99.81%)    -0.59182 (  0.19%)    -0.53757
      69    243.06    -0.53081 ( 99.82%)    -0.58811 (  0.18%)    -0.53092
      70    243.09    -0.53075 ( 99.82%)    -0.58807 (  0.18%)    -0.53086
      71    244.58    -0.52751 ( 99.83%)    -0.58626 (  0.17%)    -0.52762
      72    248.94    -0.51820 ( 99.84%)    -0.58102 (  0.16%)    -0.51830
      73    248.97    -0.51814 ( 99.84%)    -0.58099 (  0.16%)    -0.51824
      74    249.58    -0.51686 ( 99.84%)    -0.58027 (  0.16%)    -0.51696
      75    249.86    -0.51627 ( 99.84%)    -0.57994 (  0.16%)    -0.51637
      76    249.88    -0.51622 ( 99.84%)    -0.57991 (  0.16%)    -0.51632
      77    251.80    -0.51220 ( 99.84%)    -0.57764 (  0.16%)    -0.51230
      78    257.17    -0.50117 ( 99.86%)    -0.57139 (  0.14%)    -0.50127
      79    263.61    -0.48829 ( 99.87%)    -0.56406 (  0.13%)    -0.48839
      80    264.32    -0.48690 ( 99.87%)    -0.56327 (  0.13%)    -0.48700
      81    265.33    -0.48492 ( 99.87%)    -0.56213 (  0.13%)    -0.48501
      82    265.45    -0.48468 ( 99.87%)    -0.56200 (  0.13%)    -0.48478
      83    265.94    -0.48373 ( 99.88%)    -0.56145 (  0.12%)    -0.48382
      84    265.97    -0.48367 ( 99.88%)    -0.56142 (  0.12%)    -0.48376
      85    266.75    -0.48216 ( 99.88%)    -0.56056 (  0.12%)    -0.48226
      86    266.77    -0.48212 ( 99.88%)    -0.56053 (  0.12%)    -0.48222
      87    293.12    -0.43407 ( 99.92%)    -0.53263 (  0.08%)    -0.43415
      88    296.66    -0.42805 ( 99.92%)    -0.52908 (  0.08%)    -0.42813
      89    299.15    -0.42386 ( 99.92%)    -0.52659 (  0.08%)    -0.42394
   ------------------------------------------------------------------------

   temp. (K)  partition function   enthalpy   heat capacity  entropy
                                   cal/mol     cal/K/mol   cal/K/mol   J/K/mol
 298.15  VIB  0.195E+55            58915.494    375.184    378.899
         ROT  0.338E+10              888.752      2.981     46.582
         INT  0.658E+64            59804.246    378.165    425.481
         TR   0.666E+29             1481.254      4.968     48.105
         TOT                       61285.4999   383.1334   473.5857  1981.4824

       T/K    H(0)-H(T)+PV         H(T)/Eh          T*S/Eh         G(T)/Eh
   ------------------------------------------------------------------------
    298.15    0.976647E-01    0.118498E+01    0.225016E+00    0.959962E+00
   ------------------------------------------------------------------------

         :::::::::::::::::::::::::::::::::::::::::::::::::::::
         ::                  THERMODYNAMIC                  ::
         :::::::::::::::::::::::::::::::::::::::::::::::::::::
         :: total free energy        -291.617938030297 Eh   ::
         ::.................................................::
         :: total energy             -292.577900493034 Eh   ::
         :: zero point energy           1.087313632043 Eh   ::
         :: G(RRHO) w/o ZPVE           -0.127351169306 Eh   ::
         :: G(RRHO) contrib.            0.959962462737 Eh   ::
         :::::::::::::::::::::::::::::::::::::::::::::::::::::
imag cut-off (cm-1) :    5.00
 found            4  significant imaginary frequencies
 writing imag mode distorted coords to xtbhess.xyz
 for further optimization.

optimized geometry written to: xtbopt.xyz


           -------------------------------------------------
          | TOTAL ENERGY             -292.577900493034 Eh   |
          | TOTAL ENTHALPY           -291.392922200203 Eh   |
          | TOTAL FREE ENERGY        -291.617938030297 Eh   |
          | GRADIENT NORM               0.000883908650 Eh/α |
          | HOMO-LUMO GAP               0.000411299509 eV   |
           -------------------------------------------------

------------------------------------------------------------------------
 * finished run on 2021/11/19 at 14:41:29.350     
------------------------------------------------------------------------
 total:
 * wall-time:     0 d,  0 h, 18 min,  7.113 sec
 *  cpu-time:     0 d,  0 h, 18 min,  7.113 sec
 * ratio c/w:     1.000 speedup
 SCF:
 * wall-time:     0 d,  0 h,  0 min,  8.668 sec
 *  cpu-time:     0 d,  0 h,  0 min,  8.668 sec
 * ratio c/w:     1.000 speedup
 ANC optimizer:
 * wall-time:     0 d,  0 h,  2 min,  8.286 sec
 *  cpu-time:     0 d,  0 h,  2 min,  8.275 sec
 * ratio c/w:     1.000 speedup
 analytical hessian:
 * wall-time:     0 d,  0 h, 15 min, 49.851 sec
 *  cpu-time:     0 d,  0 h, 15 min, 49.862 sec
 * ratio c/w:     1.000 speedup

