160
 energy: -290.899607738412 gnorm: 1.470437338907 xtb: 6.4.1 (bd6e46d)
Co       16.63705400000000    0.03435800000000   -0.01039200000000
C        18.96604500000000   -3.11243500000000    1.31229700000000
C        19.88215200000000   -2.16822700000000    1.26201500000000
C        19.47097200000000   -1.11432300000000    0.34072300000000
C        20.08984300000000    0.01002300000000   -0.00568700000000
C        19.38580100000000    1.22997100000000   -0.36979200000000
C        19.71391100000000    2.19002600000000   -1.21726600000000
C        18.67913100000000    3.20631100000000   -1.23416400000000
C        17.74286300000000    2.82984900000000   -0.38727200000000
N        18.14485400000000    1.59683800000000    0.17654500000000
C        16.48178900000000    3.47484800000000   -0.00812000000000
C        15.38657200000000    2.84006600000000    0.34264000000000
C        14.31294600000000    3.15802200000000    1.31166800000000
C        13.47538300000000    2.16126800000000    1.23450200000000
C        13.91368100000000    1.15758500000000    0.25405000000000
N        15.01861900000000    1.59643800000000   -0.23024200000000
C        13.30284600000000   -0.09568600000000   -0.15949800000000
C        13.96700700000000   -1.20019200000000   -0.41392300000000
C        13.59315800000000   -2.26313400000000   -1.37145000000000
C        14.54190500000000   -3.15689000000000   -1.28243100000000
C        15.52762900000000   -2.71944000000000   -0.29955300000000
N        15.17458300000000   -1.57363500000000    0.19724400000000
C        16.75851700000000   -3.37551000000000    0.14616800000000
C        17.88155800000000   -2.72964900000000    0.41328900000000
N        18.21015800000000   -1.48220800000000   -0.18511500000000
H        19.02630600000000   -4.02221600000000    1.92984300000000
H        20.79847900000000   -2.20817700000000    1.84006300000000
H        20.64127600000000    2.20682100000000   -1.81840900000000
H        18.69603000000000    4.11100000000000   -1.84678500000000
H        16.43406600000000    4.56965100000000   -0.01189800000000
H        14.26012500000000    4.03674700000000    1.93666000000000
H        12.56375300000000    2.12559800000000    1.85182600000000
H        12.20459600000000   -0.09277500000000   -0.25876900000000
H        12.72430200000000   -2.31559900000000   -2.02040000000000
H        14.53905900000000   -4.07319800000000   -1.88119000000000
H        16.72303500000000   -4.47131200000000    0.25809300000000
Co       67.11619399999999   -0.01301800000000   -0.01482500000000
C        64.78720300000001    2.83377400000000    1.86868000000000
C        63.87109600000000    1.91528500000000    1.64410600000000
C        64.28227500000000    1.05058800000000    0.54329200000000
C        63.66340500000000    0.01002300000000   -0.00568700000000
C        64.36744700000000   -1.12120200000000   -0.58979000000000
C        64.03933600000001   -1.90737400000000   -1.60065700000000
C        65.07411600000000   -2.90288300000000   -1.80579700000000
C        66.01038400000000   -2.69006700000000   -0.90376700000000
N        65.60839400000000   -1.58305500000000   -0.12099500000000
C        67.27145899999999   -3.39420800000000   -0.65085300000000
C        68.36667600000001   -2.83551500000000   -0.18842000000000
C        69.44030100000001   -3.32772000000000    0.70480200000000
C        70.27786399999999   -2.33395300000000    0.81388700000000
C        69.83956700000000   -1.16580500000000    0.03665200000000
N        68.73462900000000   -1.50719700000000   -0.52064700000000
C        70.45040200000000    0.14243100000000   -0.13721800000000
C        69.78624100000000    1.27496400000000   -0.18232400000000
C        70.16009000000000    2.49709000000000   -0.92603900000000
C        69.21134200000000    3.35881700000000   -0.67276100000000
C        68.22561899999999    2.74662200000000    0.21190300000000
N        68.57866400000000    1.52854400000000    0.48751300000000
C        66.99473100000000    3.30861700000000    0.77159700000000
C        65.87168900000000    2.62441200000000    0.91426500000000
N        65.54308899999999    1.50963700000000    0.09483000000000
H        64.72694100000000    3.61319900000000    2.64428400000000
H        62.95476800000001    1.84730400000000    2.21953200000000
H        63.11197100000000   -1.81235700000000   -2.19448100000000
H        65.05721699999999   -3.67821800000000   -2.57561700000000
H        67.31918100000000   -4.46930600000000   -0.85766700000000
H        69.49312300000000   -4.30713700000000    1.15592900000000
H        71.18949500000001   -2.41342500000000    1.42711300000000
H        71.54865200000000    0.15798600000000   -0.23530500000000
H        71.02894499999999    2.66903300000000   -1.55399200000000
H        69.21418799999999    4.37029800000000   -1.09113800000000
H        67.03021300000000    4.36463300000000    1.08486600000000
C        23.06185400000000    0.02115400000000   -0.00164500000000
C        24.27738700000000   -0.00419000000000   -0.01212500000000
C        25.69890400000000   -0.02561300000000   -0.01630100000000
C        26.90746600000000   -0.02782400000000   -0.01619600000000
C        28.32854100000000   -0.00886400000000   -0.01682300000000
C        29.53968300000000    0.02115400000000   -0.00164500000000
C        38.63703000000000    0.02115400000000   -0.00164500000000
C        39.85256300000000   -0.00419000000000   -0.01212500000000
C        41.27408000000000   -0.02561300000000   -0.01630100000000
C        42.48264100000001   -0.02782400000000   -0.01619600000000
C        43.90371700000000   -0.00886400000000   -0.01682300000000
C        45.11485900000001    0.02115400000000   -0.00164500000000
C        54.21220500000000    0.02115400000000   -0.00164500000000
C        55.42773800000001   -0.00419000000000   -0.01212500000000
C        56.84925500000000   -0.02561300000000   -0.01630100000000
C        58.05781700000001   -0.02782400000000   -0.01619600000000
C        59.47889200000000   -0.00886400000000   -0.01682300000000
C        60.69003400000000    0.02115400000000   -0.00164500000000
Co       34.12827300000000    0.03277100000000    0.00318300000000
C        31.84846300000000   -3.22867600000000   -0.90648300000000
C        30.89225300000000   -2.32932600000000   -1.00851000000000
C        31.28462800000000   -1.16702100000000   -0.20599400000000
C        30.64951100000000   -0.01574900000000    0.00627300000000
C        31.33496800000000    1.25885100000000    0.23250200000000
C        30.99967800000000    2.33745100000000    0.93674200000000
C        32.02421900000000    3.35676800000000    0.84616100000000
C        32.97481700000000    2.85984300000000    0.07279600000000
N        32.59782200000000    1.54323800000000   -0.34334700000000
C        34.22195600000000    3.47154500000000   -0.34407000000000
C        35.32350800000000    2.80428800000000   -0.67584100000000
C        36.31705400000000    3.05627200000000   -1.71001100000000
C        37.21093700000000    2.09541300000000   -1.60852700000000
C        36.83123900000000    1.18352900000000   -0.50455000000000
N        35.73632400000000    1.63284800000000    0.00281700000000
C        37.48844600000000   -0.01574900000000    0.00627300000000
C        36.86503500000000   -1.08493100000000    0.46778900000000
C        37.24374700000000   -2.01704600000000    1.54326500000000
C        36.30307900000000   -2.93119200000000    1.62913100000000
C        35.29477700000001   -2.63541300000000    0.63170400000000
N        35.63255200000000   -1.58203600000000   -0.01759100000000
C        34.04238400000000   -3.34242000000000    0.30051100000000
C        32.92850800000000   -2.74572400000000   -0.04683100000000
N        32.54639500000000   -1.46296700000000    0.37085200000000
H        31.84880700000000   -4.21975000000000   -1.39771800000000
H        29.98371900000000   -2.45102000000000   -1.58965800000000
H        30.07482600000000    2.45580200000000    1.51366800000000
H        32.05151400000000    4.34593200000000    1.30281100000000
H        34.30789600000000    4.56892200000000   -0.40609300000000
H        36.34972700000000    3.86248800000000   -2.43683500000000
H        38.10399900000000    1.98244500000000   -2.24230100000000
H        38.15849800000000   -1.94264000000000    2.15343500000000
H        36.32212500000000   -3.74480000000000    2.33739800000000
H        34.08086900000000   -4.44238000000000    0.35954700000000
Co       49.70344900000000    0.03277100000000    0.00318300000000
C        47.42363800000000   -3.22867600000000   -0.90648300000000
C        46.46742900000000   -2.32932600000000   -1.00851000000000
C        46.85980300000000   -1.16702100000000   -0.20599400000000
C        46.22468700000000   -0.01574900000000    0.00627300000000
C        46.91014400000000    1.25885100000000    0.23250200000000
C        46.57485300000000    2.33745100000000    0.93674200000000
C        47.59939500000000    3.35676800000000    0.84616100000000
C        48.54999200000000    2.85984300000000    0.07279600000000
N        48.17299800000000    1.54323800000000   -0.34334700000000
C        49.79713200000000    3.47154500000000   -0.34407000000000
C        50.89868300000000    2.80428800000000   -0.67584100000000
C        51.89223000000000    3.05627200000000   -1.71001100000000
C        52.78611300000000    2.09541300000000   -1.60852700000000
C        52.40641500000000    1.18352900000000   -0.50455000000000
N        51.31150000000001    1.63284800000000    0.00281700000000
C        53.06362200000000   -0.01574900000000    0.00627300000000
C        52.44021000000000   -1.08493100000000    0.46778900000000
C        52.81892300000000   -2.01704600000000    1.54326500000000
C        51.87825400000001   -2.93119200000000    1.62913100000000
C        50.86995300000001   -2.63541300000000    0.63170400000000
N        51.20772800000000   -1.58203600000000   -0.01759100000000
C        49.61756000000000   -3.34242000000000    0.30051100000000
C        48.50368300000001   -2.74572400000000   -0.04683100000000
N        48.12157100000000   -1.46296700000000    0.37085200000000
H        47.42398300000001   -4.21975000000000   -1.39771800000000
H        45.55889500000000   -2.45102000000000   -1.58965800000000
H        45.65000100000000    2.45580200000000    1.51366800000000
H        47.62669000000001    4.34593200000000    1.30281100000000
H        49.88307200000000    4.56892200000000   -0.40609300000000
H        51.92490200000001    3.86248800000000   -2.43683500000000
H        53.67917400000000    1.98244500000000   -2.24230100000000
H        53.73367300000001   -1.94264000000000    2.15343500000000
H        51.89730100000000   -3.74480000000000    2.33739800000000
H        49.65604400000000   -4.44238000000000    0.35954700000000
160
 energy: -291.419930925524 gnorm: 0.577140262159 xtb: 6.4.1 (bd6e46d)
Co       16.64377967117453    0.03313048495310   -0.00996777635227
C        18.96490700000370   -3.11948417096915    1.30773817615952
C        19.89218770955272   -2.16690577255200    1.26080261000681
C        19.46699889337196   -1.11760869392038    0.34410868373341
C        20.07447668735557    0.02517655804885   -0.00773523237014
C        19.37719281997896    1.22277633192348   -0.36153333594641
C        19.72228179793684    2.21194869693252   -1.23224742863005
C        18.70278867038094    3.20795914625952   -1.24569028928346
C        17.73557702001542    2.81239383369519   -0.37918696270449
N        18.12401337561224    1.57927612268738    0.17732234606965
C        16.49605507651562    3.47621405776144   -0.00957659812057
C        15.37674820974233    2.82813551909159    0.34362529557702
C        14.31650501832605    3.16434194763697    1.30124645185703
C        13.45651536846523    2.15457994927449    1.23735760683466
C        13.90843291700758    1.15769023200131    0.26488397139407
N        15.04642651756995    1.58134787460910   -0.22043596307105
C        13.29346127596093   -0.07886862315269   -0.15451726540470
C        13.97123652125187   -1.20510348271005   -0.41756698738548
C        13.58668423791685   -2.26067583666335   -1.36323449512827
C        14.54818405831052   -3.17236255472111   -1.28134032283647
C        15.53568873674612   -2.72730393080769   -0.30401718398237
N        15.18427622135104   -1.55311500144728    0.18214266413553
C        16.74340564312214   -3.38123736261855    0.14052655115699
C        17.88767850833090   -2.71627121265695    0.41450332137341
N        18.20146104826693   -1.47571686372459   -0.16716258698288
H        19.02162398739669   -4.01829519596640    1.92493846311388
H        20.80047202812269   -2.20288109454708    1.83831593331986
H        20.63854761128842    2.21132169638036   -1.81853089824007
H        18.69941210852441    4.10848893304106   -1.84700928406258
H        16.44234487642754    4.56753065227060   -0.00839114815546
H        14.26385064188844    4.03568707541777    1.93361427072179
H        12.56250951723560    2.12046104098571    1.85044624134492
H        12.20626356916894   -0.08884044311437   -0.26160839557179
H        12.72577074887249   -2.31028818853787   -2.01627437429614
H        14.54506181715728   -4.07442947537187   -1.87876792296704
H        16.72079968256176   -4.46830923755143    0.25811223459211
Co       67.10948867780866   -0.01189896588648   -0.01418128324033
C        64.78835947206056    2.84154695883830    1.86550930521087
C        63.86106496988430    1.91421641118998    1.64264047670815
C        64.28627918606314    1.05323782254754    0.54721860937881
C        63.67849646434470   -0.00439617744715   -0.01048797007762
C        64.37605776188062   -1.11565813453661   -0.58036810563577
C        64.03096720919835   -1.92612757052849   -1.61940869676491
C        65.05048558200713   -2.90237484579428   -1.81741621309019
C        66.01767035424798   -2.67444910423787   -0.89259158409423
N        65.62919336293686   -1.56593090735416   -0.11700545315003
C        67.25718336801214   -3.39529316783181   -0.65253815775933
C        68.37650020479485   -2.82397299587215   -0.18522782563605
C        69.43673379107700   -3.33199412628235    0.69338054679255
C        70.29673120260929   -2.32789823084448    0.81793032721618
C        69.84483348207181   -1.16791884089040    0.04727882435908
N        68.70681983311265   -1.49419653707791   -0.50821616284772
C        70.45979236590804    0.12497423750139   -0.13544168120315
C        69.78201387189999    1.28046897792106   -0.18500096289111
C        70.16656066838677    2.49314068822827   -0.91841981702840
C        69.20505535797409    3.37381861537489   -0.66881140258946
C        68.21755998996629    2.75519124150673    0.20897605734179
N        68.56896870592897    1.51117700745335    0.46886239666701
C        67.00984350373936    3.31530825756810    0.76711355046578
C        65.86556835571041    2.61106148902929    0.91298625789427
N        65.55178813062891    1.49992747524573    0.11131463097338
H        64.73162559572853    3.61025545014854    2.63873932652383
H        62.95277586668119    1.84242899410335    2.21683086392739
H        63.11470413778775   -1.81674892019795   -2.19545012298934
H        65.05383928935834   -3.67571150150390   -2.57537508111336
H        67.31090796622009   -4.46787933594843   -0.85383901736063
H        69.48939554692596   -4.30553002730972    1.15313230066463
H        71.19073965225908   -2.40812039647037    1.42670919592650
H        71.54698770700151    0.15464709473020   -0.23881977687988
H        71.02747529640030    2.66304737125607   -1.55092221235223
H        69.20818336071339    4.37105869260012   -1.08852824871924
H        67.03245005891166    4.36168795490061    1.08432791157207
C        23.06090019893636    0.02086371557529   -0.00143701026256
C        24.28604758506032   -0.00452097790455   -0.01198417343192
C        25.68315525345990   -0.02504247664722   -0.01631933394489
C        26.90784889812273   -0.02714816544228   -0.01623507198347
C        28.26656351712845   -0.00885070149976   -0.01646865029287
C        29.45915173259215    0.03111732927755   -0.00354885569103
C        38.70855131455807    0.02877622926909   -0.00108119932018
C        39.90517631257614   -0.00443666297280   -0.01141088934191
C        41.26606329479266   -0.02491372693534   -0.01712710513449
C        42.48745691714104   -0.02712702047306   -0.01625529193048
C        43.84283617203767   -0.00883673843104   -0.01645311347749
C        45.03451358330521    0.03106606059849   -0.00392423018397
C        54.28436488707180    0.02887014030808   -0.00080340249553
C        55.48123079256302   -0.00423165011911   -0.01121068575551
C        56.84707728101014   -0.02485977107584   -0.01714043518136
C        58.07151104406229   -0.02725259330011   -0.01647629513464
C        59.46955187877719   -0.00935972998584   -0.01650317846786
C        60.69229281060221    0.02066449449600   -0.00141754916567
Co       34.12255766228524    0.03362741762812    0.00274727277321
C        31.85131691305583   -3.24345955387977   -0.90298907194510
C        30.88900913235284   -2.32672118921334   -1.00369862326263
C        31.32658259155727   -1.18864987471235   -0.20955247389209
C        30.72155899983382   -0.00290202145318    0.00682543356831
C        31.37222745663295    1.26545804791695    0.22985791520726
C        30.99418990153031    2.35787908540418    0.94610680104337
C        32.00559775930876    3.35887825364062    0.85295214610145
C        32.98506808532410    2.84579092549245    0.06688408572112
N        32.62128365129123    1.53395649510187   -0.33552349614026
C        34.21088024585962    3.47419931936528   -0.34417370181476
C        35.33056099272489    2.79678563816926   -0.67666244454195
C        36.31897427640701    3.06301219427484   -1.70266766871942
C        37.22496361349791    2.08567013162010   -1.60773189591452
C        36.81898611801265    1.18829121118684   -0.51863790705914
N        35.70503799814245    1.62316917473682   -0.00586689079752
C        37.43942571876319   -0.00344021532057   -0.00040419944759
C        36.83285871561165   -1.10367303017612    0.47812306426003
C        37.25181588176839   -2.01279842679328    1.53707599166872
C        36.29836959708658   -2.94415714015032    1.62927855470396
C        35.28503618759733   -2.64558013768242    0.63886796779303
N        35.61643700519466   -1.55769961254154   -0.01280065020734
C        34.05941239565986   -3.35007889338065    0.30804936374362
C        32.91798822871758   -2.73707150348194   -0.05220476427863
N        32.56188343314324   -1.45517935917663    0.35159526191003
H        31.85143884091390   -4.21680298094668   -1.39514517538239
H        29.98479561189205   -2.44460422032632   -1.58668292976472
H        30.07557756287274    2.45700683052003    1.51363522368844
H        32.04570841092852    4.34223184223770    1.30389390031903
H        34.29869113564686    4.56574130901643   -0.40919529261755
H        36.34558404346220    3.86143026796801   -2.43246227704509
H        38.10283003071416    1.97869222184851   -2.23952283292455
H        38.15421545085410   -1.93922962521178    2.14801204473339
H        36.31804956520823   -3.74810692508351    2.33770761423875
H        34.08381339881947   -4.44074483143890    0.35797850618654
Co       49.69743914948248    0.03356761718894    0.00272479015491
C        47.42605557920834   -3.24342849430940   -0.90304741259752
C        46.46415342336178   -2.32715073513917   -1.00361396705067
C        46.90157619818878   -1.18818557174113   -0.20879096269503
C        46.29709765343930   -0.00326034989328    0.00669768364196
C        46.94723978637393    1.26561680174694    0.22966294125885
C        46.56938954870959    2.35783640513776    0.94609296800968
C        47.58070825397562    3.35882019855907    0.85295637937251
C        48.56041965800590    2.84580625388463    0.06676849716425
N        48.19656272739130    1.53391848443651   -0.33550050863706
C        49.78589750925871    3.47415582161072   -0.34403642193762
C        50.90589573254952    2.79678138517456   -0.67665938434430
C        51.89406736716694    3.06306254290279   -1.70263275381998
C        52.80011779107981    2.08559204847363   -1.60778916143579
C        52.39385085294483    1.18807343799914   -0.51932634841833
N        51.28050033654177    1.62317347246328   -0.00597364582167
C        53.01477302046528   -0.00382943749512   -0.00034578796876
C        52.40830051739761   -1.10339359379426    0.47843518923020
C        52.82710581129427   -2.01272904233096    1.53695263243061
C        51.87341328715619   -2.94401526623964    1.62930469069305
C        50.86065820672373   -2.64512588528029    0.63912016649238
N        51.19151025006093   -1.55790277436868   -0.01254090145546
C        49.63392327469540   -3.35018830305774    0.30763354135165
C        48.49369164798978   -2.73724145033405   -0.05191693908773
N        48.13743129557037   -1.45488620980158    0.35173215492540
H        47.42655407350716   -4.21679784455527   -1.39518317078679
H        45.55998895095382   -2.44463017613348   -1.58675633134102
H        45.65076112735641    2.45699651457938    1.51365993751876
H        47.62084918127644    4.34224624215317    1.30385538805826
H        49.87383964862652    4.56573141367301   -0.40917102241910
H        51.92074737722533    3.86144341267571   -2.43245617507105
H        53.67800925795765    1.97870013258422   -2.23949388699458
H        53.72941668516760   -1.93926359284954    2.14797923610903
H        51.89316986896061   -3.74806250091092    2.33769335329616
H        49.65897492031525   -4.44077350297177    0.35763367536731
160
 energy: -291.645253643845 gnorm: 0.284354909647 xtb: 6.4.1 (bd6e46d)
Co       16.65381135058972    0.03146602109735   -0.00844946963607
C        18.96490954469814   -3.12488344518950    1.29613171077711
C        19.90435996697798   -2.16595298305251    1.25486093046446
C        19.45824781687577   -1.11722191921135    0.35285466711750
C        20.04224255747638    0.04873956675174   -0.00892253044595
C        19.36115554870409    1.21737017796037   -0.35782811744916
C        19.72881116195933    2.23790459315814   -1.24242435370246
C        18.73182982307838    3.20591649768221   -1.24986844771016
C        17.72935910357638    2.78606684086813   -0.37341392552896
N        18.09070179052333    1.55037157408109    0.16410632316171
C        16.51602880885738    3.46867356166159   -0.00999644314637
C        15.37431088242935    2.80723209261282    0.34711024995030
C        14.31860254167445    3.16686846977153    1.28005975037350
C        13.43482254680018    2.15073605305188    1.23323764997882
C        13.90616764705514    1.15554395959723    0.28228309932870
N        15.09012167585325    1.54975100309311   -0.18822760034367
C        13.28644061702277   -0.05898203600231   -0.14698030513891
C        13.97859853117719   -1.20246952891955   -0.42619488166329
C        13.58287625745526   -2.26038633002210   -1.34613879798389
C        14.55218655520421   -3.19003441129460   -1.27267740941899
C        15.54630361954040   -2.73206095451793   -0.31323638881357
N        15.20546361852755   -1.51743969345500    0.14417810214453
C        16.72768259063215   -3.38244182338295    0.13300519313267
C        17.88777542466425   -2.69752499844489    0.41934064708454
N        18.18330183645220   -1.46168640692554   -0.13111473198105
H        19.01224079341667   -4.01269875054663    1.91406509847129
H        20.80659682000821   -2.19234782610737    1.83364598230689
H        20.63623278368412    2.21966787296951   -1.81876333048978
H        18.70525176355967    4.10364666549070   -1.84514430536285
H        16.45982710829648    4.55853221099510   -0.00473458943732
H        14.27107894467608    4.03155609245587    1.92320744804588
H        12.55669387201624    2.11074911124975    1.84758229026674
H        12.20816578172142   -0.08132395726705   -0.26388160044787
H        12.72931552808361   -2.30069843578610   -2.00552529389719
H        14.55659684839982   -4.07972662429276   -1.87308157325710
H        16.71840003669736   -4.46258951172572    0.25536202727207
Co       67.09949013223915   -0.01055008056634   -0.01238609014491
C        64.78837707667054    2.84901823094613    1.85511315257964
C        63.84889006028298    1.91441027133757    1.63659524027967
C        64.29501669391506    1.05128270728983    0.55572222773676
C        63.71029433893948   -0.02716969373585   -0.01604062544810
C        64.39203285309985   -1.11099393343394   -0.57572938354843
C        64.02440956779890   -1.94974170839606   -1.63417857862956
C        65.02146468270608   -2.89960808908693   -1.82112473247259
C        66.02387089281679   -2.64969077972140   -0.88201698832112
N        65.66241181686786   -1.53503296617877   -0.12464777533179
C        67.23719172787288   -3.38782166377242   -0.65153041950448
C        68.37893143942620   -2.80408261782722   -0.17790028069306
C        69.43462395338062   -3.33053840104839    0.67209576324524
C        70.31842200119834   -2.32334010352756    0.81459924660246
C        69.84712044140259   -1.16904207510573    0.06478067970807
N        68.66312503425907   -1.46913336748690   -0.47070154388556
C        70.46682247317734    0.10402894352284   -0.13172084554066
C        69.77466032537335    1.27948032637004   -0.19397952213737
C        70.17036273263199    2.48966807304028   -0.90167866874143
C        69.20104661518617    3.38957237126491   -0.65701505167819
C        68.20694564474124    2.76159030192180    0.20079305633512
N        68.54777400858100    1.48316149452916    0.42492948690057
C        67.02556157065578    3.31791231331168    0.75993421605629
C        65.86546539420782    2.59178324875111    0.91427338171473
N        65.56992192127466    1.47943199272023    0.14419807438736
H        64.74101151212669    3.60678317378549    2.62701564578154
H        62.94665430984280    1.83297125356471    2.21027337938169
H        63.11702899565589   -1.82491025411515   -2.19724866502869
H        65.04800459441863   -3.67130578220808   -2.57263575192158
H        67.29343644861065   -4.45972462795632   -0.84858747275810
H        69.48216226452168   -4.29953073054285    1.14368613251296
H        71.19655410676623   -2.39804034890802    1.42570143751314
H        71.54509354980449    0.14768427837475   -0.24243677352570
H        71.02392632478508    2.65162201090908   -1.54214103879461
H        69.19664468316115    4.37520125131386   -1.08196406511479
H        67.03485453828409    4.35659715085556    1.08055872810401
C        23.06247352702019    0.02037074445405   -0.00135953476472
C        24.29291363342694   -0.00481368324199   -0.01177188949141
C        25.66087233098241   -0.02391805783528   -0.01632807138623
C        26.89193011103857   -0.02629297687102   -0.01656301221050
C        28.21746105207116   -0.01034065378289   -0.01495012988652
C        29.43458153557956    0.04340708056177   -0.00600581548199
C        38.74004567909424    0.03521741532164    0.00137126816346
C        39.95058950833594   -0.00642457704946   -0.00980017906617
C        41.26587615120147   -0.02400577307691   -0.01814740375125
C        42.48732973566968   -0.02627834883686   -0.01670206175074
C        43.80219660395292   -0.01023551217187   -0.01505880831226
C        45.01470435517469    0.04350910325919   -0.00711602185714
C        54.32071225817644    0.03541930454464    0.00181383515853
C        55.53533446996200   -0.00603549547894   -0.00930102569940
C        56.86318762132685   -0.02365079433311   -0.01801954599632
C        58.09298811376787   -0.02595997238908   -0.01676856292003
C        59.46275527627284   -0.01027433631003   -0.01611150211573
C        60.69144706268460    0.01926835620381   -0.00140155453743
Co       34.11578970243573    0.03548952659242    0.00142085383971
C        31.85502477069630   -3.25965688735751   -0.89267316883769
C        30.88842486071340   -2.32494436412500   -0.99236852716827
C        31.35738093867361   -1.19878481238805   -0.21534402996345
C        30.75057119983269    0.02002251069071    0.00535240924760
C        31.41049037095106    1.26999225971454    0.22815391864368
C        30.99074693742647    2.38281923783652    0.95185989171904
C        31.98296300999394    3.35794277987160    0.85363823660930
C        32.99770004543303    2.82759143814627    0.06419867685402
N        32.66072284290646    1.51570651089296   -0.30561147092493
C        34.19431063035029    3.47376545389406   -0.34627390608881
C        35.33131985132469    2.78397503640873   -0.68051857454123
C        36.32450793778563    3.06816126798105   -1.68610491447856
C        37.24026238518336    2.07598956132651   -1.60065423525088
C        36.80809012945480    1.18587998289679   -0.53864669466222
N        35.65347653775213    1.59697397501555   -0.03571595860252
C        37.41948970321071    0.01262010533419   -0.01020815916226
C        36.80663990869440   -1.11258500198092    0.48800931158588
C        37.25569646665656   -2.01164101045957    1.52401604877337
C        36.29489732533857   -2.95990590359178    1.62178933984938
C        35.27017430762221   -2.65274624405237    0.64965915412260
N        35.58505420777561   -1.51533887817763    0.01353619577545
C        34.07709910348456   -3.35620664654965    0.31750049664194
C        32.91626917292606   -2.72926080504058   -0.06225184890400
N        32.59088685930814   -1.43965758705149    0.30648356739589
H        31.85705486485627   -4.21574360045943   -1.38917697676394
H        29.98801356696673   -2.43230076601429   -1.57801820198006
H        30.07608013860130    2.45968103958211    1.51260180704945
H        32.03460658624301    4.33549819391992    1.30410111286214
H        34.27905067236915    4.55952107377127   -0.41262682916905
H        36.33845052945350    3.85943735466239   -2.42059086525462
H        38.10359566394623    1.97072269789353   -2.23358635133526
H        38.14600273683319   -1.93364994780334    2.13603176912334
H        36.30998097428465   -3.75589742919411    2.33600784185194