 Entering Gaussian System
 *********************************************
 Gaussian 98:
 frequency output generated by the xtb code
 *********************************************
                         Standard orientation:
 --------------------------------------------------------------------
  Center     Atomic     Atomic              Coordinates (Angstroms)
  Number     Number      Type              X           Y           Z
 --------------------------------------------------------------------
    1         26             0       21.436620    0.001721   -0.010921
    2          6             0       23.937443   -3.385535    0.031634
    3          6             0       24.929203   -2.464106    0.032783
    4          6             0       24.288368   -1.184980    0.014355
    5          6             0       24.964271    0.039110    0.002038
    6          6             0       24.262886    1.248663   -0.011760
    7          6             0       24.876518    2.541116   -0.020792
    8          6             0       23.865420    3.441305   -0.021976
    9          6             0       22.641537    2.692940   -0.014440
   10          7             0       22.905761    1.348399   -0.010048
   11          6             0       21.399142    3.296527   -0.008621
   12          6             0       20.171418    2.664324   -0.006366
   13          6             0       18.927739    3.383877   -0.001972
   14          6             0       17.940515    2.460290   -0.010979
   15          6             0       18.583975    1.178562   -0.020128
   16          7             0       19.941715    1.316392   -0.015050
   17          6             0       17.926804   -0.035564   -0.035917
   18          6             0       18.609642   -1.235523   -0.039945
   19          6             0       17.993672   -2.530623   -0.054065
   20          6             0       19.000247   -3.433071   -0.043846
   21          6             0       20.228189   -2.687272   -0.024116
   22          7             0       19.969922   -1.344518   -0.024193
   23          6             0       21.468899   -3.293246   -0.003756
   24          6             0       22.698048   -2.663342    0.011902
   25          7             0       22.933727   -1.313500    0.003997
   26          1             0       24.017817   -4.455382    0.042258
   27          1             0       25.991357   -2.613344    0.044413
   28          1             0       25.935326    2.712859   -0.024365
   29          1             0       23.923097    4.512651   -0.027314
   30          1             0       21.387683    4.377358   -0.007006
   31          1             0       18.845456    4.453820    0.006384
   32          1             0       16.878060    2.609474   -0.011523
   33          1             0       16.847924   -0.046968   -0.044302
   34          1             0       16.934727   -2.702327   -0.069075
   35          1             0       18.940808   -4.504540   -0.048804
   36          1             0       21.480419   -4.374071   -0.000746
   37         26             0       62.339879    0.036734   -0.010392
   38          6             0       59.848072    3.375300    0.601765
   39          6             0       58.853850    2.470663    0.441387
   40          6             0       59.491370    1.210724    0.210146
   41          6             0       58.812288    0.007073   -0.002364
   42          6             0       59.510232   -1.185378   -0.216500
   43          6             0       58.892973   -2.456156   -0.442845
   44          6             0       59.901543   -3.344434   -0.605203
   45          6             0       61.127512   -2.610554   -0.476986
   46          7             0       60.867079   -1.286450   -0.239225
   47          6             0       62.368242   -3.207766   -0.585544
   48          6             0       63.597685   -2.588046   -0.478590
   49          6             0       64.839383   -3.299540   -0.607105
   50          6             0       65.829139   -2.391754   -0.452201
   51          6             0       65.189211   -1.127751   -0.229189
   52          7             0       63.831090   -1.260827   -0.246802
   53          6             0       65.849743    0.067217   -0.024438
   54          6             0       65.170271    1.250292    0.187213
   55          6             0       65.789906    2.524582    0.408661
   56          6             0       64.785791    3.414448    0.574863
   57          6             0       63.555700    2.681919    0.453876
   58          7             0       63.810222    1.359626    0.216330
   59          6             0       62.316568    3.280212    0.570500
   60          6             0       61.085633    2.662306    0.466848
   61          7             0       60.846409    1.334463    0.227495
   62          1             0       59.770514    4.428076    0.793605
   63          1             0       57.792053    2.619458    0.473525
   64          1             0       57.833684   -2.622741   -0.470215
   65          1             0       59.840883   -4.398771   -0.794566
   66          1             0       62.376762   -4.272016   -0.774279
   67          1             0       64.918714   -4.353767   -0.791303
   68          1             0       66.891180   -2.540974   -0.481905
   69          1             0       66.928665    0.076639   -0.029164
   70          1             0       66.849394    2.692179    0.430211
   71          1             0       64.848233    4.469246    0.762139
   72          1             0       62.308006    4.343957    0.762070
   73          6             0       26.361166    0.052629    0.003641
   74          6             0       27.579037    0.061633    0.001567
   75          6             0       28.921862    0.067643    0.001412
   76          6             0       30.139858    0.069469   -0.000130
   77          6             0       39.998939    0.049095   -0.020540
   78          6             0       41.217151    0.043265   -0.022024
   79          6             0       42.559704    0.036343   -0.022609
   80          6             0       43.777816    0.029425   -0.023108
   81          6             0       53.636477   -0.012587   -0.003070
   82          6             0       54.854415   -0.012783   -0.001443
   83          6             0       56.197375   -0.009892   -0.001024
   84          6             0       57.415208   -0.002973   -0.001134
   85         26             0       35.069439    0.060319   -0.011930
   86          6             0       32.595981   -3.323170    0.402140
   87          6             0       31.595285   -2.417004    0.299824
   88          6             0       32.223975   -1.141548    0.141761
   89          6             0       31.536258    0.067896   -0.002512
   90          6             0       32.228231    1.274396   -0.150184
   91          6             0       31.604260    2.552479   -0.305143
   92          6             0       32.608289    3.454280   -0.413355
   93          6             0       33.837678    2.720861   -0.323654
   94          7             0       33.583893    1.383682   -0.163750
   95          6             0       35.075349    3.329774   -0.391278
   96          6             0       36.310673    2.717042   -0.316107
   97          6             0       37.542647    3.447248   -0.395248
   98          6             0       38.543470    2.541311   -0.291723
   99          6             0       37.914974    1.263824   -0.150670
  100          7             0       36.559716    1.377895   -0.164699
  101          6             0       38.602710    0.052801   -0.019393
  102          6             0       37.910293   -1.155364    0.113911
  103          6             0       38.534054   -2.435542    0.250858
  104          6             0       37.529950   -3.337493    0.357129
  105          6             0       36.300735   -2.602023    0.284603
  106          7             0       36.554686   -1.263790    0.133541
  107          6             0       35.063252   -3.209523    0.365793
  108          6             0       33.827988   -2.595072    0.305812
  109          7             0       33.579172   -1.256692    0.147858
  110          1             0       32.525893   -4.386022    0.530741
  111          1             0       30.534565   -2.574328    0.326242
  112          1             0       30.544091    2.714352   -0.325716
  113          1             0       32.542077    4.517379   -0.541935
  114          1             0       35.077402    4.403487   -0.516429
  115          1             0       37.612599    4.511234   -0.514192
  116          1             0       39.604179    2.700065   -0.307238
  117          1             0       39.594129   -2.598724    0.261616
  118          1             0       37.595960   -4.401944    0.474017
  119          1             0       35.061311   -4.283359    0.489791
  120         26             0       48.707078    0.007367   -0.013903
  121          6             0       46.224933   -3.371123    0.385325
  122          6             0       45.226596   -2.462128    0.284852
  123          6             0       45.858477   -1.188152    0.128399
  124          6             0       45.174029    0.022600   -0.021162
  125          6             0       45.869720    1.227084   -0.169661
  126          6             0       45.249489    2.505917   -0.332755
  127          6             0       46.256055    3.406062   -0.431029
  128          6             0       47.483152    2.670920   -0.327343
  129          7             0       47.225605    1.333985   -0.170726
  130          6             0       48.722165    3.278791   -0.376036
  131          6             0       49.955617    2.664087   -0.288258
  132          6             0       51.189662    3.392927   -0.347376
  133          6             0       52.187797    2.484217   -0.242933
  134          6             0       51.555558    1.206366   -0.121230
  135          7             0       50.200693    1.323213   -0.146237
  136          6             0       52.239932   -0.007986   -0.006048
  137          6             0       51.544844   -1.216525    0.104714
  138          6             0       52.165294   -2.500052    0.224096
  139          6             0       51.158849   -3.400406    0.321382
  140          6             0       49.931573   -2.660678    0.260586
  141          7             0       50.188894   -1.321615    0.124074
  142          6             0       48.692418   -3.264863    0.341837
  143          6             0       47.458881   -2.646180    0.289395
  144          7             0       47.213421   -1.306739    0.135137
  145          1             0       46.152114   -4.434041    0.511832
  146          1             0       44.165486   -2.616844    0.310666
  147          1             0       44.189903    2.669486   -0.364714
  148          1             0       46.192999    4.469130   -0.561237
  149          1             0       48.727071    4.353103   -0.495772
  150          1             0       51.262763    4.457874   -0.455775
  151          1             0       53.248930    2.641078   -0.247669
  152          1             0       53.224970   -2.666125    0.231171
  153          1             0       51.222104   -4.466363    0.424989
  154          1             0       48.687449   -4.339478    0.458799
 --------------------------------------------------------------------
     1 basis functions        1 primitive gaussians
     1 alpha electrons        1 beta electrons

 Harmonic frequencies (cm**-1), IR intensities (km*mol⁻¹),
 Raman scattering activities (A**4/amu), Raman depolarization ratios,
 reduced masses (AMU), force constants (mDyne/A) and normal coordinates:
                      1                      2                      3
                        a                      a                      a 
 Frequencies --    -1.1212                 1.6907                 2.2462
 Red. masses --    11.6121                17.3187                17.0138
 Frc consts  --     0.0000                 0.0000                 0.0000
 IR Inten    --   605.8559                 4.9755                29.8070
 Raman Activ --     0.0000                 0.0000                 0.0000
 Depolar     --     0.0000                 0.0000                 0.0000
 Atom AN      X      Y      Z        X      Y      Z        X      Y      Z
   1  26    -0.00   0.01  -0.05     0.00  -0.02  -0.18     0.00  -0.18   0.02
   2   6    -0.01   0.00   0.18     0.00  -0.01  -0.08     0.05  -0.04   0.02
   3   6    -0.00   0.00   0.13     0.00  -0.00  -0.06     0.04  -0.03   0.02
   4   6    -0.00   0.00   0.06     0.00  -0.00  -0.06     0.02  -0.04   0.01
   5   6    -0.00   0.00  -0.01    -0.00  -0.00  -0.03     0.00  -0.03   0.00
   6   6     0.00   0.00  -0.08    -0.00  -0.00  -0.03    -0.02  -0.04  -0.00
   7   6     0.00  -0.00  -0.14    -0.00  -0.00  -0.01    -0.04  -0.03  -0.01
   8   6     0.00   0.00  -0.20    -0.00  -0.00  -0.01    -0.05  -0.05  -0.02
   9   6     0.00   0.00  -0.16    -0.00  -0.01  -0.04    -0.04  -0.06  -0.01
  10   7     0.00   0.00  -0.10    -0.00  -0.01  -0.05    -0.02  -0.07  -0.00
  11   6     0.00   0.00  -0.21    -0.00  -0.01  -0.05    -0.05  -0.08  -0.01
  12   6     0.00   0.01  -0.18    -0.00  -0.01  -0.07    -0.04  -0.10  -0.00
  13   6     0.00   0.01  -0.22    -0.00  -0.01  -0.09    -0.05  -0.12  -0.01
  14   6     0.00   0.01  -0.18    -0.00  -0.01  -0.11    -0.04  -0.14   0.00
  15   6     0.00   0.01  -0.11    -0.00  -0.01  -0.11    -0.02  -0.13   0.01
  16   7     0.00   0.01  -0.11    -0.00  -0.01  -0.10    -0.02  -0.11   0.00
  17   6     0.00   0.01  -0.04     0.00  -0.01  -0.14     0.00  -0.14   0.02
  18   6    -0.00   0.01   0.03     0.00  -0.01  -0.14     0.02  -0.13   0.02
  19   6    -0.00   0.01   0.10     0.00  -0.01  -0.16     0.04  -0.14   0.03
  20   6    -0.00   0.01   0.15     0.01  -0.01  -0.15     0.05  -0.12   0.03
  21   6    -0.00   0.01   0.12     0.00  -0.01  -0.13     0.04  -0.10   0.03
  22   7    -0.00   0.01   0.05     0.00  -0.01  -0.13     0.02  -0.11   0.02
  23   6    -0.00   0.01   0.16     0.00  -0.01  -0.11     0.05  -0.08   0.03
  24   6    -0.00   0.00   0.13     0.00  -0.01  -0.09     0.04  -0.06   0.02
  25   7    -0.00   0.00   0.06     0.00  -0.01  -0.08     0.02  -0.06   0.01
  26   1    -0.00   0.00   0.07     0.00  -0.00  -0.03     0.02  -0.01   0.01
  27   1    -0.00   0.00   0.04     0.00  -0.00  -0.01     0.01  -0.00   0.00
  28   1     0.00  -0.00  -0.04    -0.00  -0.00   0.00    -0.01  -0.00  -0.00
  29   1     0.00   0.00  -0.07    -0.00  -0.00  -0.00    -0.02  -0.01  -0.01
  30   1     0.00   0.00  -0.08    -0.00  -0.00  -0.01    -0.02  -0.02  -0.00
  31   1     0.00   0.00  -0.08    -0.00  -0.00  -0.02    -0.02  -0.04  -0.00
  32   1     0.00   0.00  -0.06    -0.00  -0.00  -0.04    -0.01  -0.04   0.00
  33   1     0.00   0.00  -0.01     0.00  -0.00  -0.04     0.00  -0.04   0.01
  34   1    -0.00   0.00   0.03     0.00  -0.00  -0.05     0.01  -0.04   0.01
  35   1    -0.00   0.00   0.06     0.00  -0.00  -0.05     0.02  -0.04   0.01
  36   1    -0.00   0.00   0.06     0.00  -0.00  -0.04     0.02  -0.02   0.01
  37  26     0.00   0.01  -0.04    -0.00  -0.02  -0.18     0.00  -0.18   0.02
  38   6    -0.00  -0.02   0.14     0.01   0.01  -0.10     0.05  -0.05   0.01
  39   6    -0.00  -0.02   0.10     0.01   0.00  -0.07     0.04  -0.03   0.00
  40   6    -0.00  -0.01   0.04     0.00  -0.00  -0.06     0.02  -0.04   0.00
  41   6    -0.00   0.00  -0.01     0.00  -0.00  -0.03    -0.00  -0.03   0.00
  42   6    -0.00   0.01  -0.07    -0.00  -0.01  -0.02    -0.02  -0.04   0.00
  43   6     0.00   0.02  -0.12    -0.01  -0.01   0.01    -0.04  -0.03   0.00
  44   6     0.00   0.03  -0.17    -0.01  -0.02   0.01    -0.05  -0.05   0.00
  45   6     0.00   0.02  -0.14    -0.01  -0.01  -0.02    -0.04  -0.06   0.00
  46   7    -0.00   0.01  -0.08    -0.01  -0.01  -0.04    -0.02  -0.07   0.01
  47   6     0.00   0.03  -0.17    -0.01  -0.02  -0.03    -0.05  -0.08   0.01
  48   6     0.00   0.03  -0.14    -0.01  -0.02  -0.06    -0.04  -0.10   0.01
  49   6     0.00   0.03  -0.18    -0.01  -0.02  -0.06    -0.05  -0.12   0.01
  50   6     0.00   0.03  -0.14    -0.01  -0.02  -0.10    -0.04  -0.14   0.01
  51   6     0.00   0.02  -0.08    -0.00  -0.02  -0.11    -0.02  -0.13   0.01
  52   7     0.00   0.02  -0.09    -0.01  -0.02  -0.09    -0.02  -0.11   0.01
  53   6     0.00   0.01  -0.02    -0.00  -0.01  -0.14     0.00  -0.14   0.01
  54   6     0.00  -0.00   0.03     0.00  -0.01  -0.15     0.02  -0.13   0.01
  55   6     0.00  -0.01   0.09     0.01  -0.00  -0.18     0.04  -0.14   0.01
  56   6     0.00  -0.02   0.13     0.01  -0.00  -0.18     0.05  -0.12   0.01
  57   6     0.00  -0.02   0.10     0.01  -0.00  -0.15     0.04  -0.10   0.01
  58   7     0.00  -0.00   0.04     0.01  -0.01  -0.14     0.02  -0.11   0.01
  59   6    -0.00  -0.02   0.13     0.01   0.00  -0.14     0.05  -0.08   0.01
  60   6    -0.00  -0.02   0.10     0.01   0.00  -0.11     0.04  -0.06   0.01
  61   7    -0.00  -0.01   0.05     0.01  -0.00  -0.09     0.02  -0.07   0.01
  62   1    -0.00  -0.01   0.05     0.00   0.00  -0.04     0.02  -0.01   0.00
  63   1    -0.00  -0.01   0.03     0.00   0.00  -0.02     0.01  -0.00   0.00
  64   1     0.00   0.01  -0.04    -0.00  -0.00   0.01    -0.01  -0.00   0.00
  65   1     0.00   0.01  -0.06    -0.00  -0.01   0.01    -0.02  -0.01   0.00
  66   1     0.00   0.01  -0.06    -0.00  -0.01  -0.00    -0.02  -0.02   0.00
  67   1     0.00   0.01  -0.07    -0.00  -0.01  -0.01    -0.02  -0.04   0.00
  68   1     0.00   0.01  -0.04    -0.00  -0.01  -0.03    -0.01  -0.04   0.00
  69   1     0.00   0.00  -0.01    -0.00  -0.00  -0.05     0.00  -0.04   0.00
  70   1     0.00  -0.00   0.03     0.00  -0.00  -0.06     0.01  -0.04   0.00
  71   1     0.00  -0.01   0.05     0.00   0.00  -0.06     0.02  -0.04   0.00
  72   1    -0.00  -0.01   0.05     0.00   0.00  -0.05     0.02  -0.02   0.00
  73   6    -0.00  -0.00   0.00    -0.00  -0.00  -0.02    -0.00  -0.01  -0.00
  74   6    -0.00  -0.00   0.01    -0.00  -0.00  -0.00    -0.00   0.01  -0.00
  75   6    -0.00  -0.00   0.01    -0.00   0.00   0.02    -0.00   0.02  -0.00
  76   6    -0.00  -0.00   0.01    -0.00   0.00   0.03    -0.00   0.04  -0.01
  77   6    -0.00  -0.01   0.03    -0.00   0.01   0.10    -0.00   0.11  -0.01
  78   6    -0.00  -0.01   0.03    -0.00   0.01   0.10    -0.00   0.11  -0.01
  79   6    -0.00  -0.01   0.02    -0.00   0.01   0.10    -0.00   0.11  -0.01
  80   6    -0.00  -0.01   0.02    -0.00   0.01   0.10    -0.00   0.11  -0.01
  81   6    -0.00  -0.00  -0.00     0.00   0.00   0.03    -0.00   0.04  -0.00
  82   6    -0.00  -0.00  -0.00     0.00   0.00   0.02    -0.00   0.02  -0.00
  83   6    -0.00   0.00  -0.01     0.00  -0.00   0.00    -0.00   0.01   0.00
  84   6    -0.00   0.00  -0.01     0.00  -0.00  -0.01    -0.00  -0.01   0.00
  85  26    -0.00  -0.01   0.06    -0.00   0.02   0.16    -0.00   0.16  -0.02
  86   6    -0.00   0.00   0.09    -0.00   0.00   0.03     0.02   0.06  -0.00
  87   6    -0.00   0.00   0.07    -0.00   0.00   0.03     0.02   0.05  -0.00
  88   6    -0.00  -0.00   0.05    -0.00   0.00   0.04     0.01   0.05  -0.01
  89   6    -0.00  -0.00   0.02    -0.00   0.00   0.04    -0.00   0.05  -0.01
  90   6     0.00  -0.01  -0.00     0.00   0.01   0.06    -0.01   0.05  -0.01
  91   6     0.00  -0.01  -0.03     0.00   0.01   0.07    -0.02   0.05  -0.01
  92   6     0.00  -0.01  -0.04     0.00   0.01   0.08    -0.03   0.06  -0.01
  93   6     0.00  -0.01  -0.03     0.00   0.01   0.09    -0.02   0.07  -0.01
  94   7     0.00  -0.01  -0.00     0.00   0.01   0.08    -0.01   0.07  -0.01
  95   6     0.00  -0.01  -0.03     0.00   0.01   0.10    -0.02   0.07  -0.01
  96   6     0.00  -0.01  -0.02     0.00   0.01   0.11    -0.02   0.08  -0.01
  97   6     0.00  -0.01  -0.03     0.00   0.01   0.12    -0.03   0.09  -0.01
  98   6     0.00  -0.01  -0.01     0.00   0.01   0.11    -0.02   0.10  -0.01
  99   6     0.00  -0.01   0.01     0.00   0.01   0.10    -0.01   0.10  -0.01
 100   7     0.00  -0.01   0.00     0.00   0.01   0.10    -0.01   0.09  -0.01
 101   6    -0.00  -0.01   0.03    -0.00   0.01   0.09    -0.00   0.10  -0.01
 102   6    -0.00  -0.00   0.05    -0.00   0.01   0.08     0.01   0.10  -0.01
 103   6    -0.00  -0.00   0.07    -0.00   0.01   0.08     0.02   0.10  -0.01
 104   6    -0.00   0.00   0.09    -0.00   0.01   0.07     0.02   0.09  -0.01
 105   6    -0.00   0.00   0.08    -0.00   0.01   0.07     0.02   0.08  -0.01
 106   7    -0.00  -0.00   0.06    -0.00   0.01   0.08     0.01   0.09  -0.01
 107   6    -0.00   0.00   0.09    -0.00   0.01   0.06     0.02   0.07  -0.01
 108   6    -0.00   0.00   0.08    -0.00   0.00   0.05     0.02   0.07  -0.01
 109   7    -0.00  -0.00   0.05    -0.00   0.01   0.06     0.01   0.07  -0.01
 110   1    -0.00   0.00   0.03    -0.00   0.00   0.01     0.01   0.02  -0.00
 111   1    -0.00   0.00   0.02    -0.00   0.00   0.01     0.01   0.01  -0.00
 112   1     0.00  -0.00  -0.01     0.00   0.00   0.02    -0.01   0.01  -0.00
 113   1     0.00  -0.00  -0.02     0.00   0.00   0.03    -0.01   0.02  -0.00
 114   1     0.00  -0.00  -0.02     0.00   0.00   0.03    -0.01   0.02  -0.00
 115   1     0.00  -0.00  -0.01     0.00   0.00   0.04    -0.01   0.03  -0.00
 116   1     0.00  -0.00  -0.00     0.00   0.00   0.03    -0.01   0.03  -0.00
 117   1    -0.00  -0.00   0.02    -0.00   0.00   0.02     0.01   0.03  -0.00
 118   1    -0.00   0.00   0.03    -0.00   0.00   0.02     0.01   0.03  -0.00
 119   1    -0.00   0.00   0.03    -0.00   0.00   0.01     0.01   0.02  -0.00
 120  26    -0.00  -0.01   0.02    -0.00   0.02   0.17    -0.00   0.16  -0.01
 121   6     0.00  -0.02  -0.08     0.00   0.01   0.10    -0.03   0.09  -0.03
 122   6     0.00  -0.01  -0.05     0.00   0.01   0.10    -0.02   0.10  -0.02
 123   6     0.00  -0.01  -0.01     0.00   0.01   0.09    -0.01   0.09  -0.01
 124   6    -0.00  -0.01   0.02    -0.00   0.01   0.10    -0.00   0.10  -0.01
 125   6    -0.00  -0.00   0.05    -0.00   0.01   0.10     0.01   0.10  -0.00
 126   6    -0.00   0.00   0.09    -0.00   0.01   0.10     0.02   0.10   0.01
 127   6    -0.00   0.01   0.11    -0.00   0.01   0.10     0.03   0.09   0.01
 128   6    -0.00   0.00   0.09    -0.00   0.01   0.09     0.02   0.08   0.01
 129   7    -0.00  -0.00   0.06    -0.00   0.01   0.10     0.01   0.09   0.00
 130   6    -0.00   0.01   0.11    -0.00   0.01   0.09     0.02   0.08   0.01
 131   6    -0.00   0.01   0.09    -0.00   0.01   0.07     0.02   0.07   0.01
 132   6    -0.00   0.01   0.11     0.00   0.01   0.06     0.03   0.06   0.02
 133   6    -0.00   0.01   0.08     0.00   0.00   0.05     0.02   0.05   0.01
 134   6    -0.00   0.00   0.04     0.00   0.01   0.06     0.01   0.05   0.00
 135   7    -0.00   0.00   0.05    -0.00   0.01   0.08     0.01   0.07   0.00
 136   6    -0.00  -0.00   0.00     0.00   0.00   0.05    -0.00   0.05  -0.00
 137   6     0.00  -0.01  -0.03    -0.00   0.01   0.06    -0.01   0.05  -0.01
 138   6     0.00  -0.01  -0.07    -0.00   0.01   0.06    -0.02   0.05  -0.02
 139   6     0.00  -0.01  -0.09    -0.00   0.01   0.07    -0.03   0.05  -0.02
 140   6     0.00  -0.01  -0.07    -0.00   0.01   0.08    -0.02   0.06  -0.02
 141   7     0.00  -0.01  -0.03    -0.00   0.01   0.08    -0.01   0.07  -0.01
 142   6     0.00  -0.01  -0.08     0.00   0.01   0.09    -0.03   0.07  -0.02
 143   6     0.00  -0.01  -0.06     0.00   0.01   0.09    -0.02   0.08  -0.02
 144   7     0.00  -0.01  -0.02     0.00   0.01   0.10    -0.01   0.09  -0.02
 145   1     0.00  -0.01  -0.03     0.00   0.00   0.03    -0.01   0.03  -0.01
 146   1     0.00  -0.00  -0.01     0.00   0.00   0.03    -0.01   0.03  -0.01
 147   1    -0.00   0.00   0.03    -0.00   0.00   0.03     0.01   0.03   0.00
 148   1    -0.00   0.00   0.04    -0.00   0.00   0.03     0.01   0.03   0.01
 149   1    -0.00   0.00   0.04    -0.00   0.00   0.03     0.01   0.02   0.01
 150   1    -0.00   0.00   0.04     0.00   0.00   0.02     0.01   0.02   0.01
 151   1    -0.00   0.00   0.02     0.00   0.00   0.01     0.01   0.01   0.00
 152   1     0.00  -0.00  -0.02    -0.00   0.00   0.01    -0.01   0.01  -0.01
 153   1     0.00  -0.00  -0.04    -0.00   0.00   0.02    -0.01   0.02  -0.01
 154   1     0.00  -0.00  -0.03     0.00   0.00   0.03    -0.01   0.02  -0.01
                      4                      5                      6
                        a                      a                      a 
 Frequencies --     3.0588                 4.0333                 4.7439
 Red. masses --    11.4018                17.1261                11.2111
 Frc consts  --     0.0000                 0.0000                 0.0000
 IR Inten    --    94.4840                57.7196                 2.7233
 Raman Activ --     0.0000                 0.0000                 0.0000
 Depolar     --     0.0000                 0.0000                 0.0000
 Atom AN      X      Y      Z        X      Y      Z        X      Y      Z
   1  26     0.00  -0.01  -0.03     0.00  -0.01  -0.08    -0.00  -0.00  -0.00
   2   6     0.00  -0.00  -0.10     0.01   0.00   0.01    -0.00  -0.00   0.11
   3   6     0.00  -0.00  -0.07     0.00   0.00   0.03    -0.00  -0.00   0.08
   4   6     0.00  -0.00  -0.04     0.00   0.00   0.02    -0.00  -0.00   0.04
   5   6     0.00  -0.00  -0.00    -0.00   0.00   0.03     0.00  -0.00   0.00
   6   6    -0.00  -0.00   0.03    -0.00   0.00   0.02     0.00  -0.00  -0.03
   7   6    -0.00  -0.00   0.07    -0.01   0.00   0.04     0.00  -0.00  -0.07
   8   6    -0.00  -0.00   0.09    -0.01   0.00   0.02     0.00  -0.00  -0.10
   9   6    -0.00  -0.01   0.07    -0.01  -0.00  -0.01     0.00  -0.00  -0.08
  10   7    -0.00  -0.01   0.03    -0.00  -0.00  -0.01     0.00  -0.00  -0.04
  11   6    -0.00  -0.01   0.08    -0.01  -0.01  -0.03     0.00  -0.00  -0.11
  12   6    -0.00  -0.01   0.06    -0.01  -0.01  -0.06     0.00  -0.00  -0.09
  13   6    -0.00  -0.01   0.08    -0.01  -0.01  -0.08     0.00   0.00  -0.12
  14   6    -0.00  -0.01   0.05    -0.00  -0.01  -0.11     0.00   0.00  -0.09
  15   6    -0.00  -0.01   0.01    -0.00  -0.01  -0.10     0.00  -0.00  -0.05
  16   7    -0.00  -0.01   0.02    -0.00  -0.01  -0.07     0.00  -0.00  -0.05
  17   6     0.00  -0.01  -0.03     0.00  -0.01  -0.11    -0.00  -0.00  -0.01
  18   6     0.00  -0.01  -0.06     0.00  -0.01  -0.10    -0.00  -0.00   0.03
  19   6     0.00  -0.01  -0.10     0.01  -0.01  -0.11    -0.00  -0.00   0.08
  20   6     0.00  -0.01  -0.13     0.01  -0.01  -0.09    -0.00  -0.00   0.11
  21   6     0.00  -0.01  -0.10     0.01  -0.01  -0.06    -0.00  -0.00   0.08
  22   7     0.00  -0.01  -0.06     0.00  -0.01  -0.08    -0.00  -0.00   0.04
  23   6     0.00  -0.01  -0.11     0.01  -0.00  -0.04    -0.00  -0.00   0.10
  24   6     0.00  -0.01  -0.09     0.01  -0.00  -0.01    -0.00  -0.00   0.08
  25   7     0.00  -0.01  -0.05     0.00  -0.00  -0.01    -0.00  -0.00   0.04
  26   1     0.00  -0.00  -0.04     0.00   0.00   0.00    -0.00  -0.00   0.04
  27   1     0.00  -0.00  -0.02     0.00   0.00   0.01    -0.00  -0.00   0.02
  28   1    -0.00  -0.00   0.02    -0.00   0.00   0.02     0.00  -0.00  -0.02
  29   1    -0.00  -0.00   0.04    -0.00   0.00   0.01     0.00  -0.00  -0.04
  30   1    -0.00  -0.00   0.03    -0.00  -0.00  -0.01     0.00  -0.00  -0.04
  31   1    -0.00  -0.00   0.03    -0.00  -0.00  -0.02     0.00   0.00  -0.04
  32   1    -0.00  -0.00   0.01    -0.00  -0.00  -0.04     0.00   0.00  -0.03
  33   1     0.00  -0.00  -0.01     0.00  -0.00  -0.04    -0.00  -0.00  -0.00
  34   1     0.00  -0.00  -0.03     0.00  -0.00  -0.04    -0.00  -0.00   0.02
  35   1     0.00  -0.00  -0.05     0.00  -0.00  -0.03    -0.00  -0.00   0.04
  36   1     0.00  -0.00  -0.04     0.00  -0.00  -0.01    -0.00  -0.00   0.04
  37  26    -0.00  -0.01  -0.01    -0.00   0.00   0.08     0.00  -0.00   0.00
  38   6     0.00  -0.03   0.15    -0.02   0.00  -0.05     0.00  -0.01   0.04
  39   6     0.00  -0.02   0.11    -0.01   0.00  -0.06     0.00  -0.00   0.03
  40   6     0.00  -0.01   0.05    -0.01  -0.00  -0.03     0.00  -0.00   0.01
  41   6    -0.00  -0.00  -0.01    -0.00  -0.00  -0.03     0.00   0.00  -0.00
  42   6    -0.00   0.01  -0.06     0.01  -0.00  -0.01    -0.00   0.00  -0.01
  43   6    -0.00   0.02  -0.12     0.01  -0.01  -0.01    -0.00   0.01  -0.03
  44   6    -0.00   0.03  -0.17     0.02  -0.01   0.02    -0.00   0.01  -0.04
  45   6    -0.00   0.02  -0.13     0.01  -0.00   0.04    -0.00   0.00  -0.03
  46   7    -0.00   0.01  -0.08     0.01  -0.00   0.02    -0.00   0.00  -0.02
  47   6    -0.00   0.02  -0.17     0.02  -0.00   0.07    -0.00   0.01  -0.04
  48   6    -0.00   0.02  -0.14     0.01  -0.00   0.09    -0.00   0.00  -0.03
  49   6    -0.00   0.02  -0.17     0.02  -0.00   0.12    -0.00   0.00  -0.04
  50   6    -0.00   0.01  -0.13     0.01   0.00   0.14    -0.00   0.00  -0.03
  51   6    -0.00   0.00  -0.06     0.01   0.00   0.11    -0.00  -0.00  -0.01
  52   7    -0.00   0.00  -0.08     0.01   0.00   0.09    -0.00   0.00  -0.02
  53   6    -0.00  -0.01  -0.00     0.00   0.01   0.11     0.00  -0.00   0.00
  54   6     0.00  -0.02   0.06    -0.01   0.01   0.09     0.00  -0.01   0.02
  55   6     0.00  -0.03   0.12    -0.01   0.01   0.09     0.00  -0.01   0.03
  56   6     0.00  -0.04   0.16    -0.02   0.01   0.06     0.00  -0.01   0.05
  57   6     0.00  -0.03   0.13    -0.01   0.01   0.04     0.00  -0.01   0.03
  58   7     0.00  -0.02   0.07    -0.01   0.01   0.06     0.00  -0.01   0.02
  59   6     0.00  -0.03   0.15    -0.02   0.01   0.00     0.00  -0.01   0.04
  60   6     0.00  -0.03   0.12    -0.01   0.01  -0.02     0.00  -0.01   0.03
  61   7     0.00  -0.02   0.06    -0.01   0.00  -0.01     0.00  -0.00   0.02
  62   1     0.00  -0.01   0.06    -0.01   0.00  -0.02     0.00  -0.00   0.02
  63   1     0.00  -0.01   0.03    -0.00  -0.00  -0.02     0.00  -0.00   0.01
  64   1    -0.00   0.01  -0.04     0.00  -0.00  -0.01    -0.00   0.00  -0.01
  65   1    -0.00   0.01  -0.06     0.01  -0.00   0.01    -0.00   0.00  -0.02
  66   1    -0.00   0.01  -0.06     0.01  -0.00   0.02    -0.00   0.00  -0.02
  67   1    -0.00   0.01  -0.07     0.01  -0.00   0.04    -0.00   0.00  -0.02
  68   1    -0.00   0.00  -0.04     0.00   0.00   0.05    -0.00   0.00  -0.01
  69   1    -0.00  -0.00  -0.00     0.00   0.00   0.04     0.00  -0.00   0.00
  70   1     0.00  -0.01   0.04    -0.00   0.00   0.03     0.00  -0.00   0.01
  71   1     0.00  -0.01   0.06    -0.01   0.00   0.01     0.00  -0.00   0.02
  72   1     0.00  -0.01   0.06    -0.01   0.00  -0.00     0.00  -0.00   0.02
  73   6     0.00  -0.00   0.00    -0.00   0.01   0.05     0.00  -0.00   0.00
  74   6     0.00  -0.00   0.01    -0.00   0.01   0.07     0.00  -0.00   0.00
  75   6     0.00   0.00   0.01    -0.00   0.01   0.09     0.00  -0.00   0.00
  76   6     0.00   0.00   0.01    -0.00   0.01   0.10     0.00  -0.00   0.00
  77   6     0.00   0.01   0.02    -0.00   0.01   0.04     0.00   0.00   0.00
  78   6     0.00   0.01   0.01    -0.00   0.00   0.01     0.00   0.00   0.00
  79   6     0.00   0.01   0.01    -0.00   0.00  -0.01     0.00   0.00   0.00
  80   6     0.00   0.01   0.01    -0.00  -0.00  -0.04     0.00   0.00  -0.00
  81   6    -0.00   0.00  -0.01    -0.00  -0.01  -0.10    -0.00   0.00  -0.00
  82   6    -0.00   0.00  -0.01    -0.00  -0.01  -0.09    -0.00   0.00  -0.00
  83   6    -0.00   0.00  -0.01    -0.00  -0.01  -0.07    -0.00   0.00  -0.00
  84   6    -0.00  -0.00  -0.01    -0.00  -0.01  -0.05    -0.00   0.00  -0.00
  85  26     0.00   0.01   0.05    -0.00   0.03   0.23     0.00   0.00   0.01
  86   6     0.00   0.02   0.12     0.00   0.01   0.12     0.00  -0.03  -0.20
  87   6     0.00   0.01   0.09     0.00   0.01   0.11     0.00  -0.02  -0.15
  88   6     0.00   0.01   0.05     0.00   0.01   0.11     0.00  -0.01  -0.07
  89   6     0.00   0.00   0.02    -0.00   0.01   0.11    -0.00  -0.00   0.00
  90   6    -0.00   0.00  -0.01    -0.00   0.01   0.12    -0.00   0.01   0.08
  91   6    -0.00  -0.00  -0.05    -0.00   0.02   0.13    -0.00   0.02   0.16
  92   6    -0.00  -0.01  -0.07    -0.00   0.02   0.14    -0.00   0.02   0.21
  93   6    -0.00  -0.00  -0.05    -0.00   0.02   0.13    -0.00   0.02   0.17
  94   7    -0.00   0.00  -0.02    -0.00   0.02   0.13    -0.00   0.01   0.09
  95   6    -0.00  -0.00  -0.07    -0.00   0.02   0.13    -0.00   0.02   0.21
  96   6    -0.00  -0.00  -0.06    -0.00   0.01   0.11    -0.00   0.02   0.17
  97   6    -0.00  -0.00  -0.08    -0.00   0.01   0.10    -0.00   0.02   0.21
  98   6    -0.00  -0.00  -0.06    -0.00   0.01   0.08    -0.00   0.02   0.15
  99   6    -0.00   0.00  -0.02    -0.00   0.01   0.08    -0.00   0.01   0.08
 100   7    -0.00   0.00  -0.02    -0.00   0.01   0.11    -0.00   0.01   0.09
 101   6     0.00   0.01   0.02    -0.00   0.01   0.06     0.00   0.00   0.00
 102   6     0.00   0.01   0.06    -0.00   0.01   0.07     0.00  -0.01  -0.07
 103   6     0.00   0.02   0.10     0.00   0.01   0.07     0.00  -0.01  -0.15
 104   6     0.00   0.02   0.13     0.00   0.01   0.09     0.00  -0.02  -0.21
 105   6     0.00   0.02   0.10     0.00   0.01   0.10     0.00  -0.02  -0.16
 106   7     0.00   0.01   0.07     0.00   0.01   0.10     0.00  -0.01  -0.08
 107   6     0.00   0.02   0.12     0.00   0.01   0.11     0.00  -0.02  -0.20
 108   6     0.00   0.01   0.10     0.00   0.01   0.12     0.00  -0.02  -0.16
 109   7     0.00   0.01   0.06     0.00   0.01   0.12     0.00  -0.01  -0.08
 110   1     0.00   0.01   0.04     0.00   0.00   0.04     0.00  -0.01  -0.08
 111   1     0.00   0.00   0.03     0.00   0.00   0.03     0.00  -0.01  -0.05
 112   1    -0.00  -0.00  -0.02    -0.00   0.00   0.04    -0.00   0.01   0.05
 113   1    -0.00  -0.00  -0.03    -0.00   0.01   0.04    -0.00   0.01   0.08
 114   1    -0.00  -0.00  -0.03    -0.00   0.01   0.04    -0.00   0.01   0.08
 115   1    -0.00  -0.00  -0.03    -0.00   0.00   0.03    -0.00   0.01   0.08
 116   1    -0.00  -0.00  -0.02    -0.00   0.00   0.02    -0.00   0.01   0.05
 117   1     0.00   0.01   0.03     0.00   0.00   0.02     0.00  -0.00  -0.05
 118   1     0.00   0.01   0.05     0.00   0.00   0.03     0.00  -0.01  -0.08
 119   1     0.00   0.01   0.04     0.00   0.00   0.03     0.00  -0.01  -0.08
 120  26    -0.00   0.01  -0.01    -0.00  -0.02  -0.23    -0.00   0.01  -0.01
 121   6    -0.00   0.03   0.17    -0.00  -0.01  -0.11    -0.00   0.02   0.14
 122   6    -0.00   0.02   0.13    -0.00  -0.01  -0.09    -0.00   0.01   0.10
 123   6    -0.00   0.01   0.06    -0.00  -0.01  -0.08    -0.00   0.01   0.05
 124   6     0.00   0.01   0.00    -0.00  -0.01  -0.06     0.00   0.00  -0.00
 125   6     0.00  -0.00  -0.06    -0.00  -0.01  -0.07     0.00  -0.00  -0.05
 126   6     0.00  -0.01  -0.12    -0.00  -0.01  -0.06     0.00  -0.01  -0.10
 127   6     0.00  -0.01  -0.17    -0.00  -0.01  -0.08     0.00  -0.01  -0.14
 128   6     0.00  -0.01  -0.13     0.00  -0.01  -0.09     0.00  -0.01  -0.11
 129   7     0.00  -0.00  -0.07    -0.00  -0.01  -0.10    -0.00  -0.00  -0.06
 130   6     0.00  -0.01  -0.17     0.00  -0.01  -0.11     0.00  -0.01  -0.14
 131   6     0.00  -0.01  -0.14     0.00  -0.01  -0.11     0.00  -0.01  -0.12
 132   6     0.00  -0.01  -0.17     0.00  -0.01  -0.12     0.00  -0.01  -0.15
 133   6     0.00  -0.01  -0.13     0.00  -0.01  -0.11     0.00  -0.01  -0.11
 134   6     0.00  -0.00  -0.06    -0.00  -0.01  -0.11     0.00  -0.00  -0.05
 135   7     0.00  -0.00  -0.08    -0.00  -0.01  -0.12     0.00  -0.00  -0.06
 136   6    -0.00   0.00  -0.01    -0.00  -0.01  -0.11    -0.00   0.00  -0.00
 137   6    -0.00   0.01   0.05    -0.00  -0.01  -0.12    -0.00   0.01   0.05
 138   6    -0.00   0.01   0.11    -0.00  -0.01  -0.13    -0.00   0.01   0.10
 139   6    -0.00   0.02   0.16    -0.00  -0.01  -0.14    -0.00   0.02   0.14
 140   6    -0.00   0.02   0.12    -0.00  -0.01  -0.13    -0.00   0.01   0.11
 141   7    -0.00   0.01   0.06    -0.00  -0.01  -0.13    -0.00   0.01   0.06
 142   6    -0.00   0.02   0.16    -0.00  -0.01  -0.14    -0.00   0.02   0.14
 143   6    -0.00   0.02   0.13    -0.00  -0.01  -0.12    -0.00   0.01   0.11
 144   7    -0.00   0.01   0.07    -0.00  -0.01  -0.11    -0.00   0.01   0.06
 145   1    -0.00   0.01   0.06    -0.00  -0.00  -0.04    -0.00   0.01   0.05
 146   1    -0.00   0.01   0.04    -0.00  -0.00  -0.02    -0.00   0.00   0.03
 147   1     0.00  -0.00  -0.04    -0.00  -0.00  -0.01     0.00  -0.00  -0.03
 148   1     0.00  -0.01  -0.06    -0.00  -0.00  -0.02     0.00  -0.01  -0.05
 149   1     0.00  -0.01  -0.06     0.00  -0.00  -0.03     0.00  -0.01  -0.05
 150   1     0.00  -0.01  -0.06     0.00  -0.00  -0.03     0.00  -0.00  -0.06
 151   1     0.00  -0.00  -0.04     0.00  -0.00  -0.03     0.00  -0.00  -0.03
 152   1    -0.00   0.00   0.03    -0.00  -0.00  -0.04    -0.00   0.00   0.03
 153   1    -0.00   0.01   0.06    -0.00  -0.00  -0.04    -0.00   0.01   0.05
 154   1    -0.00   0.01   0.06    -0.00  -0.00  -0.04    -0.00   0.01   0.05
                      7                      8                      9
                        a                      a                      a 
 Frequencies --     5.7648                 9.7403                10.0966
 Red. masses --    14.6441                11.5317                11.6466
 Frc consts  --     0.0000                 0.0000                 0.0000
 IR Inten    --    46.7743                15.2746                19.7384
 Raman Activ --     0.0000                 0.0000                 0.0000
 Depolar     --     0.0000                 0.0000                 0.0000
 Atom AN      X      Y      Z        X      Y      Z        X      Y      Z
   1  26    -0.00   0.06  -0.01     0.00   0.01  -0.00     0.00   0.00   0.02
   2   6    -0.09  -0.04   0.00     0.08   0.07  -0.02     0.02   0.01   0.12
   3   6    -0.06  -0.06   0.01     0.06   0.09  -0.02     0.01   0.02   0.14
   4   6    -0.03  -0.04   0.00     0.03   0.07  -0.02     0.01   0.02   0.11
   5   6    -0.00  -0.06   0.01    -0.00   0.09  -0.02     0.00   0.02   0.12
   6   6     0.03  -0.04   0.01    -0.03   0.07  -0.02    -0.01   0.02   0.11
   7   6     0.06  -0.06   0.01    -0.06   0.09  -0.02    -0.01   0.02   0.14
   8   6     0.08  -0.03   0.01    -0.08   0.06  -0.02    -0.02   0.01   0.12
   9   6     0.07  -0.00   0.00    -0.07   0.03  -0.01    -0.01   0.01   0.07
  10   7     0.03  -0.01   0.00    -0.03   0.04  -0.01    -0.01   0.01   0.07
  11   6     0.08   0.03   0.00    -0.08   0.00  -0.00    -0.02   0.00   0.03
  12   6     0.07   0.06  -0.00    -0.07  -0.03   0.01    -0.01  -0.01  -0.03
  13   6     0.08   0.09  -0.01    -0.08  -0.06   0.01    -0.02  -0.01  -0.09
  14   6     0.06   0.12  -0.01    -0.06  -0.08   0.02    -0.01  -0.02  -0.15
  15   6     0.03   0.10  -0.01    -0.03  -0.07   0.02    -0.00  -0.01  -0.12
  16   7     0.03   0.07  -0.01    -0.03  -0.04   0.01    -0.01  -0.01  -0.06
  17   6    -0.00   0.12  -0.02     0.00  -0.08   0.03     0.00  -0.02  -0.16
  18   6    -0.03   0.10  -0.02     0.03  -0.07   0.02     0.01  -0.01  -0.13
  19   6    -0.07   0.11  -0.02     0.06  -0.08   0.02     0.02  -0.02  -0.15
  20   6    -0.09   0.09  -0.02     0.08  -0.06   0.01     0.02  -0.01  -0.09
  21   6    -0.07   0.06  -0.01     0.07  -0.03   0.01     0.01  -0.00  -0.03
  22   7    -0.04   0.07  -0.01     0.04  -0.03   0.01     0.01  -0.01  -0.06
  23   6    -0.08   0.03  -0.01     0.08   0.00  -0.00     0.02   0.00   0.03
  24   6    -0.07  -0.00  -0.00     0.07   0.04  -0.01     0.01   0.01   0.07
  25   7    -0.04  -0.01   0.00     0.04   0.04  -0.01     0.01   0.01   0.07
  26   1    -0.03  -0.01   0.00     0.03   0.02  -0.01     0.01   0.00   0.04
  27   1    -0.02  -0.03   0.00     0.02   0.03  -0.01     0.00   0.01   0.05
  28   1     0.02  -0.02   0.00    -0.02   0.03  -0.01    -0.00   0.01   0.05
  29   1     0.03  -0.01   0.00    -0.03   0.02  -0.01    -0.01   0.00   0.04
  30   1     0.03   0.01   0.00    -0.03   0.00  -0.00    -0.01   0.00   0.01
  31   1     0.03   0.03  -0.00    -0.03  -0.02   0.00    -0.01  -0.00  -0.02
  32   1     0.02   0.04  -0.01    -0.02  -0.03   0.01    -0.00  -0.01  -0.06
  33   1    -0.00   0.04  -0.01     0.00  -0.03   0.01     0.00  -0.01  -0.06
  34   1    -0.02   0.04  -0.01     0.02  -0.03   0.01     0.01  -0.01  -0.06
  35   1    -0.03   0.03  -0.01     0.03  -0.02   0.00     0.01  -0.00  -0.02
  36   1    -0.03   0.01  -0.00     0.03   0.00  -0.00     0.01   0.00   0.01
  37  26     0.00  -0.06   0.01     0.00   0.01  -0.00    -0.00   0.00   0.02
  38   6     0.08   0.04  -0.01     0.08   0.07  -0.03     0.03   0.00   0.12
  39   6     0.06   0.06  -0.01     0.06   0.09  -0.03     0.02   0.01   0.14
  40   6     0.03   0.04  -0.01     0.03   0.08  -0.02     0.01   0.01   0.11
  41   6     0.00   0.06  -0.01     0.00   0.09  -0.02    -0.00   0.01   0.12
  42   6    -0.03   0.04  -0.00    -0.03   0.08  -0.02    -0.01   0.01   0.11
  43   6    -0.06   0.06  -0.01    -0.06   0.09  -0.03    -0.02   0.01   0.14
  44   6    -0.08   0.03  -0.00    -0.08   0.07  -0.03    -0.03   0.00   0.12
  45   6    -0.06   0.00   0.00    -0.06   0.04  -0.02    -0.02   0.00   0.07
  46   7    -0.03   0.01   0.00    -0.03   0.05  -0.02    -0.01   0.00   0.07
  47   6    -0.08  -0.03   0.01    -0.08   0.00  -0.01    -0.03  -0.00   0.03
  48   6    -0.06  -0.06   0.01    -0.06  -0.03   0.01    -0.02  -0.00  -0.03
  49   6    -0.08  -0.09   0.02    -0.08  -0.06   0.02    -0.03  -0.01  -0.09
  50   6    -0.06  -0.12   0.03    -0.06  -0.09   0.03    -0.02  -0.00  -0.15
  51   6    -0.03  -0.10   0.02    -0.03  -0.07   0.03    -0.01  -0.00  -0.12
  52   7    -0.03  -0.07   0.02    -0.03  -0.04   0.01    -0.01  -0.00  -0.06
  53   6     0.00  -0.12   0.02     0.00  -0.09   0.04    -0.00  -0.00  -0.16
  54   6     0.03  -0.10   0.02     0.03  -0.07   0.03     0.01  -0.00  -0.12
  55   6     0.06  -0.12   0.02     0.06  -0.09   0.04     0.02  -0.00  -0.15
  56   6     0.09  -0.09   0.01     0.08  -0.06   0.02     0.03  -0.00  -0.09
  57   6     0.07  -0.06   0.01     0.06  -0.03   0.01     0.02  -0.00  -0.03
  58   7     0.04  -0.07   0.01     0.04  -0.04   0.02     0.01  -0.00  -0.06
  59   6     0.08  -0.03  -0.00     0.08   0.01  -0.01     0.03  -0.00   0.03
  60   6     0.07   0.00  -0.01     0.06   0.04  -0.02     0.02   0.00   0.07
  61   7     0.04   0.01  -0.00     0.03   0.05  -0.02     0.01   0.01   0.07
  62   1     0.03   0.01  -0.00     0.03   0.02  -0.01     0.01   0.00   0.04
  63   1     0.02   0.03  -0.01     0.02   0.03  -0.01     0.01   0.00   0.05
  64   1    -0.02   0.02  -0.00    -0.02   0.03  -0.01    -0.01   0.00   0.05
  65   1    -0.03   0.01  -0.00    -0.03   0.02  -0.01    -0.01   0.00   0.04
  66   1    -0.03  -0.01   0.00    -0.03   0.00  -0.00    -0.01  -0.00   0.01
  67   1    -0.03  -0.03   0.01    -0.03  -0.02   0.00    -0.01  -0.00  -0.02
  68   1    -0.02  -0.04   0.01    -0.02  -0.03   0.01    -0.01  -0.00  -0.06
  69   1     0.00  -0.04   0.01     0.00  -0.03   0.02    -0.00  -0.00  -0.06
  70   1     0.02  -0.04   0.01     0.02  -0.03   0.01     0.01  -0.00  -0.06
  71   1     0.03  -0.03   0.00     0.03  -0.02   0.01     0.01  -0.00  -0.02
  72   1     0.03  -0.01  -0.00     0.03   0.00  -0.00     0.01  -0.00   0.01
  73   6    -0.00  -0.09   0.01    -0.00   0.12  -0.02     0.00   0.02   0.14
  74   6    -0.00  -0.11   0.01    -0.00   0.13  -0.02     0.00   0.03   0.14
  75   6    -0.00  -0.12   0.01    -0.00   0.13  -0.02     0.00   0.03   0.13
  76   6    -0.00  -0.13   0.01    -0.00   0.11  -0.02     0.00   0.02   0.11
  77   6    -0.00  -0.03   0.00    -0.00  -0.13   0.02    -0.00  -0.02  -0.12
  78   6    -0.00  -0.01  -0.00    -0.00  -0.14   0.02    -0.00  -0.03  -0.12
  79   6    -0.00   0.01  -0.00    -0.00  -0.14   0.02    -0.00  -0.03  -0.12
  80   6     0.00   0.03  -0.00    -0.00  -0.13   0.02    -0.00  -0.03  -0.12
  81   6     0.00   0.13  -0.01     0.00   0.11  -0.02    -0.00   0.02   0.11
  82   6     0.00   0.12  -0.01     0.00   0.13  -0.02    -0.00   0.03   0.13
  83   6     0.00   0.11  -0.01     0.00   0.13  -0.02    -0.00   0.02   0.14
  84   6     0.00   0.09  -0.01     0.00   0.12  -0.02    -0.00   0.02   0.14
  85  26    -0.00  -0.17   0.02    -0.00  -0.02   0.00    -0.00  -0.01  -0.03
  86   6     0.04  -0.10   0.01    -0.09   0.05  -0.01    -0.01   0.01   0.05
  87   6     0.03  -0.11   0.01    -0.06   0.08  -0.01    -0.00   0.02   0.08
  88   6     0.01  -0.11   0.01    -0.03   0.06  -0.01    -0.00   0.01   0.06
  89   6    -0.00  -0.11   0.01    -0.00   0.08  -0.01     0.00   0.02   0.08
  90   6    -0.01  -0.11   0.01     0.03   0.06  -0.01     0.00   0.01   0.06
  91   6    -0.03  -0.11   0.01     0.06   0.08  -0.01     0.01   0.02   0.08
  92   6    -0.04  -0.10   0.01     0.09   0.05  -0.01     0.01   0.01   0.05
  93   6    -0.03  -0.09   0.01     0.07   0.02  -0.00     0.01   0.00   0.01
  94   7    -0.02  -0.10   0.01     0.04   0.03  -0.00     0.00   0.01   0.03
  95   6    -0.03  -0.08   0.01     0.08  -0.01   0.00     0.01  -0.00  -0.02
  96   6    -0.03  -0.07   0.01     0.07  -0.04   0.01     0.01  -0.01  -0.05
  97   6    -0.04  -0.05   0.00     0.09  -0.07   0.01     0.01  -0.02  -0.08
  98   6    -0.03  -0.04   0.00     0.06  -0.10   0.02     0.01  -0.02  -0.10
  99   6    -0.01  -0.05   0.00     0.03  -0.08   0.01     0.00  -0.02  -0.08
 100   7    -0.02  -0.07   0.01     0.04  -0.05   0.01     0.00  -0.01  -0.06
 101   6    -0.00  -0.04   0.00    -0.00  -0.10   0.02    -0.00  -0.02  -0.10
 102   6     0.01  -0.05   0.01    -0.03  -0.08   0.01    -0.00  -0.02  -0.08
 103   6     0.03  -0.04   0.01    -0.06  -0.10   0.02    -0.01  -0.02  -0.10
 104   6     0.04  -0.05   0.01    -0.09  -0.07   0.01    -0.01  -0.02  -0.08
 105   6     0.03  -0.06   0.01    -0.07  -0.04   0.01    -0.01  -0.01  -0.05
 106   7     0.01  -0.07   0.01    -0.04  -0.05   0.01    -0.00  -0.01  -0.06
 107   6     0.03  -0.08   0.01    -0.09  -0.01   0.00    -0.01  -0.00  -0.02
 108   6     0.03  -0.09   0.01    -0.07   0.02  -0.00    -0.01   0.00   0.02
 109   7     0.01  -0.10   0.01    -0.04   0.03  -0.01    -0.00   0.01   0.03
 110   1     0.01  -0.03   0.00    -0.03   0.02  -0.00    -0.00   0.00   0.01
 111   1     0.01  -0.04   0.00    -0.02   0.03  -0.01    -0.00   0.01   0.03
 112   1    -0.01  -0.04   0.00     0.02   0.03  -0.00     0.00   0.01   0.03
 113   1    -0.01  -0.03   0.00     0.03   0.02  -0.00     0.00   0.00   0.01
 114   1    -0.01  -0.02   0.00     0.03  -0.00   0.00     0.00  -0.00  -0.01
 115   1    -0.01  -0.02   0.00     0.03  -0.02   0.00     0.00  -0.00  -0.03
 116   1    -0.01  -0.01   0.00     0.02  -0.04   0.01     0.00  -0.01  -0.04
 117   1     0.01  -0.01   0.00    -0.02  -0.04   0.01    -0.00  -0.01  -0.04
 118   1     0.01  -0.01   0.00    -0.03  -0.02   0.00    -0.00  -0.00  -0.03
 119   1     0.01  -0.02   0.00    -0.03  -0.00   0.00    -0.00  -0.00  -0.01
 120  26     0.00   0.17  -0.02    -0.00  -0.02   0.00    -0.00  -0.01  -0.03
 121   6     0.04   0.05  -0.01     0.09  -0.07   0.01     0.01  -0.02  -0.09
 122   6     0.03   0.04  -0.01     0.06  -0.10   0.02     0.00  -0.02  -0.11
 123   6     0.01   0.05  -0.01     0.03  -0.08   0.01     0.00  -0.02  -0.09
 124   6     0.00   0.04  -0.01    -0.00  -0.10   0.02    -0.00  -0.02  -0.10
 125   6    -0.01   0.05  -0.01    -0.03  -0.08   0.01    -0.00  -0.02  -0.09
 126   6    -0.03   0.04  -0.01    -0.06  -0.10   0.02    -0.01  -0.02  -0.10
 127   6    -0.03   0.05  -0.01    -0.09  -0.07   0.01    -0.01  -0.02  -0.08
 128   6    -0.03   0.07  -0.01    -0.07  -0.04   0.01    -0.01  -0.01  -0.05
 129   7    -0.01   0.07  -0.01    -0.04  -0.05   0.01    -0.00  -0.01  -0.06
 130   6    -0.03   0.08  -0.01    -0.08  -0.01   0.00    -0.01  -0.00  -0.02
 131   6    -0.03   0.09  -0.01    -0.07   0.02  -0.00    -0.01   0.00   0.02
 132   6    -0.03   0.11  -0.01    -0.09   0.05  -0.01    -0.01   0.01   0.05
 133   6    -0.02   0.12  -0.01    -0.06   0.08  -0.01    -0.01   0.02   0.08
 134   6    -0.01   0.11  -0.01    -0.03   0.06  -0.01    -0.00   0.01   0.06
 135   7    -0.01   0.10  -0.01    -0.04   0.03  -0.01    -0.00   0.01   0.03
 136   6     0.00   0.12  -0.01    -0.00   0.08  -0.01    -0.00   0.02   0.08
 137   6     0.01   0.11  -0.01     0.03   0.06  -0.01     0.00   0.01   0.06
 138   6     0.03   0.12  -0.02     0.06   0.08  -0.01     0.01   0.02   0.08
 139   6     0.04   0.10  -0.02     0.09   0.05  -0.01     0.01   0.01   0.05
 140   6     0.03   0.09  -0.01     0.07   0.02  -0.00     0.01   0.00   0.01
 141   7     0.01   0.10  -0.01     0.04   0.03  -0.00     0.00   0.01   0.03
 142   6     0.03   0.08  -0.01     0.08  -0.01   0.00     0.01  -0.00  -0.02
 143   6     0.03   0.07  -0.01     0.07  -0.04   0.01     0.01  -0.01  -0.05
 144   7     0.02   0.07  -0.01     0.04  -0.05   0.01     0.00  -0.01  -0.06
 145   1     0.01   0.02  -0.00     0.03  -0.02   0.00     0.00  -0.01  -0.03
 146   1     0.01   0.01  -0.00     0.02  -0.04   0.01     0.00  -0.01  -0.04
 147   1    -0.01   0.01  -0.00    -0.02  -0.04   0.01    -0.00  -0.01  -0.04
 148   1    -0.01   0.02  -0.00    -0.03  -0.02   0.00    -0.00  -0.00  -0.03
 149   1    -0.01   0.02  -0.00    -0.03  -0.00   0.00    -0.00  -0.00  -0.01
 150   1    -0.01   0.03  -0.00    -0.03   0.02  -0.00    -0.00   0.00   0.01
 151   1    -0.01   0.04  -0.00    -0.02   0.03  -0.01    -0.00   0.01   0.03
 152   1     0.01   0.04  -0.00     0.02   0.03  -0.01     0.00   0.01   0.03
 153   1     0.01   0.03  -0.00     0.03   0.02  -0.00     0.00   0.00   0.01
 154   1     0.01   0.02  -0.00     0.03  -0.00   0.00     0.00  -0.00  -0.01
                     10                     11                     12
                        a                      a                      a 
 Frequencies --    12.1588                18.7121                24.2524
 Red. masses --    12.8840                12.3168                14.1153
 Frc consts  --     0.0000                 0.0000                 0.0000
 IR Inten    --     0.2305                 8.5579                 5.6309
 Raman Activ --     0.0000                 0.0000                 0.0000
 Depolar     --     0.0000                 0.0000                 0.0000
 Atom AN      X      Y      Z        X      Y      Z        X      Y      Z
   1  26     0.00   0.00   0.05    -0.00   0.01   0.06     0.00   0.05  -0.04
   2   6     0.01   0.01   0.14     0.01   0.01   0.12     0.06   0.07  -0.07
   3   6     0.00   0.01   0.16     0.00   0.01   0.09     0.04   0.08  -0.04
   4   6     0.00   0.01   0.12     0.00   0.01   0.06     0.02   0.07  -0.02
   5   6     0.00   0.01   0.13    -0.00   0.01   0.05    -0.00   0.09   0.00
   6   6    -0.00   0.01   0.12    -0.00   0.01   0.06    -0.02   0.07  -0.02
   7   6    -0.00   0.01   0.16    -0.01   0.01   0.09    -0.04   0.08  -0.04
   8   6    -0.01   0.01   0.15    -0.01   0.01   0.12    -0.06   0.07  -0.07
   9   6    -0.01   0.00   0.10    -0.01   0.01   0.09    -0.05   0.04  -0.07
  10   7    -0.00   0.00   0.09    -0.00   0.01   0.07    -0.02   0.05  -0.04
  11   6    -0.01   0.00   0.06    -0.01   0.00   0.08    -0.06   0.02  -0.07
  12   6    -0.01  -0.00  -0.02    -0.01  -0.00   0.02    -0.05  -0.00  -0.03
  13   6    -0.01  -0.00  -0.08    -0.01  -0.00  -0.02    -0.06  -0.02  -0.00
  14   6    -0.00  -0.01  -0.15    -0.01  -0.01  -0.09    -0.04  -0.04   0.05
  15   6    -0.00  -0.01  -0.13    -0.00  -0.00  -0.08    -0.02  -0.03   0.05
  16   7    -0.00  -0.00  -0.05    -0.00  -0.00  -0.02    -0.02  -0.00   0.01
  17   6     0.00  -0.01  -0.18     0.00  -0.01  -0.12     0.00  -0.04   0.09
  18   6     0.01  -0.01  -0.13     0.00  -0.00  -0.08     0.02  -0.03   0.05
  19   6     0.01  -0.01  -0.16     0.01  -0.01  -0.09     0.04  -0.04   0.05
  20   6     0.01  -0.00  -0.08     0.01  -0.00  -0.02     0.06  -0.02  -0.00
  21   6     0.01  -0.00  -0.02     0.01  -0.00   0.02     0.05   0.00  -0.03
  22   7     0.00  -0.00  -0.05     0.00  -0.00  -0.02     0.03  -0.00   0.01
  23   6     0.01   0.00   0.05     0.01   0.00   0.08     0.06   0.02  -0.07
  24   6     0.01   0.00   0.10     0.00   0.01   0.09     0.05   0.04  -0.07
  25   7     0.00   0.00   0.09     0.00   0.01   0.07     0.02   0.05  -0.04
  26   1     0.00   0.00   0.05     0.00   0.00   0.04     0.02   0.02  -0.03
  27   1     0.00   0.00   0.05     0.00   0.00   0.03     0.01   0.03  -0.01
  28   1    -0.00   0.00   0.05    -0.00   0.00   0.03    -0.01   0.03  -0.01
  29   1    -0.00   0.00   0.05    -0.00   0.00   0.04    -0.02   0.02  -0.03
  30   1    -0.00   0.00   0.02    -0.00   0.00   0.03    -0.02   0.01  -0.03
  31   1    -0.00  -0.00  -0.02    -0.00  -0.00  -0.00    -0.02  -0.01  -0.01
  32   1    -0.00  -0.00  -0.06    -0.00  -0.00  -0.04    -0.01  -0.02   0.03
  33   1     0.00  -0.00  -0.07     0.00  -0.00  -0.05    -0.00  -0.02   0.04
  34   1     0.00  -0.00  -0.06     0.00  -0.00  -0.04     0.01  -0.02   0.03
  35   1     0.00  -0.00  -0.02     0.00  -0.00  -0.00     0.02  -0.01  -0.01
  36   1     0.00   0.00   0.02     0.00   0.00   0.03     0.02   0.01  -0.03
  37  26     0.00  -0.00  -0.05     0.00  -0.01   0.06     0.00  -0.06   0.04
  38   6    -0.02   0.00  -0.14     0.00  -0.02   0.12    -0.07  -0.09   0.07
  39   6    -0.02  -0.00  -0.15     0.00  -0.02   0.09    -0.05  -0.10   0.03
  40   6    -0.01  -0.00  -0.12     0.00  -0.01   0.06    -0.02  -0.09   0.01
  41   6    -0.00  -0.01  -0.12     0.00  -0.01   0.05     0.00  -0.10  -0.02
  42   6     0.01  -0.00  -0.12     0.00  -0.01   0.06     0.02  -0.09   0.00
  43   6     0.02  -0.00  -0.15     0.00  -0.02   0.09     0.05  -0.10   0.03
  44   6     0.02   0.00  -0.14    -0.00  -0.02   0.12     0.07  -0.09   0.07
  45   6     0.02   0.00  -0.09    -0.00  -0.02   0.09     0.05  -0.06   0.06
  46   7     0.01   0.00  -0.09     0.00  -0.01   0.07     0.03  -0.07   0.03
  47   6     0.02   0.01  -0.05    -0.00  -0.01   0.08     0.07  -0.04   0.07
  48   6     0.02   0.00   0.02     0.00  -0.00   0.02     0.05  -0.01   0.03
  49   6     0.02  -0.00   0.08    -0.00   0.00  -0.02     0.07   0.02   0.01
  50   6     0.02  -0.01   0.15    -0.00   0.02  -0.10     0.05   0.06  -0.05
  51   6     0.01  -0.01   0.13    -0.00   0.01  -0.09     0.02   0.04  -0.05
  52   7     0.01  -0.00   0.05     0.00   0.00  -0.02     0.03   0.01  -0.01
  53   6     0.00  -0.01   0.17    -0.00   0.02  -0.13    -0.00   0.06  -0.09
  54   6    -0.01  -0.01   0.13    -0.00   0.01  -0.09    -0.03   0.04  -0.05
  55   6    -0.02  -0.01   0.15     0.00   0.02  -0.10    -0.05   0.05  -0.05
  56   6    -0.02  -0.00   0.08     0.00   0.00  -0.02    -0.07   0.02   0.01
  57   6    -0.02   0.00   0.02     0.00  -0.00   0.02    -0.05  -0.01   0.03
  58   7    -0.01  -0.00   0.05     0.00   0.00  -0.02    -0.03   0.01  -0.01
  59   6    -0.02   0.01  -0.05     0.00  -0.01   0.08    -0.07  -0.04   0.07
  60   6    -0.02   0.00  -0.09     0.00  -0.02   0.09    -0.05  -0.06   0.06
  61   7    -0.01   0.00  -0.09     0.00  -0.01   0.07    -0.03  -0.07   0.03
  62   1    -0.01   0.00  -0.05     0.00  -0.01   0.04    -0.03  -0.03   0.03
  63   1    -0.01  -0.00  -0.05     0.00  -0.00   0.03    -0.02  -0.04   0.00
  64   1     0.01  -0.00  -0.05     0.00  -0.00   0.03     0.02  -0.04   0.00
  65   1     0.01   0.00  -0.05    -0.00  -0.01   0.04     0.03  -0.03   0.03
  66   1     0.01   0.00  -0.02    -0.00  -0.01   0.03     0.03  -0.01   0.03
  67   1     0.01   0.00   0.02    -0.00   0.00  -0.00     0.03   0.01   0.01
  68   1     0.01  -0.00   0.06    -0.00   0.01  -0.04     0.02   0.02  -0.02
  69   1     0.00  -0.00   0.07    -0.00   0.01  -0.05    -0.00   0.03  -0.04
  70   1    -0.00  -0.00   0.06    -0.00   0.01  -0.04    -0.02   0.02  -0.02
  71   1    -0.01   0.00   0.02     0.00   0.00  -0.00    -0.03   0.01   0.01
  72   1    -0.01   0.00  -0.02     0.00  -0.01   0.03    -0.03  -0.01   0.03
  73   6     0.00   0.01   0.13    -0.00   0.01   0.02    -0.00   0.10   0.03
  74   6     0.00   0.01   0.12    -0.00   0.01  -0.02    -0.00   0.07   0.07
  75   6     0.00   0.01   0.10    -0.00   0.01  -0.05    -0.00   0.04   0.09
  76   6    -0.00   0.01   0.07    -0.00  -0.00  -0.09    -0.00  -0.01   0.11
  77   6    -0.00   0.00  -0.04    -0.00   0.01   0.18    -0.00  -0.09  -0.05
  78   6    -0.00   0.00  -0.01    -0.00   0.01   0.20    -0.00  -0.03  -0.04
  79   6    -0.00   0.00   0.01     0.00   0.01   0.20    -0.00   0.01  -0.01
  80   6    -0.00   0.01   0.04     0.00   0.02   0.18     0.00   0.07   0.01
  81   6    -0.00  -0.01  -0.06     0.00   0.01  -0.09     0.00   0.03  -0.11
  82   6    -0.00  -0.02  -0.10     0.00   0.01  -0.06     0.00  -0.02  -0.11
  83   6    -0.00  -0.02  -0.12     0.00   0.00  -0.02     0.00  -0.06  -0.09
  84   6    -0.00  -0.01  -0.13     0.00  -0.00   0.02     0.00  -0.10  -0.06
  85  26    -0.00  -0.01  -0.12    -0.00  -0.02  -0.07    -0.00  -0.15   0.00
  86   6     0.00  -0.00  -0.03    -0.01  -0.01  -0.14    -0.03  -0.04   0.06
  87   6     0.00   0.00   0.01    -0.01  -0.01  -0.14    -0.02  -0.03   0.09
  88   6     0.00   0.00   0.00    -0.00  -0.01  -0.10    -0.01  -0.04   0.08
  89   6    -0.00   0.00   0.03    -0.00  -0.01  -0.10    -0.00  -0.03   0.09
  90   6    -0.00   0.00   0.00     0.00  -0.01  -0.10     0.01  -0.04   0.08
  91   6    -0.00   0.00   0.00     0.01  -0.01  -0.14     0.02  -0.03   0.09
  92   6    -0.00  -0.00  -0.04     0.01  -0.01  -0.14     0.02  -0.04   0.06
  93   6    -0.00  -0.01  -0.06     0.01  -0.01  -0.10     0.02  -0.05   0.03
  94   7    -0.00  -0.00  -0.04     0.00  -0.01  -0.09     0.01  -0.05   0.04
  95   6    -0.00  -0.01  -0.09     0.01  -0.01  -0.07     0.02  -0.07  -0.01
  96   6    -0.00  -0.01  -0.09     0.01  -0.01  -0.01     0.02  -0.08  -0.04
  97   6    -0.00  -0.01  -0.10     0.01  -0.01   0.04     0.02  -0.09  -0.07
  98   6    -0.00  -0.01  -0.08     0.01  -0.00   0.11     0.02  -0.10  -0.08
  99   6    -0.00  -0.00  -0.07     0.00  -0.00   0.09     0.01  -0.09  -0.06
 100   7    -0.00  -0.01  -0.08     0.00  -0.01   0.03     0.01  -0.09  -0.04
 101   6    -0.00  -0.00  -0.06    -0.00   0.00   0.13    -0.00  -0.10  -0.06
 102   6     0.00  -0.00  -0.07    -0.00  -0.00   0.09    -0.01  -0.09  -0.06
 103   6     0.00  -0.01  -0.08    -0.01  -0.00   0.11    -0.02  -0.10  -0.08
 104   6     0.00  -0.01  -0.10    -0.01  -0.01   0.05    -0.03  -0.09  -0.07
 105   6     0.00  -0.01  -0.09    -0.01  -0.01  -0.01    -0.02  -0.08  -0.04
 106   7     0.00  -0.01  -0.08    -0.00  -0.01   0.03    -0.01  -0.09  -0.04
 107   6     0.00  -0.01  -0.08    -0.01  -0.01  -0.07    -0.02  -0.07  -0.01
 108   6     0.00  -0.00  -0.05    -0.01  -0.01  -0.10    -0.02  -0.05   0.03
 109   7     0.00  -0.00  -0.03    -0.00  -0.01  -0.09    -0.01  -0.05   0.04
 110   1     0.00  -0.00  -0.01    -0.00  -0.00  -0.05    -0.01  -0.01   0.02
 111   1     0.00   0.00   0.01    -0.00  -0.00  -0.05    -0.01  -0.01   0.04
 112   1    -0.00   0.00   0.01     0.00  -0.00  -0.05     0.01  -0.01   0.04
 113   1    -0.00  -0.00  -0.01     0.00  -0.00  -0.05     0.01  -0.01   0.02
 114   1    -0.00  -0.00  -0.03     0.00  -0.00  -0.03     0.01  -0.02  -0.01
 115   1    -0.00  -0.00  -0.03     0.00  -0.00   0.01     0.01  -0.03  -0.02
 116   1    -0.00  -0.00  -0.02     0.00   0.00   0.05     0.01  -0.03  -0.03
 117   1     0.00  -0.00  -0.02    -0.00   0.00   0.05    -0.01  -0.03  -0.03
 118   1     0.00  -0.00  -0.03    -0.00  -0.00   0.01    -0.01  -0.03  -0.02
 119   1     0.00  -0.00  -0.03    -0.00  -0.00  -0.03    -0.01  -0.02  -0.01
 120  26    -0.00   0.01   0.12     0.00   0.01  -0.07     0.00   0.16   0.02
 121   6    -0.00   0.01   0.10     0.01   0.01   0.05    -0.01   0.09   0.07
 122   6    -0.00   0.01   0.08     0.01   0.01   0.11    -0.01   0.09   0.06
 123   6    -0.00   0.01   0.07     0.00   0.01   0.09    -0.00   0.09   0.04
 124   6    -0.00   0.01   0.05     0.00   0.01   0.13     0.00   0.09   0.03
 125   6     0.00   0.01   0.06    -0.00   0.01   0.09     0.00   0.09   0.04
 126   6     0.00   0.01   0.08    -0.01   0.01   0.11     0.01   0.09   0.06
 127   6     0.00   0.01   0.10    -0.01   0.01   0.05     0.01   0.09   0.07
 128   6     0.00   0.01   0.09    -0.01   0.01  -0.01     0.01   0.08   0.05
 129   7     0.00   0.01   0.07    -0.00   0.01   0.03     0.00   0.09   0.04
 130   6     0.00   0.01   0.08    -0.01   0.00  -0.07     0.01   0.08   0.04
 131   6     0.00   0.00   0.06    -0.01   0.00  -0.10     0.01   0.07  -0.00
 132   6     0.00  -0.00   0.03    -0.01   0.00  -0.14     0.01   0.06  -0.03
 133   6     0.00  -0.01  -0.00    -0.01   0.00  -0.14     0.01   0.05  -0.07
 134   6     0.00  -0.01  -0.00    -0.00   0.01  -0.11     0.01   0.05  -0.07
 135   7     0.00  -0.00   0.04    -0.00   0.00  -0.09     0.01   0.07  -0.03
 136   6    -0.00  -0.01  -0.03     0.00   0.01  -0.10     0.00   0.05  -0.09
 137   6    -0.00  -0.01  -0.00     0.00   0.01  -0.11    -0.01   0.05  -0.07
 138   6    -0.00  -0.01  -0.00     0.01   0.00  -0.14    -0.01   0.05  -0.07
 139   6    -0.00  -0.00   0.04     0.01   0.00  -0.14    -0.01   0.06  -0.03
 140   6    -0.00   0.00   0.06     0.01   0.00  -0.10    -0.01   0.07  -0.00
 141   7    -0.00  -0.00   0.04     0.00   0.01  -0.09    -0.01   0.07  -0.03
 142   6    -0.00   0.01   0.09     0.01   0.00  -0.07    -0.01   0.08   0.04
 143   6    -0.00   0.01   0.09     0.01   0.01  -0.01    -0.01   0.08   0.05
 144   7    -0.00   0.01   0.08     0.00   0.01   0.03    -0.00   0.09   0.04
 145   1    -0.00   0.00   0.03     0.00   0.00   0.01    -0.00   0.03   0.03
 146   1    -0.00   0.00   0.02     0.00   0.00   0.05    -0.00   0.03   0.02
 147   1     0.00   0.00   0.02    -0.00   0.00   0.05     0.00   0.03   0.02
 148   1     0.00   0.00   0.03    -0.00   0.00   0.01     0.00   0.03   0.03
 149   1     0.00   0.00   0.03    -0.00  -0.00  -0.03     0.00   0.02   0.02
 150   1     0.00  -0.00   0.01    -0.00  -0.00  -0.05     0.01   0.02  -0.01
 151   1     0.00  -0.00  -0.01    -0.00   0.00  -0.05     0.00   0.01  -0.03
 152   1    -0.00  -0.00  -0.01     0.00   0.00  -0.05    -0.00   0.01  -0.03
 153   1    -0.00   0.00   0.01     0.00  -0.00  -0.05    -0.01   0.02  -0.01
 154   1    -0.00   0.00   0.03     0.00  -0.00  -0.03    -0.00   0.02   0.02
                     13                     14                     15
                        a                      a                      a 
 Frequencies --    27.0469                30.2130                30.7637
 Red. masses --    13.0991                10.9260                10.9314
 Frc consts  --     0.0000                 0.0000                 0.0000
 IR Inten    --     4.6965               134.4965                15.9977
 Raman Activ --     0.0000                 0.0000                 0.0000
 Depolar     --     0.0000                 0.0000                 0.0000
 Atom AN      X      Y      Z        X      Y      Z        X      Y      Z
   1  26     0.00  -0.05  -0.04    -0.00   0.00   0.00     0.01   0.00   0.00
   2   6    -0.05  -0.06  -0.08    -0.00   0.00   0.05     0.00   0.00   0.09
   3   6    -0.04  -0.08  -0.03    -0.00   0.00   0.05     0.00   0.00   0.09
   4   6    -0.02  -0.07  -0.01    -0.00   0.00   0.02     0.00   0.00   0.04
   5   6     0.00  -0.08   0.02    -0.00   0.00  -0.00     0.00   0.00  -0.00
   6   6     0.02  -0.07  -0.00    -0.00   0.00  -0.02     0.00  -0.00  -0.04
   7   6     0.04  -0.08  -0.03    -0.00   0.00  -0.05     0.00  -0.00  -0.09
   8   6     0.05  -0.06  -0.07    -0.00   0.00  -0.04     0.00  -0.00  -0.08
   9   6     0.04  -0.04  -0.07    -0.00   0.00  -0.02     0.00  -0.00  -0.04
  10   7     0.02  -0.05  -0.03    -0.00   0.00  -0.01     0.00  -0.00  -0.02
  11   6     0.05  -0.02  -0.08    -0.00   0.00   0.00     0.00  -0.00   0.00
  12   6     0.04  -0.00  -0.04    -0.00  -0.00   0.02     0.00  -0.00   0.04
  13   6     0.05   0.02  -0.01    -0.00  -0.00   0.05     0.00  -0.00   0.09
  14   6     0.04   0.04   0.05    -0.00  -0.00   0.05     0.00  -0.00   0.09
  15   6     0.02   0.02   0.06    -0.00  -0.00   0.02     0.00  -0.00   0.04
  16   7     0.02   0.00   0.00    -0.00  -0.00   0.01     0.00  -0.00   0.02
  17   6    -0.00   0.03   0.09    -0.00  -0.00  -0.00     0.00   0.00  -0.00
  18   6    -0.02   0.02   0.06    -0.00  -0.00  -0.02     0.01   0.00  -0.04
  19   6    -0.04   0.03   0.06     0.00  -0.00  -0.05     0.01   0.00  -0.09
  20   6    -0.06   0.02  -0.01     0.00  -0.00  -0.05     0.01   0.00  -0.09
  21   6    -0.04  -0.00  -0.04    -0.00   0.00  -0.02     0.01   0.00  -0.04
  22   7    -0.02   0.00   0.00    -0.00   0.00  -0.01     0.01   0.00  -0.02
  23   6    -0.05  -0.02  -0.08    -0.00   0.00  -0.00     0.00   0.00  -0.00
  24   6    -0.04  -0.04  -0.07    -0.00   0.00   0.02     0.00   0.00   0.04
  25   7    -0.02  -0.05  -0.03    -0.00   0.00   0.01     0.00   0.00   0.02
  26   1    -0.02  -0.02  -0.03    -0.00   0.00   0.02     0.00   0.00   0.03
  27   1    -0.01  -0.03  -0.01    -0.00   0.00   0.02     0.00   0.00   0.03
  28   1     0.01  -0.03  -0.00    -0.00   0.00  -0.02     0.00  -0.00  -0.03
  29   1     0.02  -0.02  -0.03    -0.00   0.00  -0.02     0.00  -0.00  -0.03
  30   1     0.02  -0.01  -0.03    -0.00   0.00   0.00     0.00  -0.00   0.00
  31   1     0.02   0.01  -0.01    -0.00  -0.00   0.02     0.00  -0.00   0.03
  32   1     0.01   0.02   0.03    -0.00  -0.00   0.02     0.00  -0.00   0.03
  33   1    -0.00   0.02   0.04    -0.00  -0.00  -0.00     0.00   0.00  -0.00
  34   1    -0.01   0.01   0.03     0.00  -0.00  -0.02     0.00   0.00  -0.03
  35   1    -0.02   0.01  -0.01     0.00  -0.00  -0.02     0.00   0.00  -0.03
  36   1    -0.02  -0.01  -0.03     0.00   0.00  -0.00     0.00   0.00  -0.00
  37  26     0.00   0.03   0.05     0.01   0.00  -0.00    -0.01  -0.00   0.00
  38   6     0.04   0.03   0.08     0.00   0.01  -0.05    -0.00  -0.01   0.08
  39   6     0.03   0.05   0.04     0.00   0.01  -0.05    -0.00  -0.02   0.08
  40   6     0.01   0.05   0.01     0.00   0.00  -0.02    -0.00  -0.01   0.04
  41   6     0.00   0.06  -0.01     0.00   0.00   0.00    -0.00  -0.00  -0.00
  42   6    -0.01   0.05   0.01     0.00  -0.00   0.02    -0.00   0.01  -0.04
  43   6    -0.03   0.05   0.04     0.00  -0.01   0.05    -0.00   0.01  -0.08
  44   6    -0.04   0.03   0.08     0.00  -0.01   0.04    -0.00   0.01  -0.08
  45   6    -0.03   0.02   0.07     0.00  -0.00   0.02    -0.00   0.01  -0.04
  46   7    -0.02   0.03   0.04     0.00  -0.00   0.01    -0.00   0.00  -0.02
  47   6    -0.04   0.00   0.08     0.00   0.00  -0.00    -0.00  -0.00   0.00
  48   6    -0.03  -0.01   0.04     0.00   0.00  -0.02    -0.00  -0.01   0.04
  49   6    -0.04  -0.02   0.01     0.00   0.01  -0.05    -0.00  -0.01   0.08
  50   6    -0.03  -0.02  -0.06     0.00   0.01  -0.05    -0.00  -0.01   0.08
  51   6    -0.01  -0.01  -0.06     0.00   0.00  -0.02    -0.00  -0.01   0.04
  52   7    -0.02  -0.00  -0.00     0.00   0.00  -0.01    -0.00  -0.00   0.02
  53   6     0.00  -0.01  -0.09     0.00  -0.00   0.00    -0.00   0.00   0.00
  54   6     0.02  -0.01  -0.06     0.00  -0.00   0.02    -0.01   0.01  -0.04
  55   6     0.03  -0.02  -0.05     0.00  -0.01   0.05    -0.01   0.01  -0.08
  56   6     0.04  -0.02   0.01     0.00  -0.01   0.05    -0.01   0.01  -0.08
  57   6     0.03  -0.01   0.04     0.00  -0.00   0.02    -0.01   0.01  -0.04
  58   7     0.02  -0.00  -0.00     0.00  -0.00   0.01    -0.01   0.00  -0.02
  59   6     0.04   0.00   0.08     0.00   0.00   0.00    -0.01   0.00  -0.00
  60   6     0.03   0.02   0.07     0.00   0.00  -0.02    -0.00  -0.01   0.04
  61   7     0.02   0.03   0.04     0.00   0.00  -0.01    -0.00  -0.00   0.02
  62   1     0.02   0.01   0.03     0.00   0.00  -0.02    -0.00  -0.01   0.03
  63   1     0.01   0.02   0.01     0.00   0.00  -0.02    -0.00  -0.01   0.03
  64   1    -0.01   0.02   0.01     0.00  -0.00   0.02    -0.00   0.01  -0.03
  65   1    -0.02   0.01   0.03     0.00  -0.00   0.02    -0.00   0.01  -0.03
  66   1    -0.02  -0.00   0.03     0.00   0.00  -0.00    -0.00  -0.00   0.00
  67   1    -0.02  -0.01   0.01     0.00   0.00  -0.02    -0.00  -0.01   0.03
  68   1    -0.01  -0.01  -0.03     0.00   0.00  -0.02    -0.00  -0.01   0.03
  69   1     0.00  -0.01  -0.04     0.00  -0.00   0.00    -0.00   0.00   0.00
  70   1     0.01  -0.01  -0.03     0.00  -0.00   0.02    -0.00   0.01  -0.03
  71   1     0.02  -0.01   0.01     0.00  -0.00   0.02    -0.00   0.01  -0.03
  72   1     0.02  -0.00   0.03     0.00   0.00   0.00    -0.00   0.00  -0.00
  73   6     0.00  -0.09   0.07    -0.00   0.00  -0.00     0.00  -0.00  -0.00
  74   6     0.00  -0.05   0.11    -0.00   0.00  -0.00     0.00  -0.00  -0.00
  75   6     0.00  -0.02   0.13    -0.00   0.00  -0.00     0.00  -0.00  -0.00
  76   6     0.00   0.03   0.14    -0.00  -0.00  -0.00     0.00  -0.00  -0.00
  77   6    -0.00   0.06  -0.06    -0.00  -0.00   0.00     0.00  -0.00   0.00
  78   6    -0.00   0.01  -0.01    -0.00   0.00   0.00     0.00  -0.00   0.00
  79   6    -0.00  -0.03   0.04    -0.00   0.00   0.00     0.00  -0.00   0.00
  80   6    -0.00  -0.08   0.08    -0.00   0.00   0.00     0.00  -0.00  -0.00
  81   6     0.00  -0.00  -0.13     0.00  -0.00   0.00    -0.00   0.00   0.00
  82   6     0.00   0.03  -0.12     0.00  -0.00   0.00    -0.00   0.00   0.00
  83   6     0.00   0.06  -0.09     0.00  -0.00   0.00    -0.00  -0.00   0.00
  84   6    -0.00   0.08  -0.05     0.00  -0.00   0.00    -0.00  -0.00  -0.00
  85  26    -0.00   0.12  -0.04    -0.00  -0.00   0.00     0.00  -0.00   0.00
  86   6     0.02   0.05   0.06     0.00   0.02   0.20     0.00   0.02   0.19
  87   6     0.02   0.05   0.11     0.00   0.02   0.20     0.00   0.02   0.19
  88   6     0.01   0.05   0.09    -0.00   0.01   0.09     0.00   0.01   0.09
  89   6     0.00   0.05   0.12    -0.00  -0.00  -0.00     0.00  -0.00  -0.00
  90   6    -0.01   0.05   0.09    -0.00  -0.01  -0.09     0.00  -0.01  -0.09
  91   6    -0.02   0.05   0.11    -0.00  -0.03  -0.20     0.00  -0.02  -0.20
  92   6    -0.02   0.05   0.05    -0.00  -0.03  -0.20     0.00  -0.02  -0.19
  93   6    -0.02   0.05   0.01    -0.00  -0.01  -0.09     0.00  -0.01  -0.09
  94   7    -0.01   0.06   0.04    -0.00  -0.01  -0.05     0.00  -0.01  -0.05
  95   6    -0.02   0.05  -0.05    -0.00  -0.00  -0.00     0.00   0.00   0.00
  96   6    -0.02   0.05  -0.08    -0.00   0.01   0.09     0.00   0.01   0.09
  97   6    -0.02   0.06  -0.12    -0.00   0.02   0.20     0.00   0.02   0.20
  98   6    -0.01   0.06  -0.12    -0.00   0.02   0.20     0.00   0.02   0.20
  99   6    -0.01   0.06  -0.08    -0.00   0.01   0.09     0.00   0.01   0.09
 100   7    -0.01   0.06  -0.07    -0.00   0.00   0.05     0.00   0.01   0.05
 101   6    -0.00   0.07  -0.08    -0.00  -0.00   0.00     0.00  -0.00   0.00
 102   6     0.01   0.06  -0.09    -0.00  -0.01  -0.09     0.00  -0.01  -0.09
 103   6     0.01   0.06  -0.12    -0.00  -0.02  -0.20     0.00  -0.02  -0.20
 104   6     0.02   0.06  -0.13    -0.00  -0.02  -0.20     0.00  -0.02  -0.20
 105   6     0.01   0.05  -0.08    -0.00  -0.01  -0.09     0.00  -0.01  -0.09
 106   7     0.01   0.06  -0.07    -0.00  -0.01  -0.05     0.00  -0.01  -0.05
 107   6     0.02   0.05  -0.05    -0.00   0.00   0.00     0.00  -0.00  -0.00
 108   6     0.02   0.05   0.01    -0.00   0.01   0.09     0.00   0.01   0.09
 109   7     0.01   0.06   0.04    -0.00   0.01   0.05     0.00   0.01   0.05
 110   1     0.01   0.01   0.02     0.00   0.01   0.08     0.00   0.01   0.07
 111   1     0.01   0.01   0.05     0.00   0.01   0.08     0.00   0.01   0.07
 112   1    -0.00   0.01   0.04    -0.00  -0.01  -0.08     0.00  -0.01  -0.07
 113   1    -0.01   0.01   0.01    -0.00  -0.01  -0.08     0.00  -0.01  -0.07
 114   1    -0.01   0.01  -0.02    -0.00  -0.00  -0.00     0.00   0.00   0.00
 115   1    -0.01   0.02  -0.04    -0.00   0.01   0.07     0.00   0.01   0.08
 116   1    -0.00   0.02  -0.04    -0.00   0.01   0.08     0.00   0.01   0.08
 117   1     0.00   0.02  -0.04    -0.00  -0.01  -0.08     0.00  -0.01  -0.08
 118   1     0.01   0.02  -0.04    -0.00  -0.01  -0.07     0.00  -0.01  -0.08
 119   1     0.01   0.01  -0.02    -0.00   0.00   0.00     0.00  -0.00  -0.00
 120  26    -0.00  -0.11   0.03     0.00   0.00  -0.00    -0.00   0.00   0.00
 121   6     0.04  -0.06   0.12    -0.00  -0.02  -0.21     0.00   0.02   0.19
 122   6     0.03  -0.07   0.13    -0.00  -0.02  -0.21     0.00   0.02   0.19
 123   6     0.01  -0.07   0.09    -0.00  -0.01  -0.10     0.00   0.01   0.09
 124   6    -0.00  -0.08   0.09    -0.00   0.00   0.00     0.00  -0.00  -0.00
 125   6    -0.01  -0.07   0.09    -0.00   0.01   0.10     0.00  -0.01  -0.09
 126   6    -0.03  -0.07   0.13    -0.00   0.03   0.21     0.00  -0.02  -0.19
 127   6    -0.04  -0.06   0.12    -0.00   0.03   0.21     0.00  -0.02  -0.19
 128   6    -0.03  -0.05   0.08    -0.00   0.01   0.09    -0.00  -0.01  -0.09
 129   7    -0.01  -0.06   0.07    -0.00   0.01   0.05    -0.00  -0.01  -0.05
 130   6    -0.04  -0.04   0.04     0.00   0.00  -0.00    -0.00  -0.00  -0.00
 131   6    -0.03  -0.04  -0.03     0.00  -0.01  -0.10    -0.00   0.01   0.08
 132   6    -0.04  -0.03  -0.08     0.00  -0.02  -0.21    -0.00   0.02   0.18
 133   6    -0.03  -0.02  -0.12     0.00  -0.02  -0.21    -0.00   0.02   0.19
 134   6    -0.01  -0.03  -0.10     0.00  -0.01  -0.10    -0.00   0.01   0.09
 135   7    -0.02  -0.04  -0.05     0.00  -0.01  -0.05    -0.00   0.01   0.05
 136   6    -0.00  -0.02  -0.12     0.00  -0.00   0.00    -0.00   0.00   0.00
 137   6     0.01  -0.03  -0.10     0.00   0.01   0.10    -0.00  -0.01  -0.09
 138   6     0.03  -0.02  -0.12     0.00   0.02   0.21    -0.00  -0.02  -0.19
 139   6     0.04  -0.03  -0.07     0.00   0.02   0.21    -0.00  -0.02  -0.18
 140   6     0.03  -0.04  -0.02     0.00   0.01   0.10    -0.00  -0.01  -0.08
 141   7     0.02  -0.04  -0.05     0.00   0.00   0.05    -0.00  -0.00  -0.05
 142   6     0.03  -0.04   0.04    -0.00  -0.00   0.00    -0.00   0.00   0.00
 143   6     0.03  -0.05   0.08    -0.00  -0.01  -0.10     0.00   0.01   0.09
 144   7     0.01  -0.06   0.07    -0.00  -0.01  -0.05    -0.00   0.01   0.05
 145   1     0.01  -0.02   0.04    -0.00  -0.01  -0.08     0.00   0.01   0.07
 146   1     0.01  -0.02   0.04    -0.00  -0.01  -0.08     0.00   0.01   0.07
 147   1    -0.01  -0.02   0.05    -0.00   0.01   0.08     0.00  -0.01  -0.07
 148   1    -0.01  -0.02   0.04    -0.00   0.01   0.08     0.00  -0.01  -0.07
 149   1    -0.01  -0.01   0.01     0.00   0.00  -0.00    -0.00  -0.00  -0.00
 150   1    -0.01  -0.01  -0.02     0.00  -0.01  -0.08    -0.00   0.01   0.07
 151   1    -0.01  -0.00  -0.05     0.00  -0.01  -0.08    -0.00   0.01   0.07
 152   1     0.01  -0.00  -0.05     0.00   0.01   0.08    -0.00  -0.01  -0.07
 153   1     0.01  -0.01  -0.02     0.00   0.01   0.08    -0.00  -0.01  -0.07
 154   1     0.01  -0.01   0.01    -0.00  -0.00   0.00    -0.00   0.00   0.00
                     16                     17                     18
                        a                      a                      a 
 Frequencies --    31.3891                31.5145                31.9581
 Red. masses --    10.9289                10.9271                12.4541
 Frc consts  --     0.0000                 0.0000                 0.0000
 IR Inten    --    48.0013                11.2574                 0.7830
 Raman Activ --     0.0000                 0.0000                 0.0000
 Depolar     --     0.0000                 0.0000                 0.0000
 Atom AN      X      Y      Z        X      Y      Z        X      Y      Z
   1  26    -0.00  -0.00   0.00     0.00   0.00  -0.00    -0.00  -0.06   0.04
   2   6    -0.00  -0.00  -0.05    -0.00   0.01   0.28    -0.07  -0.08   0.08
   3   6    -0.00  -0.00  -0.06    -0.00   0.01   0.28    -0.05  -0.10   0.02
   4   6    -0.00  -0.00  -0.03    -0.00   0.00   0.13    -0.02  -0.08  -0.01
   5   6    -0.00  -0.00  -0.00    -0.00   0.00   0.00     0.00  -0.10  -0.05
   6   6    -0.00  -0.00   0.03    -0.00   0.00  -0.13     0.02  -0.08  -0.02
   7   6     0.00  -0.00   0.06    -0.00   0.00  -0.28     0.05  -0.09  -0.01
   8   6     0.00  -0.00   0.06    -0.00   0.00  -0.28     0.06  -0.07   0.05
   9   6     0.00  -0.00   0.03    -0.00   0.00  -0.13     0.05  -0.05   0.06
  10   7    -0.00  -0.00   0.01    -0.00   0.00  -0.07     0.03  -0.06   0.02
  11   6     0.00  -0.00   0.00    -0.00   0.00  -0.01     0.06  -0.03   0.09
  12   6     0.00  -0.00  -0.02    -0.00  -0.00   0.12     0.05  -0.00   0.05
  13   6     0.00   0.00  -0.05    -0.00  -0.00   0.27     0.06   0.02   0.04
  14   6    -0.00   0.00  -0.06    -0.00  -0.00   0.27     0.05   0.04  -0.03
  15   6    -0.00   0.00  -0.03     0.00  -0.00   0.13     0.02   0.03  -0.05
  16   7    -0.00  -0.00  -0.01     0.00  -0.00   0.07     0.03   0.00   0.00
  17   6    -0.00   0.00  -0.00     0.00  -0.00   0.00    -0.00   0.04  -0.09
  18   6    -0.00   0.00   0.02     0.00   0.00  -0.13    -0.02   0.03  -0.06
  19   6    -0.00   0.00   0.05     0.01   0.00  -0.27    -0.05   0.04  -0.06
  20   6    -0.00   0.00   0.06     0.01   0.00  -0.27    -0.07   0.02   0.01
  21   6    -0.00  -0.00   0.03     0.00   0.00  -0.13    -0.05  -0.00   0.04
  22   7    -0.00   0.00   0.01     0.00   0.00  -0.07    -0.03   0.00  -0.00
  23   6    -0.00  -0.00   0.00     0.00   0.00  -0.00    -0.07  -0.03   0.09
  24   6    -0.00  -0.00  -0.02     0.00   0.00   0.13    -0.05  -0.05   0.07
  25   7    -0.00  -0.00  -0.01     0.00   0.00   0.07    -0.03  -0.06   0.02
  26   1    -0.00  -0.00  -0.02    -0.00   0.00   0.11    -0.03  -0.02   0.03
  27   1    -0.00  -0.00  -0.02    -0.00   0.00   0.11    -0.01  -0.03   0.00
  28   1     0.00  -0.00   0.02    -0.00   0.00  -0.11     0.01  -0.03  -0.01
  29   1     0.00  -0.00   0.02    -0.00   0.00  -0.11     0.02  -0.02   0.02
  30   1     0.00  -0.00   0.00    -0.00   0.00  -0.00     0.02  -0.01   0.04
  31   1     0.00   0.00  -0.02    -0.00  -0.00   0.10     0.02   0.01   0.02
  32   1     0.00   0.00  -0.02    -0.00  -0.00   0.10     0.01   0.02  -0.02
  33   1    -0.00   0.00  -0.00     0.00  -0.00   0.00    -0.00   0.02  -0.04
  34   1    -0.00   0.00   0.02     0.00   0.00  -0.10    -0.01   0.02  -0.03
  35   1    -0.00   0.00   0.02     0.00   0.00  -0.10    -0.03   0.01   0.01
  36   1    -0.00  -0.00   0.00     0.00   0.00  -0.00    -0.03  -0.01   0.04
  37  26     0.00  -0.00   0.00    -0.00   0.00  -0.00     0.00  -0.06   0.02
  38   6     0.00  -0.05   0.28     0.00  -0.00   0.04    -0.06  -0.08   0.04
  39   6     0.00  -0.05   0.28     0.00  -0.00   0.04    -0.04  -0.09  -0.02
  40   6     0.00  -0.03   0.13     0.00   0.00   0.02    -0.02  -0.08  -0.03
  41   6     0.00  -0.00  -0.00    -0.00   0.00   0.00     0.00  -0.08  -0.06
  42   6     0.00   0.02  -0.13    -0.00   0.01  -0.02     0.02  -0.08  -0.03
  43   6     0.00   0.05  -0.28    -0.00   0.01  -0.04     0.05  -0.09  -0.00
  44   6     0.00   0.05  -0.28    -0.00   0.01  -0.04     0.06  -0.08   0.05
  45   6     0.00   0.02  -0.13    -0.00   0.01  -0.02     0.05  -0.06   0.05
  46   7     0.00   0.01  -0.07    -0.00   0.00  -0.01     0.03  -0.06   0.01
  47   6     0.00  -0.00  -0.00    -0.00   0.00  -0.00     0.06  -0.04   0.07
  48   6     0.00  -0.02   0.13    -0.00  -0.00   0.02     0.05  -0.01   0.04
  49   6     0.00  -0.05   0.27    -0.00  -0.01   0.04     0.06   0.02   0.02
  50   6     0.00  -0.05   0.27    -0.00  -0.01   0.04     0.05   0.05  -0.04
  51   6     0.00  -0.02   0.13    -0.00  -0.00   0.02     0.02   0.04  -0.04
  52   7     0.00  -0.01   0.07    -0.00  -0.00   0.01     0.03   0.00  -0.00
  53   6     0.00   0.00  -0.00    -0.00  -0.00   0.00     0.00   0.05  -0.07
[...]
  62   1    -0.02   0.34   0.06    -0.01   0.08   0.01     0.01  -0.15  -0.03
  63   1    -0.58   0.08   0.02    -0.14   0.02   0.00     0.26  -0.04  -0.01
  64   1    -0.03  -0.01  -0.00    -0.15  -0.02  -0.00     0.21   0.03   0.01
  65   1    -0.00  -0.02  -0.00    -0.00  -0.08  -0.01     0.01   0.12   0.02
  66   1     0.00   0.00   0.00     0.00  -0.00  -0.00    -0.00   0.00   0.00
  67   1    -0.00   0.01   0.00    -0.00   0.00   0.00    -0.00   0.00   0.00
  68   1    -0.01   0.00   0.00    -0.00   0.00   0.00    -0.00   0.00   0.00
  69   1    -0.00  -0.00   0.00     0.00   0.00  -0.00    -0.00  -0.00   0.00
  70   1     0.01   0.00   0.00    -0.00  -0.00  -0.00    -0.00  -0.00  -0.00
  71   1     0.00   0.01   0.00    -0.00  -0.00  -0.00    -0.00  -0.01  -0.00
  72   1     0.00   0.01   0.00     0.00   0.00   0.00    -0.00  -0.00  -0.00
  73   6     0.00   0.00  -0.00     0.00   0.00  -0.00    -0.00   0.00  -0.00
  74   6    -0.00  -0.00   0.00    -0.00  -0.00   0.00     0.00  -0.00   0.00
  75   6     0.00  -0.00   0.00    -0.00  -0.00   0.00    -0.00  -0.00   0.00
  76   6    -0.00   0.00  -0.00     0.00   0.00  -0.00    -0.00   0.00  -0.00
  77   6    -0.00   0.00  -0.00     0.00   0.00  -0.00    -0.00   0.00  -0.00
  78   6     0.00  -0.00   0.00     0.00  -0.00   0.00    -0.00  -0.00   0.00
  79   6    -0.00   0.00  -0.00    -0.00  -0.00   0.00     0.00  -0.00   0.00
  80   6    -0.00  -0.00   0.00     0.00   0.00  -0.00    -0.00   0.00  -0.00
  81   6     0.00  -0.00   0.00     0.00  -0.00   0.00    -0.00  -0.00   0.00
  82   6    -0.00   0.00  -0.00    -0.00   0.00  -0.00     0.00   0.00  -0.00
  83   6     0.00   0.00   0.00     0.00  -0.00   0.00    -0.00  -0.00  -0.00
  84   6    -0.00  -0.00  -0.00     0.00   0.00   0.00     0.00   0.00   0.00
  85  26     0.00  -0.00   0.00    -0.00  -0.00   0.00     0.00  -0.00   0.00
  86   6     0.00   0.02  -0.00     0.00   0.06  -0.01     0.00   0.01  -0.00
  87   6     0.04   0.00  -0.00     0.09   0.01  -0.00     0.01   0.00  -0.00
  88   6     0.00  -0.00   0.00     0.00  -0.00   0.00     0.00  -0.00   0.00
  89   6     0.00   0.00  -0.00     0.00   0.00  -0.00    -0.00   0.00  -0.00
  90   6    -0.00  -0.00   0.00    -0.00  -0.00   0.00    -0.00  -0.00   0.00
  91   6    -0.01   0.00  -0.00    -0.03   0.00  -0.00    -0.07   0.01  -0.00
  92   6    -0.00   0.01  -0.00    -0.00   0.02  -0.00    -0.00   0.04  -0.01
  93   6     0.00   0.00  -0.00     0.00  -0.00   0.00     0.00   0.00  -0.00
  94   7     0.00  -0.00   0.00     0.00  -0.00   0.00     0.00  -0.00   0.00
  95   6    -0.00   0.00  -0.00     0.00   0.00  -0.00    -0.00   0.00  -0.00
  96   6     0.00  -0.00   0.00    -0.00   0.00  -0.00    -0.00  -0.00  -0.00
  97   6    -0.00  -0.01   0.00     0.00   0.10  -0.01     0.00   0.01  -0.00
  98   6    -0.02  -0.00   0.00     0.15   0.02  -0.00     0.01   0.00  -0.00
  99   6    -0.00   0.00  -0.00     0.00  -0.01   0.00     0.00  -0.00   0.00
 100   7     0.00   0.00  -0.00    -0.00  -0.00   0.00     0.00  -0.00   0.00
 101   6    -0.00   0.00  -0.00     0.00   0.00  -0.00    -0.00   0.00  -0.00
 102   6    -0.00  -0.00   0.00     0.00   0.00  -0.00    -0.00  -0.01   0.00
 103   6    -0.05   0.01  -0.00     0.03  -0.00   0.00    -0.16   0.02  -0.00
 104   6    -0.00   0.03  -0.00    -0.00  -0.02   0.00    -0.00   0.10  -0.01
 105   6     0.00   0.00  -0.00    -0.00  -0.00   0.00     0.00   0.00  -0.00
 106   7     0.00  -0.00   0.00    -0.00   0.00  -0.00     0.00  -0.00   0.00
 107   6    -0.00   0.00  -0.00     0.00   0.00  -0.00    -0.00   0.00  -0.00
 108   6    -0.00   0.00   0.00    -0.00   0.00  -0.00    -0.00  -0.00   0.00
 109   7    -0.00  -0.00   0.00    -0.00  -0.00   0.00    -0.00  -0.00   0.00
 110   1    -0.00  -0.07   0.01    -0.01  -0.18   0.02    -0.00  -0.03   0.00
 111   1    -0.12  -0.02   0.00    -0.30  -0.04   0.01    -0.04  -0.01   0.00
 112   1     0.05  -0.01   0.00     0.10  -0.02   0.00     0.22  -0.03   0.00
 113   1     0.00  -0.03   0.00     0.00  -0.07   0.01     0.01  -0.13   0.02
 114   1    -0.00  -0.00   0.00     0.00  -0.01   0.00    -0.00  -0.00   0.00
 115   1     0.00   0.03  -0.00    -0.02  -0.30   0.03    -0.00  -0.02   0.00
 116   1     0.05   0.01  -0.00    -0.50  -0.07   0.01    -0.03  -0.00   0.00
 117   1     0.17  -0.03   0.00    -0.11   0.02  -0.00     0.53  -0.08   0.01
 118   1     0.01  -0.10   0.01    -0.00   0.06  -0.01     0.02  -0.31   0.03
 119   1    -0.00  -0.00   0.00     0.00  -0.00   0.00    -0.00  -0.01   0.00
 120  26     0.00   0.00  -0.00    -0.00  -0.00  -0.00    -0.00  -0.00   0.00
 121   6    -0.00  -0.05   0.01     0.00   0.07  -0.01     0.00   0.03  -0.00
 122   6    -0.07  -0.01   0.00     0.12   0.01  -0.00     0.05   0.01  -0.00
 123   6    -0.00   0.00  -0.00     0.00  -0.00   0.00     0.00  -0.00   0.00
 124   6    -0.00  -0.00   0.00     0.00   0.00  -0.00     0.00   0.00  -0.00
 125   6    -0.00  -0.00   0.00     0.00   0.00  -0.00    -0.00  -0.00   0.00
 126   6    -0.05   0.01  -0.00     0.06  -0.01   0.00    -0.08   0.01  -0.00
 127   6     0.00   0.03  -0.00    -0.00  -0.04   0.00    -0.00   0.05  -0.01
 128   6     0.00   0.00   0.00    -0.00  -0.00   0.00     0.00   0.00   0.00
 129   7     0.00  -0.00   0.00    -0.00   0.00  -0.00     0.00  -0.00   0.00
 130   6    -0.00  -0.00   0.00     0.00  -0.00   0.00    -0.00   0.00  -0.00
 131   6     0.00  -0.00   0.00    -0.00   0.00  -0.00    -0.00   0.00  -0.00
 132   6    -0.00  -0.04   0.00     0.00   0.02  -0.00     0.00   0.04  -0.00
 133   6    -0.07  -0.01   0.00     0.03   0.00  -0.00     0.06   0.01  -0.00
 134   6    -0.00   0.00  -0.00     0.00  -0.00   0.00     0.00  -0.00   0.00
 135   7     0.00   0.00  -0.00    -0.00  -0.00   0.00    -0.00  -0.00   0.00
 136   6     0.00  -0.00   0.00     0.00   0.00  -0.00     0.00  -0.00   0.00
 137   6     0.00   0.00  -0.00     0.00   0.00  -0.00     0.00   0.00  -0.00
 138   6     0.11  -0.01   0.00     0.03  -0.00   0.00     0.07  -0.01   0.00
 139   6     0.00  -0.07   0.01    -0.00  -0.02   0.00     0.00  -0.04   0.00
 140   6    -0.00  -0.00   0.00    -0.00  -0.00   0.00    -0.00  -0.00   0.00
 141   7    -0.00   0.00  -0.00    -0.00   0.00  -0.00    -0.00   0.00  -0.00
 142   6     0.00  -0.00   0.00     0.00   0.00  -0.00     0.00  -0.00  -0.00
 143   6     0.00  -0.00  -0.00    -0.00   0.00  -0.00    -0.00   0.00  -0.00
 144   7     0.00   0.00  -0.00    -0.00  -0.00   0.00    -0.00  -0.00   0.00
 145   1     0.01   0.15  -0.02    -0.02  -0.22   0.03    -0.01  -0.10   0.01
 146   1     0.24   0.04  -0.01    -0.38  -0.06   0.01    -0.17  -0.02   0.00
 147   1     0.15  -0.02   0.00    -0.20   0.03  -0.01     0.27  -0.04   0.01
 148   1     0.00  -0.09   0.01    -0.01   0.12  -0.01     0.01  -0.16   0.02
 149   1    -0.00   0.00  -0.00     0.00   0.00  -0.00    -0.00  -0.01   0.00
 150   1     0.01   0.13  -0.01    -0.00  -0.05   0.00    -0.01  -0.12   0.01
 151   1     0.23   0.03  -0.00    -0.09  -0.01   0.00    -0.19  -0.03   0.00
 152   1    -0.35   0.05  -0.00    -0.09   0.01  -0.00    -0.22   0.03  -0.00
 153   1    -0.01   0.21  -0.02    -0.00   0.05  -0.00    -0.01   0.13  -0.01
 154   1     0.00   0.01  -0.00     0.00  -0.00   0.00     0.00   0.00  -0.00
                    454                    455                    456
                        a                      a                      a 
 Frequencies --  3166.3621              3166.4314              3166.7944
 Red. masses --     1.9639                 1.9637                 1.9651
 Frc consts  --     0.0000                 0.0000                 0.0000
 IR Inten    --   611.2995               708.1727             13422.6676
 Raman Activ --     0.0000                 0.0000                 0.0000
 Depolar     --     0.0000                 0.0000                 0.0000
 Atom AN      X      Y      Z        X      Y      Z        X      Y      Z
   1  26    -0.00   0.00  -0.00    -0.00   0.00  -0.00    -0.00   0.00  -0.00
   2   6     0.00  -0.06   0.00     0.00  -0.04   0.00     0.00  -0.06   0.00
   3   6     0.10  -0.01   0.00     0.07  -0.01   0.00     0.09  -0.01   0.00
   4   6     0.00   0.00  -0.00     0.00   0.00  -0.00     0.00   0.00  -0.00
   5   6     0.00  -0.00   0.00     0.00  -0.00   0.00     0.00  -0.00   0.00
   6   6     0.00  -0.00   0.00     0.00  -0.00   0.00     0.00  -0.00   0.00
   7   6     0.06   0.01  -0.00     0.03   0.00  -0.00     0.07   0.01  -0.00
   8   6    -0.00   0.04  -0.00    -0.00   0.02  -0.00    -0.00   0.04  -0.00
   9   6    -0.00   0.00   0.00    -0.00   0.00   0.00    -0.00   0.00   0.00
  10   7    -0.00  -0.00  -0.00    -0.00  -0.00   0.00    -0.00  -0.00  -0.00
  11   6     0.00   0.00   0.00     0.00   0.00  -0.00     0.00   0.00   0.00
  12   6     0.00  -0.00   0.00     0.00  -0.00  -0.00     0.00   0.00   0.00
  13   6    -0.00   0.00   0.00    -0.00   0.00   0.00    -0.00   0.01   0.00
  14   6    -0.00   0.00  -0.00    -0.00   0.00  -0.00    -0.01   0.00  -0.00
  15   6    -0.00  -0.00   0.00    -0.00  -0.00  -0.00    -0.00  -0.00  -0.00
  16   7    -0.00   0.00  -0.00    -0.00   0.00  -0.00    -0.00   0.00  -0.00
  17   6     0.00  -0.00   0.00    -0.00  -0.00  -0.00    -0.00  -0.00  -0.00
  18   6    -0.00   0.00   0.00    -0.00   0.00   0.00    -0.00   0.00   0.00
  19   6    -0.00  -0.00  -0.00    -0.00  -0.00  -0.00    -0.01  -0.00  -0.00
  20   6    -0.00  -0.00  -0.00    -0.00  -0.00  -0.00    -0.00  -0.01  -0.00
  21   6     0.00   0.00   0.00     0.00   0.00   0.00     0.00  -0.00   0.00
  22   7    -0.00   0.00  -0.00     0.00   0.00  -0.00    -0.00  -0.00  -0.00
  23   6     0.00  -0.00   0.00     0.00  -0.00   0.00     0.00  -0.00   0.00
  24   6    -0.00  -0.00  -0.00    -0.00  -0.00  -0.00    -0.00  -0.00  -0.00
  25   7    -0.00   0.00  -0.00    -0.00   0.00  -0.00    -0.00   0.00   0.00
  26   1    -0.01   0.19  -0.00    -0.01   0.14  -0.00    -0.01   0.18  -0.00
  27   1    -0.32   0.05  -0.00    -0.23   0.03  -0.00    -0.29   0.04  -0.00
  28   1    -0.20  -0.03   0.00    -0.10  -0.02   0.00    -0.22  -0.04   0.00
  29   1    -0.01  -0.12   0.00    -0.00  -0.06   0.00    -0.01  -0.14   0.00
  30   1     0.00  -0.00  -0.00     0.00  -0.00  -0.00     0.00  -0.00  -0.00
  31   1     0.00  -0.00  -0.00     0.00  -0.00  -0.00     0.00  -0.02  -0.00
  32   1     0.00  -0.00   0.00     0.00  -0.00   0.00     0.03  -0.00   0.00
  33   1    -0.00  -0.00   0.00     0.00  -0.00   0.00     0.00   0.00   0.00
  34   1     0.00   0.00   0.00     0.01   0.00   0.00     0.03   0.00   0.00
  35   1     0.00   0.01   0.00     0.00   0.01   0.00     0.00   0.03   0.00
  36   1     0.00   0.00  -0.00     0.00   0.00  -0.00     0.00   0.01  -0.00
  37  26    -0.00  -0.00  -0.00     0.00   0.00   0.00     0.00   0.00  -0.00
  38   6     0.00  -0.03  -0.01    -0.00   0.00   0.00    -0.00   0.02   0.00
  39   6     0.06  -0.01  -0.00    -0.00   0.00   0.00    -0.03   0.00   0.00
  40   6     0.00   0.00   0.00    -0.00  -0.00  -0.00    -0.00  -0.00  -0.00
  41   6     0.00   0.00   0.00    -0.00  -0.00  -0.00    -0.00  -0.00  -0.00
  42   6     0.00  -0.00  -0.00    -0.00   0.00   0.00    -0.00   0.00   0.00
  43   6     0.09   0.01   0.00    -0.04  -0.01  -0.00    -0.04  -0.00  -0.00
  44   6    -0.00   0.05   0.01     0.00  -0.02  -0.00     0.00  -0.02  -0.00
  45   6    -0.00   0.00   0.00     0.00  -0.00  -0.00     0.00  -0.00  -0.00
  46   7    -0.00  -0.00  -0.00     0.00   0.00   0.00     0.00   0.00   0.00
  47   6     0.00   0.00   0.00    -0.00  -0.00  -0.00    -0.00  -0.00  -0.00
  48   6     0.00  -0.00  -0.00    -0.00   0.00   0.00    -0.00   0.00   0.00
  49   6    -0.00   0.00   0.00     0.00  -0.00  -0.00     0.00  -0.00  -0.00
  50   6    -0.00   0.00   0.00     0.00  -0.00  -0.00     0.00  -0.00  -0.00
  51   6    -0.00  -0.00  -0.00     0.00   0.00   0.00     0.00   0.00   0.00
  52   7    -0.00  -0.00  -0.00    -0.00   0.00   0.00    -0.00   0.00   0.00
  53   6    -0.00   0.00   0.00    -0.00  -0.00  -0.00     0.00   0.00  -0.00
  54   6     0.00  -0.00  -0.00    -0.00   0.00   0.00     0.00  -0.00  -0.00
  55   6     0.00   0.00   0.00    -0.00  -0.00  -0.00     0.00   0.00   0.00
  56   6    -0.00   0.00   0.00    -0.00  -0.00  -0.00     0.00   0.00   0.00
  57   6    -0.00   0.00   0.00     0.00  -0.00  -0.00    -0.00  -0.00  -0.00
  58   7    -0.00  -0.00   0.00    -0.00  -0.00  -0.00    -0.00  -0.00  -0.00
  59   6     0.00  -0.00  -0.00    -0.00  -0.00  -0.00    -0.00   0.00   0.00
  60   6    -0.00  -0.00  -0.00     0.00   0.00   0.00     0.00   0.00   0.00
  61   7    -0.00   0.00   0.00     0.00  -0.00  -0.00     0.00  -0.00  -0.00
  62   1    -0.01   0.10   0.02     0.00  -0.00  -0.00     0.00  -0.06  -0.01
  63   1    -0.19   0.03   0.01     0.01  -0.00  -0.00     0.11  -0.02  -0.00
  64   1    -0.28  -0.04  -0.01     0.13   0.02   0.00     0.12   0.02   0.00
  65   1    -0.01  -0.16  -0.03     0.00   0.08   0.01     0.00   0.07   0.01
  66   1     0.00  -0.00  -0.00    -0.00   0.00   0.00    -0.00   0.00   0.00
  67   1     0.00  -0.00  -0.00    -0.00   0.01   0.00    -0.00   0.01   0.00
  68   1     0.00  -0.00  -0.00    -0.00   0.00   0.00    -0.01   0.00   0.00
  69   1     0.00   0.00  -0.00     0.00  -0.00  -0.00    -0.00  -0.00   0.00
  70   1    -0.00  -0.00  -0.00     0.00   0.00   0.00    -0.01  -0.00  -0.00
  71   1    -0.00  -0.00  -0.00     0.00   0.00   0.00    -0.00  -0.01  -0.00
  72   1     0.00   0.00   0.00    -0.00   0.00   0.00    -0.00  -0.00  -0.00
  73   6    -0.00  -0.00   0.00    -0.00  -0.00   0.00    -0.00  -0.00   0.00
  74   6     0.00   0.00  -0.00     0.00   0.00  -0.00     0.00   0.00  -0.00
  75   6    -0.00   0.00  -0.00    -0.00   0.00  -0.00    -0.00   0.00  -0.00
  76   6     0.00  -0.00   0.00     0.00  -0.00   0.00     0.00  -0.00   0.00
  77   6    -0.00   0.00  -0.00     0.00  -0.00   0.00    -0.00  -0.00   0.00
  78   6    -0.00  -0.00   0.00    -0.00   0.00  -0.00     0.00   0.00  -0.00
  79   6     0.00  -0.00   0.00     0.00   0.00  -0.00    -0.00  -0.00   0.00
  80   6    -0.00   0.00  -0.00    -0.00  -0.00   0.00     0.00   0.00  -0.00
  81   6     0.00   0.00  -0.00    -0.00  -0.00   0.00    -0.00  -0.00   0.00
  82   6    -0.00  -0.00   0.00     0.00   0.00  -0.00     0.00   0.00  -0.00
  83   6     0.00  -0.00  -0.00    -0.00   0.00   0.00    -0.00   0.00  -0.00
  84   6    -0.00   0.00   0.00     0.00  -0.00  -0.00     0.00  -0.00  -0.00
  85  26     0.00  -0.00   0.00     0.00   0.00  -0.00    -0.00   0.00  -0.00
  86   6    -0.00  -0.06   0.01    -0.00  -0.05   0.01    -0.00  -0.04   0.00
  87   6    -0.09  -0.01   0.00    -0.08  -0.01   0.00    -0.06  -0.01   0.00
  88   6    -0.00   0.00  -0.00    -0.00   0.00  -0.00    -0.00   0.00  -0.00
  89   6    -0.00   0.00   0.00    -0.00  -0.00   0.00    -0.00  -0.00   0.00
  90   6    -0.00  -0.00   0.00    -0.00  -0.00   0.00    -0.00  -0.00   0.00
  91   6    -0.09   0.01  -0.00    -0.04   0.00  -0.00    -0.05   0.01  -0.00
  92   6    -0.00   0.06  -0.01    -0.00   0.02  -0.00    -0.00   0.03  -0.00
  93   6     0.00   0.00  -0.00     0.00   0.00  -0.00     0.00   0.00  -0.00
  94   7     0.00  -0.00   0.00     0.00  -0.00   0.00     0.00  -0.00   0.00
  95   6    -0.00   0.00  -0.00    -0.00  -0.00   0.00     0.00   0.00  -0.00
  96   6     0.00  -0.00   0.00     0.00  -0.00   0.00    -0.00   0.00  -0.00
  97   6     0.00  -0.01   0.00    -0.00  -0.04   0.00     0.00   0.05  -0.01
  98   6    -0.01  -0.00   0.00    -0.07  -0.01   0.00     0.08   0.01  -0.00
  99   6    -0.00   0.00  -0.00    -0.00   0.00  -0.00     0.00  -0.00   0.00
 100   7     0.00   0.00  -0.00     0.00   0.00  -0.00    -0.00  -0.00   0.00
 101   6    -0.00   0.00  -0.00    -0.00  -0.00   0.00     0.00  -0.00   0.00
 102   6    -0.00  -0.00   0.00     0.00  -0.00   0.00     0.00   0.00  -0.00
 103   6    -0.08   0.01  -0.00    -0.00   0.00  -0.00     0.11  -0.01   0.00
 104   6    -0.00   0.04  -0.00     0.00  -0.00   0.00     0.00  -0.07   0.01
 105   6     0.00   0.00  -0.00     0.00   0.00  -0.00    -0.00  -0.00   0.00
 106   7     0.00  -0.00   0.00     0.00   0.00  -0.00    -0.00   0.00  -0.00
 107   6    -0.00  -0.00   0.00    -0.00  -0.00   0.00     0.00  -0.00   0.00
 108   6     0.00  -0.00   0.00     0.00  -0.00   0.00     0.00  -0.00   0.00
 109   7     0.00   0.00  -0.00     0.00   0.00  -0.00     0.00   0.00  -0.00
 110   1     0.01   0.17  -0.02     0.01   0.15  -0.02     0.01   0.12  -0.01
 111   1     0.30   0.04  -0.01     0.25   0.04  -0.01     0.20   0.03  -0.00
 112   1     0.30  -0.05   0.01     0.12  -0.02   0.00     0.16  -0.02   0.00
 113   1     0.01  -0.18   0.02     0.00  -0.07   0.01     0.01  -0.10   0.01
 114   1    -0.00  -0.00   0.00    -0.00   0.00  -0.00     0.00  -0.01   0.00
 115   1     0.00   0.02  -0.00     0.01   0.13  -0.01    -0.01  -0.17   0.02
 116   1     0.04   0.01  -0.00     0.23   0.04  -0.00    -0.28  -0.04   0.00
 117   1     0.25  -0.04   0.00     0.00  -0.00   0.00    -0.35   0.05  -0.00
 118   1     0.01  -0.14   0.02    -0.00   0.00  -0.00    -0.01   0.21  -0.02
 119   1    -0.00   0.00  -0.00    -0.00   0.00  -0.00     0.00   0.01  -0.00
 120  26     0.00  -0.00   0.00    -0.00   0.00  -0.00     0.00   0.00  -0.00
 121   6     0.00   0.03  -0.00     0.00   0.02  -0.00    -0.00  -0.05   0.01
 122   6     0.04   0.00  -0.00     0.03   0.00  -0.00    -0.08  -0.01   0.00
 123   6     0.00  -0.00   0.00     0.00  -0.00   0.00    -0.00   0.00  -0.00
 124   6     0.00   0.00  -0.00     0.00  -0.00   0.00    -0.00   0.00  -0.00
 125   6    -0.00  -0.00   0.00     0.00   0.01  -0.00    -0.00  -0.00   0.00
 126   6    -0.02   0.00  -0.00     0.16  -0.02   0.00    -0.10   0.01  -0.00
 127   6    -0.00   0.01  -0.00     0.00  -0.10   0.01    -0.00   0.06  -0.01
 128   6     0.00   0.00  -0.00    -0.00  -0.00   0.00     0.00   0.00   0.00
 129   7     0.00  -0.00   0.00    -0.00   0.00  -0.00     0.00  -0.00   0.00
 130   6    -0.00   0.00  -0.00     0.00  -0.00   0.00    -0.00   0.00  -0.00
 131   6     0.00  -0.00   0.00    -0.00   0.00  -0.00    -0.00   0.00  -0.00
 132   6    -0.00  -0.02   0.00     0.00   0.01  -0.00     0.00   0.02  -0.00
 133   6    -0.03  -0.00   0.00     0.02   0.00  -0.00     0.03   0.00  -0.00
 134   6    -0.00   0.00  -0.00     0.00  -0.00   0.00     0.00  -0.00   0.00
 135   7     0.00   0.00  -0.00    -0.00  -0.00  -0.00    -0.00  -0.00   0.00
 136   6    -0.00   0.00  -0.00     0.00  -0.00   0.00     0.00  -0.00   0.00
 137   6    -0.00  -0.00   0.00     0.00   0.00  -0.00     0.00   0.00  -0.00
 138   6    -0.11   0.01  -0.00     0.13  -0.02   0.00     0.06  -0.01   0.00
 139   6    -0.00   0.07  -0.01     0.00  -0.08   0.01     0.00  -0.04   0.00
 140   6     0.00   0.00  -0.00    -0.00  -0.00   0.00    -0.00  -0.00   0.00
 141   7     0.00  -0.00   0.00    -0.00   0.00  -0.00    -0.00   0.00  -0.00
 142   6    -0.00   0.00  -0.00     0.00  -0.00   0.00    -0.00  -0.00   0.00
 143   6    -0.00   0.00   0.00    -0.00   0.00  -0.00     0.00  -0.00   0.00
 144   7    -0.00  -0.00   0.00    -0.00  -0.00   0.00     0.00   0.00  -0.00
 145   1    -0.01  -0.09   0.01    -0.00  -0.05   0.01     0.01   0.16  -0.02
 146   1    -0.14  -0.02   0.00    -0.10  -0.01   0.00     0.27   0.04  -0.01
 147   1     0.06  -0.01   0.00    -0.52   0.08  -0.02     0.33  -0.05   0.01
 148   1     0.00  -0.04   0.00    -0.02   0.30  -0.04     0.01  -0.20   0.02
 149   1    -0.00  -0.00  -0.00     0.00   0.01  -0.00    -0.00  -0.01   0.00
 150   1     0.00   0.05  -0.00    -0.00  -0.04   0.00    -0.00  -0.07   0.01
 151   1     0.09   0.01  -0.00    -0.08  -0.01   0.00    -0.11  -0.02   0.00
 152   1     0.37  -0.06   0.00    -0.41   0.06  -0.00    -0.19   0.03  -0.00
 153   1     0.01  -0.22   0.02    -0.01   0.25  -0.02    -0.01   0.12  -0.01
 154   1    -0.00  -0.01   0.00     0.00   0.00  -0.00    -0.00   0.01  -0.00
