      -----------------------------------------------------------      
     |                   =====================                   |     
     |                           x T B                           |     
     |                   =====================                   |     
     |                         S. Grimme                         |     
     |          Mulliken Center for Theoretical Chemistry        |     
     |                    University of Bonn                     |     
      -----------------------------------------------------------      

   * xtb version 6.4.1 (bd6e46d) compiled by 'conda@4901f00b25ba' on 2021-06-10

   xtb is free software: you can redistribute it and/or modify it under
   the terms of the GNU Lesser General Public License as published by
   the Free Software Foundation, either version 3 of the License, or
   (at your option) any later version.
   
   xtb is distributed in the hope that it will be useful,
   but WITHOUT ANY WARRANTY; without even the implied warranty of
   MERCHANTABILITY or FITNESS FOR A PARTICULAR PURPOSE.  See the
   GNU Lesser General Public License for more details.
   
   Cite this work as:
   * C. Bannwarth, E. Caldeweyher, S. Ehlert, A. Hansen, P. Pracht,
     J. Seibert, S. Spicher, S. Grimme, WIREs Comput. Mol. Sci., 2020, 11,
     e01493. DOI: 10.1002/wcms.1493
   
   for GFN2-xTB:
   * C. Bannwarth, S. Ehlert and S. Grimme., J. Chem. Theory Comput., 2019,
     15, 1652-1671. DOI: 10.1021/acs.jctc.8b01176
   for GFN1-xTB:
   * S. Grimme, C. Bannwarth, P. Shushkov, J. Chem. Theory Comput., 2017,
     13, 1989-2009. DOI: 10.1021/acs.jctc.7b00118
   for GFN0-xTB:
   * P. Pracht, E. Caldeweyher, S. Ehlert, S. Grimme, ChemRxiv, 2019, preprint.
     DOI: 10.26434/chemrxiv.8326202.v1
   for GFN-FF:
   * S. Spicher and S. Grimme, Angew. Chem. Int. Ed., 2020, 59, 15665-15673.
     DOI: 10.1002/anie.202004239
   
   for DFT-D4:
   * E. Caldeweyher, C. Bannwarth and S. Grimme, J. Chem. Phys., 2017,
     147, 034112. DOI: 10.1063/1.4993215
   * E. Caldeweyher, S. Ehlert, A. Hansen, H. Neugebauer, S. Spicher,
     C. Bannwarth and S. Grimme, J. Chem. Phys., 2019, 150, 154122.
     DOI: 10.1063/1.5090222
   * E. Caldeweyher, J.-M. Mewes, S. Ehlert and S. Grimme, Phys. Chem. Chem. Phys.
     2020, 22, 8499-8512. DOI: 10.1039/D0CP00502A
   
   for sTDA-xTB:
   * S. Grimme and C. Bannwarth, J. Chem. Phys., 2016, 145, 054103.
     DOI: 10.1063/1.4959605
   
   in the mass-spec context:
   * V. Asgeirsson, C. Bauer and S. Grimme, Chem. Sci., 2017, 8, 4879.
     DOI: 10.1039/c7sc00601b
   * J. Koopman and S. Grimme, ACS Omega 2019, 4, 12, 15120-15133.
     DOI: 10.1021/acsomega.9b02011
   
   for metadynamics refer to:
   * S. Grimme, J. Chem. Theory Comput., 2019, 155, 2847-2862
     DOI: 10.1021/acs.jctc.9b00143
   
   for SPH calculations refer to:
   * S. Spicher and S. Grimme, J. Chem. Theory Comput., 2021, 17, 1701-1714
     DOI: 10.1021/acs.jctc.0c01306
   
   with help from (in alphabetical order)
   P. Atkinson, C. Bannwarth, F. Bohle, G. Brandenburg, E. Caldeweyher
   M. Checinski, S. Dohm, S. Ehlert, S. Ehrlich, I. Gerasimov, J. Koopman
   C. Lavigne, S. Lehtola, F. März, M. Müller, F. Musil, H. Neugebauer
   J. Pisarek, C. Plett, P. Pracht, J. Seibert, P. Shushkov, S. Spicher
   M. Stahn, M. Steiner, T. Strunk, J. Stückrath, T. Rose, and J. Unsleber
   
 * started run on 2021/11/19 at 13:01:25.242     

           -------------------------------------------------
          |                Calculation Setup                |
           -------------------------------------------------

          program call               : /home/jeff/miniconda3/bin/xtb input_structure_1.xyz --gfn 2 --ohess normal --parallel 1 --etemp 300 --chrg 0 --uhf 0 -I det_control.in
          hostname                   : jelfscompute1
          coordinate file            : input_structure_1.xyz
          omp threads                :                     1
          number of atoms            :                   154
          number of electrons        :                   522
          charge                     :                     0
          spin                       :                   0.0
          first test random number   :      0.53522308644546

   ID    Z sym.   atoms
    1   26 Fe     1, 37, 85, 120
    2    6 C      2-9, 11-15, 17-21, 23, 24, 38-45, 47-51, 53-57, 59, 60,
                  73-84, 86-93, 95-99, 101-105, 107, 108, 121-128, 130-134,
                  136-140, 142, 143
    3    7 N      10, 16, 22, 25, 46, 52, 58, 61, 94, 100, 106, 109, 129,
                  135, 141, 144
    4    1 H      26-36, 62-72, 110-119, 145-154

molecular fragmentation (1/2 indicates fragments):
111111111111111111111111111111111111222222222222222222222222222222222222
222222222222222222222222222222222222222222222222222222222222222222222222
2222222222
# atoms in fragment 1/2:    36   118
 fragment masses (1/2) :      363.17     1231.64
CMA distance (Bohr)    :  52.922
constraining FC (au)   :  0.0500

           -------------------------------------------------
          |                 G F N 2 - x T B                 |
           -------------------------------------------------

        Reference                      10.1021/acs.jctc.8b01176
      * Hamiltonian:
        H0-scaling (s, p, d)           1.850000    2.230000    2.230000
        zeta-weighting                 0.500000
      * Dispersion:
        s8                             2.700000
        a1                             0.520000
        a2                             5.000000
        s9                             5.000000
      * Repulsion:
        kExp                           1.500000    1.000000
        rExp                           1.000000
      * Coulomb:
        alpha                          2.000000
        third order                    shell-resolved
        anisotropic                    true
        a3                             3.000000
        a5                             4.000000
        cn-shift                       1.200000
        cn-exp                         4.000000
        max-rad                        5.000000


          ...................................................
          :                      SETUP                      :
          :.................................................:
          :  # basis functions                 514          :
          :  # atomic orbitals                 510          :
          :  # shells                          270          :
          :  # electrons                       522          :
          :  max. iterations                   250          :
          :  Hamiltonian                  GFN2-xTB          :
          :  restarted?                      false          :
          :  GBSA solvation                  false          :
          :  PC potential                    false          :
          :  electronic temp.          300.0000000     K    :
          :  accuracy                    1.0000000          :
          :  -> integral cutoff          0.2500000E+02      :
          :  -> integral neglect         0.1000000E-07      :
          :  -> SCF convergence          0.1000000E-05 Eh   :
          :  -> wf. convergence          0.1000000E-03 e    :
          :  Broyden damping             0.4000000          :
          ...................................................

 iter      E             dE          RMSdq      gap      omega  full diag
   1   -278.0393507 -0.278039E+03  0.852E+00    0.17       0.0  T
   2   -260.1634549  0.178759E+02  0.119E+01    0.27       1.0  T
   3   -259.5427043  0.620751E+00  0.854E+00    0.42       1.0  T
   4   -252.1765381  0.736617E+01  0.804E+00    0.05       1.0  T
   5   -236.5178331  0.156587E+02  0.937E+00    0.07       1.0  T
   6   -260.2751736 -0.237573E+02  0.790E+00    0.05       1.0  T
   7   -261.2978878 -0.102271E+01  0.695E+00    0.04       1.0  T
   8   -262.6883765 -0.139049E+01  0.659E+00    0.07       1.0  T
   9   -270.1134691 -0.742509E+01  0.628E+00    0.03       1.0  T
  10   -268.2764071  0.183706E+01  0.613E+00    0.32       1.0  T
  11   -271.0833029 -0.280690E+01  0.561E+00    0.02       1.0  T
  12   -275.3605938 -0.427729E+01  0.502E+00    0.01       1.0  T
  13   -277.9448226 -0.258423E+01  0.491E+00    0.07       1.0  T
  14   -278.1953924 -0.250570E+00  0.503E+00    0.07       1.0  T
  15   -278.2654877 -0.700953E-01  0.504E+00    0.02       1.0  T
  16   -277.1672020  0.109829E+01  0.491E+00    0.01       1.0  T
  17   -278.6323058 -0.146510E+01  0.499E+00    0.03       1.0  T
  18   -275.6295440  0.300276E+01  0.473E+00    0.02       1.0  T
  19   -276.9191508 -0.128961E+01  0.435E+00    0.02       1.0  T
  20   -277.6557881 -0.736637E+00  0.440E+00    0.01       1.0  T
  21   -275.4088783  0.224691E+01  0.605E+00    0.05       1.0  T
  22   -276.4003424 -0.991464E+00  0.408E+00    0.02       1.0  T
  23   -274.7036771  0.169667E+01  0.577E+00    0.03       1.0  T
  24   -275.1846475 -0.480970E+00  0.562E+00    0.01       1.0  T
  25   -275.5694138 -0.384766E+00  0.551E+00    0.03       1.0  T
  26   -279.1396818 -0.357027E+01  0.428E+00    0.04       1.0  T
  27   -275.3572416  0.378244E+01  0.563E+00    0.02       1.0  T
  28   -275.8537570 -0.496515E+00  0.523E+00    0.01       1.0  T
  29   -274.3102400  0.154352E+01  0.568E+00    0.01       1.0  T
  30   -275.8943729 -0.158413E+01  0.513E+00    0.06       1.0  T
  31   -275.8300671  0.643058E-01  0.525E+00    0.03       1.0  T
  32   -274.6202270  0.120984E+01  0.566E+00    0.02       1.0  T
  33   -274.9687578 -0.348531E+00  0.520E+00    0.00       1.0  T
  34   -275.5831813 -0.614424E+00  0.524E+00    0.03       1.0  T
  35   -274.7168143  0.866367E+00  0.655E+00    0.08       1.0  T
  36   -274.8061451 -0.893309E-01  0.645E+00    0.07       1.0  T
  37   -276.7001982 -0.189405E+01  0.611E+00    0.01       1.0  T
  38   -277.1421764 -0.441978E+00  0.595E+00    0.02       1.0  T
  39   -277.0471365  0.950400E-01  0.600E+00    0.02       1.0  T
  40   -275.8962720  0.115086E+01  0.634E+00    0.03       1.0  T
  41   -276.6141432 -0.717871E+00  0.611E+00    0.03       1.0  T
  42   -277.4026092 -0.788466E+00  0.588E+00    0.00       1.0  T
  43   -277.8302492 -0.427640E+00  0.576E+00    0.02       1.0  T
  44   -278.3831970 -0.552948E+00  0.486E+00    0.01       1.0  T
  45   -276.5705352  0.181266E+01  0.565E+00    0.02       1.0  T
  46   -277.1666838 -0.596149E+00  0.567E+00    0.01       1.0  T
  47   -277.6199405 -0.453257E+00  0.593E+00    0.04       1.0  T
  48   -277.2598509  0.360090E+00  0.610E+00    0.02       1.0  T
  49   -274.4980666  0.276178E+01  0.681E+00    0.09       1.0  T
  50   -275.8399906 -0.134192E+01  0.652E+00    0.01       1.0  T
  51   -276.9490608 -0.110907E+01  0.596E+00    0.02       1.0  T
  52   -277.9063726 -0.957312E+00  0.549E+00    0.01       1.0  T
  53   -278.1260378 -0.219665E+00  0.538E+00    0.01       1.0  T
  54   -274.9231362  0.320290E+01  0.643E+00    0.03       1.0  T
  55   -277.4068066 -0.248367E+01  0.544E+00    0.03       1.0  T
  56   -277.6893823 -0.282576E+00  0.547E+00    0.03       1.0  T
  57   -278.4785575 -0.789175E+00  0.511E+00    0.01       1.0  T
  58   -279.0720850 -0.593527E+00  0.464E+00    0.00       1.0  T
  59   -280.8141423 -0.174206E+01  0.337E+00    0.02       1.0  T
  60   -280.6765266  0.137616E+00  0.300E+00    0.01       1.0  T
  61   -281.3847986 -0.708272E+00  0.278E+00    0.01       1.0  T
  62   -281.1942641  0.190534E+00  0.284E+00    0.02       1.0  T
  63   -280.9342671  0.259997E+00  0.293E+00    0.02       1.0  T
  64   -281.4880806 -0.553814E+00  0.243E+00    0.01       1.0  T
  65   -280.5199086  0.968172E+00  0.274E+00    0.02       1.0  T
  66   -280.5400842 -0.201755E-01  0.264E+00    0.02       1.0  T
  67   -280.9680559 -0.427972E+00  0.253E+00    0.02       1.0  T
  68   -280.9086808  0.593751E-01  0.264E+00    0.00       1.0  T
  69   -279.1568528  0.175183E+01  0.382E+00    0.01       1.0  T
  70   -279.6258488 -0.468996E+00  0.344E+00    0.01       1.0  T
  71   -280.9577712 -0.133192E+01  0.236E+00    0.01       1.0  T
  72   -281.4104624 -0.452691E+00  0.182E+00    0.00       1.0  T
  73   -281.3532870  0.571754E-01  0.195E+00    0.00       1.0  T
  74   -281.4641040 -0.110817E+00  0.186E+00    0.01       1.0  T
  75   -281.2988679  0.165236E+00  0.195E+00    0.00       1.0  T
  76   -281.3703098 -0.714419E-01  0.195E+00    0.00       1.0  T
  77   -281.5163577 -0.146048E+00  0.153E+00    0.00       1.0  T
  78   -281.4453269  0.710308E-01  0.158E+00    0.00       1.0  T
  79   -281.5219329 -0.766061E-01  0.151E+00    0.00       1.0  T
  80   -281.3713950  0.150538E+00  0.171E+00    0.01       1.0  T
  81   -281.4281944 -0.567994E-01  0.162E+00    0.00       1.0  T
  82   -281.4504128 -0.222184E-01  0.156E+00    0.01       1.0  T
  83   -281.4567233 -0.631045E-02  0.152E+00    0.02       1.0  T
  84   -281.4227990  0.339243E-01  0.154E+00    0.00       1.0  T
  85   -281.4459901 -0.231912E-01  0.150E+00    0.01       1.0  T
  86   -281.4758662 -0.298761E-01  0.140E+00    0.00       1.0  T
  87   -281.5005033 -0.246371E-01  0.126E+00    0.01       1.0  T
  88   -281.5475840 -0.470807E-01  0.104E+00    0.01       1.0  T
  89   -281.5990849 -0.515009E-01  0.738E-01    0.00       1.0  T
  90   -281.6088089 -0.972408E-02  0.661E-01    0.00       1.0  T
  91   -281.5991841  0.962489E-02  0.568E-01    0.00       1.0  T
  92   -281.5883917  0.107923E-01  0.627E-01    0.01       1.0  T
  93   -281.4940195  0.943722E-01  0.819E-01    0.00       1.0  T
  94   -281.5612768 -0.672573E-01  0.630E-01    0.00       1.0  T
  95   -281.5751571 -0.138803E-01  0.513E-01    0.01       1.0  T
  96   -281.6060377 -0.308806E-01  0.397E-01    0.01       1.0  T
  97   -281.6254757 -0.194380E-01  0.301E-01    0.01       1.0  T
  98   -281.6275315 -0.205585E-02  0.264E-01    0.01       1.0  T
  99   -281.6152339  0.122976E-01  0.319E-01    0.01       1.0  T
 100   -281.6211184 -0.588448E-02  0.267E-01    0.01       1.0  T
 101   -281.6153540  0.576440E-02  0.306E-01    0.00       1.0  T
 102   -281.6223054 -0.695134E-02  0.255E-01    0.00       1.0  T
 103   -281.6316888 -0.938344E-02  0.158E-01    0.00       1.0  T
 104   -281.6335072 -0.181844E-02  0.147E-01    0.00       1.0  T
 105   -281.6356328 -0.212560E-02  0.123E-01    0.00       1.0  T
 106   -281.6363215 -0.688662E-03  0.108E-01    0.00       1.0  T
 107   -281.6358764  0.445124E-03  0.109E-01    0.00       1.0  T
 108   -281.6361859 -0.309547E-03  0.107E-01    0.00       1.0  T
 109   -281.6352670  0.918890E-03  0.118E-01    0.00       1.0  T
 110   -281.6342796  0.987480E-03  0.129E-01    0.00       1.0  T
 111   -281.6350238 -0.744262E-03  0.117E-01    0.00       1.0  T
 112   -281.6360201 -0.996319E-03  0.901E-02    0.00       1.0  T
 113   -281.6367690 -0.748827E-03  0.631E-02    0.00       1.0  T
 114   -281.6367278  0.411681E-04  0.677E-02    0.00       1.0  T
 115   -281.6371510 -0.423167E-03  0.421E-02    0.00       1.0  T
 116   -281.6371698 -0.188740E-04  0.401E-02    0.00       1.0  T
 117   -281.6373032 -0.133343E-03  0.282E-02    0.00       1.0  T
 118   -281.6372374  0.658027E-04  0.316E-02    0.00       1.0  T
 119   -281.6371602  0.771921E-04  0.349E-02    0.00       1.0  T
 120   -281.6373471 -0.186895E-03  0.114E-02    0.00       1.0  T
 121   -281.6373150  0.321255E-04  0.166E-02    0.00       1.0  T
 122   -281.6373291 -0.141114E-04  0.139E-02    0.00       1.0  T
 123   -281.6372873  0.417380E-04  0.183E-02    0.00       1.0  T
 124   -281.6372924 -0.504506E-05  0.185E-02    0.00       1.0  T
 125   -281.6373185 -0.260944E-04  0.160E-02    0.00       1.0  T
 126   -281.6373336 -0.151004E-04  0.136E-02    0.00       1.0  T
 127   -281.6373588 -0.252756E-04  0.814E-03    0.00       1.0  T
 128   -281.6373623 -0.345021E-05  0.671E-03    0.00       1.2  T
 129   -281.6373658 -0.349065E-05  0.483E-03    0.00       1.7  T
 130   -281.6373675 -0.171004E-05  0.370E-03    0.00       2.2  T
 131   -281.6373664  0.107680E-05  0.387E-03    0.00       2.1  T
 132   -281.6373672 -0.733090E-06  0.329E-03    0.00       2.4  T
 133   -281.6373694 -0.224877E-05  0.140E-03    0.00       5.8  T
 134   -281.6373694 -0.180403E-07  0.118E-03    0.00       6.8  T
 135   -281.6373697 -0.246413E-06  0.768E-04    0.00      10.5  T
 136   -281.6373697 -0.112714E-07  0.736E-04    0.00      10.9  T

   *** convergence criteria satisfied after 136 iterations ***

         #    Occupation            Energy/Eh            Energy/eV
      -------------------------------------------------------------
         1        2.0000           -0.6815106             -18.5448
       ...           ...                  ...                  ...
       255        1.9030           -0.3387709              -9.2184
       256        1.8771           -0.3385330              -9.2120
       257        1.8770           -0.3385319              -9.2119
       258        1.4644           -0.3368987              -9.1675
       259        1.4549           -0.3368758              -9.1669
       260        1.1012           -0.3361359              -9.1467
       261        1.0064           -0.3359553              -9.1418 (HOMO)
       262        0.9561           -0.3358595              -9.1392 (LUMO)
       263        0.9280           -0.3358059              -9.1377
       264        0.8436           -0.3356435              -9.1333
       265        0.7680           -0.3354941              -9.1293
       266        0.0001           -0.3267169              -8.8904
       ...           ...                  ...                  ...
       510                          1.6204385              44.0944
      -------------------------------------------------------------
                  HL-Gap            0.0000958 Eh            0.0026 eV
             Fermi-level           -0.3359430 Eh           -9.1415 eV

 SCC (total)                   0 d,  0 h,  0 min,  8.288 sec
 SCC setup                      ...        0 min,  0.004 sec (  0.052%)
 Dispersion                     ...        0 min,  0.010 sec (  0.118%)
 classical contributions        ...        0 min,  0.001 sec (  0.013%)
 integral evaluation            ...        0 min,  0.079 sec (  0.955%)
 iterations                     ...        0 min,  7.967 sec ( 96.129%)
 molecular gradient             ...        0 min,  0.220 sec (  2.649%)
 printout                       ...        0 min,  0.007 sec (  0.084%)

         :::::::::::::::::::::::::::::::::::::::::::::::::::::
         ::                     SUMMARY                     ::
         :::::::::::::::::::::::::::::::::::::::::::::::::::::
         :: total energy            -276.567781312001 Eh    ::
         :: gradient norm              0.741683182812 Eh/a0 ::
         :: HOMO-LUMO gap              0.002605537613 eV    ::
         ::.................................................::
         :: SCC energy              -281.637369675130 Eh    ::
         :: -> isotropic ES            0.014012389817 Eh    ::
         :: -> anisotropic ES          0.038463895821 Eh    ::
         :: -> anisotropic XC          0.185968101379 Eh    ::
         :: -> dispersion             -0.206806410795 Eh    ::
         :: repulsion energy           5.069027795241 Eh    ::
         :: add. restraining           0.000000000000 Eh    ::
         :: total charge              -0.000000000000 e     ::
         :::::::::::::::::::::::::::::::::::::::::::::::::::::

      ----------------------------------------------------------- 
     |                   =====================                   |
     |                        A N C O P T                        |
     |                   =====================                   |
     |               Approximate Normal Coordinate               |
     |                Rational Function Optimizer                |
      ----------------------------------------------------------- 

          ...................................................
          :                      SETUP                      :
          :.................................................:
          :   optimization level            normal          :
          :   max. optcycles                   462          :
          :   ANC micro-cycles                  20          :
          :   degrees of freedom               456          :
          :.................................................:
          :   RF solver                   davidson          :
          :   write xtbopt.log                true          :
          :   linear?                        false          :
          :   energy convergence         0.5000000E-05 Eh   :
          :   grad. convergence          0.1000000E-02 Eh/α :
          :   maximium RF displ.         1.0000000          :
          :   Hlow (freq-cutoff)         0.1000000E-01      :
          :   Hmax (freq-cutoff)         5.0000000          :
          :   S6 in model hess.         20.0000000          :
          ...................................................

generating ANC from model Hessian ...
Using Lindh-Hessian (1995)
 Shifting diagonal of input Hessian by    1.0124424357260908E-002
 Lowest  eigenvalues of input Hessian
    0.010000    0.010039    0.010094    0.010097    0.010101    0.010107
    0.010107    0.010112    0.010115    0.010117    0.010120    0.000000
    0.000000    0.000000    0.000000    0.000000    0.000000    0.010135
 Highest eigenvalues
    2.239936    2.250060    2.576437    2.785520    2.844620    2.909723


........................................................................
.............................. CYCLE    1 ..............................
........................................................................
   1   -281.6373697 -0.281637E+03  0.623E-04    0.00       0.0  T
   2   -281.6361547  0.121500E-02  0.728E-02    0.00       1.0  T
   3   -281.6373315 -0.117683E-02  0.124E-02    0.00       1.0  T
   4   -281.6365292  0.802273E-03  0.591E-02    0.00       1.0  T
   5   -281.6372092 -0.679954E-03  0.247E-02    0.00       1.0  T
   6   -281.6371019  0.107304E-03  0.316E-02    0.00       1.0  T
   7   -281.6373534 -0.251519E-03  0.842E-03    0.00       1.0  T
   8   -281.6372774  0.759947E-04  0.179E-02    0.00       1.0  T
   9   -281.6373101 -0.327232E-04  0.156E-02    0.00       1.0  T
  10   -281.6373658 -0.556249E-04  0.421E-03    0.00       1.9  T
  11   -281.6373697 -0.390193E-05  0.760E-04    0.00      10.6  T
  12   -281.6373693  0.386582E-06  0.140E-03    0.00       5.8  T
  13   -281.6373696 -0.345026E-06  0.778E-04    0.00      10.4  T
  14   -281.6373697 -0.708714E-07  0.484E-04    0.00      16.7  T
     SCC iter.                  ...        0 min,  0.812 sec
     gradient                   ...        0 min,  0.219 sec
 * total energy  :  -276.5677813 Eh     change       -0.2042987E-07 Eh
   gradient norm :     0.7416833 Eh/α   predicted     0.0000000E+00 (-100.00%)
   displ. norm   :     0.5389971 α      lambda       -0.3171065E+00
   maximum displ.:     0.1392516 α      in ANC's #158, #157, #156, ...

........................................................................
.............................. CYCLE    2 ..............................
........................................................................
   1   -281.5865329 -0.281587E+03  0.761E-01    0.00       0.0  T
   2   -275.4215166  0.616502E+01  0.443E+00    0.03       1.0  T
   3   -280.5765617 -0.515505E+01  0.263E+00    0.01       1.0  T
   4   -277.3558175  0.322074E+01  0.446E+00    0.01       1.0  T
   5   -277.2693600  0.864576E-01  0.469E+00    0.02       1.0  T
   6   -275.4433560  0.182600E+01  0.556E+00    0.10       1.0  T
   7   -280.1048398 -0.466148E+01  0.288E+00    0.03       1.0  T
   8   -280.4325856 -0.327746E+00  0.229E+00    0.02       1.0  T
   9   -278.4867074  0.194588E+01  0.391E+00    0.01       1.0  T
  10   -279.9915346 -0.150483E+01  0.282E+00    0.00       1.0  T
  11   -280.7638319 -0.772297E+00  0.198E+00    0.03       1.0  T
  12   -280.3780981  0.385734E+00  0.234E+00    0.03       1.0  T
  13   -281.1081203 -0.730022E+00  0.146E+00    0.01       1.0  T
  14   -280.1942232  0.913897E+00  0.229E+00    0.03       1.0  T
  15   -281.0588049 -0.864582E+00  0.157E+00    0.00       1.0  T
  16   -281.2268466 -0.168042E+00  0.131E+00    0.01       1.0  T
  17   -281.3967888 -0.169942E+00  0.100E+00    0.01       1.0  T
  18   -281.3219270  0.748618E-01  0.108E+00    0.01       1.0  T
  19   -281.2768226  0.451044E-01  0.126E+00    0.01       1.0  T
  20   -281.5151596 -0.238337E+00  0.791E-01    0.01       1.0  T
  21   -281.2503213  0.264838E+00  0.133E+00    0.00       1.0  T
  22   -281.5847079 -0.334387E+00  0.396E-01    0.00       1.0  T
  23   -281.6044126 -0.197047E-01  0.354E-01    0.00       1.0  T
  24   -281.6046964 -0.283800E-03  0.319E-01    0.00       1.0  T
  25   -281.6074530 -0.275664E-02  0.324E-01    0.00       1.0  T
  26   -281.6195697 -0.121167E-01  0.171E-01    0.00       1.0  T
  27   -281.6195920 -0.222473E-04  0.181E-01    0.00       1.0  T
  28   -281.6255197 -0.592770E-02  0.107E-01    0.00       1.0  T
  29   -281.6243435  0.117618E-02  0.120E-01    0.00       1.0  T
  30   -281.6262686 -0.192508E-02  0.807E-02    0.00       1.0  T
  31   -281.6269590 -0.690469E-03  0.576E-02    0.00       1.0  T
  32   -281.6271599 -0.200859E-03  0.466E-02    0.00       1.0  T
  33   -281.6274496 -0.289731E-03  0.331E-02    0.00       1.0  T
  34   -281.6276539 -0.204254E-03  0.147E-02    0.00       1.0  T
  35   -281.6276749 -0.210032E-04  0.122E-02    0.00       1.0  T
  36   -281.6276832 -0.832207E-05  0.901E-03    0.00       1.0  T
  37   -281.6276930 -0.978829E-05  0.741E-03    0.00       1.1  T
  38   -281.6276934 -0.427854E-06  0.657E-03    0.00       1.2  T
  39   -281.6277036 -0.101459E-04  0.184E-03    0.00       4.4  T
  40   -281.6277033  0.255146E-06  0.172E-03    0.00       4.7  T
  41   -281.6277026  0.735786E-06  0.251E-03    0.00       3.2  T
  42   -281.6277041 -0.147268E-05  0.578E-04    0.00      14.0  T
  43   -281.6277041 -0.114994E-09  0.519E-04    0.00      15.5  T
  44   -281.6277041 -0.182835E-07  0.455E-04    0.00      17.7  T
     SCC iter.                  ...        0 min,  2.548 sec
     gradient                   ...        0 min,  0.219 sec
 * total energy  :  -276.8148796 Eh     change       -0.2470982E+00 Eh
   gradient norm :     0.3984599 Eh/α   predicted    -0.2046642E+00 ( -17.17%)
   displ. norm   :     0.6229950 α      lambda       -0.1916804E+00
   maximum displ.:     0.1934983 α      in ANC's #158, #157, #156, ...

........................................................................
.............................. CYCLE    3 ..............................
........................................................................
   1   -281.6201908 -0.281620E+03  0.142E+00    0.02       0.0  T
   2   -272.3461705  0.927402E+01  0.522E+00    0.00       1.0  T
   3   -279.5302585 -0.718409E+01  0.454E+00    0.03       1.0  T
   4   -272.8954337  0.663482E+01  0.625E+00    0.34       1.0  T
   5   -275.4534436 -0.255801E+01  0.526E+00    0.02       1.0  T
   6   -278.3088005 -0.285536E+01  0.391E+00    0.02       1.0  T
   7   -280.4367867 -0.212799E+01  0.243E+00    0.04       1.0  T
   8   -276.3310926  0.410569E+01  0.518E+00    0.01       1.0  T
   9   -280.7672376 -0.443615E+01  0.236E+00    0.02       1.0  T
  10   -278.3211107  0.244613E+01  0.401E+00    0.05       1.0  T
  11   -278.3176301  0.348059E-02  0.400E+00    0.01       1.0  T
  12   -278.3073486  0.102815E-01  0.397E+00    0.01       1.0  T
  13   -279.8807819 -0.157343E+01  0.286E+00    0.07       1.0  T
  14   -281.2588929 -0.137811E+01  0.163E+00    0.01       1.0  T
  15   -280.9092022  0.349691E+00  0.184E+00    0.01       1.0  T
  16   -280.9208585 -0.116564E-01  0.190E+00    0.01       1.0  T
  17   -280.5130008  0.407858E+00  0.232E+00    0.00       1.0  T
  18   -280.9677264 -0.454726E+00  0.180E+00    0.00       1.0  T
  19   -280.3804576  0.587269E+00  0.242E+00    0.04       1.0  T
  20   -281.4886706 -0.110821E+01  0.988E-01    0.00       1.0  T
  21   -281.6199475 -0.131277E+00  0.580E-01    0.01       1.0  T
  22   -281.5897555  0.301920E-01  0.752E-01    0.00       1.0  T
  23   -281.4070652  0.182690E+00  0.121E+00    0.00       1.0  T
  24   -281.5722225 -0.165157E+00  0.668E-01    0.01       1.0  T
  25   -281.6473376 -0.751150E-01  0.396E-01    0.00       1.0  T
  26   -281.5558276  0.915099E-01  0.791E-01    0.01       1.0  T
  27   -281.6355956 -0.797680E-01  0.449E-01    0.00       1.0  T
  28   -281.6565303 -0.209347E-01  0.343E-01    0.00       1.0  T
  29   -281.6587501 -0.221973E-02  0.296E-01    0.00       1.0  T
  30   -281.6678412 -0.909115E-02  0.219E-01    0.00       1.0  T
  31   -281.6760015 -0.816029E-02  0.930E-02    0.00       1.0  T
  32   -281.6761145 -0.112957E-03  0.104E-01    0.00       1.0  T
  33   -281.6771366 -0.102213E-02  0.693E-02    0.00       1.0  T
  34   -281.6774041 -0.267519E-03  0.498E-02    0.00       1.0  T
  35   -281.6777549 -0.350797E-03  0.257E-02    0.00       1.0  T
  36   -281.6774925  0.262432E-03  0.415E-02    0.00       1.0  T
  37   -281.6775105 -0.180388E-04  0.363E-02    0.00       1.0  T
  38   -281.6777168 -0.206268E-03  0.211E-02    0.00       1.0  T
  39   -281.6776370  0.797455E-04  0.291E-02    0.00       1.0  T
  40   -281.6777553 -0.118265E-03  0.151E-02    0.00       1.0  T
  41   -281.6777972 -0.419140E-04  0.884E-03    0.00       1.0  T
  42   -281.6777779  0.193179E-04  0.128E-02    0.00       1.0  T
  43   -281.6778075 -0.295838E-04  0.280E-03    0.00       2.9  T
  44   -281.6778040  0.342580E-05  0.505E-03    0.00       1.6  T
  45   -281.6778083 -0.423719E-05  0.194E-03    0.00       4.2  T
  46   -281.6778083  0.932994E-08  0.167E-03    0.00       4.8  T
  47   -281.6778088 -0.567569E-06  0.566E-04    0.00      14.2  T
  48   -281.6778089 -0.335183E-07  0.310E-04    0.00      26.0  T
     SCC iter.                  ...        0 min,  2.787 sec
     gradient                   ...        0 min,  0.219 sec
 * total energy  :  -276.9544483 Eh     change       -0.1395688E+00 Eh
   gradient norm :     0.1556712 Eh/α   predicted    -0.1330380E+00 (  -4.68%)
   displ. norm   :     0.7069521 α      lambda       -0.8935995E-01
   maximum displ.:     0.2312473 α      in ANC's #158, #157, #156, ...

........................................................................
.............................. CYCLE    4 ..............................
........................................................................
   1   -281.6748739 -0.281675E+03  0.205E+00    0.05       0.0  T
   2   -270.9322075  0.107427E+02  0.600E+00    0.15       1.0  T
   3   -276.4581865 -0.552598E+01  0.623E+00    0.03       1.0  T
   4   -272.1616074  0.429658E+01  0.693E+00    0.02       1.0  T
   5   -274.3588074 -0.219720E+01  0.612E+00    0.14       1.0  T
   6   -274.0194243  0.339383E+00  0.619E+00    0.21       1.0  T
   7   -276.4983155 -0.247889E+01  0.563E+00    0.02       1.0  T
   8   -279.6951387 -0.319682E+01  0.397E+00    0.01       1.0  T
   9   -278.2079258  0.148721E+01  0.414E+00    0.00       1.0  T
  10   -281.0872928 -0.287937E+01  0.208E+00    0.01       1.0  T
  11   -280.3130544  0.774238E+00  0.264E+00    0.01       1.0  T
  12   -281.3553935 -0.104234E+01  0.150E+00    0.01       1.0  T
  13   -276.5304836  0.482491E+01  0.511E+00    0.07       1.0  T
  14   -280.1243599 -0.359388E+01  0.287E+00    0.06       1.0  T
  15   -280.9137209 -0.789361E+00  0.192E+00    0.02       1.0  T
  16   -280.7947875  0.118933E+00  0.230E+00    0.00       1.0  T
  17   -280.9589864 -0.164199E+00  0.188E+00    0.00       1.0  T
  18   -281.1648514 -0.205865E+00  0.168E+00    0.00       1.0  T
  19   -281.3335240 -0.168673E+00  0.136E+00    0.02       1.0  T
  20   -280.6596650  0.673859E+00  0.213E+00    0.00       1.0  T
  21   -281.6529262 -0.993261E+00  0.663E-01    0.01       1.0  T
  22   -280.7987667  0.854159E+00  0.200E+00    0.02       1.0  T
  23   -280.9479544 -0.149188E+00  0.191E+00    0.00       1.0  T
  24   -281.3768762 -0.428922E+00  0.133E+00    0.00       1.0  T
  25   -281.5189395 -0.142063E+00  0.101E+00    0.01       1.0  T
  26   -281.5691040 -0.501644E-01  0.986E-01    0.02       1.0  T
  27   -281.7301287 -0.161025E+00  0.372E-01    0.00       1.0  T
  28   -281.7329833 -0.285464E-02  0.305E-01    0.01       1.0  T
  29   -281.7206955  0.122878E-01  0.404E-01    0.00       1.0  T
  30   -281.7239409 -0.324535E-02  0.341E-01    0.00       1.0  T
  31   -281.7311969 -0.725604E-02  0.356E-01    0.00       1.0  T
  32   -281.7472996 -0.161027E-01  0.152E-01    0.01       1.0  T
  33   -281.7452501  0.204949E-02  0.156E-01    0.01       1.0  T
  34   -281.7499406 -0.469047E-02  0.899E-02    0.01       1.0  T
  35   -281.7494578  0.482797E-03  0.984E-02    0.01       1.0  T
  36   -281.7482942  0.116356E-02  0.118E-01    0.02       1.0  T
  37   -281.7505157 -0.222148E-02  0.688E-02    0.01       1.0  T
  38   -281.7513601 -0.844360E-03  0.377E-02    0.01       1.0  T
  39   -281.7514604 -0.100305E-03  0.326E-02    0.01       1.0  T
  40   -281.7512003  0.260075E-03  0.462E-02    0.01       1.0  T
  41   -281.7516228 -0.422447E-03  0.228E-02    0.01       1.0  T
  42   -281.7516654 -0.426574E-04  0.175E-02    0.01       1.0  T
  43   -281.7516798 -0.144282E-04  0.145E-02    0.01       1.0  T
  44   -281.7517193 -0.394820E-04  0.827E-03    0.01       1.0  T
  45   -281.7517258 -0.649594E-05  0.502E-03    0.01       1.6  T
  46   -281.7517264 -0.551265E-06  0.478E-03    0.01       1.7  T
  47   -281.7517252  0.119112E-05  0.498E-03    0.01       1.6  T
  48   -281.7517290 -0.382537E-05  0.297E-03    0.01       2.7  T
  49   -281.7517310 -0.199300E-05  0.631E-04    0.01      12.8  T
  50   -281.7517311 -0.488545E-07  0.440E-04    0.01      18.3  T
  51   -281.7517309  0.199285E-06  0.105E-03    0.01       7.7  T
  52   -281.7517310 -0.161205E-06  0.634E-04    0.01      12.7  T
     SCC iter.                  ...        0 min,  3.016 sec
     gradient                   ...        0 min,  0.219 sec
 * total energy  :  -277.0269013 Eh     change       -0.7245291E-01 Eh
   gradient norm :     0.0927264 Eh/α   predicted    -0.6701027E-01 (  -7.51%)
   displ. norm   :     0.7930053 α      lambda       -0.6468023E-01
   maximum displ.:     0.2461558 α      in ANC's #84, #158, #157, ...

........................................................................
.............................. CYCLE    5 ..............................
........................................................................
   1   -281.7133636 -0.281713E+03  0.228E+00    0.08       0.0  T
   2   -271.4130580  0.103003E+02  0.663E+00    0.08       1.0  T
   3   -270.6773148  0.735743E+00  0.739E+00    0.05       1.0  T
   4   -269.3232978  0.135402E+01  0.789E+00    0.23       1.0  T
   5   -279.6782914 -0.103550E+02  0.335E+00    0.04       1.0  T
   6   -275.1935640  0.448473E+01  0.586E+00    0.09       1.0  T
   7   -277.4472427 -0.225368E+01  0.469E+00    0.07       1.0  T
   8   -276.5892915  0.857951E+00  0.517E+00    0.02       1.0  T
   9   -280.4222881 -0.383300E+01  0.265E+00    0.01       1.0  T
  10   -280.6948588 -0.272571E+00  0.265E+00    0.00       1.0  T
  11   -280.7117794 -0.169206E-01  0.256E+00    0.01       1.0  T
  12   -280.8453570 -0.133578E+00  0.247E+00    0.00       1.0  T
  13   -280.5601772  0.285180E+00  0.264E+00    0.01       1.0  T
  14   -276.0588931  0.450128E+01  0.541E+00    0.09       1.0  T
  15   -275.7886421  0.270251E+00  0.554E+00    0.10       1.0  T
  16   -275.8361808 -0.475386E-01  0.545E+00    0.09       1.0  T
  17   -280.0563105 -0.422013E+01  0.282E+00    0.00       1.0  T
  18   -280.2801093 -0.223799E+00  0.288E+00    0.01       1.0  T
  19   -280.4717518 -0.191643E+00  0.281E+00    0.01       1.0  T
  20   -281.5701141 -0.109836E+01  0.194E+00    0.03       1.0  T
  21   -281.5739874 -0.387331E-02  0.122E+00    0.00       1.0  T
  22   -281.2647068  0.309281E+00  0.161E+00    0.03       1.0  T
  23   -281.2702938 -0.558699E-02  0.173E+00    0.00       1.0  T
  24   -281.2616587  0.863511E-02  0.182E+00    0.04       1.0  T
  25   -281.7581802 -0.496521E+00  0.652E-01    0.01       1.0  T
  26   -281.2914371  0.466743E+00  0.184E+00    0.02       1.0  T
  27   -281.1775592  0.113878E+00  0.200E+00    0.04       1.0  T
  28   -281.5584023 -0.380843E+00  0.103E+00    0.00       1.0  T
  29   -281.7778149 -0.219413E+00  0.527E-01    0.01       1.0  T
  30   -281.6358388  0.141976E+00  0.887E-01    0.01       1.0  T
  31   -281.7786260 -0.142787E+00  0.416E-01    0.01       1.0  T
  32   -281.7692579  0.936809E-02  0.619E-01    0.00       1.0  T
  33   -281.7994564 -0.301984E-01  0.432E-01    0.01       1.0  T
  34   -281.7995457 -0.893414E-04  0.457E-01    0.01       1.0  T
  35   -281.8119272 -0.123815E-01  0.290E-01    0.02       1.0  T
  36   -281.8097335  0.219371E-02  0.234E-01    0.02       1.0  T
  37   -281.8168670 -0.713354E-02  0.109E-01    0.03       1.0  T
  38   -281.8176970 -0.829952E-03  0.601E-02    0.02       1.0  T
  39   -281.8177786 -0.815981E-04  0.437E-02    0.03       1.0  T
  40   -281.8170347  0.743914E-03  0.569E-02    0.02       1.0  T
  41   -281.8177668 -0.732184E-03  0.446E-02    0.03       1.0  T
  42   -281.8172883  0.478570E-03  0.484E-02    0.02       1.0  T
  43   -281.8176060 -0.317759E-03  0.375E-02    0.02       1.0  T
  44   -281.8177824 -0.176346E-03  0.261E-02    0.03       1.0  T
  45   -281.8177604  0.219890E-04  0.234E-02    0.03       1.0  T
  46   -281.8178766 -0.116208E-03  0.130E-02    0.03       1.0  T
  47   -281.8178769 -0.279829E-06  0.105E-02    0.03       1.0  T
  48   -281.8178962 -0.193239E-04  0.557E-03    0.03       1.4  T
  49   -281.8178992 -0.297933E-05  0.378E-03    0.03       2.1  T
  50   -281.8179020 -0.280065E-05  0.105E-03    0.03       7.7  T
  51   -281.8179021 -0.114953E-06  0.627E-04    0.03      12.9  T
  52   -281.8179020  0.611659E-07  0.778E-04    0.03      10.4  T
     SCC iter.                  ...        0 min,  3.016 sec
     gradient                   ...        0 min,  0.220 sec
 * total energy  :  -277.0831614 Eh     change       -0.5626012E-01 Eh
   gradient norm :     0.0844822 Eh/α   predicted    -0.5267745E-01 (  -6.37%)
   displ. norm   :     0.8406593 α      lambda       -0.5405931E-01
   maximum displ.:     0.2909739 α      in ANC's #84, #82, #81, ...

........................................................................
.............................. CYCLE    6 ..............................
........................................................................
   1   -281.7675838 -0.281768E+03  0.209E+00    0.10       0.0  T
   2   -275.5574064  0.621018E+01  0.809E+00    0.08       1.0  T
   3   -279.2694030 -0.371200E+01  0.385E+00    0.02       1.0  T
   4   -276.0951072  0.317430E+01  0.546E+00    0.01       1.0  T
   5   -275.3824430  0.712664E+00  0.606E+00    0.12       1.0  T
   6   -278.7071374 -0.332469E+01  0.406E+00    0.04       1.0  T
   7   -280.0761253 -0.136899E+01  0.312E+00    0.02       1.0  T
   8   -280.4976242 -0.421499E+00  0.306E+00    0.03       1.0  T
   9   -280.9000388 -0.402415E+00  0.264E+00    0.00       1.0  T
  10   -280.9519562 -0.519174E-01  0.262E+00    0.03       1.0  T
  11   -280.8890809  0.628753E-01  0.271E+00    0.05       1.0  T
  12   -280.7017666  0.187314E+00  0.285E+00    0.01       1.0  T
  13   -280.9582526 -0.256486E+00  0.275E+00    0.05       1.0  T
  14   -280.9349017  0.233509E-01  0.274E+00    0.02       1.0  T
  15   -280.1095776  0.825324E+00  0.308E+00    0.03       1.0  T
  16   -280.9373990 -0.827821E+00  0.309E+00    0.04       1.0  T
  17   -281.2328324 -0.295433E+00  0.306E+00    0.00       1.0  T
  18   -281.7007360 -0.467904E+00  0.287E+00    0.06       1.0  T
  19   -281.7233645 -0.226285E-01  0.286E+00    0.08       1.0  T
  20   -281.7666153 -0.432508E-01  0.266E+00    0.07       1.0  T
  21   -281.6353581  0.131257E+00  0.231E+00    0.00       1.0  T
  22   -281.7297937 -0.944355E-01  0.230E+00    0.01       1.0  T
  23   -281.7802547 -0.504610E-01  0.219E+00    0.03       1.0  T
  24   -281.6646566  0.115598E+00  0.238E+00    0.02       1.0  T
  25   -281.6561527  0.850388E-02  0.248E+00    0.02       1.0  T
  26   -281.6845229 -0.283702E-01  0.248E+00    0.02       1.0  T
  27   -281.6842054  0.317556E-03  0.260E+00    0.02       1.0  T
  28   -281.6876537 -0.344829E-02  0.256E+00    0.02       1.0  T
  29   -281.7116863 -0.240327E-01  0.238E+00    0.02       1.0  T
  30   -281.8216882 -0.110002E+00  0.188E+00    0.00       1.0  T
  31   -281.7826517  0.390365E-01  0.179E+00    0.01       1.0  T
  32   -281.7581607  0.244909E-01  0.921E-01    0.01       1.0  T
  33   -281.8110652 -0.529045E-01  0.976E-01    0.02       1.0  T
  34   -281.8680500 -0.569848E-01  0.877E-01    0.03       1.0  T
  35   -281.8699724 -0.192245E-02  0.554E-01    0.02       1.0  T
  36   -281.8179644  0.520080E-01  0.736E-01    0.01       1.0  T
  37   -281.8626877 -0.447233E-01  0.505E-01    0.02       1.0  T
  38   -281.8769182 -0.142305E-01  0.219E-01    0.04       1.0  T
  39   -281.8634590  0.134592E-01  0.314E-01    0.03       1.0  T
  40   -281.8812820 -0.178231E-01  0.119E-01    0.04       1.0  T
  41   -281.8766652  0.461683E-02  0.169E-01    0.04       1.0  T
  42   -281.8809297 -0.426453E-02  0.920E-02    0.04       1.0  T
  43   -281.8798114  0.111830E-02  0.120E-01    0.04       1.0  T
  44   -281.8806025 -0.791101E-03  0.886E-02    0.04       1.0  T
  45   -281.8816839 -0.108135E-02  0.549E-02    0.04       1.0  T
  46   -281.8815904  0.934506E-04  0.491E-02    0.04       1.0  T
  47   -281.8820111 -0.420620E-03  0.248E-02    0.04       1.0  T
  48   -281.8820532 -0.421093E-04  0.170E-02    0.04       1.0  T
  49   -281.8820789 -0.257076E-04  0.809E-03    0.04       1.0  T
  50   -281.8820851 -0.624279E-05  0.457E-03    0.04       1.8  T
  51   -281.8820846  0.537989E-06  0.447E-03    0.04       1.8  T
  52   -281.8820859 -0.130549E-05  0.245E-03    0.04       3.3  T
  53   -281.8820865 -0.605946E-06  0.142E-03    0.04       5.7  T
  54   -281.8820865  0.286668E-07  0.125E-03    0.04       6.4  T
  55   -281.8820866 -0.183374E-06  0.955E-04    0.04       8.4  T
  56   -281.8820868 -0.153381E-06  0.392E-04    0.04      20.5  T
     SCC iter.                  ...        0 min,  3.253 sec
     gradient                   ...        0 min,  0.219 sec
 * total energy  :  -277.1310720 Eh     change       -0.4791059E-01 Eh
   gradient norm :     0.0718997 Eh/α   predicted    -0.4613175E-01 (  -3.71%)
   displ. norm   :     0.8519774 α      lambda       -0.4456229E-01
   maximum displ.:     0.3047630 α      in ANC's #84, #82, #25, ...

........................................................................
.............................. CYCLE    7 ..............................
........................................................................
   1   -281.8552968 -0.281855E+03  0.158E+00    0.12       0.0  T
   2   -277.6818718  0.417343E+01  0.572E+00    0.14       1.0  T
   3   -277.6880048 -0.613301E-02  0.529E+00    0.16       1.0  T
   4   -279.8021940 -0.211419E+01  0.425E+00    0.10       1.0  T
   5   -280.7095876 -0.907394E+00  0.327E+00    0.03       1.0  T
   6   -280.6016350  0.107953E+00  0.332E+00    0.01       1.0  T
   7   -280.8056870 -0.204052E+00  0.297E+00    0.01       1.0  T
   8   -280.7497551  0.559320E-01  0.281E+00    0.02       1.0  T
   9   -280.7966216 -0.468665E-01  0.310E+00    0.01       1.0  T
  10   -280.1116754  0.684946E+00  0.316E+00    0.01       1.0  T
  11   -281.2085610 -0.109689E+01  0.234E+00    0.01       1.0  T
  12   -280.5864312  0.622130E+00  0.315E+00    0.07       1.0  T
  13   -280.4679015  0.118530E+00  0.299E+00    0.04       1.0  T
  14   -280.9337968 -0.465895E+00  0.227E+00    0.00       1.0  T
  15   -281.7530102 -0.819213E+00  0.120E+00    0.04       1.0  T
  16   -280.0872268  0.166578E+01  0.393E+00    0.11       1.0  T
  17   -281.0760896 -0.988863E+00  0.283E+00    0.06       1.0  T
  18   -281.0512129  0.248767E-01  0.284E+00    0.04       1.0  T
  19   -281.0698807 -0.186678E-01  0.283E+00    0.05       1.0  T
  20   -281.3579218 -0.288041E+00  0.230E+00    0.01       1.0  T
  21   -281.8446483 -0.486727E+00  0.128E+00    0.05       1.0  T
  22   -281.4727624  0.371886E+00  0.188E+00    0.01       1.0  T
  23   -281.8293458 -0.356583E+00  0.143E+00    0.06       1.0  T
  24   -281.7660872  0.632586E-01  0.114E+00    0.03       1.0  T
  25   -281.8561718 -0.900846E-01  0.134E+00    0.06       1.0  T
  26   -281.9228565 -0.666847E-01  0.110E+00    0.07       1.0  T
  27   -281.9362982 -0.134417E-01  0.910E-01    0.06       1.0  T
  28   -281.9331466  0.315167E-02  0.938E-01    0.07       1.0  T
  29   -281.9376220 -0.447547E-02  0.719E-01    0.06       1.0  T
  30   -281.9371794  0.442599E-03  0.818E-01    0.07       1.0  T
  31   -281.9372567 -0.773005E-04  0.776E-01    0.07       1.0  T
  32   -281.9383897 -0.113298E-02  0.763E-01    0.07       1.0  T
  33   -281.9400999 -0.171017E-02  0.722E-01    0.07       1.0  T
  34   -281.9421533 -0.205340E-02  0.665E-01    0.07       1.0  T
  35   -281.9431053 -0.952058E-03  0.567E-01    0.06       1.0  T
  36   -281.9437987 -0.693330E-03  0.524E-01    0.06       1.0  T
  37   -281.9439589 -0.160202E-03  0.486E-01    0.06       1.0  T
  38   -281.9442995 -0.340620E-03  0.424E-01    0.06       1.0  T
  39   -281.9445270 -0.227477E-03  0.366E-01    0.06       1.0  T
  40   -281.9454214 -0.894486E-03  0.257E-01    0.06       1.0  T
  41   -281.9451290  0.292446E-03  0.206E-01    0.06       1.0  T
  42   -281.9451429 -0.139237E-04  0.187E-01    0.05       1.0  T
  43   -281.9441751  0.967789E-03  0.161E-01    0.05       1.0  T
  44   -281.9458935 -0.171834E-02  0.128E-01    0.06       1.0  T
  45   -281.9456617  0.231756E-03  0.118E-01    0.05       1.0  T
  46   -281.9460987 -0.437027E-03  0.633E-02    0.06       1.0  T
  47   -281.9461289 -0.301307E-04  0.442E-02    0.06       1.0  T
  48   -281.9461739 -0.450167E-04  0.225E-02    0.06       1.0  T
  49   -281.9461735  0.380828E-06  0.195E-02    0.06       1.0  T
  50   -281.9461802 -0.666958E-05  0.767E-03    0.06       1.1  T
  51   -281.9461825 -0.231982E-05  0.541E-03    0.06       1.5  T
  52   -281.9461831 -0.645832E-06  0.181E-03    0.06       4.4  T
  53   -281.9461831  0.150462E-07  0.224E-03    0.06       3.6  T
  54   -281.9461833 -0.218517E-06  0.117E-03    0.06       6.9  T
  55   -281.9461834 -0.342980E-07  0.724E-04    0.06      11.1  T
  56   -281.9461834 -0.181159E-07  0.654E-04    0.06      12.3  T
     SCC iter.                  ...        0 min,  3.246 sec
     gradient                   ...        0 min,  0.220 sec
 * total energy  :  -277.1702072 Eh     change       -0.3913517E-01 Eh
   gradient norm :     0.0548904 Eh/α   predicted    -0.3845428E-01 (  -1.74%)
   displ. norm   :     0.8453151 α      lambda       -0.3464886E-01
   maximum displ.:     0.3205394 α      in ANC's #25, #84, #82, ...

........................................................................
.............................. CYCLE    8 ..............................
........................................................................
   1   -281.9551330 -0.281955E+03  0.988E-01    0.13       0.0  T
   2   -278.3283144  0.362682E+01  0.566E+00    0.21       1.0  T
   3   -278.5771988 -0.248884E+00  0.495E+00    0.16       1.0  T
   4   -281.8976495 -0.332045E+01  0.124E+00    0.09       1.0  T
   5   -281.6089558  0.288694E+00  0.230E+00    0.00       1.0  T
   6   -281.2990166  0.309939E+00  0.305E+00    0.01       1.0  T
   7   -281.1029783  0.196038E+00  0.264E+00    0.00       1.0  T
   8   -281.1428034 -0.398252E-01  0.247E+00    0.01       1.0  T
   9   -281.8371905 -0.694387E+00  0.112E+00    0.01       1.0  T
  10   -280.4036575  0.143353E+01  0.345E+00    0.10       1.0  T
  11   -280.8808577 -0.477200E+00  0.249E+00    0.00       1.0  T
  12   -281.3035026 -0.422645E+00  0.188E+00    0.01       1.0  T
  13   -281.6776954 -0.374193E+00  0.133E+00    0.05       1.0  T
  14   -281.9358415 -0.258146E+00  0.106E+00    0.11       1.0  T
  15   -281.8907372  0.451043E-01  0.108E+00    0.10       1.0  T
  16   -281.8881563  0.258089E-02  0.961E-01    0.04       1.0  T
  17   -281.9892743 -0.101118E+00  0.715E-01    0.07       1.0  T
  18   -281.9946688 -0.539451E-02  0.731E-01    0.10       1.0  T
  19   -281.9833927  0.112761E-01  0.324E-01    0.06       1.0  T
  20   -281.9840963 -0.703597E-03  0.760E-01    0.11       1.0  T
  21   -281.9954553 -0.113590E-01  0.271E-01    0.07       1.0  T
  22   -281.9902463  0.520906E-02  0.367E-01    0.06       1.0  T
  23   -281.9968349 -0.658864E-02  0.346E-01    0.07       1.0  T
  24   -282.0016128 -0.477791E-02  0.306E-01    0.08       1.0  T
  25   -282.0030266 -0.141376E-02  0.309E-01    0.08       1.0  T
  26   -282.0030686 -0.420772E-04  0.268E-01    0.08       1.0  T
  27   -282.0028462  0.222415E-03  0.217E-01    0.08       1.0  T
  28   -282.0030882 -0.242014E-03  0.195E-01    0.08       1.0  T
  29   -282.0032004 -0.112207E-03  0.171E-01    0.08       1.0  T
  30   -282.0032435 -0.430640E-04  0.155E-01    0.08       1.0  T
  31   -282.0032264  0.170747E-04  0.117E-01    0.08       1.0  T
  32   -282.0034109 -0.184488E-03  0.562E-02    0.08       1.0  T
  33   -282.0034496 -0.386976E-04  0.262E-02    0.08       1.0  T
  34   -282.0034506 -0.946518E-06  0.205E-02    0.08       1.0  T
  35   -282.0034524 -0.182078E-05  0.173E-02    0.08       1.0  T
  36   -282.0034522  0.215822E-06  0.170E-02    0.08       1.0  T
  37   -282.0034524 -0.236111E-06  0.164E-02    0.08       1.0  T
  38   -282.0034525 -0.900146E-07  0.152E-02    0.08       1.0  T
  39   -282.0034533 -0.754525E-06  0.129E-02    0.08       1.0  T
  40   -282.0034539 -0.619563E-06  0.111E-02    0.08       1.0  T
  41   -282.0034543 -0.467664E-06  0.943E-03    0.08       1.0  T
  42   -282.0034550 -0.663621E-06  0.612E-03    0.08       1.3  T
  43   -282.0034553 -0.259653E-06  0.316E-03    0.08       2.6  T
  44   -282.0034554 -0.115615E-06  0.141E-03    0.08       5.7  T
  45   -282.0034554 -0.177237E-07  0.452E-04    0.08      17.8  T
  46   -282.0034554 -0.917652E-08  0.896E-05    0.08      89.9  T
     SCC iter.                  ...        0 min,  2.664 sec
     gradient                   ...        0 min,  0.220 sec
 * total energy  :  -277.2003379 Eh     change       -0.3013070E-01 Eh
   gradient norm :     0.0416271 Eh/α   predicted    -0.2970376E-01 (  -1.42%)
   displ. norm   :     0.8504823 α      lambda       -0.2668068E-01
   maximum displ.:     0.4093753 α      in ANC's #25, #80, #84, ...

........................................................................
.............................. CYCLE    9 ..............................
........................................................................
   1   -282.0290550 -0.282029E+03  0.932E-01    0.15       0.0  T
   2   -276.6847856  0.534427E+01  0.634E+00    0.01       1.0  T
   3   -278.8404735 -0.215569E+01  0.463E+00    0.07       1.0  T
   4   -278.0537540  0.786719E+00  0.496E+00    0.02       1.0  T
   5   -278.5765945 -0.522840E+00  0.484E+00    0.07       1.0  T
   6   -278.6163411 -0.397466E-01  0.481E+00    0.06       1.0  T
   7   -278.1769053  0.439436E+00  0.500E+00    0.01       1.0  T
   8   -278.3865922 -0.209687E+00  0.489E+00    0.03       1.0  T
   9   -279.0612271 -0.674635E+00  0.412E+00    0.03       1.0  T
  10   -278.4428020  0.618425E+00  0.496E+00    0.01       1.0  T
  11   -275.5560215  0.288678E+01  0.640E+00    0.00       1.0  T
  12   -276.6748753 -0.111885E+01  0.531E+00    0.02       1.0  T
  13   -277.0318158 -0.356941E+00  0.559E+00    0.03       1.0  T
  14   -274.2337816  0.279803E+01  0.635E+00    0.06       1.0  T
  15   -273.8573794  0.376402E+00  0.648E+00    0.09       1.0  T
  16   -273.6407071  0.216672E+00  0.646E+00    0.11       1.0  T
  17   -271.7839953  0.185671E+01  0.686E+00    0.00       1.0  T
  18   -270.2566918  0.152730E+01  0.722E+00    0.00       1.0  T
  19   -265.8058133  0.445088E+01  0.819E+00    0.25       1.0  T
  20   -265.7083105  0.975028E-01  0.823E+00    0.31       1.0  T
  21   -266.3270607 -0.618750E+00  0.819E+00    0.12       1.0  T
  22   -272.1882545 -0.586119E+01  0.710E+00    0.01       1.0  T
  23   -273.0872864 -0.899032E+00  0.694E+00    0.02       1.0  T
  24   -273.9697380 -0.882452E+00  0.626E+00    0.03       1.0  T
  25   -273.8872403  0.824977E-01  0.633E+00    0.04       1.0  T
  26   -275.9925842 -0.210534E+01  0.556E+00    0.02       1.0  T
  27   -275.9609734  0.316108E-01  0.556E+00    0.02       1.0  T
  28   -276.4517237 -0.490750E+00  0.555E+00    0.01       1.0  T
  29   -279.7520108 -0.330029E+01  0.438E+00    0.01       1.0  T
  30   -279.0759103  0.676101E+00  0.405E+00    0.05       1.0  T
  31   -278.9673640  0.108546E+00  0.403E+00    0.04       1.0  T
  32   -278.5790059  0.388358E+00  0.409E+00    0.01       1.0  T
  33   -276.2338753  0.234513E+01  0.548E+00    0.01       1.0  T
  34   -280.3416983 -0.410782E+01  0.426E+00    0.08       1.0  T
  35   -280.3682200 -0.265218E-01  0.416E+00    0.08       1.0  T
  36   -280.5502754 -0.182055E+00  0.385E+00    0.08       1.0  T
  37   -280.9393307 -0.389055E+00  0.335E+00    0.05       1.0  T
  38   -281.6467049 -0.707374E+00  0.254E+00    0.02       1.0  T
  39   -281.6611199 -0.144150E-01  0.241E+00    0.04       1.0  T
  40   -281.4958606  0.165259E+00  0.247E+00    0.01       1.0  T
  41   -281.1158659  0.379995E+00  0.303E+00    0.03       1.0  T
  42   -281.1442059 -0.283400E-01  0.307E+00    0.02       1.0  T
  43   -280.4929166  0.651289E+00  0.352E+00    0.11       1.0  T
  44   -281.0139898 -0.521073E+00  0.285E+00    0.05       1.0  T
  45   -281.5631642 -0.549174E+00  0.174E+00    0.01       1.0  T
  46   -281.4901799  0.729843E-01  0.150E+00    0.00       1.0  T
  47   -281.9580865 -0.467907E+00  0.102E+00    0.08       1.0  T
  48   -281.9738834 -0.157969E-01  0.988E-01    0.12       1.0  T
  49   -281.9747093 -0.825856E-03  0.102E+00    0.13       1.0  T
  50   -281.9839040 -0.919470E-02  0.919E-01    0.11       1.0  T
  51   -281.9971022 -0.131982E-01  0.865E-01    0.10       1.0  T
  52   -282.0149154 -0.178131E-01  0.755E-01    0.10       1.0  T
  53   -282.0217386 -0.682318E-02  0.564E-01    0.07       1.0  T
  54   -282.0297623 -0.802378E-02  0.533E-01    0.08       1.0  T
  55   -282.0133413  0.164210E-01  0.633E-01    0.07       1.0  T
  56   -282.0111453  0.219604E-02  0.675E-01    0.07       1.0  T
  57   -282.0085809  0.256437E-02  0.647E-01    0.07       1.0  T
  58   -282.0246946 -0.161137E-01  0.540E-01    0.08       1.0  T
  59   -282.0115370  0.131576E-01  0.651E-01    0.06       1.0  T
  60   -282.0312614 -0.197245E-01  0.439E-01    0.08       1.0  T
  61   -282.0229551  0.830632E-02  0.568E-01    0.07       1.0  T
  62   -282.0393535 -0.163984E-01  0.338E-01    0.10       1.0  T
  63   -282.0439090 -0.455552E-02  0.263E-01    0.10       1.0  T
  64   -282.0465062 -0.259714E-02  0.184E-01    0.09       1.0  T
  65   -282.0476218 -0.111567E-02  0.177E-01    0.10       1.0  T
  66   -282.0479015 -0.279670E-03  0.171E-01    0.09       1.0  T
  67   -282.0488776 -0.976099E-03  0.154E-01    0.09       1.0  T
  68   -282.0489198 -0.421647E-04  0.153E-01    0.09       1.0  T
  69   -282.0492972 -0.377381E-03  0.163E-01    0.09       1.0  T
  70   -282.0494433 -0.146110E-03  0.188E-01    0.09       1.0  T
  71   -282.0489312  0.512051E-03  0.201E-01    0.09       1.0  T
  72   -282.0500676 -0.113640E-02  0.221E-01    0.09       1.0  T
  73   -282.0499680  0.996183E-04  0.217E-01    0.09       1.0  T
  74   -282.0496626  0.305382E-03  0.218E-01    0.09       1.0  T
  75   -282.0504228 -0.760179E-03  0.223E-01    0.09       1.0  T
  76   -282.0507595 -0.336734E-03  0.214E-01    0.10       1.0  T
  77   -282.0509259 -0.166387E-03  0.191E-01    0.10       1.0  T
  78   -282.0511625 -0.236553E-03  0.166E-01    0.10       1.0  T
  79   -282.0512461 -0.835848E-04  0.143E-01    0.10       1.0  T
  80   -282.0512997 -0.536563E-04  0.108E-01    0.10       1.0  T
  81   -282.0513366 -0.368380E-04  0.924E-02    0.10       1.0  T
  82   -282.0513628 -0.262385E-04  0.692E-02    0.10       1.0  T
  83   -282.0513800 -0.171944E-04  0.513E-02    0.10       1.0  T
  84   -282.0513927 -0.127043E-04  0.345E-02    0.10       1.0  T
  85   -282.0513949 -0.219362E-05  0.234E-02    0.10       1.0  T
  86   -282.0513972 -0.230530E-05  0.136E-02    0.10       1.0  T
  87   -282.0513956  0.155513E-05  0.100E-02    0.10       1.0  T
  88   -282.0513975 -0.189985E-05  0.796E-03    0.10       1.0  T
  89   -282.0513978 -0.266790E-06  0.574E-03    0.10       1.4  T
  90   -282.0513988 -0.100718E-05  0.544E-03    0.10       1.5  T
  91   -282.0513990 -0.172266E-06  0.440E-03    0.10       1.8  T
  92   -282.0513994 -0.393705E-06  0.369E-03    0.10       2.2  T
  93   -282.0513996 -0.185882E-06  0.315E-03    0.10       2.6  T
  94   -282.0513998 -0.230051E-06  0.264E-03    0.10       3.1  T
  95   -282.0514004 -0.577761E-06  0.218E-03    0.10       3.7  T
  96   -282.0514008 -0.384539E-06  0.180E-03    0.10       4.5  T
  97   -282.0514012 -0.462128E-06  0.126E-03    0.10       6.4  T
  98   -282.0514013 -0.127579E-06  0.111E-03    0.10       7.2  T
  99   -282.0514014 -0.267810E-07  0.103E-03    0.10       7.8  T
 100   -282.0514014 -0.146343E-07  0.941E-04    0.10       8.6  T
 101   -282.0514014 -0.205424E-07  0.826E-04    0.10       9.8  T
     SCC iter.                  ...        0 min,  5.884 sec
     gradient                   ...        0 min,  0.220 sec
 * total energy  :  -277.2236197 Eh     change       -0.2328187E-01 Eh
   gradient norm :     0.0332403 Eh/α   predicted    -0.2298970E-01 (  -1.25%)
   displ. norm   :     0.8659443 α      lambda       -0.2103607E-01
   maximum displ.:     0.5025908 α      in ANC's #25, #80, #12, ...

........................................................................
.............................. CYCLE   10 ..............................
........................................................................
   1   -282.0651991 -0.282065E+03  0.883E-01    0.16       0.0  T
   2   -274.3668085  0.769839E+01  0.683E+00    0.02       1.0  T
   3   -279.9849047 -0.561810E+01  0.363E+00    0.02       1.0  T
   4   -279.0598944  0.925010E+00  0.451E+00    0.07       1.0  T
   5   -280.6026624 -0.154277E+01  0.354E+00    0.02       1.0  T
   6   -278.8851760  0.171749E+01  0.510E+00    0.04       1.0  T
   7   -279.9129206 -0.102774E+01  0.392E+00    0.02       1.0  T
   8   -281.7983362 -0.188542E+01  0.118E+00    0.07       1.0  T
   9   -280.8413704  0.956966E+00  0.316E+00    0.08       1.0  T
  10   -281.9658087 -0.112444E+01  0.101E+00    0.06       1.0  T
  11   -282.0466851 -0.808765E-01  0.630E-01    0.13       1.0  T
  12   -282.0567577 -0.100726E-01  0.541E-01    0.10       1.0  T
  13   -282.0589445 -0.218677E-02  0.527E-01    0.10       1.0  T
  14   -282.0559524  0.299208E-02  0.533E-01    0.10       1.0  T
  15   -282.0616888 -0.573645E-02  0.562E-01    0.09       1.0  T
  16   -280.9190916  0.114260E+01  0.359E+00    0.11       1.0  T
  17   -279.8560859  0.106301E+01  0.456E+00    0.00       1.0  T
  18   -280.6867737 -0.830688E+00  0.365E+00    0.03       1.0  T
  19   -282.0109998 -0.132423E+01  0.723E-01    0.04       1.0  T
  20   -282.0704562 -0.594563E-01  0.499E-01    0.14       1.0  T
  21   -282.0679034  0.255271E-02  0.519E-01    0.16       1.0  T
  22   -282.0697280 -0.182460E-02  0.488E-01    0.15       1.0  T
  23   -282.0720087 -0.228062E-02  0.436E-01    0.12       1.0  T
  24   -282.0739537 -0.194508E-02  0.417E-01    0.12       1.0  T
  25   -282.0741182 -0.164504E-03  0.422E-01    0.12       1.0  T
  26   -282.0747031 -0.584835E-03  0.420E-01    0.12       1.0  T
  27   -282.0741491  0.553937E-03  0.421E-01    0.12       1.0  T
  28   -282.0731653  0.983815E-03  0.415E-01    0.12       1.0  T
  29   -282.0728837  0.281653E-03  0.406E-01    0.12       1.0  T
  30   -282.0729864 -0.102703E-03  0.396E-01    0.12       1.0  T
  31   -282.0737043 -0.717935E-03  0.378E-01    0.12       1.0  T
  32   -282.0743436 -0.639293E-03  0.360E-01    0.12       1.0  T
  33   -282.0757588 -0.141522E-02  0.325E-01    0.12       1.0  T
  34   -282.0777570 -0.199822E-02  0.272E-01    0.12       1.0  T
  35   -282.0802752 -0.251819E-02  0.200E-01    0.12       1.0  T
  36   -282.0817876 -0.151240E-02  0.125E-01    0.11       1.0  T
  37   -282.0819003 -0.112651E-03  0.106E-01    0.11       1.0  T
  38   -282.0818495  0.507725E-04  0.113E-01    0.11       1.0  T
  39   -282.0820353 -0.185793E-03  0.990E-02    0.11       1.0  T
  40   -282.0820586 -0.232955E-04  0.885E-02    0.11       1.0  T
  41   -282.0819666  0.919566E-04  0.654E-02    0.11       1.0  T
  42   -282.0821079 -0.141303E-03  0.541E-02    0.11       1.0  T
  43   -282.0820362  0.717143E-04  0.519E-02    0.11       1.0  T
  44   -282.0821251 -0.888616E-04  0.431E-02    0.11       1.0  T
  45   -282.0820640  0.610613E-04  0.384E-02    0.11       1.0  T
  46   -282.0821245 -0.604222E-04  0.302E-02    0.11       1.0  T
  47   -282.0821309 -0.640315E-05  0.229E-02    0.11       1.0  T
  48   -282.0821173  0.135907E-04  0.196E-02    0.11       1.0  T
  49   -282.0821432 -0.258919E-04  0.146E-02    0.11       1.0  T
  50   -282.0821581 -0.149454E-04  0.113E-02    0.11       1.0  T
  51   -282.0821628 -0.469931E-05  0.849E-03    0.11       1.0  T
  52   -282.0821660 -0.319605E-05  0.544E-03    0.11       1.5  T
  53   -282.0821679 -0.192500E-05  0.384E-03    0.11       2.1  T
  54   -282.0821701 -0.221997E-05  0.215E-03    0.11       3.7  T
  55   -282.0821708 -0.617760E-06  0.122E-03    0.11       6.6  T
  56   -282.0821709 -0.137668E-06  0.681E-04    0.11      11.8  T
  57   -282.0821709 -0.222931E-07  0.312E-04    0.11      25.8  T
     SCC iter.                  ...        0 min,  3.310 sec
     gradient                   ...        0 min,  0.220 sec
 * total energy  :  -277.2427202 Eh     change       -0.1910045E-01 Eh
   gradient norm :     0.0314559 Eh/α   predicted    -0.1840514E-01 (  -3.64%)
   displ. norm   :     0.9167641 α      lambda       -0.2024512E-01
   maximum displ.:     0.5672164 α      in ANC's #25, #12, #52, ...

........................................................................
.............................. CYCLE   11 ..............................
........................................................................
   1   -282.0771412 -0.282077E+03  0.862E-01    0.18       0.0  T
   2   -278.3257853  0.375136E+01  0.481E+00    0.02       1.0  T
   3   -281.6688104 -0.334303E+01  0.151E+00    0.05       1.0  T
   4   -278.9183914  0.275042E+01  0.522E+00    0.10       1.0  T
   5   -278.9497237 -0.313323E-01  0.522E+00    0.14       1.0  T
   6   -277.9639549  0.985769E+00  0.548E+00    0.00       1.0  T
   7   -279.0329025 -0.106895E+01  0.526E+00    0.15       1.0  T
   8   -279.0905609 -0.576584E-01  0.519E+00    0.15       1.0  T
   9   -277.5953675  0.149519E+01  0.547E+00    0.00       1.0  T
  10   -279.1949469 -0.159958E+01  0.469E+00    0.02       1.0  T
  11   -276.5596872  0.263526E+01  0.546E+00    0.02       1.0  T
  12   -278.1766546 -0.161697E+01  0.469E+00    0.04       1.0  T
  13   -279.2120482 -0.103539E+01  0.419E+00    0.05       1.0  T
  14   -279.0482939  0.163754E+00  0.424E+00    0.01       1.0  T
  15   -280.1403229 -0.109203E+01  0.386E+00    0.03       1.0  T
  16   -278.8802295  0.126009E+01  0.419E+00    0.01       1.0  T
  17   -279.1129489 -0.232719E+00  0.495E+00    0.07       1.0  T
  18   -280.2704952 -0.115755E+01  0.363E+00    0.00       1.0  T
  19   -280.0969217  0.173573E+00  0.363E+00    0.02       1.0  T
  20   -280.9173469 -0.820425E+00  0.317E+00    0.01       1.0  T
  21   -280.9415470 -0.242001E-01  0.311E+00    0.01       1.0  T
  22   -281.0028799 -0.613328E-01  0.302E+00    0.02       1.0  T
  23   -281.0238659 -0.209860E-01  0.299E+00    0.02       1.0  T
  24   -281.0089627  0.149032E-01  0.301E+00    0.02       1.0  T
  25   -281.5320450 -0.523082E+00  0.203E+00    0.01       1.0  T
  26   -281.9576989 -0.425654E+00  0.166E+00    0.04       1.0  T
  27   -282.0506336 -0.929347E-01  0.138E+00    0.08       1.0  T
  28   -282.0532934 -0.265972E-02  0.135E+00    0.07       1.0  T
  29   -282.0635079 -0.102145E-01  0.127E+00    0.08       1.0  T
  30   -282.0626305  0.877418E-03  0.134E+00    0.08       1.0  T
  31   -282.0631627 -0.532248E-03  0.135E+00    0.08       1.0  T
  32   -282.0067029  0.564598E-01  0.156E+00    0.06       1.0  T
  33   -281.8883632  0.118340E+00  0.190E+00    0.02       1.0  T
  34   -281.8919921 -0.362883E-02  0.190E+00    0.02       1.0  T
  35   -282.0383952 -0.146403E+00  0.128E+00    0.07       1.0  T
  36   -281.1985142  0.839881E+00  0.337E+00    0.01       1.0  T
  37   -281.1810809  0.174333E-01  0.337E+00    0.01       1.0  T
  38   -281.9907782 -0.809697E+00  0.101E+00    0.04       1.0  T
  39   -281.5249168  0.465861E+00  0.272E+00    0.01       1.0  T
  40   -281.9528919 -0.427975E+00  0.147E+00    0.04       1.0  T
  41   -281.9164681  0.364238E-01  0.167E+00    0.03       1.0  T
  42   -281.6447777  0.271690E+00  0.257E+00    0.00       1.0  T
  43   -282.0985567 -0.453779E+00  0.121E-01    0.13       1.0  T
  44   -282.0868142  0.117426E-01  0.388E-01    0.09       1.0  T
  45   -282.0824095  0.440462E-02  0.476E-01    0.08       1.0  T
  46   -282.0958676 -0.134580E-01  0.182E-01    0.11       1.0  T
  47   -282.0971002 -0.123260E-02  0.142E-01    0.11       1.0  T
  48   -282.0972971 -0.196919E-03  0.146E-01    0.11       1.0  T
  49   -282.0973825 -0.854404E-04  0.153E-01    0.11       1.0  T
  50   -282.0974824 -0.998841E-04  0.149E-01    0.12       1.0  T
  51   -282.0982228 -0.740361E-03  0.970E-02    0.12       1.0  T
  52   -282.0985800 -0.357204E-03  0.611E-02    0.12       1.0  T
  53   -282.0987886 -0.208654E-03  0.262E-02    0.13       1.0  T
  54   -282.0988267 -0.380531E-04  0.147E-02    0.13       1.0  T
  55   -282.0988200  0.667791E-05  0.195E-02    0.13       1.0  T
  56   -282.0988197  0.297316E-06  0.198E-02    0.13       1.0  T
  57   -282.0988266 -0.686264E-05  0.162E-02    0.13       1.0  T
  58   -282.0988382 -0.115979E-04  0.721E-03    0.13       1.1  T
  59   -282.0988374  0.759278E-06  0.779E-03    0.13       1.0  T
  60   -282.0988384 -0.944930E-06  0.650E-03    0.13       1.2  T
  61   -282.0988398 -0.140943E-05  0.449E-03    0.13       1.8  T
  62   -282.0988406 -0.797669E-06  0.308E-03    0.13       2.6  T
  63   -282.0988410 -0.415357E-06  0.219E-03    0.13       3.7  T
  64   -282.0988413 -0.271488E-06  0.181E-03    0.13       4.4  T
  65   -282.0988416 -0.306928E-06  0.774E-04    0.13      10.4  T
  66   -282.0988416 -0.368163E-07  0.658E-04    0.13      12.2  T
     SCC iter.                  ...        0 min,  3.843 sec
     gradient                   ...        0 min,  0.220 sec
 * total energy  :  -277.2630314 Eh     change       -0.2031125E-01 Eh
   gradient norm :     0.0355527 Eh/α   predicted    -0.1863013E-01 (  -8.28%)
   displ. norm   :     0.8902115 α      lambda       -0.2123778E-01
   maximum displ.:     0.5496219 α      in ANC's #25, #12, #52, ...

........................................................................
.............................. CYCLE   12 ..............................
........................................................................
   1   -282.0810600 -0.282081E+03  0.750E-01    0.20       0.0  T
   2   -281.0412323  0.103983E+01  0.248E+00    0.03       1.0  T
   3   -281.9959947 -0.954762E+00  0.112E+00    0.15       1.0  T
   4   -280.8717696  0.112423E+01  0.342E+00    0.04       1.0  T
   5   -280.9764163 -0.104647E+00  0.332E+00    0.02       1.0  T
   6   -280.8041374  0.172279E+00  0.349E+00    0.08       1.0  T
   7   -281.0114051 -0.207268E+00  0.336E+00    0.03       1.0  T
   8   -281.3470156 -0.335611E+00  0.276E+00    0.02       1.0  T
   9   -282.0253176 -0.678302E+00  0.842E-01    0.13       1.0  T
  10   -282.0511131 -0.257955E-01  0.818E-01    0.23       1.0  T
  11   -281.8129221  0.238191E+00  0.146E+00    0.02       1.0  T
  12   -282.0579418 -0.245020E+00  0.801E-01    0.18       1.0  T
  13   -282.0684998 -0.105579E-01  0.762E-01    0.17       1.0  T
  14   -282.0625640  0.593575E-02  0.722E-01    0.18       1.0  T
  15   -282.0824059 -0.198419E-01  0.626E-01    0.24       1.0  T
  16   -282.0851013 -0.269534E-02  0.549E-01    0.28       1.0  T
  17   -282.0853484 -0.247118E-03  0.534E-01    0.29       1.0  T
  18   -282.0867246 -0.137617E-02  0.485E-01    0.33       1.0  T
  19   -282.0888354 -0.211084E-02  0.443E-01    0.32       1.0  T
  20   -282.0915062 -0.267083E-02  0.383E-01    0.22       1.0  T
  21   -282.0934183 -0.191207E-02  0.269E-01    0.15       1.0  T
  22   -282.0828973  0.105210E-01  0.304E-01    0.10       1.0  T
  23   -282.0936470 -0.107497E-01  0.278E-01    0.17       1.0  T
  24   -282.0932827  0.364287E-03  0.193E-01    0.13       1.0  T
  25   -282.0922202  0.106244E-02  0.180E-01    0.12       1.0  T
  26   -282.0950771 -0.285684E-02  0.176E-01    0.15       1.0  T
  27   -282.0957618 -0.684683E-03  0.152E-01    0.16       1.0  T
  28   -282.0962705 -0.508720E-03  0.124E-01    0.16       1.0  T
  29   -282.0965194 -0.248921E-03  0.808E-02    0.14       1.0  T
  30   -282.0960930  0.426445E-03  0.746E-02    0.13       1.0  T
  31   -282.0962847 -0.191721E-03  0.682E-02    0.14       1.0  T
  32   -282.0963081 -0.234060E-04  0.642E-02    0.14       1.0  T
  33   -282.0966349 -0.326858E-03  0.522E-02    0.14       1.0  T
  34   -282.0967766 -0.141687E-03  0.485E-02    0.15       1.0  T
  35   -282.0967993 -0.227011E-04  0.410E-02    0.15       1.0  T
  36   -282.0968420 -0.426817E-04  0.300E-02    0.15       1.0  T
  37   -282.0968890 -0.469574E-04  0.978E-03    0.15       1.0  T
  38   -282.0969029 -0.139159E-04  0.363E-03    0.15       2.2  T
  39   -282.0969026  0.312532E-06  0.331E-03    0.15       2.4  T
  40   -282.0969030 -0.426202E-06  0.253E-03    0.15       3.2  T
  41   -282.0969032 -0.183233E-06  0.241E-03    0.15       3.3  T
  42   -282.0969036 -0.399414E-06  0.934E-04    0.15       8.6  T
  43   -282.0969036 -0.699159E-07  0.762E-04    0.15      10.6  T
     SCC iter.                  ...        0 min,  2.496 sec
     gradient                   ...        0 min,  0.220 sec
 * total energy  :  -277.2858685 Eh     change       -0.2283705E-01 Eh
   gradient norm :     0.0483111 Eh/α   predicted    -0.1903414E-01 ( -16.65%)
   displ. norm   :     0.8463434 α      lambda       -0.2581434E-01
   maximum displ.:     0.4938146 α      in ANC's #25, #12, #52, ...

........................................................................
.............................. CYCLE   13 ..............................
........................................................................
   1   -282.0831982 -0.282083E+03  0.652E-01    0.21       0.0  T
   2   -281.9559916  0.127207E+00  0.959E-01    0.09       1.0  T
   3   -282.0157757 -0.597841E-01  0.600E-01    0.11       1.0  T
   4   -282.0835984 -0.678228E-01  0.392E-01    0.24       1.0  T
   5   -282.0916542 -0.805571E-02  0.187E-01    0.24       1.0  T
   6   -282.0919143 -0.260107E-03  0.150E-01    0.26       1.0  T
   7   -282.0298918  0.620224E-01  0.829E-01    0.06       1.0  T
   8   -282.0911981 -0.613063E-01  0.134E-01    0.17       1.0  T
   9   -282.0930601 -0.186205E-02  0.647E-02    0.19       1.0  T
  10   -282.0922791  0.780997E-03  0.116E-01    0.24       1.0  T
  11   -282.0933576 -0.107842E-02  0.618E-02    0.21       1.0  T
  12   -282.0937150 -0.357406E-03  0.286E-02    0.19       1.0  T
  13   -282.0936729  0.421191E-04  0.364E-02    0.20       1.0  T
  14   -282.0937302 -0.573172E-04  0.222E-02    0.19       1.0  T
  15   -282.0937436 -0.134607E-04  0.180E-02    0.19       1.0  T
  16   -282.0937693 -0.256528E-04  0.288E-03    0.18       2.8  T
  17   -282.0937702 -0.876349E-06  0.176E-03    0.18       4.6  T
  18   -282.0937704 -0.205921E-06  0.746E-04    0.18      10.8  T
  19   -282.0937703  0.268921E-07  0.104E-03    0.18       7.8  T
  20   -282.0937704 -0.522573E-07  0.658E-04    0.18      12.2  T
     SCC iter.                  ...        0 min,  1.163 sec
     gradient                   ...        0 min,  0.220 sec
 * total energy  :  -277.3149377 Eh     change       -0.2906926E-01 Eh
   gradient norm :     0.0647573 Eh/α   predicted    -0.2215254E-01 ( -23.79%)
   displ. norm   :     0.8210820 α      lambda       -0.3417628E-01
   maximum displ.:     0.4362582 α      in ANC's #25, #12, #28, ...

........................................................................
.............................. CYCLE   14 ..............................
........................................................................
   1   -282.0825130 -0.282083E+03  0.561E-01    0.24       0.0  T
   2   -282.0627485  0.197645E-01  0.659E-01    0.30       1.0  T
   3   -282.0354836  0.272649E-01  0.694E-01    0.09       1.0  T
   4   -282.0835360 -0.480524E-01  0.192E-01    0.36       1.0  T
   5   -282.0870461 -0.351011E-02  0.127E-01    0.33       1.0  T
   6   -282.0867119  0.334161E-03  0.113E-01    0.40       1.0  T
   7   -282.0876256 -0.913703E-03  0.837E-02    0.37       1.0  T
   8   -282.0880783 -0.452659E-03  0.645E-02    0.34       1.0  T
   9   -282.0881221 -0.438341E-04  0.564E-02    0.33       1.0  T
  10   -282.0882568 -0.134707E-03  0.422E-02    0.30       1.0  T
  11   -282.0883018 -0.449516E-04  0.349E-02    0.29       1.0  T
  12   -282.0883895 -0.876926E-04  0.132E-02    0.25       1.0  T
  13   -282.0883959 -0.643390E-05  0.109E-02    0.23       1.0  T
  14   -282.0884055 -0.963229E-05  0.432E-03    0.24       1.9  T
  15   -282.0884071 -0.156028E-05  0.247E-03    0.24       3.3  T
  16   -282.0884075 -0.439239E-06  0.106E-03    0.24       7.6  T
  17   -282.0884076 -0.102056E-06  0.250E-04    0.24      32.2  T
  18   -282.0884076 -0.675016E-09  0.209E-04    0.24      38.6  T
     SCC iter.                  ...        0 min,  1.047 sec
     gradient                   ...        0 min,  0.221 sec
 * total energy  :  -277.3527333 Eh     change       -0.3779558E-01 Eh
   gradient norm :     0.0788368 Eh/α   predicted    -0.2860857E-01 ( -24.31%)
   displ. norm   :     0.8153147 α      lambda       -0.4265187E-01
   maximum displ.:     0.4062078 α      in ANC's #25, #12, #28, ...

........................................................................
.............................. CYCLE   15 ..............................
........................................................................
   1   -282.0819406 -0.282082E+03  0.470E-01    0.29       0.0  T
   2   -282.0770458  0.489482E-02  0.460E-01    0.44       1.0  T
   3   -282.0833403 -0.629450E-02  0.128E-01    0.33       1.0  T
   4   -282.0840563 -0.716052E-03  0.101E-01    0.39       1.0  T
   5   -282.0851088 -0.105254E-02  0.333E-02    0.37       1.0  T
   6   -282.0851532 -0.443598E-04  0.246E-02    0.37       1.0  T
   7   -282.0852495 -0.963001E-04  0.438E-03    0.38       1.8  T
   8   -282.0852497 -0.216883E-06  0.306E-03    0.37       2.6  T
   9   -282.0852504 -0.689009E-06  0.193E-03    0.37       4.2  T
  10   -282.0852507 -0.323096E-06  0.919E-04    0.37       8.8  T
  11   -282.0852508 -0.693140E-07  0.342E-04    0.37      23.6  T
     SCC iter.                  ...        0 min,  0.643 sec
     gradient                   ...        0 min,  0.220 sec
 * total energy  :  -277.3980681 Eh     change       -0.4533484E-01 Eh
   gradient norm :     0.0858686 Eh/α   predicted    -0.3550210E-01 ( -21.69%)
   displ. norm   :     0.8184276 α      lambda       -0.4736836E-01
   maximum displ.:     0.3996064 α      in ANC's #25, #12, #28, ...

........................................................................
.............................. CYCLE   16 ..............................
........................................................................
   1   -282.0843555 -0.282084E+03  0.392E-01    0.42       0.0  T
   2   -282.0817616  0.259386E-02  0.350E-01    0.52       1.0  T
   3   -282.0853336 -0.357203E-02  0.996E-02    0.49       1.0  T
   4   -282.0853004  0.331925E-04  0.101E-01    0.50       1.0  T
   5   -282.0864589 -0.115845E-02  0.196E-02    0.51       1.0  T
   6   -282.0864527  0.617118E-05  0.144E-02    0.50       1.0  T
   7   -282.0864832 -0.305103E-04  0.326E-03    0.51       2.5  T
   8   -282.0864833 -0.696570E-07  0.242E-03    0.51       3.3  T
   9   -282.0864836 -0.255236E-06  0.124E-03    0.50       6.5  T
  10   -282.0864837 -0.153019E-06  0.666E-04    0.51      12.1  T
  11   -282.0864838 -0.509989E-07  0.235E-04    0.51      34.2  T
     SCC iter.                  ...        0 min,  0.643 sec
     gradient                   ...        0 min,  0.220 sec
 * total energy  :  -277.4430495 Eh     change       -0.4498140E-01 Eh
   gradient norm :     0.0800683 Eh/α   predicted    -0.3954842E-01 ( -12.08%)
   displ. norm   :     0.9222398 α      lambda       -0.5658150E-01
   maximum displ.:     0.3915145 α      in ANC's #12, #25, #28, ...

........................................................................
.............................. CYCLE   17 ..............................
........................................................................
   1   -282.0976879 -0.282098E+03  0.335E-01    0.52       0.0  T
   2   -282.0917694  0.591850E-02  0.345E-01    0.54       1.0  T
   3   -282.0998842 -0.811476E-02  0.127E-01    0.58       1.0  T
   4   -282.0999050 -0.208303E-04  0.120E-01    0.54       1.0  T
   5   -282.1011750 -0.127000E-02  0.214E-02    0.56       1.0  T
   6   -282.1011872 -0.121976E-04  0.153E-02    0.56       1.0  T
   7   -282.1012245 -0.372812E-04  0.348E-03    0.56       2.3  T
   8   -282.1012243  0.141159E-06  0.257E-03    0.56       3.1  T
   9   -282.1012245 -0.160213E-06  0.122E-03    0.56       6.6  T
  10   -282.1012247 -0.240532E-06  0.615E-04    0.56      13.1  T
  11   -282.1012248 -0.287027E-07  0.266E-04    0.56      30.3  T
     SCC iter.                  ...        0 min,  0.643 sec
     gradient                   ...        0 min,  0.220 sec
 * total energy  :  -277.4878362 Eh     change       -0.4478667E-01 Eh
   gradient norm :     0.0891850 Eh/α   predicted    -0.5235295E-01 (  16.89%)
   displ. norm   :     0.7711964 α      lambda       -0.3774003E-01
   maximum displ.:     0.4085976 α      in ANC's #25, #12, #28, ...

........................................................................
.............................. CYCLE   18 ..............................
........................................................................
   1   -282.1191643 -0.282119E+03  0.242E-01    0.56       0.0  T
   2   -282.1175990  0.156526E-02  0.218E-01    0.56       1.0  T
   3   -282.1196294 -0.203036E-02  0.767E-02    0.57       1.0  T
   4   -282.1191742  0.455166E-03  0.926E-02    0.57       1.0  T
   5   -282.1202193 -0.104507E-02  0.150E-02    0.59       1.0  T
   6   -282.1202308 -0.115566E-04  0.601E-03    0.58       1.3  T
   7   -282.1202357 -0.483531E-05  0.266E-03    0.58       3.0  T
   8   -282.1202361 -0.457133E-06  0.138E-03    0.58       5.9  T
   9   -282.1202362 -0.970886E-07  0.587E-04    0.58      13.7  T
  10   -282.1202363 -0.602659E-07  0.244E-04    0.58      33.0  T
     SCC iter.                  ...        0 min,  0.585 sec
     gradient                   ...        0 min,  0.220 sec
 * total energy  :  -277.5153590 Eh     change       -0.2752282E-01 Eh
[...]
  89: 40.61  90:  4.70  91: 21.25  92:  3.63  93:  8.71  94:487.34  95:  3.07  96: 11.68
  97:667.23  98:******  99:  6.31 100: 66.24 101:****** 102:  0.13 103:  0.00 104:  0.69
 105: 66.71 106:373.10 107: 59.84 108:127.89 109: 25.54 110: 20.30 111:  2.82 112: 22.35
 113:  0.12 114:  1.24 115:  0.14 116:  1.63 117: 12.32 118:  0.01 119:  2.49 120:139.97
 121: 23.78 122:482.33 123: 23.19 124:927.74 125:921.80 126:  5.24 127: 19.03 128: 17.31
 129: 21.71 130:  1.50 131:  4.04 132:497.68 133:****** 134:650.96 135: 56.15 136:729.68
 137:  0.25 138:  0.07 139:  2.58 140:  7.38 141:  0.62 142:  0.19 143: 12.07 144:  1.40
 145:  1.52 146:  0.02 147:  0.27 148:  0.07 149:****** 150: 17.95 151:200.84 152:******
 153: 17.10 154:692.08 155:257.11 156: 41.79 157:159.86 158: 82.28 159: 67.39 160: 69.37
 161:  7.38 162:  0.05 163:  0.34 164:367.23 165: 26.65 166:  0.01 167: 58.27 168:  9.87
 169:  6.69 170: 16.10 171:  0.06 172:229.14 173:434.47 174:640.32 175:****** 176:525.51
 177: 12.67 178: 30.00 179:  1.69 180: 10.44 181:  0.83 182:  4.76 183:  0.83 184: 15.62
 185:  4.19 186:357.65 187:134.95 188:973.70 189:  0.05 190:  0.43 191:  9.16 192:  0.30
 193:  3.32 194:  7.31 195:  1.39 196:378.58 197:****** 198: 55.86 199:****** 200: 10.62
 201:  5.41 202:****** 203: 58.52 204: 38.47 205:  8.98 206: 14.91 207: 22.77 208:  6.88
 209:  2.90 210: 64.04 211: 26.70 212:  0.03 213: 79.36 214:181.88 215:****** 216:279.92
 217:168.20 218: 20.43 219: 16.89 220:  0.08 221:  0.38 222:  0.38 223: 57.29 224: 18.65
 225: 15.17 226: 48.53 227:261.81 228:492.80 229: 10.70 230:  9.52 231:481.76 232:713.20
 233:  6.00 234: 42.52 235:264.51 236:  2.60 237:189.42 238:****** 239:  1.34 240:190.78
 241:  0.07 242: 14.08 243:  0.03 244:  5.56 245:  3.54 246:  1.51 247:****** 248:******
 249: 82.05 250:300.57 251: 44.87 252:106.22 253:413.37 254:348.49 255:151.92 256:******
 257:****** 258:****** 259:136.98 260:626.92 261: 48.66 262: 38.18 263: 58.06 264: 25.17
 265: 43.77 266: 44.72 267:431.88 268:****** 269:  0.21 270:184.41 271:  2.25 272:  0.22
 273:****** 274:  1.37 275:111.47 276: 24.56 277:  0.12 278:  0.10 279:451.39 280:315.05
 281: 19.05 282: 23.74 283: 37.62 284:  2.21 285: 50.82 286:****** 287:189.68 288:  2.62
 289:****** 290:645.60 291:255.22 292:631.25 293:  0.29 294: 25.00 295:****** 296:  1.68
 297:  6.58 298:****** 299:218.69 300: 81.55 301:164.36 302:****** 303:****** 304:******
 305:****** 306:  0.54 307:  0.58 308:  5.90 309:****** 310:****** 311:  0.35 312:  0.11
 313:****** 314:****** 315:177.15 316:  0.03 317:  6.95 318:  0.11 319:162.35 320: 13.84
 321: 43.34 322:****** 323:601.38 324:267.82 325: 18.68 326:****** 327:650.12 328:  0.08
 329:  0.47 330:148.27 331: 23.83 332: 44.29 333: 12.02 334:155.89 335: 21.65 336:234.04
 337: 21.54 338:942.72 339:  6.29 340: 11.91 341:141.71 342:  0.66 343:138.94 344: 18.38
 345:  0.07 346: 67.72 347:708.76 348:919.72 349:100.90 350:  8.21 351: 25.95 352:147.34
 353:****** 354:****** 355:989.55 356:  0.58 357:  1.80 358:338.53 359: 44.37 360:  3.84
 361:134.49 362:  0.23 363: 26.38 364:821.07 365:464.48 366:  5.02 367: 31.51 368:  0.34
 369: 28.53 370: 18.35 371: 25.22 372:943.45 373: 50.20 374:109.98 375: 34.16 376:784.68
 377:  1.19 378: 50.90 379:  0.61 380:  0.01 381: 80.49 382:  0.62 383:151.99 384: 19.41
 385:672.62 386:390.56 387: 48.98 388: 10.10 389: 40.02 390: 25.32 391: 33.33 392:  6.78
 393: 67.45 394:656.07 395: 54.75 396:  4.71 397:105.54 398: 26.89 399:****** 400:******
 401: 37.17 402:  0.96 403: 89.85 404:  0.86 405: 27.72 406:  1.45 407:212.13 408: 11.57
 409:432.01 410: 40.46 411:  0.00 412:  0.03 413:  3.86 414:  0.55 415: 78.03 416: 50.33
 417:  2.72 418:  0.12 419:  8.47 420:138.62 421:800.86 422: 14.61 423:  6.21 424: 49.93
 425:417.72 426: 27.43 427: 39.52 428:****** 429: 26.97 430:****** 431: 19.91 432: 27.73
 433: 59.90 434:204.16 435:****** 436:730.17 437:****** 438:****** 439:****** 440:763.23
 441:839.86 442: 30.96 443: 59.93 444:387.37 445:****** 446:****** 447:204.04 448: 79.39
 449:****** 450:****** 451:832.80 452:****** 453:****** 454:****** 455: 21.93 456:973.77
 457:141.24 458: 44.44 459:131.80 460:611.30 461:708.17 462:******
 Raman intensities (amu)
   1:  0.00   2:  0.00   3:  0.00   4:  0.00   5:  0.00   6:  0.00   7:  0.00   8:  0.00
   9:  0.00  10:  0.00  11:  0.00  12:  0.00  13:  0.00  14:  0.00  15:  0.00  16:  0.00
  17:  0.00  18:  0.00  19:  0.00  20:  0.00  21:  0.00  22:  0.00  23:  0.00  24:  0.00
  25:  0.00  26:  0.00  27:  0.00  28:  0.00  29:  0.00  30:  0.00  31:  0.00  32:  0.00
  33:  0.00  34:  0.00  35:  0.00  36:  0.00  37:  0.00  38:  0.00  39:  0.00  40:  0.00
  41:  0.00  42:  0.00  43:  0.00  44:  0.00  45:  0.00  46:  0.00  47:  0.00  48:  0.00
  49:  0.00  50:  0.00  51:  0.00  52:  0.00  53:  0.00  54:  0.00  55:  0.00  56:  0.00
  57:  0.00  58:  0.00  59:  0.00  60:  0.00  61:  0.00  62:  0.00  63:  0.00  64:  0.00
  65:  0.00  66:  0.00  67:  0.00  68:  0.00  69:  0.00  70:  0.00  71:  0.00  72:  0.00
  73:  0.00  74:  0.00  75:  0.00  76:  0.00  77:  0.00  78:  0.00  79:  0.00  80:  0.00
  81:  0.00  82:  0.00  83:  0.00  84:  0.00  85:  0.00  86:  0.00  87:  0.00  88:  0.00
  89:  0.00  90:  0.00  91:  0.00  92:  0.00  93:  0.00  94:  0.00  95:  0.00  96:  0.00
  97:  0.00  98:  0.00  99:  0.00 100:  0.00 101:  0.00 102:  0.00 103:  0.00 104:  0.00
 105:  0.00 106:  0.00 107:  0.00 108:  0.00 109:  0.00 110:  0.00 111:  0.00 112:  0.00
 113:  0.00 114:  0.00 115:  0.00 116:  0.00 117:  0.00 118:  0.00 119:  0.00 120:  0.00
 121:  0.00 122:  0.00 123:  0.00 124:  0.00 125:  0.00 126:  0.00 127:  0.00 128:  0.00
 129:  0.00 130:  0.00 131:  0.00 132:  0.00 133:  0.00 134:  0.00 135:  0.00 136:  0.00
 137:  0.00 138:  0.00 139:  0.00 140:  0.00 141:  0.00 142:  0.00 143:  0.00 144:  0.00
 145:  0.00 146:  0.00 147:  0.00 148:  0.00 149:  0.00 150:  0.00 151:  0.00 152:  0.00
 153:  0.00 154:  0.00 155:  0.00 156:  0.00 157:  0.00 158:  0.00 159:  0.00 160:  0.00
 161:  0.00 162:  0.00 163:  0.00 164:  0.00 165:  0.00 166:  0.00 167:  0.00 168:  0.00
 169:  0.00 170:  0.00 171:  0.00 172:  0.00 173:  0.00 174:  0.00 175:  0.00 176:  0.00
 177:  0.00 178:  0.00 179:  0.00 180:  0.00 181:  0.00 182:  0.00 183:  0.00 184:  0.00
 185:  0.00 186:  0.00 187:  0.00 188:  0.00 189:  0.00 190:  0.00 191:  0.00 192:  0.00
Refinement of some symmetry elements was terminated before convergence was reached.
Some symmetry elements may remain unidentified.
Molecule has no symmetry elements
It seems to be the C1 point group
 193:  0.00 194:  0.00 195:  0.00 196:  0.00 197:  0.00 198:  0.00 199:  0.00 200:  0.00
 201:  0.00 202:  0.00 203:  0.00 204:  0.00 205:  0.00 206:  0.00 207:  0.00 208:  0.00
 209:  0.00 210:  0.00 211:  0.00 212:  0.00 213:  0.00 214:  0.00 215:  0.00 216:  0.00
 217:  0.00 218:  0.00 219:  0.00 220:  0.00 221:  0.00 222:  0.00 223:  0.00 224:  0.00
 225:  0.00 226:  0.00 227:  0.00 228:  0.00 229:  0.00 230:  0.00 231:  0.00 232:  0.00
 233:  0.00 234:  0.00 235:  0.00 236:  0.00 237:  0.00 238:  0.00 239:  0.00 240:  0.00
 241:  0.00 242:  0.00 243:  0.00 244:  0.00 245:  0.00 246:  0.00 247:  0.00 248:  0.00
 249:  0.00 250:  0.00 251:  0.00 252:  0.00 253:  0.00 254:  0.00 255:  0.00 256:  0.00
 257:  0.00 258:  0.00 259:  0.00 260:  0.00 261:  0.00 262:  0.00 263:  0.00 264:  0.00
 265:  0.00 266:  0.00 267:  0.00 268:  0.00 269:  0.00 270:  0.00 271:  0.00 272:  0.00
 273:  0.00 274:  0.00 275:  0.00 276:  0.00 277:  0.00 278:  0.00 279:  0.00 280:  0.00
 281:  0.00 282:  0.00 283:  0.00 284:  0.00 285:  0.00 286:  0.00 287:  0.00 288:  0.00
 289:  0.00 290:  0.00 291:  0.00 292:  0.00 293:  0.00 294:  0.00 295:  0.00 296:  0.00
 297:  0.00 298:  0.00 299:  0.00 300:  0.00 301:  0.00 302:  0.00 303:  0.00 304:  0.00
 305:  0.00 306:  0.00 307:  0.00 308:  0.00 309:  0.00 310:  0.00 311:  0.00 312:  0.00
 313:  0.00 314:  0.00 315:  0.00 316:  0.00 317:  0.00 318:  0.00 319:  0.00 320:  0.00
 321:  0.00 322:  0.00 323:  0.00 324:  0.00 325:  0.00 326:  0.00 327:  0.00 328:  0.00
 329:  0.00 330:  0.00 331:  0.00 332:  0.00 333:  0.00 334:  0.00 335:  0.00 336:  0.00
 337:  0.00 338:  0.00 339:  0.00 340:  0.00 341:  0.00 342:  0.00 343:  0.00 344:  0.00
 345:  0.00 346:  0.00 347:  0.00 348:  0.00 349:  0.00 350:  0.00 351:  0.00 352:  0.00
 353:  0.00 354:  0.00 355:  0.00 356:  0.00 357:  0.00 358:  0.00 359:  0.00 360:  0.00
 361:  0.00 362:  0.00 363:  0.00 364:  0.00 365:  0.00 366:  0.00 367:  0.00 368:  0.00
 369:  0.00 370:  0.00 371:  0.00 372:  0.00 373:  0.00 374:  0.00 375:  0.00 376:  0.00
 377:  0.00 378:  0.00 379:  0.00 380:  0.00 381:  0.00 382:  0.00 383:  0.00 384:  0.00
 385:  0.00 386:  0.00 387:  0.00 388:  0.00 389:  0.00 390:  0.00 391:  0.00 392:  0.00
 393:  0.00 394:  0.00 395:  0.00 396:  0.00 397:  0.00 398:  0.00 399:  0.00 400:  0.00
 401:  0.00 402:  0.00 403:  0.00 404:  0.00 405:  0.00 406:  0.00 407:  0.00 408:  0.00
 409:  0.00 410:  0.00 411:  0.00 412:  0.00 413:  0.00 414:  0.00 415:  0.00 416:  0.00
 417:  0.00 418:  0.00 419:  0.00 420:  0.00 421:  0.00 422:  0.00 423:  0.00 424:  0.00
 425:  0.00 426:  0.00 427:  0.00 428:  0.00 429:  0.00 430:  0.00 431:  0.00 432:  0.00
 433:  0.00 434:  0.00 435:  0.00 436:  0.00 437:  0.00 438:  0.00 439:  0.00 440:  0.00
 441:  0.00 442:  0.00 443:  0.00 444:  0.00 445:  0.00 446:  0.00 447:  0.00 448:  0.00
 449:  0.00 450:  0.00 451:  0.00 452:  0.00 453:  0.00 454:  0.00 455:  0.00 456:  0.00
 457:  0.00 458:  0.00 459:  0.00 460:  0.00 461:  0.00 462:  0.00
 output can be read by thermo (or use thermo option).
 writing <g98.out> molden fake output.
 recommended (thermochemical) frequency scaling factor: 1.0
           -------------------------------------------------
          |             Thermodynamic Functions             |
           -------------------------------------------------

c1  symmetry found (for desy threshold:  0.10E+00) used in thermo
 inverting freq            1   1.1211848177886132     

          ...................................................
          :                      SETUP                      :
          :.................................................:
          :  # frequencies                         456      :
          :  # imaginary freq.                       0      :
          :  linear?                             false      :
          :  only rotor calc.                    false      :
          :  symmetry                               c1      :
          :  rotational number                       1      :
          :  scaling factor                  1.0000000      :
          :  rotor cutoff                   50.0000000 cm⁻¹ :
          :  imag. cutoff                  -20.0000000 cm⁻¹ :
          :.................................................:

    mode    ω/cm⁻¹     T·S(HO)/kcal·mol⁻¹    T·S(FR)/kcal·mol⁻¹   T·S(vib)
   ------------------------------------------------------------------------
       1      1.12    -3.68491 (  0.00%)    -2.18155 (100.00%)    -2.18155
       2      1.69    -3.44155 (  0.00%)    -2.05988 (100.00%)    -2.05988
       3      2.25    -3.27322 (  0.00%)    -1.97572 (100.00%)    -1.97572
       4      3.06    -3.09028 (  0.00%)    -1.88425 (100.00%)    -1.88427
       5      4.03    -2.92643 (  0.00%)    -1.80232 (100.00%)    -1.80237
       6      4.74    -2.83028 (  0.01%)    -1.75425 ( 99.99%)    -1.75433
       7      5.76    -2.71480 (  0.02%)    -1.69651 ( 99.98%)    -1.69669
       8      9.74    -2.40408 (  0.14%)    -1.54113 ( 99.86%)    -1.54237
       9     10.10    -2.38279 (  0.17%)    -1.53048 ( 99.83%)    -1.53190
      10     12.16    -2.27270 (  0.35%)    -1.47543 ( 99.65%)    -1.47820
      11     18.71    -2.01739 (  1.92%)    -1.34771 ( 98.08%)    -1.36060
      12     24.25    -1.86387 (  5.24%)    -1.27088 ( 94.76%)    -1.30199
      13     27.05    -1.79934 (  7.89%)    -1.23858 ( 92.11%)    -1.28280
      14     30.21    -1.73386 ( 11.76%)    -1.20578 ( 88.24%)    -1.26790
      15     30.76    -1.72317 ( 12.53%)    -1.20043 ( 87.47%)    -1.26595
      16     31.39    -1.71127 ( 13.44%)    -1.19447 ( 86.56%)    -1.26395
      17     31.51    -1.70891 ( 13.63%)    -1.19329 ( 86.37%)    -1.26357
      18     31.96    -1.70065 ( 14.30%)    -1.18915 ( 85.70%)    -1.26230
      19     36.26    -1.62598 ( 21.67%)    -1.15173 ( 78.33%)    -1.25449
      20     38.63    -1.58858 ( 26.27%)    -1.13298 ( 73.73%)    -1.25267
      21     39.97    -1.56840 ( 29.00%)    -1.12286 ( 71.00%)    -1.25207
      22     45.07    -1.49756 ( 39.76%)    -1.08731 ( 60.24%)    -1.25044
      23     54.97    -1.38040 ( 59.37%)    -1.02845 ( 40.63%)    -1.23742
      24     64.43    -1.28705 ( 73.38%)    -0.98145 ( 26.62%)    -1.20570
      25     76.39    -1.18713 ( 84.49%)    -0.93101 ( 15.51%)    -1.14740
      26     85.80    -1.11916 ( 89.66%)    -0.89659 ( 10.34%)    -1.09614
      27     90.93    -1.08528 ( 91.62%)    -0.87939 (  8.38%)    -1.06803
      28     91.63    -1.08081 ( 91.85%)    -0.87712 (  8.15%)    -1.06422
      29     93.73    -1.06756 ( 92.51%)    -0.87039 (  7.49%)    -1.05279
      30     93.94    -1.06627 ( 92.57%)    -0.86973 (  7.43%)    -1.05167
      31    102.22    -1.01716 ( 94.59%)    -0.84471 (  5.41%)    -1.00782
      32    112.52    -0.96150 ( 96.25%)    -0.81626 (  3.75%)    -0.95605
      33    114.71    -0.95036 ( 96.52%)    -0.81054 (  3.48%)    -0.94549
      34    124.55    -0.90296 ( 97.47%)    -0.78618 (  2.53%)    -0.90000
      35    125.27    -0.89963 ( 97.52%)    -0.78446 (  2.48%)    -0.89678
      36    125.40    -0.89905 ( 97.53%)    -0.78416 (  2.47%)    -0.89622
      37    126.36    -0.89465 ( 97.61%)    -0.78189 (  2.39%)    -0.89195
      38    126.38    -0.89455 ( 97.61%)    -0.78184 (  2.39%)    -0.89186
      39    141.11    -0.83148 ( 98.45%)    -0.74920 (  1.55%)    -0.83020
      40    143.30    -0.82271 ( 98.54%)    -0.74464 (  1.46%)    -0.82157
      41    145.89    -0.81251 ( 98.64%)    -0.73933 (  1.36%)    -0.81151
      42    149.76    -0.79762 ( 98.77%)    -0.73156 (  1.23%)    -0.79681
      43    152.99    -0.78554 ( 98.87%)    -0.72525 (  1.13%)    -0.78486
      44    159.29    -0.76272 ( 99.04%)    -0.71329 (  0.96%)    -0.76224
      45    170.11    -0.72578 ( 99.26%)    -0.69383 (  0.74%)    -0.72554
      46    184.29    -0.68112 ( 99.46%)    -0.67010 (  0.54%)    -0.68106
      47    184.61    -0.68017 ( 99.46%)    -0.66960 (  0.54%)    -0.68012
      48    184.90    -0.67929 ( 99.47%)    -0.66913 (  0.53%)    -0.67924
      49    185.15    -0.67853 ( 99.47%)    -0.66872 (  0.53%)    -0.67848
      50    196.49    -0.64571 ( 99.58%)    -0.65112 (  0.42%)    -0.64573
      51    205.44    -0.62129 ( 99.65%)    -0.63792 (  0.35%)    -0.62135
      52    206.95    -0.61731 ( 99.66%)    -0.63576 (  0.34%)    -0.61737
      53    208.83    -0.61235 ( 99.67%)    -0.63307 (  0.33%)    -0.61242
      54    209.52    -0.61056 ( 99.68%)    -0.63209 (  0.32%)    -0.61063
      55    217.18    -0.59108 ( 99.72%)    -0.62146 (  0.28%)    -0.59117
      56    218.57    -0.58763 ( 99.73%)    -0.61957 (  0.27%)    -0.58772
      57    219.80    -0.58460 ( 99.73%)    -0.61791 (  0.27%)    -0.58469
      58    223.96    -0.57450 ( 99.75%)    -0.61236 (  0.25%)    -0.57459
      59    224.01    -0.57438 ( 99.75%)    -0.61229 (  0.25%)    -0.57447
      60    224.81    -0.57245 ( 99.76%)    -0.61123 (  0.24%)    -0.57255
      61    225.29    -0.57130 ( 99.76%)    -0.61060 (  0.24%)    -0.57140
      62    225.34    -0.57118 ( 99.76%)    -0.61053 (  0.24%)    -0.57128
      63    226.35    -0.56878 ( 99.76%)    -0.60920 (  0.24%)    -0.56887
      64    226.49    -0.56846 ( 99.76%)    -0.60903 (  0.24%)    -0.56855
      65    229.46    -0.56146 ( 99.78%)    -0.60516 (  0.22%)    -0.56156
      66    229.93    -0.56037 ( 99.78%)    -0.60456 (  0.22%)    -0.56047
      67    234.95    -0.54883 ( 99.80%)    -0.59816 (  0.20%)    -0.54893
      68    247.06    -0.52219 ( 99.83%)    -0.58327 (  0.17%)    -0.52230
      69    247.11    -0.52209 ( 99.83%)    -0.58321 (  0.17%)    -0.52220
      70    247.93    -0.52034 ( 99.83%)    -0.58222 (  0.17%)    -0.52044
      71    247.96    -0.52028 ( 99.83%)    -0.58219 (  0.17%)    -0.52038
      72    254.16    -0.50732 ( 99.85%)    -0.57488 (  0.15%)    -0.50742
      73    254.57    -0.50648 ( 99.85%)    -0.57440 (  0.15%)    -0.50658
      74    255.83    -0.50388 ( 99.85%)    -0.57293 (  0.15%)    -0.50398
      75    255.93    -0.50369 ( 99.85%)    -0.57283 (  0.15%)    -0.50379
      76    258.33    -0.49881 ( 99.86%)    -0.57006 (  0.14%)    -0.49891
      77    263.04    -0.48942 ( 99.87%)    -0.56471 (  0.13%)    -0.48952
      78    273.71    -0.46889 ( 99.89%)    -0.55293 (  0.11%)    -0.46899
      79    274.23    -0.46792 ( 99.89%)    -0.55237 (  0.11%)    -0.46801
      80    279.36    -0.45844 ( 99.90%)    -0.54688 (  0.10%)    -0.45853
      81    280.83    -0.45576 ( 99.90%)    -0.54532 (  0.10%)    -0.45585
      82    280.99    -0.45546 ( 99.90%)    -0.54514 (  0.10%)    -0.45555
      83    288.04    -0.44289 ( 99.91%)    -0.53781 (  0.09%)    -0.44298
   ------------------------------------------------------------------------

   temp. (K)  partition function   enthalpy   heat capacity  entropy
                                   cal/mol     cal/K/mol   cal/K/mol   J/K/mol
 298.15  VIB  0.382E+49            54905.163    353.702    350.248
         ROT  0.237E+10              888.752      2.981     45.877
         INT  0.904E+58            55793.915    356.683    396.124
         TR   0.616E+29             1481.254      4.968     47.951
         TOT                       57275.1689   361.6507   444.0754  1858.0116

       T/K    H(0)-H(T)+PV         H(T)/Eh          T*S/Eh         G(T)/Eh
   ------------------------------------------------------------------------
    298.15    0.912738E-01    0.114793E+01    0.210995E+00    0.936932E+00
   ------------------------------------------------------------------------

         :::::::::::::::::::::::::::::::::::::::::::::::::::::
         ::                  THERMODYNAMIC                  ::
         :::::::::::::::::::::::::::::::::::::::::::::::::::::
         :: total free energy        -276.817659587941 Eh   ::
         ::.................................................::
         :: total energy             -277.754591896519 Eh   ::
         :: zero point energy           1.056653079585 Eh   ::
         :: G(RRHO) w/o ZPVE           -0.119720771006 Eh   ::
         :: G(RRHO) contrib.            0.936932308578 Eh   ::
         :::::::::::::::::::::::::::::::::::::::::::::::::::::

optimized geometry written to: xtbopt.xyz


           -------------------------------------------------
          | TOTAL ENERGY             -277.754591896519 Eh   |
          | TOTAL ENTHALPY           -276.606665025543 Eh   |
          | TOTAL FREE ENERGY        -276.817659587941 Eh   |
          | GRADIENT NORM               0.000446418579 Eh/α |
          | HOMO-LUMO GAP               0.242359237697 eV   |
           -------------------------------------------------

------------------------------------------------------------------------
 * finished run on 2021/11/19 at 13:14:00.410     
------------------------------------------------------------------------
 total:
 * wall-time:     0 d,  0 h, 12 min, 35.168 sec
 *  cpu-time:     0 d,  0 h, 12 min, 35.165 sec
 * ratio c/w:     1.000 speedup
 SCF:
 * wall-time:     0 d,  0 h,  0 min,  8.290 sec
 *  cpu-time:     0 d,  0 h,  0 min,  8.290 sec
 * ratio c/w:     1.000 speedup
 ANC optimizer:
 * wall-time:     0 d,  0 h,  1 min, 30.146 sec
 *  cpu-time:     0 d,  0 h,  1 min, 30.136 sec
 * ratio c/w:     1.000 speedup
 analytical hessian:
 * wall-time:     0 d,  0 h, 10 min, 56.434 sec
 *  cpu-time:     0 d,  0 h, 10 min, 56.442 sec
 * ratio c/w:     1.000 speedup

