154
 energy: -276.567781332431 gnorm: 0.741683272116 xtb: 6.4.1 (bd6e46d)
Fe       20.26066600000000    0.03832100000000   -0.01103500000000
C        22.58965700000000   -3.10847200000000    1.31165400000000
C        23.50576400000000   -2.16426500000000    1.26137200000000
C        23.09458500000000   -1.11036100000000    0.34008000000000
C        23.71345500000000    0.01398600000000   -0.00633000000000
C        23.00941300000000    1.23393400000000   -0.37043500000000
C        23.33752400000000    2.19398900000000   -1.21790900000000
C        22.30274400000000    3.21027400000000   -1.23480700000000
C        21.36647600000000    2.83381200000000   -0.38791500000000
N        21.76846600000000    1.60080100000000    0.17590200000000
C        20.10540200000000    3.47881100000000   -0.00876300000000
C        19.01018400000000    2.84402900000000    0.34199700000000
C        17.93655900000000    3.16198500000000    1.31102500000000
C        17.09899600000000    2.16523100000000    1.23385900000000
C        17.53729300000000    1.16154800000000    0.25340700000000
N        18.64223200000000    1.60040100000000   -0.23088500000000
C        16.92645900000000   -0.09172300000000   -0.16014100000000
C        17.59061900000000   -1.19622900000000   -0.41456600000000
C        17.21677100000000   -2.25917100000000   -1.37209300000000
C        18.16551800000000   -3.15292700000000   -1.28307400000000
C        19.15124200000000   -2.71547700000000   -0.30019600000000
N        18.79819600000000   -1.56967200000000    0.19660100000000
C        20.38213000000000   -3.37154700000000    0.14552500000000
C        21.50517100000000   -2.72568600000000    0.41264600000000
N        21.83377100000000   -1.47824500000000   -0.18575800000000
H        22.64991900000000   -4.01825300000000    1.92920000000000
H        24.42209200000000   -2.20421400000000    1.83942000000000
H        24.26488900000000    2.21078400000000   -1.81905200000000
H        22.31964300000000    4.11496300000000   -1.84742800000000
H        20.05767900000000    4.57361400000000   -0.01254100000000
H        17.88373700000000    4.04071000000000    1.93601700000000
H        16.18736600000000    2.12956100000000    1.85118300000000
H        15.82820800000000   -0.08881200000000   -0.25941200000000
H        16.34791500000000   -2.31163600000000   -2.02104300000000
H        18.16267200000000   -4.06923500000000   -1.88183300000000
H        20.34664700000000   -4.46734900000000    0.25745000000000
Fe       63.49624800000000   -0.00905500000000   -0.01546800000000
C        61.16725700000000    2.83773700000000    1.86803700000000
C        60.25114900000001    1.91924800000000    1.64346300000000
C        60.66232900000000    1.05455100000000    0.54264900000000
C        60.04345800000000    0.01398600000000   -0.00633000000000
C        60.74750100000000   -1.11723900000000   -0.59043300000000
C        60.41939000000000   -1.90341100000000   -1.60130000000000
C        61.45417000000000   -2.89892000000000   -1.80644000000000
C        62.39043800000001   -2.68610400000000   -0.90441000000000
N        61.98844800000000   -1.57909200000000   -0.12163800000000
C        63.65151200000000   -3.39024500000000   -0.65149600000000
C        64.74673000000000   -2.83155200000000   -0.18906300000000
C        65.82035500000001   -3.32375800000000    0.70415900000000
C        66.65791800000000   -2.32999100000000    0.81324400000000
C        66.21962000000001   -1.16184200000000    0.03600900000000
N        65.11468200000000   -1.50323400000000   -0.52129000000000
C        66.83045500000000    0.14639300000000   -0.13786100000000
C        66.16629500000001    1.27892700000000   -0.18296700000000
C        66.54014300000000    2.50105300000000   -0.92668200000000
C        65.59139600000000    3.36278000000000   -0.67340300000000
C        64.60567200000000    2.75058500000000    0.21126000000000
N        64.95871800000000    1.53250600000000    0.48687000000000
C        63.37478400000000    3.31258000000000    0.77095400000000
C        62.25174300000000    2.62837500000000    0.91362200000000
N        61.92314300000001    1.51360000000000    0.09418700000000
H        61.10699500000000    3.61716100000000    2.64364100000000
H        59.33482200000000    1.85126700000000    2.21888900000000
H        59.49202500000000   -1.80839400000000   -2.19512400000000
H        61.43727100000000   -3.67425500000000   -2.57626000000000
H        63.69923500000000   -4.46534300000000   -0.85831000000000
H        65.87317700000000   -4.30317400000000    1.15528600000000
H        67.56954800000000   -2.40946300000000    1.42647000000000
H        67.92870600000001    0.16194900000000   -0.23594800000000
H        67.40899899999999    2.67299600000000   -1.55463500000000
H        65.59424199999999    4.37426100000000   -1.09178100000000
H        63.41026700000000    4.36859600000000    1.08422300000000
C        26.60815900000000    0.01195000000000   -0.00744200000000
C        27.81613600000000    0.01940500000000   -0.00574700000000
C        29.23490400000000    0.02010200000000   -0.00061000000000
C        30.45042000000000    0.01195000000000   -0.00744200000000
C        39.95831000000000    0.01195000000000   -0.00744200000000
C        41.16628700000000    0.01940500000000   -0.00574700000000
C        42.58505400000001    0.02010200000000   -0.00061000000000
C        43.80057100000000    0.01195000000000   -0.00744200000000
C        53.30846000000000    0.01195000000000   -0.00744200000000
C        54.51643700000001    0.01940500000000   -0.00574700000000
C        55.93520500000000    0.02010200000000   -0.00061000000000
C        57.15072100000000    0.01195000000000   -0.00744200000000
Fe       35.23900200000000    0.03208600000000    0.00469700000000
C        32.95919100000000   -3.22936200000000   -0.90496900000000
C        32.00298200000000   -2.33001100000000   -1.00699500000000
C        32.39535600000000   -1.16770600000000   -0.20448000000000
C        31.76023900000000   -0.01643400000000    0.00778700000000
C        32.44569600000000    1.25816600000000    0.23401600000000
C        32.11040600000000    2.33676600000000    0.93825600000000
C        33.13494700000000    3.35608200000000    0.84767500000000
C        34.08554500000000    2.85915800000000    0.07431000000000
N        33.70855100000000    1.54255300000000   -0.34183300000000
C        35.33268400000000    3.47085900000000   -0.34255600000000
C        36.43423600000000    2.80360200000000   -0.67432700000000
C        37.42778200000000    3.05558700000000   -1.70849700000000
C        38.32166600000000    2.09472800000000   -1.60701300000000
C        37.94196700000001    1.18284400000000   -0.50303600000000
N        36.84705200000000    1.63216300000000    0.00433100000000
C        38.59917400000000   -0.01643400000000    0.00778700000000
C        37.97576300000001   -1.08561600000000    0.46930300000000
C        38.35447600000000   -2.01773100000000    1.54477900000000
C        37.41380700000001   -2.93187700000000    1.63064500000000
C        36.40550600000001   -2.63609800000000    0.63321800000000
N        36.74328000000000   -1.58272100000000   -0.01607700000000
C        35.15311200000001   -3.34310600000000    0.30202500000000
C        34.03923600000001   -2.74640900000000   -0.04531700000000
N        33.65712400000000   -1.46365200000000    0.37236600000000
H        32.95953600000000   -4.22043500000000   -1.39620400000000
H        31.09444700000000   -2.45170500000000   -1.58814400000000
H        31.18555400000000    2.45511700000000    1.51518200000000
H        33.16224200000000    4.34524700000000    1.30432500000000
H        35.41862400000000    4.56823700000000   -0.40457800000000
H        37.46045500000000    3.86180300000000   -2.43532100000000
H        39.21472700000000    1.98175900000000   -2.24078700000000
H        39.26922600000000   -1.94332500000000    2.15494900000000
H        37.43285300000000   -3.74548500000000    2.33891200000000
H        35.19159700000000   -4.44306500000000    0.36106100000000
Fe       48.58915200000000    0.03208600000000    0.00469700000000
C        46.30934100000001   -3.22936200000000   -0.90496900000000
C        45.35313200000000   -2.33001100000000   -1.00699500000000
C        45.74550600000000   -1.16770600000000   -0.20448000000000
C        45.11039000000000   -0.01643400000000    0.00778700000000
C        45.79584700000000    1.25816600000000    0.23401600000000
C        45.46055700000000    2.33676600000000    0.93825600000000
C        46.48509800000001    3.35608200000000    0.84767500000000
C        47.43569500000000    2.85915800000000    0.07431000000000
N        47.05870100000000    1.54255300000000   -0.34183300000000
C        48.68283500000000    3.47085900000000   -0.34255600000000
C        49.78438600000000    2.80360200000000   -0.67432700000000
C        50.77793300000000    3.05558700000000   -1.70849700000000
C        51.67181600000000    2.09472800000000   -1.60701300000000
C        51.29211800000000    1.18284400000000   -0.50303600000000
N        50.19720300000000    1.63216300000000    0.00433100000000
C        51.94932500000001   -0.01643400000000    0.00778700000000
C        51.32591300000001   -1.08561600000000    0.46930300000000
C        51.70462600000000   -2.01773100000000    1.54477900000000
C        50.76395700000000   -2.93187700000000    1.63064500000000
C        49.75565600000000   -2.63609800000000    0.63321800000000
N        50.09343100000000   -1.58272100000000   -0.01607700000000
C        48.50326300000000   -3.34310600000000    0.30202500000000
C        47.38938600000001   -2.74640900000000   -0.04531700000000
N        47.00727400000000   -1.46365200000000    0.37236600000000
H        46.30968600000000   -4.22043500000000   -1.39620400000000
H        44.44459800000001   -2.45170500000000   -1.58814400000000
H        44.53570400000001    2.45511700000000    1.51518200000000
H        46.51239300000001    4.34524700000000    1.30432500000000
H        48.76877500000000    4.56823700000000   -0.40457800000000
H        50.81060500000000    3.86180300000000   -2.43532100000000
H        52.56487700000000    1.98175900000000   -2.24078700000000
H        52.61937600000000   -1.94332500000000    2.15494900000000
H        50.78300400000000   -3.74548500000000    2.33891200000000
H        48.54174700000000   -4.44306500000000    0.36106100000000
154
 energy: -276.814879575594 gnorm: 0.398459929663 xtb: 6.4.1 (bd6e46d)
Fe       20.27360951114172    0.03620774416000   -0.01042704563935
C        22.59159066918988   -3.11812519506253    1.30287020729902
C        23.52270848009599   -2.16427035881427    1.25773500420341
C        23.09056026449698   -1.11328789782478    0.34685835150398
C        23.68963260880890    0.03740776279670   -0.00602722431295
C        22.99477213713510    1.23026045139950   -0.36307016427252
C        23.35086842207640    2.22413260339615   -1.23749695493848
C        22.33584866189340    3.21318516926054   -1.24961291161089
C        21.36095238149791    2.80886112155296   -0.38144970803849
N        21.74254761773572    1.57908543023974    0.17875673876389
C        20.12683507629666    3.47658076029702   -0.00890463488850
C        18.99916323386517    2.82789867473222    0.34301051573559
C        17.93596384182942    3.17051202401368    1.29288326944209
C        17.07001090869522    2.15837865882122    1.23736982693934
C        17.53035162034558    1.16264734693626    0.27190742032539
N        18.67783208219125    1.57941212836154   -0.21050215591108
C        16.91310996098208   -0.06797897058384   -0.15225862332129
C        17.59381926689329   -1.19972510427727   -0.42089908763731
C        17.20775454592976   -2.26024077810676   -1.35725976422733
C        18.17261970898799   -3.17726233884145   -1.28030457795494
C        19.16108836893731   -2.72788197500581   -0.31015707996115
N        18.80960455547002   -1.54676927657887    0.16918127595772
C        20.36322984961710   -3.37878827252908    0.13667556197710
C        21.51160899883227   -2.71010378321993    0.41640339587912
N        21.82530951632749   -1.47284556893538   -0.15533124642062
H        22.64052046664465   -4.01284141535388    1.92014497468272
H        24.42847801084466   -2.19339556957909    1.83660853035279
H        24.26323969672146    2.22160000890748   -1.82189421077457
H        22.32852458452883    4.11172084273757   -1.84972857723156
H        20.07716091545114    4.56815978041250   -0.00490023389963
H        17.89169660735315    4.03931213622107    1.92851280200308
H        16.18070615187461    2.11918491497801    1.85070492966971
H        15.82912998385328   -0.07852535271579   -0.26529482593815
H        16.34968717646407   -2.30103759510321   -2.01212855364660
H        18.17504249684153   -4.07532479415394   -1.87838429262980
H        20.34099981365075   -4.46308292484766    0.25738453963753
Fe       63.48329936719938   -0.00705184440107   -0.01451366008175
C        61.16532663928290    2.84884543798793    1.86119853140881
C        60.23423508752316    1.91991383422755    1.63989995918726
C        60.66640197801180    1.05614705010039    0.54986956231207
C        60.06746593442893   -0.00913641024740   -0.01026286014077
C        60.76217611893617   -1.11500638236800   -0.58249299145334
C        60.40606046197781   -1.92939528903743   -1.62612476408547
C        61.42105868301705   -2.89902633406429   -1.82152085466570
C        62.39597355661997   -2.66277084755434   -0.89342771723938
N        62.01439013312897   -1.55829835310802   -0.11478196607622
C        63.63007862129791   -3.38802959479030   -0.65122655632487
C        64.75775254238782   -2.81588306073603   -0.18507765208332
C        65.82094628663906   -3.32876580140587    0.68475781083063
C        66.68690739680930   -2.32391039949425    0.81795814440985
C        66.22655377825062   -1.16635286773046    0.05398280321551
N        65.07907712415472   -1.48640083402193   -0.49736912584021
C        66.84379760526015    0.12159807290724   -0.13451635674239
C        66.16308530295042    1.28353768427864   -0.18853835234351
C        66.54915877308498    2.49935340759989   -0.91190805311551
C        65.58429177087679    3.38617643572575   -0.66617482128535
C        64.59582503599749    2.76461620539262    0.20377413022640
N        64.94732259580491    1.51509718112531    0.45570709354561
C        63.39368407710975    3.32133769168310    0.76360348683067
C        62.24531171580517    2.61235111678167    0.91441073491660
N        61.93164694530218    1.50264724612715    0.12305873579124
H        61.11638989384262    3.61352732554517    2.63373710062327
H        59.32844193622040    1.84116493676138    2.21411406062357
H        59.49368385015885   -1.81847606583791   -2.19992152514857
H        61.42839504239320   -3.67064078922534   -2.57792816092007
H        63.67975521380166   -4.46140697261876   -0.84979450526605
H        65.86522070494082   -4.30041113082527    1.14817085429189
H        67.57621009456886   -2.39917865891072    1.42792567432897
H        67.92778034619700    0.15293147440168   -0.24363772753645
H        67.40722760890989    2.66092811772712   -1.54784136280545
H        65.58187219539295    4.37960666427729   -1.08726229581966
H        63.41590979714789    4.36441761527575    1.08336858451203
C        26.59567871247472    0.01223818456307   -0.00589732126101
C        27.81850763863127    0.01968781687588   -0.00589428090753
C        29.20262784521071    0.02145473064969   -0.00098106587345
C        30.42217510224197    0.02234723805484   -0.01073776111933
C        39.97703039342348    0.02087370698594   -0.00400335503371
C        41.19208222957140    0.02059177024185   -0.00397239281373
C        42.55864698984310    0.02120224017628   -0.00141470191928
C        43.77520710733987    0.02202702866491   -0.01201199601388
C        53.33076986072532    0.02138914928839   -0.00334932767551
C        54.54881467054533    0.02037142195333   -0.00437884343559
C        55.93496176525019    0.01925117818129   -0.00086411178596
C        57.15839574822994    0.01134018186041   -0.00689215782672
Fe       35.23009857983364    0.03474042219071    0.00130810849292
C        32.95943442490417   -3.25007431471648   -0.89752640119603
C        31.99627435177281   -2.33052234381373   -0.99740148266162
C        32.42367513845803   -1.18332810321195   -0.20931060415005
C        31.77781944591506    0.00453671314546    0.00552110554478
C        32.47790872422613    1.26382374385386    0.23236273072215
C        32.10019755828846    2.36549827284127    0.95123771952852
C        33.10841941612317    3.35892556016545    0.85603807977596
C        34.09606880177517    2.83818744769570    0.07094272894515
N        33.73488556803861    1.52893872380769   -0.32924726166601
C        35.31671609666449    3.46989434259263   -0.34471770535444
C        36.44378802254288    2.79180467976030   -0.67547786378478
C        37.43686713970148    3.06424908719324   -1.69440169321021
C        38.34493764493135    2.08291673274890   -1.60631969778540
C        37.94299754800001    1.18225405883696   -0.52217398512541
N        36.81191261938496    1.61361297884005   -0.01460940690267
C        38.60348806531496    0.00185671396606   -0.00236846506213
C        37.95895926142536   -1.09879213456273    0.47883358255064
C        38.36720076498646   -2.01777684268223    1.53385879925309
C        37.41017458744597   -2.95095305536129    1.63000383070677
C        36.39414452878859   -2.64573394364975    0.64446933969683
N        36.72617811919075   -1.54784780005829   -0.00224126164565
C        35.17458311285566   -3.35125506354207    0.31300400217472
C        34.02683039948889   -2.73492499488969   -0.05378155853281
N        33.67173745180277   -1.45172992955025    0.33893257069547
H        32.96513566084790   -4.21799973270181   -1.39217447899076
H        31.09502526638470   -2.43994003559787   -1.58262090024169
H        31.18397643297470    2.46074167354793    1.51705445909431
H        33.14885726034780    4.33957209596895    1.30749953630900
H        35.39767967149489    4.56104886576944   -0.41181453091081
H        37.45254877729360    3.86027165259269   -2.42587381811773
H        39.21683856907170    1.97385061827147   -2.23779965225180
H        39.26349648821044   -1.93730563418361    2.14517334857695
H        37.42448696805051   -3.75348578095777    2.34005634011125
H        35.19910481713374   -4.44054952722810    0.35835133023169
Fe       48.58007738211272    0.03459526501069    0.00166155971539
C        46.30875855783697   -3.25030102584855   -0.89740947147807
C        45.34622232648164   -2.33143805671587   -0.99695462479693
C        45.77414615004569   -1.18314184903335   -0.20801841853543
C        45.12995969256146    0.00413068805337    0.00523269123134
C        45.82835898403194    1.26436125576082    0.23214977341753
C        45.45049834490241    2.36561432620332    0.95133814885747
C        46.45841551607387    3.35902949172631    0.85593782099117
C        47.44630056882323    2.83833143193260    0.07066951099194
N        47.08500809551401    1.52909036804726   -0.32932744698932
C        48.66673552447120    3.46972809146023   -0.34437648799264
C        49.79423425092604    2.79172973540261   -0.67543637810988
C        50.78686935126152    3.06428694632657   -1.69441556363976
C        51.69496450947501    2.08267997399273   -1.60668573581469
C        51.29290747995795    1.18181486385182   -0.52328464576334
N        50.16283001631844    1.61325662783129   -0.01496264288928
C        51.95587444765199    0.00110427653515   -0.00196422212814
C        51.31028221556120   -1.09856652462837    0.47912651828885
C        51.71775727966682   -2.01758825776143    1.53370957889527
C        50.76006778196523   -2.95033792896446    1.63034239058678
C        49.74496943886368   -2.64459121389647    0.64499132384465
N        50.07644708068361   -1.54803467929556   -0.00177414070632
C        48.52377029250685   -3.35141267593769    0.31203839548056
C        47.37766019835136   -2.73525321042973   -0.05322630142568
N        47.02258064516293   -1.45128341615811    0.33902661643153
H        46.31509199542889   -4.21802429762398   -1.39233844016643
H        44.44524979179089   -2.44009164322160   -1.58285612254477
H        44.53418183002006    2.46077260833427    1.51722361700913
H        46.49893322433029    4.33965028502499    1.30745190964769
H        48.74780421272789    4.56097837728326   -0.41169256456776
H        50.80268743528266    3.86034627041690   -2.42582175746223
H        52.56702077878261    1.97384249847446   -2.23772707716337
H        52.61384400739831   -1.93737245083243    2.14506273085825
H        50.77451781306510   -3.75331769813802    2.34000524286415
H        48.54924702387876   -4.44063449699886    0.35722625471034
154
 energy: -276.954448349913 gnorm: 0.155671151895 xtb: 6.4.1 (bd6e46d)
Fe       20.28548206522451    0.03654695089488   -0.00740431296584
C        22.59158422103570   -3.12349381540838    1.29117139051536
C        23.53744374087528   -2.16336736494643    1.25189688874337
C        23.08174412969098   -1.11425865808230    0.35881038717042
C        23.65152034424809    0.06507241548570   -0.00725515259007
C        22.97857341962392    1.22361525395360   -0.35943819629138
C        23.35872258001065    2.25523399645716   -1.24876025640927
C        22.37139345953578    3.21153574276813   -1.25236493536524
C        21.35458364929821    2.78102194265684   -0.37299105316591
N        21.71355639621775    1.55580669600520    0.16207987060467
C        20.15185763680024    3.46593750598758   -0.00911923856010
C        18.99755316074032    2.80213276438574    0.35130074741366
C        17.94077210578147    3.17189216839160    1.26856671191657
C        17.04429751523237    2.15586306026941    1.23015595620414
C        17.52451445038353    1.16142120680204    0.29298171127503
N        18.72120317788896    1.55264228059058   -0.17478265044921
C        16.90714767851047   -0.04509214937067   -0.14241308557589
C        17.60334462288002   -1.19716141582481   -0.43523165075396
C        17.20457834986466   -2.25901339232506   -1.33847774058747
C        18.17493582802285   -3.19871377791596   -1.26928133347815
C        19.17143649382007   -2.73707449851528   -0.32218144612163
N        18.82554376646045   -1.51278636901584    0.12678795613459
C        20.34545663544165   -3.37902167965283    0.12674366353344
C        21.51275237629387   -2.68797251797061    0.42447957507536
N        21.81132051768127   -1.46536191618758   -0.11639158623615
H        22.62955333238005   -4.00773091827212    1.90596914241039
H        24.43806768178262   -2.18057551187256    1.82931440046579
H        24.26172929368225    2.23108066576970   -1.82144006238751
H        22.33439306573542    4.10659434867642   -1.84584901673876
H        20.09875498660897    4.55438511515490   -0.00395906511352
H        17.90020108473406    4.03452754251789    1.91347055795942
H        16.17239197207047    2.10805531900482    1.84496607767260
H        15.83269226521672   -0.07113970829785   -0.26398480665424
H        16.35316668828996   -2.28979151422958   -1.99765465499964
H        18.18772203447360   -4.08362192535072   -1.86999134432381
H        20.34071370356066   -4.45560907969456    0.25110267321637
Fe       63.47141271351145   -0.00796256480227   -0.01161188198675
C        61.16534978143852    2.85630371222344    1.85068122303583
C        60.21952764837926    1.92010597484761    1.63398273924327
C        60.67526612677642    1.05487296113974    0.56179578947372
C        60.10563627540721   -0.03615581838084   -0.01656320546999
C        60.77845136007376   -1.10914665242370   -0.57771363223676
C        60.39823270419463   -1.95786820761339   -1.64295633979153
C        61.38553927425611   -2.89691405692171   -1.82392402426381
C        62.40236344295970   -2.63702979157243   -0.87995603571899
N        62.04341874087938   -1.53236002760271   -0.12687687270579
C        63.60506441497830   -3.37755560747341   -0.64946147390455
C        64.75936350949851   -2.79210463806684   -0.17214541033143
C        65.81613794509801   -3.32560727538893    0.66060324232254
C        66.71261967376019   -2.32008819103788    0.81133866107476
C        66.23240653281024   -1.16905670742228    0.07491241981080
N        65.03571292731381   -1.46672262488428   -0.45730706088524
C        66.84976939324602    0.09728344560593   -0.12910198354119
C        66.15357123007492    1.28367836313486   -0.20311670906430
C        66.55233526417136    2.49465868955359   -0.89370461643406
C        65.58197757423250    3.40521134341559   -0.65138479612163
C        64.58547988039165    2.77588964608502    0.19364589489686
N        64.93137804781739    1.48956561137159    0.40770901580387
C        63.41146813502181    3.32343468630897    0.75386850537946
C        62.24417584891144    2.58914289187351    0.91821113777979
N        61.94566417010871    1.48810143609140    0.15994223161829
H        61.12735820274662    3.61115009615040    2.61883090715938
H        59.31886772866066    1.82994165679899    2.20455188658442
H        59.49521333224807   -1.82787260080277   -2.20122101109517
H        61.42253322777121   -3.66633712774042   -2.57316107424228
H        63.65817618721789   -4.44806029851239   -0.84632359485744
H        65.85671582147583   -4.29291281499310    1.13427953122078
H        67.58452638481910   -2.38716975598507    1.42434538031388
H        67.92422378811597    0.14543239747110   -0.24373246029794
H        67.40374716817850    2.64718668480701   -1.53572971078756
H        65.56918874931763    4.38619886887112   -1.07750312652921
H        63.41620310599269    4.35825531895940    1.07579060913337
C        26.58924665033667    0.01359376082940   -0.00541078128226
C        27.82059751265629    0.01983716948411   -0.00628612361027
C        29.17659783844611    0.02145546637923   -0.00008363813870
C        30.40382904632268    0.03333293823962   -0.01145580207596
C        39.99007503319663    0.02331101637512   -0.00461155808746
C        41.21287429627694    0.01899549299150   -0.00280026948425
C        42.54196053741809    0.02184240254421   -0.00087876825838
C        43.76531602844701    0.03379325202260   -0.01351065720618
C        53.35196014488309    0.02423900840933   -0.00365748935796
C        54.57777921612963    0.01967079588142   -0.00221977837845
C        55.93459865134271    0.01861045678440   -0.00161114100320
C        57.16526166105712    0.01047581300724   -0.00663254589716
Fe       35.22504647952918    0.03725069519166   -0.00635106291462
C        32.96369320788363   -3.26663103128915   -0.88677575119429
C        31.99353648617170   -2.32633114312340   -0.98441189440982
C        32.45001292125819   -1.19022772094379   -0.21841466373663
C        31.79068219930616    0.03002678825242    0.00395408185409
C        32.51064979218746    1.26528324950222    0.22995472772607
C        32.09249498215560    2.39464514774360    0.95595598500886
C        33.07974767597638    3.35661342123237    0.85600333932177
C        34.10783355175744    2.81439535365537    0.06823311351972
N        33.76307087870192    1.51262851282062   -0.29416924415611
C        35.29710319600448    3.46285379764381   -0.34702662003733
C        36.44629592183603    2.77086930696894   -0.68255276931911
C        37.44327739501777    3.06744317596322   -1.67564733559590
C        38.36582675555503    2.07239613265747   -1.59559459684987
C        37.94443633673961    1.17699032348461   -0.54298611406862
N        36.76941560798490    1.58795897345452   -0.04601791981764
C        38.60670052699019    0.01913719071688   -0.01369704366721
C        37.93890054593854   -1.10410734065679    0.49265161762530
C        38.37324366005110   -2.01422022468077    1.51828724281349
C        37.40850582164244   -2.96822054628701    1.61902428031483
C        36.38122680112708   -2.65180762757132    0.65728280875265
N        36.70728633762958   -1.50043928578744    0.02682037319939
C        35.19521036136749   -3.35084290180296    0.32432520863930
C        34.02235181519751   -2.72143104473144   -0.06877829882092
N        33.68768685424401   -1.43833040764769    0.29268919757277
H        32.97136874454512   -4.21745355439595   -1.38291958902526
H        31.09607223972577   -2.42513394387565   -1.57056956481328
H        31.18175423932567    2.46412781690823    1.51507950691704
H        33.13531053218788    4.33132699547381    1.30647230224462
H        35.37278188583852    4.54804374514775   -0.41398995251235
H        37.44405353780886    3.85817159657683   -2.40895905894344
H        39.22077619212880    1.96530967837068   -2.23006651681735
H        39.25624704480706   -1.93208030351286    2.13008934795861
H        37.41497031183378   -3.76291748178851    2.33506827426490
H        35.20188956775846   -4.43342188271796    0.36129235814384
Fe       48.57542632266028    0.03701794485997   -0.00632253527336
C        46.31222880428371   -3.26737250217575   -0.88649013949138
C        45.34350680620143   -2.32829341663181   -0.98317926623508
C        45.80280520393659   -1.19039280502730   -0.21552273774927
C        45.14927177062361    0.02945883947303    0.00346899713852
C        45.86322440214781    1.26649105072686    0.22914667123097
C        45.44333534840823    2.39524926127585    0.95587204158920
C        46.42957022448180    3.35720145218036    0.85562263659298
C        47.45860678925721    2.81551679586961    0.06728199282708
N        47.11415757657397    1.51326426476100   -0.29457137187064
C        48.64695647037303    3.46243448520835   -0.34601250952687
C        49.79729527421817    2.77001154347167   -0.68285651214802
C        50.79278858433564    3.06714861886283   -1.67566342605706
C        51.71573952593626    2.07124325681337   -1.59663193935438
C        51.29586788529970    1.17593073542133   -0.54530406837066
N        50.12226629224335    1.58710541177640   -0.04634902250673
C        51.96523681007933    0.01786201293465   -0.01300788809369