154
 energy: -277.754591896945 gnorm: 0.000446562756 xtb: 6.4.1 (bd6e46d)
Fe       21.43661988507602    0.00172091870484   -0.01092053536045
C        23.93744271444635   -3.38553454732282    0.03163441469066
C        24.92920329381471   -2.46410636412346    0.03278344778422
C        24.28836792875311   -1.18497964901720    0.01435518024404
C        24.96427080624722    0.03910990902282    0.00203831945242
C        24.26288573553829    1.24866330605504   -0.01175953195695
C        24.87651794911334    2.54111618914220   -0.02079238872751
C        23.86542001680483    3.44130535071592   -0.02197630663422
C        22.64153699771791    2.69293974542637   -0.01443960423225
N        22.90576056644024    1.34839936431647   -0.01004774732695
C        21.39914230293218    3.29652719042771   -0.00862050456658
C        20.17141755157283    2.66432446701580   -0.00636551357082
C        18.92773893868594    3.38387693294936   -0.00197170332667
C        17.94051527903500    2.46028953973192   -0.01097933040903
C        18.58397530993392    1.17856249250608   -0.02012764307512
N        19.94171526420201    1.31639244979311   -0.01504992280275
C        17.92680403426512   -0.03556419352473   -0.03591721167482
C        18.60964167915201   -1.23552262233629   -0.03994522869492
C        17.99367168231378   -2.53062347717145   -0.05406452947462
C        19.00024741420261   -3.43307137972254   -0.04384577557879
C        20.22818910074235   -2.68727220083663   -0.02411583981805
N        19.96992163523202   -1.34451823723867   -0.02419259381697
C        21.46889926142662   -3.29324634524204   -0.00375580256945
C        22.69804751860648   -2.66334161949531    0.01190245578589
N        22.93372678385056   -1.31350034330933    0.00399709077515
H        24.01781669860475   -4.45538169883764    0.04225797256548
H        25.99135718898248   -2.61334419658968    0.04441297323473
H        25.93532647427115    2.71285860058663   -0.02436483486415
H        23.92309679093156    4.51265106969848   -0.02731366993428
H        21.38768281443679    4.37735780318625   -0.00700562174055
H        18.84545598494817    4.45382044793229    0.00638384359539
H        16.87806004475217    2.60947367338133   -0.01152326127772
H        16.84792359066607   -0.04696807232173   -0.04430160527300
H        16.93472693837483   -2.70232690160386   -0.06907457091948
H        18.94080759198267   -4.50453977528567   -0.04880388686032
H        21.48041892101566   -4.37407074088153   -0.00074623996006
Fe       62.33987869619651    0.03673373299029   -0.01039154104080
C        59.84807207511817    3.37529991431893    0.60176529915785
C        58.85384969433514    2.47066341520996    0.44138655810928
C        59.49137039140815    1.21072392925036    0.21014583380482
C        58.81228843116474    0.00707260899471   -0.00236363314952
C        59.51023231865776   -1.18537763675832   -0.21650003474251
C        58.89297257601745   -2.45615572782301   -0.44284501346062
C        59.90154252593403   -3.34443401883227   -0.60520256786146
C        61.12751187226645   -2.61055352860516   -0.47698552901198
N        60.86707889166912   -1.28644966705013   -0.23922515555263
C        62.36824163033572   -3.20776591802293   -0.58554390440812
C        63.59768497231082   -2.58804603147919   -0.47859011389815
C        64.83938255772031   -3.29954026543525   -0.60710463851229
C        65.82913905156877   -2.39175401139175   -0.45220124024492
C        65.18921123024700   -1.12775141725526   -0.22918936686584
N        63.83109037367885   -1.26082668241434   -0.24680179742778
C        65.84974328596098    0.06721728088758   -0.02443754499880
C        65.17027056109048    1.25029223399098    0.18721347890388
C        65.78990565021439    2.52458234338985    0.40866135174422
C        64.78579100248918    3.41444802678316    0.57486321302872
C        63.55569959901506    2.68191907845651    0.45387568425717
N        63.81022182837913    1.35962556254663    0.21632971387383
C        62.31656845314265    3.28021157120294    0.57050034542656
C        61.08563289539842    2.66230625460356    0.46684757330434
N        60.84640939597316    1.33446282043642    0.22749474576660
H        59.77051416712273    4.42807554218642    0.79360486123553
H        57.79205299070642    2.61945832837047    0.47352489367959
H        57.83368369023786   -2.62274058045303   -0.47021454539162
H        59.84088343805922   -4.39877084995915   -0.79456588374535
H        62.37676159939220   -4.27201605850089   -0.77427933839953
H        64.91871413055465   -4.35376682196293   -0.79130283306495
H        66.89118037812236   -2.54097418948257   -0.48190458363344
H        66.92866539382061    0.07663929189110   -0.02916378540676
H        66.84939388194971    2.69217864891269    0.43021122144940
H        64.84823305518250    4.46924597287755    0.76213941495032
H        62.30800616042053    4.34395720778472    0.76207045342147
C        26.36116607330699    0.05262859062798    0.00364114282745
C        27.57903651836910    0.06163310296547    0.00156723837360
C        28.92186237226911    0.06764317206116    0.00141220375021
C        30.13985751300370    0.06946866996778   -0.00012966956513
C        39.99893887970994    0.04909514524707   -0.02053981848273
C        41.21715128763579    0.04326454771442   -0.02202431756454
C        42.55970440975936    0.03634341225793   -0.02260916464945
C        43.77781612713792    0.02942544492478   -0.02310768195499
C        53.63647726694187   -0.01258684051608   -0.00306983423743
C        54.85441489470321   -0.01278341414936   -0.00144304867911
C        56.19737518099293   -0.00989222673981   -0.00102378124164
C        57.41520812956068   -0.00297319043440   -0.00113419722735
Fe       35.06943939796192    0.06031931530882   -0.01193038881258
C        32.59598130411393   -3.32317025256748    0.40214030205845
C        31.59528488429257   -2.41700373428638    0.29982412482618
C        32.22397502470302   -1.14154828897978    0.14176122551300
C        31.53625790498717    0.06789590933494   -0.00251187738726
C        32.22823148180208    1.27439577592578   -0.15018365205742
C        31.60426003411655    2.55247881790547   -0.30514264575160
C        32.60828886505452    3.45427961466244   -0.41335463443091
C        33.83767782106080    2.72086086844593   -0.32365399095260
N        33.58389341010391    1.38368245509835   -0.16374982416954
C        35.07534896739347    3.32977442098576   -0.39127843220460
C        36.31067277606557    2.71704216764360   -0.31610652119428
C        37.54264680467673    3.44724762144729   -0.39524782969713
C        38.54346985734240    2.54131081152359   -0.29172306744407
C        37.91497425643573    1.26382402559607   -0.15067039581883
N        36.55971645582243    1.37789527604876   -0.16469880433220
C        38.60270994320573    0.05280076890435   -0.01939316998866
C        37.91029346841310   -1.15536351209731    0.11391113157913
C        38.53405391070289   -2.43554156827891    0.25085792707715
C        37.52994989481632   -3.33749261050905    0.35712926289136
C        36.30073486089914   -2.60202345672629    0.28460304780294
N        36.55468639373022   -1.26378953779222    0.13354095549183
C        35.06325220900802   -3.20952259118236    0.36579291747135
C        33.82798839322688   -2.59507219031278    0.30581198048024
N        33.57917197858777   -1.25669212065181    0.14785842456771
H        32.52589276793125   -4.38602185641698    0.53074148538035
H        30.53456471645063   -2.57432804574753    0.32624235793939
H        30.54409133963592    2.71435161545914   -0.32571613078321
H        32.54207722987270    4.51737914321418   -0.54193484614268
H        35.07740244398242    4.40348720561241   -0.51642927031399
H        37.61259942478127    4.51123449359510   -0.51419179804446
H        39.60417857749212    2.70006460857746   -0.30723782608153
H        39.59412872590298   -2.59872423264908    0.26161603530823
H        37.59595982203250   -4.40194403355317    0.47401696034479
H        35.06131059983933   -4.28335920227804    0.48979117641699
Fe       48.70707772659557    0.00736699426395   -0.01390335148962
C        46.22493268673073   -3.37112311684591    0.38532543932794
C        45.22659555549004   -2.46212817151275    0.28485206441840
C        45.85847749930926   -1.18815214823083    0.12839874722233
C        45.17402881789915    0.02259965712322   -0.02116241400142
C        45.86972029413594    1.22708444718779   -0.16966099352835
C        45.24948853003151    2.50591741468830   -0.33275451963676
C        46.25605525487720    3.40606157255538   -0.43102903281016
C        47.48315240740781    2.67091959986831   -0.32734298454291
N        47.22560475717682    1.33398511950615   -0.17072573597065
C        48.72216512430756    3.27879120855447   -0.37603607803001
C        49.95561720846956    2.66408685487016   -0.28825765275569
C        51.18966249987304    3.39292675262727   -0.34737616264638
C        52.18779685667121    2.48421734729679   -0.24293261868007
C        51.55555757390423    1.20636600217281   -0.12122958363455
N        50.20069341742194    1.32321288399619   -0.14623728499724
C        52.23993235750471   -0.00798621641264   -0.00604811395116
C        51.54484362301439   -1.21652541193114    0.10471355859575
C        52.16529430402902   -2.50005185690144    0.22409633515505
C        51.15884910018015   -3.40040551687911    0.32138244254970
C        49.93157336063803   -2.66067849493729    0.26058610654761
N        50.18889422650108   -1.32161499664705    0.12407375022454
C        48.69241782067935   -3.26486317332940    0.34183650029180
C        47.45888055637344   -2.64617958544504    0.28939508485812
N        47.21342117232819   -1.30673927489460    0.13513703304383
H        46.15211428368261   -4.43404075153247    0.51183163197438
H        44.16548572229178   -2.61684436952187    0.31066563891548
H        44.18990311414781    2.66948618447625   -0.36471383548294
H        46.19299871959784    4.46913029861593   -0.56123709022215
H        48.72707093947841    4.35310273357077   -0.49577196165741
H        51.26276254739301    4.45787441792929   -0.45577489194407
H        53.24892965301655    2.64107810818897   -0.24766941682677
H        53.22496961832455   -2.66612471260633    0.23117056371416
H        51.22210427224302   -4.46636297858536    0.42498909653481
H        48.68744923027043   -4.33947788517403    0.45879885010622
