 Entering Gaussian System
 *********************************************
 Gaussian 98:
 frequency output generated by the xtb code
 *********************************************
                         Standard orientation:
 --------------------------------------------------------------------
  Center     Atomic     Atomic              Coordinates (Angstroms)
  Number     Number      Type              X           Y           Z
 --------------------------------------------------------------------
    1         29             0       14.470442   -0.001951   -0.006530
    2          6             0       16.992365   -3.431469    0.014995
    3          6             0       17.946465   -2.470433    0.020196
    4          6             0       17.259571   -1.210702    0.008665
    5          6             0       17.908598    0.032877    0.000344
    6          6             0       17.234844    1.263083   -0.009544
    7          6             0       17.896130    2.536404   -0.017990
    8          6             0       16.922744    3.477952   -0.016988
    9          6             0       15.669982    2.777803   -0.008224
   10          7             0       15.893512    1.435426   -0.005700
   11          6             0       14.434588    3.400311    0.001351
   12          6             0       13.213145    2.750632    0.008173
   13          6             0       11.941361    3.421098    0.019908
   14          6             0       10.992821    2.456878    0.016194
   15          6             0       11.683964    1.196064    0.002055
   16          7             0       13.024354    1.406776   -0.000413
   17          6             0       11.054960   -0.036574   -0.012725
   18          6             0       11.708733   -1.256293   -0.025634
   19          6             0       11.043292   -2.530829   -0.043687
   20          6             0       12.011153   -3.475664   -0.044955
   21          6             0       13.269030   -2.779600   -0.027388
   22          7             0       13.053076   -1.439836   -0.018269
   23          6             0       14.503355   -3.404338   -0.015592
   24          6             0       15.725760   -2.756820    0.000413
   25          7             0       15.922060   -1.410186   -0.000880
   26          1             0       17.115564   -4.497138    0.020354
   27          1             0       19.013397   -2.581433    0.030402
   28          1             0       18.960652    2.668894   -0.023081
   29          1             0       17.024331    4.545951   -0.021589
   30          1             0       14.423962    4.480790    0.003619
   31          1             0       11.815391    4.486657    0.029516
   32          1             0        9.925309    2.565252    0.022210
   33          1             0        9.974732   -0.047460   -0.014620
   34          1             0        9.978234   -2.660798   -0.053924
   35          1             0       11.906861   -4.543549   -0.056432
   36          1             0       14.514750   -4.484804   -0.018934
   37         29             0       41.380580    0.031534   -0.003865
   38          6             0       38.872952    3.429977    0.528159
   39          6             0       37.914811    2.485253    0.375021
   40          6             0       38.596491    1.236695    0.187886
   41          6             0       37.942760    0.008955    0.007681
   42          6             0       38.611612   -1.209605   -0.179259
   43          6             0       37.945079   -2.466353   -0.366374
   44          6             0       38.914339   -3.397390   -0.532691
   45          6             0       40.169682   -2.707952   -0.444783
   46          7             0       39.951977   -1.382424   -0.226742
   47          6             0       41.402017   -3.322789   -0.574769
   48          6             0       42.625988   -2.683669   -0.488073
   49          6             0       43.894821   -3.345631   -0.625428
   50          6             0       44.847374   -2.398937   -0.464386
   51          6             0       44.161675   -1.157154   -0.229936
   52          7             0       42.820468   -1.361260   -0.253577
   53          6             0       44.795823    0.052663   -0.007849
   54          6             0       44.147126    1.255085    0.212542
   55          6             0       44.817891    2.506111    0.441177
   56          6             0       43.854097    3.442099    0.597725
   57          6             0       42.593320    2.764048    0.465371
   58          7             0       42.803608    1.442985    0.236741
   59          6             0       41.361804    3.388145    0.553206
   60          6             0       40.136711    2.756695    0.433967
   61          7             0       39.934880    1.427400    0.224033
   62          1             0       38.754213    4.483642    0.690216
   63          1             0       36.848342    2.600356    0.385645
   64          1             0       36.880089   -2.595686   -0.368057
   65          1             0       38.808243   -4.451912   -0.698943
   66          1             0       41.408037   -4.387708   -0.757627
   67          1             0       44.016209   -4.394170   -0.818010
   68          1             0       45.914293   -2.507675   -0.497259
   69          1             0       45.876086    0.059180   -0.007886
   70          1             0       45.883409    2.627894    0.472900
   71          1             0       43.962927    4.493025    0.784867
   72          1             0       41.355065    4.454140    0.729673
   73          6             0       19.306049    0.045319    0.000439
   74          6             0       20.524253    0.052909   -0.002056
   75          6             0       21.865928    0.055596   -0.004488
   76          6             0       23.084294    0.053789   -0.008059
   77          6             0       32.766890   -0.004696    0.003038
   78          6             0       33.985185   -0.006262    0.011021
   79          6             0       35.326967   -0.003119    0.010596
   80          6             0       36.545142   -0.000229    0.012332
   81         29             0       27.925551    0.023015   -0.013301
   82          6             0       25.415239   -3.395645    0.348724
   83          6             0       24.455783   -2.444038    0.257570
   84          6             0       25.135996   -1.188387    0.119615
   85          6             0       24.481121    0.045776   -0.011181
   86          6             0       25.151660    1.270777   -0.146758
   87          6             0       24.487764    2.534474   -0.290371
   88          6             0       25.459545    3.472696   -0.389645
   89          6             0       26.713092    2.779585   -0.305494
   90          7             0       26.492136    1.444680   -0.160770
   91          6             0       27.947437    3.401430   -0.358860
   92          6             0       29.173481    2.766144   -0.279270
   93          6             0       30.435991    3.446044   -0.332756
   94          6             0       31.395374    2.495568   -0.230123
   95          6             0       30.715054    1.237582   -0.115353
   96          7             0       29.376996    1.427330   -0.145227
   97          6             0       31.369922    0.001818   -0.001618
   98          6             0       30.699636   -1.226217    0.104111
   99          6             0       31.363623   -2.493012    0.217592
  100          6             0       30.391876   -3.432244    0.307151
  101          6             0       29.138194   -2.736538    0.248519
  102          7             0       29.359111   -1.399693    0.123101
  103          6             0       27.903784   -3.356683    0.318534
  104          6             0       26.677681   -2.718587    0.267027
  105          7             0       26.474064   -1.380067    0.130099
  106          1             0       25.297900   -4.456083    0.461015
  107          1             0       23.389472   -2.559028    0.279459
  108          1             0       23.422982    2.663316   -0.310972
  109          1             0       25.356098    4.533874   -0.508411
  110          1             0       27.954582    4.476285   -0.471147
  111          1             0       30.553416    4.507478   -0.435203
  112          1             0       32.461693    2.612613   -0.231569
  113          1             0       32.428433   -2.623082    0.226489
  114          1             0       30.495424   -4.495629    0.404411
  115          1             0       27.896673   -4.432235    0.423994
 --------------------------------------------------------------------
     1 basis functions        1 primitive gaussians
     1 alpha electrons        1 beta electrons

 Harmonic frequencies (cm**-1), IR intensities (km*mol⁻¹),
 Raman scattering activities (A**4/amu), Raman depolarization ratios,
 reduced masses (AMU), force constants (mDyne/A) and normal coordinates:
                      1                      2                      3
                        a                      a                      a 
 Frequencies --    -6.5338                -3.4583                 1.2700
 Red. masses --    11.2822                11.2771                18.6671
 Frc consts  --     0.0000                 0.0000                 0.0000
 IR Inten    --    76.8223               176.8545                 0.8175
 Raman Activ --     0.0000                 0.0000                 0.0000
 Depolar     --     0.0000                 0.0000                 0.0000
 Atom AN      X      Y      Z        X      Y      Z        X      Y      Z
   1  29    -0.02   0.00   0.00    -0.01  -0.00   0.01    -0.00  -0.01  -0.16
   2   6    -0.01  -0.00  -0.20    -0.01  -0.00  -0.09     0.00  -0.00  -0.01
   3   6    -0.01  -0.00  -0.15    -0.01  -0.00  -0.06     0.00  -0.00   0.01
   4   6    -0.01  -0.00  -0.07    -0.01  -0.00  -0.03     0.00  -0.00  -0.00
   5   6    -0.01  -0.00   0.00    -0.00  -0.00  -0.00    -0.00  -0.00   0.01
   6   6    -0.01  -0.00   0.07    -0.00  -0.01   0.03    -0.00  -0.00   0.00
   7   6    -0.00  -0.00   0.15    -0.00  -0.01   0.06    -0.00  -0.00   0.02
   8   6    -0.00  -0.00   0.21    -0.00  -0.01   0.09    -0.00  -0.00   0.00
   9   6    -0.00  -0.00   0.17    -0.00  -0.01   0.07    -0.00  -0.00  -0.03
  10   7    -0.01  -0.00   0.09    -0.01  -0.01   0.04    -0.00  -0.00  -0.03
  11   6    -0.00   0.00   0.20    -0.00  -0.00   0.09    -0.00  -0.00  -0.06
  12   6    -0.00   0.00   0.17    -0.00  -0.00   0.08    -0.00  -0.00  -0.09
  13   6    -0.00   0.00   0.21    -0.00  -0.00   0.10    -0.00  -0.01  -0.13
  14   6    -0.01   0.00   0.15    -0.00  -0.00   0.08    -0.00  -0.01  -0.15
  15   6    -0.01   0.00   0.07    -0.00  -0.00   0.04    -0.00  -0.01  -0.14
  16   7    -0.01   0.00   0.09    -0.00  -0.00   0.05    -0.00  -0.00  -0.11
  17   6    -0.01   0.01  -0.00    -0.01   0.00   0.01     0.00  -0.01  -0.16
  18   6    -0.01   0.01  -0.07    -0.01   0.00  -0.03     0.00  -0.01  -0.15
  19   6    -0.01   0.01  -0.15    -0.01   0.00  -0.06     0.00  -0.01  -0.16
  20   6    -0.01   0.01  -0.21    -0.01   0.00  -0.09     0.00  -0.00  -0.14
  21   6    -0.01   0.01  -0.17    -0.01   0.00  -0.07     0.00  -0.00  -0.10
  22   7    -0.01   0.01  -0.09    -0.01   0.00  -0.04     0.00  -0.00  -0.12
  23   6    -0.01   0.00  -0.20    -0.01   0.00  -0.09     0.00  -0.00  -0.07
  24   6    -0.01   0.00  -0.16    -0.01  -0.00  -0.07     0.00  -0.00  -0.04
  25   7    -0.01   0.00  -0.09    -0.01  -0.00  -0.04     0.00  -0.00  -0.04
  26   1    -0.00  -0.00  -0.08    -0.00  -0.00  -0.03     0.00  -0.00  -0.00
  27   1    -0.00  -0.00  -0.04    -0.00  -0.00  -0.02     0.00   0.00   0.01
  28   1    -0.00  -0.00   0.04    -0.00  -0.00   0.02    -0.00   0.00   0.01
  29   1    -0.00   0.00   0.08    -0.00  -0.00   0.03    -0.00  -0.00   0.00
  30   1    -0.00   0.00   0.08    -0.00  -0.00   0.04    -0.00  -0.00  -0.02
  31   1    -0.00   0.00   0.08    -0.00  -0.00   0.04    -0.00  -0.00  -0.04
  32   1    -0.00   0.00   0.05    -0.00  -0.00   0.02    -0.00  -0.00  -0.05
  33   1    -0.00   0.00  -0.00    -0.00   0.00   0.00     0.00  -0.00  -0.06
  34   1    -0.00   0.00  -0.05    -0.00   0.00  -0.02     0.00  -0.00  -0.06
  35   1    -0.00   0.00  -0.08    -0.00   0.00  -0.03     0.00  -0.00  -0.04
  36   1    -0.00   0.00  -0.08    -0.00   0.00  -0.03     0.00  -0.00  -0.02
  37  29     0.02   0.00   0.00     0.01  -0.00   0.01     0.00  -0.01  -0.16
  38   6     0.00   0.03  -0.19     0.01  -0.02   0.13     0.01  -0.00  -0.01
  39   6     0.01   0.02  -0.14     0.01  -0.01   0.10     0.01  -0.00   0.01
  40   6     0.01   0.01  -0.07     0.01  -0.00   0.05     0.00  -0.00  -0.01
  41   6     0.01  -0.00  -0.00     0.00   0.01   0.00     0.00  -0.00   0.01
  42   6     0.01  -0.01   0.06     0.00   0.01  -0.04    -0.00  -0.00  -0.01
  43   6     0.01  -0.02   0.12    -0.00   0.02  -0.09    -0.01  -0.00   0.01
  44   6     0.01  -0.03   0.17    -0.00   0.02  -0.13    -0.01  -0.00  -0.01
  45   6     0.01  -0.02   0.14    -0.00   0.02  -0.10    -0.01  -0.00  -0.04
  46   7     0.01  -0.01   0.08     0.00   0.01  -0.05    -0.01  -0.00  -0.04
  47   6     0.01  -0.03   0.18    -0.00   0.02  -0.13    -0.01  -0.00  -0.07
  48   6     0.01  -0.02   0.15    -0.00   0.01  -0.10    -0.01  -0.00  -0.10
  49   6     0.01  -0.03   0.19    -0.00   0.02  -0.13    -0.01  -0.00  -0.13
  50   6     0.01  -0.02   0.14    -0.00   0.01  -0.09    -0.01  -0.00  -0.15
  51   6     0.01  -0.01   0.07     0.00  -0.00  -0.04    -0.01  -0.00  -0.14
  52   7     0.01  -0.01   0.08     0.00   0.00  -0.05    -0.01  -0.00  -0.11
  53   6     0.01   0.00   0.01     0.01  -0.01   0.00    -0.00  -0.00  -0.15
  54   6     0.00   0.01  -0.06     0.01  -0.02   0.05     0.00  -0.00  -0.13
  55   6     0.00   0.03  -0.12     0.01  -0.03   0.10     0.01  -0.00  -0.15
  56   6     0.00   0.03  -0.17     0.01  -0.03   0.14     0.01  -0.00  -0.12
  57   6     0.00   0.03  -0.14     0.01  -0.02   0.11     0.01  -0.00  -0.09
  58   7     0.00   0.01  -0.08     0.01  -0.02   0.06     0.01  -0.00  -0.11
  59   6     0.00   0.03  -0.18     0.01  -0.02   0.13     0.01  -0.00  -0.06
  60   6     0.00   0.02  -0.15     0.01  -0.02   0.11     0.01  -0.00  -0.04
  61   7     0.01   0.01  -0.08     0.01  -0.01   0.06     0.01  -0.00  -0.04
  62   1     0.00   0.01  -0.07     0.00  -0.01   0.05     0.00  -0.00  -0.00
  63   1     0.00   0.01  -0.04     0.00  -0.00   0.03     0.00  -0.00   0.01
  64   1     0.00  -0.01   0.04    -0.00   0.01  -0.03    -0.00  -0.00   0.01
  65   1     0.00  -0.01   0.07    -0.00   0.01  -0.05    -0.00  -0.00  -0.00
  66   1     0.00  -0.01   0.07    -0.00   0.01  -0.05    -0.00  -0.00  -0.02
  67   1     0.00  -0.01   0.07    -0.00   0.01  -0.05    -0.01  -0.00  -0.04
  68   1     0.00  -0.01   0.04    -0.00   0.00  -0.03    -0.00  -0.00  -0.05
  69   1     0.00   0.00   0.00     0.00  -0.00   0.00    -0.00  -0.00  -0.05
  70   1     0.00   0.01  -0.04     0.00  -0.01   0.03     0.00  -0.00  -0.05
  71   1    -0.00   0.01  -0.07     0.00  -0.01   0.05     0.01  -0.00  -0.04
  72   1     0.00   0.01  -0.07     0.00  -0.01   0.05     0.00  -0.00  -0.02
  73   6    -0.01  -0.00   0.00    -0.00  -0.00  -0.00    -0.00   0.00   0.04
  74   6    -0.00  -0.00   0.00    -0.00  -0.00  -0.00    -0.00   0.00   0.06
  75   6    -0.00  -0.00   0.00    -0.00  -0.00  -0.01    -0.00   0.00   0.08
  76   6    -0.00  -0.00   0.00    -0.00  -0.00  -0.01    -0.00   0.00   0.10
  77   6     0.00  -0.00  -0.00     0.00   0.01  -0.00     0.00   0.00   0.09
  78   6     0.00  -0.00  -0.01     0.00   0.01  -0.00     0.00   0.00   0.07
  79   6     0.01  -0.00  -0.01     0.00   0.01  -0.00     0.00  -0.00   0.05
  80   6     0.01  -0.00  -0.01     0.00   0.01   0.00     0.00  -0.00   0.03
  81  29    -0.00  -0.01  -0.00     0.00   0.01  -0.01     0.00   0.01   0.28
  82   6    -0.00  -0.00   0.02     0.00   0.02   0.22    -0.00   0.01   0.14
  83   6    -0.00  -0.00   0.01     0.00   0.02   0.16    -0.00   0.01   0.13
  84   6    -0.00  -0.00   0.01    -0.00   0.01   0.07    -0.00   0.01   0.12
  85   6    -0.00  -0.00   0.00    -0.00  -0.00  -0.01    -0.00   0.00   0.11
  86   6    -0.00  -0.00  -0.00    -0.00  -0.01  -0.09     0.00   0.00   0.11
  87   6    -0.00  -0.00  -0.01    -0.00  -0.02  -0.17     0.00   0.00   0.11
  88   6    -0.00  -0.00  -0.02    -0.00  -0.02  -0.23     0.00   0.01   0.12
  89   6    -0.00  -0.01  -0.02    -0.00  -0.02  -0.19     0.00   0.01   0.12
  90   7    -0.00  -0.00  -0.01    -0.00  -0.01  -0.11     0.00   0.01   0.13
  91   6    -0.00  -0.01  -0.02    -0.00  -0.02  -0.23     0.00   0.01   0.12
  92   6     0.00  -0.01  -0.02    -0.00  -0.01  -0.18     0.00   0.00   0.12
  93   6     0.00  -0.00  -0.03    -0.00  -0.01  -0.23     0.00   0.00   0.12
  94   6     0.00  -0.00  -0.03    -0.00  -0.01  -0.17     0.00   0.00   0.11
  95   6     0.00  -0.00  -0.01     0.00   0.00  -0.08     0.00   0.00   0.11
  96   7     0.00  -0.00  -0.01     0.00  -0.00  -0.11     0.00   0.00   0.13
  97   6     0.00  -0.00  -0.00     0.00   0.01  -0.00     0.00   0.00   0.11
  98   6     0.00  -0.00   0.01     0.00   0.01   0.07    -0.00   0.00   0.12
  99   6     0.00  -0.00   0.02     0.01   0.02   0.15    -0.00   0.00   0.12
 100   6     0.00  -0.00   0.03     0.01   0.03   0.22    -0.00   0.01   0.14
 101   6     0.00  -0.00   0.02     0.01   0.02   0.17    -0.00   0.01   0.14
 102   7     0.00  -0.00   0.01     0.01   0.01   0.09    -0.00   0.01   0.14
 103   6     0.00   0.00   0.02     0.00   0.03   0.21    -0.00   0.01   0.15
 104   6    -0.00  -0.00   0.02     0.00   0.02   0.17    -0.00   0.01   0.14
 105   7    -0.00  -0.00   0.01    -0.00   0.01   0.09    -0.00   0.01   0.14
 106   1    -0.00  -0.00   0.01     0.00   0.01   0.08    -0.00   0.00   0.04
 107   1    -0.00  -0.00   0.00     0.00   0.00   0.05    -0.00   0.00   0.04
 108   1    -0.00  -0.00  -0.00    -0.00  -0.01  -0.05     0.00   0.00   0.03
 109   1    -0.00  -0.00  -0.01    -0.00  -0.01  -0.09     0.00   0.00   0.03
 110   1    -0.00  -0.00  -0.01    -0.00  -0.01  -0.09     0.00   0.00   0.04
 111   1     0.00  -0.00  -0.01    -0.00  -0.01  -0.09     0.00   0.00   0.03
 112   1     0.00  -0.00  -0.01    -0.00  -0.00  -0.05     0.00   0.00   0.03
 113   1     0.00  -0.00   0.01     0.00   0.01   0.05    -0.00   0.00   0.03
 114   1     0.00  -0.00   0.01     0.00   0.01   0.08    -0.00   0.00   0.04
 115   1     0.00   0.00   0.01     0.00   0.01   0.08    -0.00   0.00   0.05
                      4                      5                      6
                        a                      a                      a 
 Frequencies --     3.0039                 8.0460                 8.5297
 Red. masses --    16.9079                11.4825                11.4610
 Frc consts  --     0.0000                 0.0000                 0.0000
 IR Inten    --     1.1893                 1.1064                 8.4218
 Raman Activ --     0.0000                 0.0000                 0.0000
 Depolar     --     0.0000                 0.0000                 0.0000
 Atom AN      X      Y      Z        X      Y      Z        X      Y      Z
   1  29     0.00  -0.14   0.00     0.00  -0.00  -0.01    -0.01   0.00  -0.00
   2   6     0.08  -0.00  -0.01     0.01   0.00  -0.14    -0.11  -0.08  -0.01
   3   6     0.06   0.02  -0.01     0.01   0.00  -0.16    -0.08  -0.11  -0.01
   4   6     0.03   0.00  -0.00     0.00   0.00  -0.12    -0.04  -0.09  -0.01
   5   6    -0.00   0.02  -0.00     0.00   0.00  -0.13    -0.00  -0.11  -0.01
   6   6    -0.03   0.00  -0.00    -0.00   0.00  -0.12     0.04  -0.09  -0.01
   7   6    -0.06   0.02  -0.00    -0.00   0.00  -0.15     0.07  -0.11  -0.02
   8   6    -0.08  -0.01   0.00    -0.00   0.00  -0.13     0.10  -0.08  -0.02
   9   6    -0.06  -0.04   0.00    -0.00   0.00  -0.08     0.08  -0.04  -0.01
  10   7    -0.04  -0.03   0.00    -0.00   0.00  -0.08     0.04  -0.05  -0.01
  11   6    -0.08  -0.06   0.01    -0.00  -0.00  -0.03     0.10   0.00  -0.01
  12   6    -0.06  -0.09   0.01    -0.00  -0.00   0.04     0.08   0.04  -0.00
  13   6    -0.08  -0.12   0.01    -0.00  -0.00   0.11     0.10   0.08   0.00
  14   6    -0.06  -0.14   0.01    -0.00  -0.01   0.17     0.07   0.11   0.01
  15   6    -0.03  -0.13   0.01    -0.00  -0.01   0.14     0.03   0.09   0.01
  16   7    -0.03  -0.10   0.01    -0.00  -0.00   0.07     0.04   0.05   0.00
  17   6     0.00  -0.14   0.01     0.00  -0.01   0.18    -0.00   0.11   0.01
  18   6     0.03  -0.13   0.01     0.00  -0.00   0.14    -0.04   0.09   0.01
  19   6     0.06  -0.14   0.01     0.00  -0.01   0.17    -0.08   0.11   0.01
  20   6     0.08  -0.12   0.00     0.00  -0.00   0.10    -0.11   0.08   0.01
  21   6     0.06  -0.09   0.00     0.00  -0.00   0.03    -0.09   0.04   0.01
  22   7     0.04  -0.10   0.00     0.00  -0.00   0.07    -0.05   0.05   0.01
  23   6     0.08  -0.06  -0.00     0.01  -0.00  -0.04    -0.11  -0.00   0.00
  24   6     0.06  -0.03  -0.00     0.00   0.00  -0.08    -0.09  -0.04  -0.00
  25   7     0.04  -0.03  -0.00     0.00   0.00  -0.08    -0.05  -0.05  -0.00
  26   1     0.03  -0.00  -0.00     0.00   0.00  -0.05    -0.04  -0.02  -0.00
  27   1     0.02   0.01  -0.00     0.00   0.00  -0.06    -0.02  -0.04  -0.00
  28   1    -0.02   0.01  -0.00    -0.00   0.00  -0.05     0.02  -0.04  -0.01
  29   1    -0.03  -0.00   0.00    -0.00   0.00  -0.04     0.04  -0.02  -0.01
  30   1    -0.03  -0.02   0.00    -0.00  -0.00  -0.01     0.04   0.00  -0.00
  31   1    -0.03  -0.04   0.00    -0.00  -0.00   0.03     0.04   0.02  -0.00
  32   1    -0.02  -0.05   0.00    -0.00  -0.00   0.07     0.02   0.04   0.00
  33   1     0.00  -0.05   0.00     0.00  -0.00   0.07    -0.00   0.04   0.00
  34   1     0.02  -0.05   0.00     0.00  -0.00   0.07    -0.02   0.04   0.01
  35   1     0.03  -0.04   0.00     0.00  -0.00   0.03    -0.04   0.02   0.00
  36   1     0.03  -0.02  -0.00     0.00  -0.00  -0.01    -0.04  -0.00   0.00
  37  29     0.00  -0.14   0.01    -0.00   0.00   0.00     0.01   0.01  -0.00
  38   6     0.09   0.00  -0.01     0.01  -0.01   0.12     0.10   0.08  -0.01
  39   6     0.06   0.03  -0.01     0.01  -0.01   0.14     0.07   0.11  -0.00
  40   6     0.03   0.01  -0.01     0.00  -0.01   0.11     0.04   0.09  -0.00
  41   6    -0.00   0.02  -0.00    -0.00  -0.01   0.12     0.00   0.11   0.00
  42   6    -0.03   0.01   0.00    -0.00  -0.01   0.11    -0.03   0.09   0.00
  43   6    -0.06   0.02   0.00    -0.01  -0.01   0.15    -0.07   0.11   0.00
  44   6    -0.09  -0.00   0.01    -0.01  -0.01   0.13    -0.10   0.08   0.00
  45   6    -0.07  -0.03   0.01    -0.01  -0.01   0.07    -0.08   0.04   0.00
  46   7    -0.04  -0.03   0.00    -0.01  -0.01   0.07    -0.04   0.05   0.00
  47   6    -0.08  -0.06   0.01    -0.01  -0.00   0.03    -0.10   0.00   0.00
  48   6    -0.07  -0.10   0.01    -0.01   0.00  -0.04    -0.08  -0.03   0.00
  49   6    -0.08  -0.13   0.02    -0.01   0.01  -0.10    -0.10  -0.07   0.01
  50   6    -0.06  -0.15   0.02    -0.01   0.02  -0.16    -0.07  -0.10   0.01
  51   6    -0.03  -0.13   0.02    -0.01   0.01  -0.14    -0.03  -0.08   0.00
  52   7    -0.04  -0.11   0.01    -0.01   0.01  -0.07    -0.04  -0.04   0.00
  53   6     0.00  -0.15   0.01    -0.00   0.02  -0.18     0.00  -0.10   0.00
  54   6     0.03  -0.13   0.01     0.00   0.01  -0.14     0.04  -0.08  -0.00
  55   6     0.06  -0.15   0.01     0.01   0.02  -0.17     0.08  -0.10  -0.00
  56   6     0.09  -0.12  -0.00     0.01   0.01  -0.11     0.10  -0.07  -0.01
  57   6     0.07  -0.09  -0.00     0.01   0.00  -0.05     0.08  -0.03  -0.01
  58   7     0.04  -0.11   0.00     0.00   0.01  -0.07     0.05  -0.04  -0.00
  59   6     0.08  -0.06  -0.01     0.01  -0.00   0.02     0.10   0.01  -0.01
  60   6     0.07  -0.03  -0.01     0.01  -0.01   0.07     0.08   0.04  -0.01
  61   7     0.04  -0.03  -0.01     0.00  -0.01   0.07     0.05   0.05  -0.00
  62   1     0.03   0.00  -0.01     0.00  -0.00   0.04     0.04   0.02  -0.00
  63   1     0.02   0.02  -0.00     0.00  -0.00   0.05     0.02   0.04  -0.00
  64   1    -0.02   0.01   0.00    -0.00  -0.00   0.05    -0.02   0.04   0.00
  65   1    -0.03   0.00   0.00    -0.00  -0.00   0.04    -0.04   0.02   0.00
  66   1    -0.03  -0.02   0.00    -0.00  -0.00   0.01    -0.04   0.00   0.00
  67   1    -0.03  -0.04   0.01    -0.01   0.00  -0.03    -0.04  -0.02   0.00
  68   1    -0.02  -0.05   0.01    -0.00   0.01  -0.06    -0.02  -0.04   0.00
  69   1     0.00  -0.05   0.01    -0.00   0.01  -0.07     0.00  -0.04   0.00
  70   1     0.02  -0.05   0.00     0.00   0.01  -0.07     0.02  -0.04  -0.00
  71   1     0.03  -0.04  -0.00     0.00   0.00  -0.03     0.04  -0.02  -0.00
  72   1     0.03  -0.02  -0.00     0.00  -0.00   0.01     0.04   0.00  -0.00
  73   6    -0.00   0.05  -0.00     0.00   0.01  -0.15    -0.00  -0.14  -0.01
  74   6    -0.00   0.07  -0.01     0.00   0.01  -0.16    -0.00  -0.16  -0.01
  75   6    -0.00   0.09  -0.01     0.00   0.01  -0.15    -0.00  -0.16  -0.01
  76   6    -0.00   0.10  -0.01     0.00   0.01  -0.13    -0.00  -0.14  -0.01
  77   6    -0.00   0.11  -0.01    -0.00  -0.01   0.14     0.00   0.13   0.01
  78   6    -0.00   0.10  -0.01    -0.00  -0.01   0.15     0.00   0.15   0.01
  79   6    -0.00   0.08  -0.01    -0.00  -0.01   0.15     0.00   0.15   0.01
  80   6    -0.00   0.06  -0.01    -0.00  -0.01   0.15     0.00   0.14   0.01
  81  29    -0.00   0.24  -0.01     0.00   0.00   0.01     0.00  -0.01   0.00
  82   6     0.00   0.10  -0.01    -0.01   0.00  -0.08     0.10  -0.08  -0.02
  83   6     0.00   0.10  -0.01    -0.01   0.00  -0.11     0.07  -0.11  -0.02
  84   6     0.00   0.10  -0.01    -0.00   0.00  -0.08     0.03  -0.09  -0.01
  85   6    -0.00   0.10  -0.00     0.00   0.00  -0.10    -0.00  -0.11  -0.01
  86   6    -0.00   0.10  -0.00     0.01   0.00  -0.08    -0.04  -0.09  -0.00
  87   6    -0.00   0.10   0.00     0.01   0.00  -0.10    -0.07  -0.10   0.00
  88   6    -0.00   0.10   0.00     0.02   0.00  -0.07    -0.10  -0.08   0.01
  89   6    -0.00   0.10   0.00     0.01   0.00  -0.03    -0.08  -0.04   0.01
  90   7    -0.00   0.11  -0.00     0.01   0.00  -0.04    -0.04  -0.05   0.00
  91   6    -0.00   0.11   0.00     0.01   0.00   0.01    -0.10  -0.00   0.01
  92   6    -0.00   0.11   0.00     0.01  -0.00   0.05    -0.08   0.03   0.02
  93   6    -0.00   0.11   0.00     0.01  -0.00   0.09    -0.10   0.07   0.02
  94   6    -0.00   0.11   0.00     0.01  -0.00   0.11    -0.07   0.10   0.02
  95   6    -0.00   0.11  -0.00     0.00  -0.00   0.09    -0.03   0.08   0.01
  96   7    -0.00   0.12  -0.00     0.01  -0.00   0.06    -0.04   0.04   0.01
  97   6    -0.00   0.11  -0.01    -0.00  -0.00   0.11     0.00   0.10   0.01
  98   6     0.00   0.11  -0.01    -0.00  -0.00   0.09     0.04   0.08   0.01
  99   6     0.00   0.11  -0.01    -0.01  -0.00   0.11     0.07   0.10   0.00
 100   6     0.00   0.11  -0.01    -0.01  -0.00   0.08     0.10   0.07  -0.00
 101   6     0.00   0.11  -0.01    -0.01  -0.00   0.04     0.08   0.03  -0.00
 102   7     0.00   0.11  -0.01    -0.01  -0.00   0.05     0.05   0.04   0.00
 103   6     0.00   0.10  -0.01    -0.01   0.00   0.00     0.10  -0.01  -0.01
 104   6     0.00   0.10  -0.01    -0.01   0.00  -0.04     0.08  -0.04  -0.01
 105   7     0.00   0.11  -0.01    -0.01   0.00  -0.05     0.04  -0.05  -0.01
 106   1     0.00   0.03  -0.00    -0.01   0.00  -0.02     0.04  -0.02  -0.01
 107   1     0.00   0.03  -0.00    -0.00   0.00  -0.04     0.02  -0.04  -0.01
 108   1    -0.00   0.03   0.00     0.00   0.00  -0.04    -0.02  -0.04  -0.00
 109   1    -0.00   0.03   0.00     0.01   0.00  -0.02    -0.04  -0.02   0.00
 110   1    -0.00   0.03   0.00     0.01   0.00   0.00    -0.04  -0.00   0.01
 111   1    -0.00   0.03   0.00     0.01  -0.00   0.03    -0.04   0.02   0.01
 112   1    -0.00   0.03   0.00     0.00  -0.00   0.04    -0.02   0.04   0.01
 113   1     0.00   0.03  -0.00    -0.00  -0.00   0.04     0.02   0.04   0.00
 114   1     0.00   0.03  -0.00    -0.00  -0.00   0.03     0.04   0.02  -0.00
 115   1     0.00   0.03  -0.00    -0.00   0.00   0.00     0.04  -0.00  -0.00
                      7                      8                      9
                        a                      a                      a 
 Frequencies --    12.1748                22.0354                27.9612
 Red. masses --    13.2587                11.9015                14.8208
 Frc consts  --     0.0000                 0.0000                 0.0000
 IR Inten    --     2.3963                 0.8348                 0.1096
 Raman Activ --     0.0000                 0.0000                 0.0000
 Depolar     --     0.0000                 0.0000                 0.0000
 Atom AN      X      Y      Z        X      Y      Z        X      Y      Z
   1  29    -0.00  -0.00  -0.06     0.00   0.01   0.06    -0.01  -0.09   0.02
   2   6    -0.00  -0.00  -0.16     0.01   0.01   0.13    -0.10  -0.11   0.05
   3   6    -0.00  -0.00  -0.16     0.01   0.02   0.08    -0.07  -0.13   0.02
   4   6    -0.00  -0.00  -0.12     0.00   0.02   0.04    -0.03  -0.12   0.00
   5   6    -0.00  -0.00  -0.12     0.00   0.02   0.01    -0.00  -0.13  -0.02
   6   6    -0.00  -0.00  -0.12    -0.00   0.02   0.04     0.03  -0.11   0.00
   7   6     0.00  -0.00  -0.16    -0.01   0.02   0.08     0.07  -0.13   0.02
   8   6     0.00  -0.00  -0.16    -0.01   0.01   0.12     0.09  -0.11   0.05
   9   6     0.00  -0.00  -0.12    -0.01   0.01   0.11     0.07  -0.07   0.05
  10   7     0.00  -0.00  -0.10    -0.01   0.01   0.07     0.04  -0.08   0.02
  11   6     0.00  -0.00  -0.08    -0.01   0.00   0.11     0.09  -0.04   0.06
  12   6     0.00   0.00   0.00    -0.01  -0.00   0.04     0.07  -0.00   0.03
  13   6     0.00   0.00   0.07    -0.01  -0.01  -0.01     0.09   0.03   0.01
  14   6     0.00   0.00   0.15    -0.01  -0.01  -0.09     0.07   0.06  -0.04
  15   6    -0.00   0.00   0.13    -0.00  -0.01  -0.09     0.03   0.04  -0.04
  16   7    -0.00   0.00   0.04    -0.01  -0.00  -0.01     0.04   0.00  -0.00
  17   6    -0.00   0.00   0.17     0.00  -0.01  -0.14    -0.00   0.06  -0.06
  18   6    -0.00   0.00   0.13     0.01  -0.01  -0.09    -0.04   0.04  -0.04
  19   6    -0.01   0.00   0.15     0.01  -0.01  -0.09    -0.07   0.06  -0.03
  20   6    -0.01   0.00   0.08     0.01  -0.01  -0.01    -0.10   0.03   0.01
  21   6    -0.00   0.00   0.01     0.01  -0.00   0.04    -0.08  -0.00   0.03
  22   7    -0.00   0.00   0.04     0.01  -0.00  -0.01    -0.04   0.00  -0.00
  23   6    -0.00  -0.00  -0.07     0.01   0.00   0.11    -0.10  -0.04   0.06
  24   6    -0.00  -0.00  -0.11     0.01   0.01   0.11    -0.08  -0.07   0.05
  25   7    -0.00  -0.00  -0.10     0.01   0.01   0.07    -0.04  -0.08   0.02
  26   1    -0.00  -0.00  -0.05     0.00   0.00   0.05    -0.04  -0.03   0.02
  27   1    -0.00  -0.00  -0.05     0.00   0.01   0.02    -0.02  -0.05   0.00
  28   1     0.00  -0.00  -0.06    -0.00   0.01   0.02     0.02  -0.05   0.00
  29   1     0.00  -0.00  -0.06    -0.00   0.00   0.05     0.04  -0.03   0.02
  30   1     0.00  -0.00  -0.03    -0.00   0.00   0.04     0.04  -0.01   0.02
  31   1     0.00   0.00   0.02    -0.01  -0.00   0.01     0.04   0.01   0.01
  32   1     0.00   0.00   0.06    -0.00  -0.00  -0.04     0.02   0.03  -0.02
  33   1    -0.00   0.00   0.07     0.00  -0.00  -0.06    -0.00   0.03  -0.03
  34   1    -0.00   0.00   0.06     0.00  -0.00  -0.04    -0.02   0.03  -0.02
  35   1    -0.00   0.00   0.02     0.01  -0.00   0.01    -0.04   0.01   0.01
  36   1    -0.00  -0.00  -0.03     0.00   0.00   0.04    -0.04  -0.01   0.02
  37  29     0.00   0.00  -0.06    -0.00   0.02  -0.06     0.00  -0.09   0.00
  38   6    -0.02   0.01  -0.16     0.01   0.03  -0.13    -0.09  -0.12   0.02
  39   6    -0.01   0.00  -0.17     0.01   0.03  -0.08    -0.07  -0.14  -0.01
  40   6    -0.01  -0.00  -0.13     0.00   0.02  -0.04    -0.03  -0.12  -0.02
  41   6     0.00  -0.00  -0.13    -0.00   0.02  -0.01     0.00  -0.13  -0.03
  42   6     0.01   0.00  -0.13    -0.00   0.02  -0.04     0.03  -0.12  -0.02
  43   6     0.02   0.00  -0.17    -0.01   0.03  -0.08     0.07  -0.14  -0.01
  44   6     0.02   0.01  -0.17    -0.01   0.03  -0.13     0.10  -0.11   0.01
  45   6     0.02   0.01  -0.12    -0.01   0.03  -0.11     0.08  -0.08   0.02
  46   7     0.01   0.00  -0.11    -0.01   0.02  -0.07     0.04  -0.09   0.00
  47   6     0.02   0.01  -0.08    -0.01   0.02  -0.12     0.10  -0.04   0.03
  48   6     0.02   0.00   0.00    -0.01   0.01  -0.04     0.08  -0.01   0.02
  49   6     0.03   0.00   0.07    -0.01  -0.00   0.01     0.10   0.03   0.01
  50   6     0.02  -0.01   0.15    -0.01  -0.02   0.10     0.07   0.06  -0.01
  51   6     0.01  -0.01   0.13    -0.00  -0.02   0.09     0.04   0.05  -0.02
  52   7     0.01  -0.00   0.04    -0.00  -0.00   0.01     0.04   0.00   0.00
  53   6     0.00  -0.01   0.18    -0.00  -0.03   0.15     0.00   0.07  -0.03
  54   6    -0.01  -0.01   0.13     0.00  -0.02   0.09    -0.03   0.05  -0.02
  55   6    -0.02  -0.01   0.16     0.01  -0.02   0.10    -0.07   0.06  -0.01
  56   6    -0.02  -0.00   0.08     0.01  -0.01   0.01    -0.10   0.03   0.01
  57   6    -0.02   0.00   0.01     0.01   0.01  -0.04    -0.08  -0.01   0.02
  58   7    -0.01  -0.00   0.05     0.00  -0.00   0.01    -0.04   0.00   0.00
  59   6    -0.02   0.01  -0.07     0.01   0.02  -0.11    -0.10  -0.04   0.03
  60   6    -0.02   0.01  -0.11     0.01   0.03  -0.11    -0.08  -0.08   0.02
  61   7    -0.01   0.00  -0.10     0.00   0.02  -0.07    -0.04  -0.09   0.00
  62   1    -0.01   0.00  -0.05     0.00   0.01  -0.05    -0.04  -0.04   0.01
  63   1    -0.00   0.00  -0.06     0.00   0.01  -0.02    -0.02  -0.05  -0.01
  64   1     0.00   0.00  -0.06    -0.00   0.01  -0.02     0.02  -0.05  -0.01
  65   1     0.01   0.00  -0.06    -0.00   0.01  -0.05     0.04  -0.03   0.01
  66   1     0.01   0.00  -0.03    -0.00   0.01  -0.05     0.04  -0.01   0.01
  67   1     0.01   0.00   0.02    -0.00   0.00  -0.01     0.04   0.01   0.01
  68   1     0.01  -0.00   0.06    -0.00  -0.01   0.05     0.02   0.03  -0.01
  69   1     0.00  -0.01   0.07    -0.00  -0.01   0.06     0.00   0.03  -0.01
  70   1    -0.01  -0.00   0.07     0.00  -0.01   0.05    -0.02   0.03  -0.01
  71   1    -0.01  -0.00   0.02     0.00  -0.00  -0.00    -0.04   0.01   0.01
  72   1    -0.01   0.00  -0.03     0.00   0.01  -0.04    -0.04  -0.01   0.01
  73   6    -0.00  -0.00  -0.12     0.00   0.02  -0.04    -0.00  -0.15  -0.05
  74   6    -0.00  -0.00  -0.09     0.00   0.01  -0.10    -0.00  -0.08  -0.08
  75   6    -0.00  -0.00  -0.06     0.00   0.01  -0.15    -0.00  -0.03  -0.09
  76   6    -0.00  -0.00  -0.02    -0.00  -0.00  -0.17    -0.00   0.06  -0.09
  77   6     0.00  -0.01  -0.03    -0.00  -0.02   0.18     0.00   0.07  -0.03
  78   6     0.00  -0.02  -0.07    -0.00  -0.01   0.15     0.00  -0.02  -0.05
  79   6     0.00  -0.01  -0.10    -0.00  -0.00   0.11     0.00  -0.08  -0.06
  80   6     0.00  -0.01  -0.13    -0.00   0.01   0.05     0.00  -0.15  -0.05
  81  29    -0.00   0.00   0.16     0.00  -0.03   0.00     0.00   0.21   0.01
  82   6    -0.00   0.01   0.10    -0.02  -0.01  -0.15     0.00   0.09  -0.00
  83   6    -0.00   0.01   0.06    -0.02  -0.01  -0.19     0.00   0.08  -0.04
  84   6    -0.00   0.00   0.05    -0.01  -0.01  -0.15     0.00   0.08  -0.04
  85   6    -0.00   0.00   0.02    -0.00  -0.01  -0.16    -0.00   0.08  -0.07
  86   6     0.00   0.00   0.05     0.01  -0.01  -0.15    -0.00   0.08  -0.05
  87   6     0.00   0.01   0.06     0.02  -0.01  -0.19    -0.00   0.08  -0.04
  88   6     0.00   0.01   0.09     0.02  -0.01  -0.15    -0.00   0.09  -0.00
  89   6     0.00   0.01   0.10     0.02  -0.01  -0.08    -0.00   0.09   0.01
  90   7     0.00   0.00   0.08     0.01  -0.02  -0.09    -0.00   0.09  -0.01
  91   6     0.00   0.01   0.12     0.02  -0.01  -0.00    -0.00   0.09   0.05
  92   6     0.00   0.00   0.10     0.01  -0.01   0.07    -0.00   0.09   0.04
  93   6     0.00   0.00   0.09     0.02  -0.01   0.15    -0.00   0.09   0.05
  94   6     0.00  -0.00   0.05     0.01  -0.01   0.19     0.00   0.09   0.02
  95   6     0.00  -0.00   0.04     0.01  -0.01   0.15     0.00   0.09   0.01
  96   7     0.00   0.00   0.07     0.01  -0.02   0.09     0.00   0.10   0.02
  97   6     0.00  -0.01   0.01    -0.00  -0.02   0.17     0.00   0.09  -0.01
  98   6    -0.00  -0.00   0.04    -0.01  -0.01   0.15     0.00   0.09   0.01
  99   6    -0.00  -0.00   0.05    -0.01  -0.01   0.19     0.00   0.09   0.02
 100   6    -0.00   0.00   0.09    -0.02  -0.01   0.15     0.00   0.09   0.05
 101   6    -0.00   0.00   0.10    -0.01  -0.01   0.08     0.00   0.09   0.04
 102   7    -0.00   0.00   0.07    -0.01  -0.01   0.09     0.00   0.10   0.02
 103   6    -0.00   0.01   0.12    -0.02  -0.01  -0.00     0.00   0.09   0.05
 104   6    -0.00   0.01   0.10    -0.02  -0.01  -0.08     0.00   0.09   0.02
 105   7    -0.00   0.00   0.08    -0.01  -0.02  -0.09     0.00   0.09  -0.01
 106   1    -0.00   0.00   0.03    -0.01  -0.00  -0.05     0.00   0.03   0.00
 107   1    -0.00   0.00   0.01    -0.00  -0.00  -0.07     0.00   0.02  -0.02
 108   1     0.00   0.00   0.01     0.00  -0.00  -0.07    -0.00   0.02  -0.02
 109   1     0.00   0.00   0.03     0.01  -0.00  -0.05    -0.00   0.03   0.00
 110   1     0.00   0.00   0.04     0.01  -0.00  -0.00    -0.00   0.03   0.02
 111   1     0.00   0.00   0.03     0.01  -0.00   0.05    -0.00   0.03   0.02
 112   1     0.00  -0.00   0.01     0.00  -0.00   0.07     0.00   0.03   0.01
 113   1    -0.00  -0.00   0.01    -0.00  -0.00   0.07     0.00   0.03   0.01
 114   1    -0.00   0.00   0.03    -0.01  -0.00   0.05     0.00   0.03   0.02
 115   1    -0.00   0.00   0.04    -0.01  -0.00  -0.00     0.00   0.03   0.02
                     10                     11                     12
                        a                      a                      a 
 Frequencies --    35.6273                37.3489                37.8451
 Red. masses --    12.0094                12.3610                17.0494
 Frc consts  --     0.0000                 0.0000                 0.0000
 IR Inten    --     1.3848                 9.7442                83.4313
 Raman Activ --     0.0000                 0.0000                 0.0000
 Depolar     --     0.0000                 0.0000                 0.0000
 Atom AN      X      Y      Z        X      Y      Z        X      Y      Z
   1  29    -0.04   0.05   0.02     0.11   0.00   0.00     0.23   0.01   0.00
   2   6     0.03   0.06   0.09     0.05  -0.00   0.04     0.11  -0.00  -0.01
   3   6     0.02   0.07  -0.01     0.05   0.00   0.05     0.10   0.01  -0.02
   4   6     0.00   0.06  -0.05     0.04  -0.00   0.02     0.08   0.00  -0.01
   5   6    -0.01   0.07  -0.10     0.03   0.00  -0.00     0.07   0.01  -0.01
   6   6    -0.03   0.06  -0.05     0.04   0.01  -0.02     0.08   0.02   0.00
   7   6    -0.05   0.07  -0.02     0.04   0.00  -0.05     0.09   0.01   0.01
   8   6    -0.07   0.06   0.08     0.05   0.01  -0.04     0.10   0.02   0.03
   9   6    -0.06   0.04   0.09     0.04   0.01  -0.02     0.09   0.03   0.02
  10   7    -0.04   0.04   0.02     0.04   0.01  -0.01     0.09   0.03   0.01
  11   6    -0.07   0.02   0.14     0.04   0.01   0.01     0.09   0.02   0.03
  12   6    -0.06  -0.00   0.08     0.05   0.01   0.03     0.09   0.02   0.02
  13   6    -0.07  -0.02   0.05     0.04   0.00   0.06     0.09   0.01   0.01
  14   6    -0.05  -0.03  -0.05     0.05  -0.00   0.06     0.09  -0.00  -0.00
  15   6    -0.04  -0.02  -0.07     0.05   0.00   0.03     0.10   0.00  -0.01
  16   7    -0.04  -0.00   0.00     0.05   0.01   0.02     0.11   0.02   0.01
  17   6    -0.02  -0.03  -0.13     0.05  -0.00  -0.00     0.11  -0.00  -0.01
  18   6     0.00  -0.02  -0.07     0.05  -0.00  -0.03     0.11  -0.01  -0.01
  19   6     0.02  -0.03  -0.06     0.05   0.00  -0.06     0.10  -0.00  -0.01
  20   6     0.04  -0.02   0.05     0.05  -0.00  -0.06     0.10  -0.01   0.00
  21   6     0.02   0.00   0.08     0.05  -0.00  -0.03     0.10  -0.01   0.00
  22   7     0.00   0.00   0.00     0.06  -0.00  -0.02     0.12  -0.01  -0.00
  23   6     0.03   0.02   0.14     0.05  -0.01  -0.01     0.10  -0.02   0.00
  24   6     0.02   0.04   0.10     0.05  -0.01   0.02     0.10  -0.01  -0.00
  25   7     0.00   0.05   0.02     0.05  -0.01   0.01     0.10  -0.01  -0.01
  26   1     0.01   0.02   0.04     0.02  -0.00   0.02     0.04  -0.00  -0.00
  27   1     0.01   0.03  -0.01     0.01   0.00   0.02     0.03   0.01  -0.01
  28   1    -0.02   0.03  -0.02     0.01  -0.00  -0.02     0.03   0.00   0.00
  29   1    -0.02   0.02   0.04     0.01   0.00  -0.02     0.03   0.01   0.01
  30   1    -0.02   0.00   0.06     0.01   0.00   0.00     0.02   0.01   0.01
  31   1    -0.02  -0.01   0.03     0.01   0.00   0.02     0.02   0.00   0.00
  32   1    -0.02  -0.01  -0.03     0.01  -0.00   0.02     0.03  -0.00  -0.00
  33   1    -0.01  -0.01  -0.06     0.02  -0.00  -0.00     0.03  -0.00  -0.01
  34   1     0.01  -0.01  -0.03     0.01   0.00  -0.02     0.03  -0.00  -0.00
  35   1     0.02  -0.01   0.03     0.01  -0.00  -0.02     0.03  -0.00   0.00
  36   1     0.01   0.01   0.06     0.01  -0.00  -0.00     0.03  -0.00   0.00
  37  29     0.04   0.01   0.02    -0.11  -0.00   0.00    -0.23  -0.00   0.00
  38   6     0.03  -0.01   0.10    -0.05  -0.00   0.03    -0.10   0.03  -0.15
  39   6     0.02   0.01  -0.00    -0.05  -0.01   0.03    -0.09   0.02  -0.16
  40   6     0.02   0.02  -0.04    -0.04  -0.00   0.01    -0.08   0.01  -0.08
  41   6     0.01   0.03  -0.11    -0.03  -0.00  -0.00    -0.07  -0.00  -0.02
  42   6     0.01   0.02  -0.05    -0.04  -0.00  -0.02    -0.08  -0.02   0.06
  43   6     0.01   0.02  -0.02    -0.05   0.00  -0.04    -0.09  -0.03   0.15
  44   6     0.01  -0.00   0.08    -0.05  -0.00  -0.03    -0.09  -0.04   0.17
  45   6     0.01  -0.01   0.09    -0.05  -0.01  -0.01    -0.09  -0.03   0.08
  46   7     0.01   0.01   0.02    -0.04  -0.01  -0.01    -0.09  -0.03   0.04
  47   6     0.01  -0.02   0.14    -0.04  -0.01   0.01    -0.09  -0.02   0.02
  48   6     0.01  -0.01   0.08    -0.05  -0.01   0.02    -0.10  -0.00  -0.06
  49   6     0.01  -0.01   0.06    -0.04  -0.01   0.05    -0.09   0.02  -0.14
  50   6     0.01   0.00  -0.05    -0.05  -0.01   0.04    -0.10   0.03  -0.15
  51   6     0.01   0.01  -0.07    -0.05  -0.00   0.02    -0.11   0.01  -0.08
  52   7     0.02   0.00   0.01    -0.05  -0.01   0.01    -0.11  -0.00  -0.04
  53   6     0.02   0.02  -0.14    -0.05   0.00  -0.00    -0.11   0.00  -0.02
  54   6     0.02   0.01  -0.08    -0.05   0.01  -0.02    -0.11  -0.01   0.06
  55   6     0.02   0.01  -0.07    -0.05   0.01  -0.04    -0.10  -0.02   0.14
  56   6     0.03  -0.01   0.04    -0.05   0.01  -0.04    -0.10  -0.02   0.16
  57   6     0.02  -0.01   0.07    -0.05   0.01  -0.02    -0.10  -0.00   0.08
  58   7     0.02  -0.00   0.00    -0.05   0.01  -0.01    -0.11   0.00   0.04
  59   6     0.02  -0.02   0.14    -0.05   0.01  -0.00    -0.10   0.01   0.02
  60   6     0.02  -0.01   0.10    -0.05   0.01   0.02    -0.10   0.02  -0.06
  61   7     0.02   0.00   0.02    -0.05   0.01   0.01    -0.09   0.02  -0.03
  62   1     0.01  -0.00   0.05    -0.02  -0.00   0.01    -0.03   0.01  -0.06
  63   1     0.01   0.01  -0.01    -0.01  -0.00   0.01    -0.03   0.01  -0.06
  64   1     0.00   0.01  -0.02    -0.01   0.00  -0.01    -0.03  -0.01   0.06
  65   1     0.00  -0.00   0.04    -0.02  -0.00  -0.01    -0.03  -0.01   0.07
  66   1     0.00  -0.01   0.06    -0.01  -0.00   0.00    -0.03  -0.01   0.01
  67   1     0.00  -0.01   0.03    -0.01  -0.00   0.02    -0.03   0.01  -0.05
  68   1     0.00   0.00  -0.03    -0.01  -0.00   0.02    -0.03   0.01  -0.06
  69   1     0.01   0.01  -0.06    -0.02   0.00  -0.00    -0.03   0.00  -0.01
  70   1     0.01   0.00  -0.04    -0.01   0.00  -0.02    -0.03  -0.01   0.05
  71   1     0.01  -0.01   0.02    -0.01   0.00  -0.02    -0.03  -0.01   0.06
  72   1     0.01  -0.01   0.06    -0.01   0.00  -0.00    -0.03   0.00   0.01
  73   6    -0.01   0.07  -0.17     0.03   0.00  -0.00     0.06   0.01  -0.02
  74   6    -0.01   0.01  -0.21     0.03  -0.00  -0.00     0.06  -0.00  -0.03
  75   6    -0.01  -0.03  -0.22     0.03  -0.00  -0.00     0.06  -0.01  -0.03
  76   6    -0.01  -0.08  -0.18     0.03  -0.01  -0.00     0.05  -0.02  -0.02
  77   6     0.01   0.01  -0.18    -0.03   0.01  -0.00    -0.05   0.01  -0.02
  78   6     0.01   0.03  -0.22    -0.03   0.00  -0.01    -0.06   0.01  -0.03
  79   6     0.01   0.04  -0.22    -0.03   0.00  -0.01    -0.06   0.01  -0.03
  80   6     0.01   0.04  -0.18    -0.03  -0.00  -0.01    -0.06   0.00  -0.03
  81  29    -0.00  -0.06   0.04     0.00  -0.00   0.00    -0.00  -0.01   0.01
  82   6     0.04  -0.05   0.09     0.01   0.02   0.27     0.02  -0.02  -0.06
  83   6     0.02  -0.07  -0.02     0.01   0.03   0.27     0.03  -0.02  -0.08
  84   6     0.01  -0.07  -0.05     0.02   0.01   0.12     0.04  -0.02  -0.04
  85   6    -0.01  -0.08  -0.11     0.02  -0.01  -0.00     0.05  -0.02  -0.01
  86   6    -0.02  -0.07  -0.06     0.02  -0.02  -0.12     0.03  -0.01   0.03
  87   6    -0.03  -0.07  -0.03     0.01  -0.04  -0.27     0.01  -0.02   0.07
  88   6    -0.04  -0.05   0.08    -0.00  -0.03  -0.27    -0.01  -0.00   0.08
  89   6    -0.03  -0.04   0.10     0.00  -0.01  -0.12    -0.00   0.02   0.04
  90   7    -0.02  -0.05   0.02     0.02  -0.00  -0.07     0.03   0.01   0.02
  91   6    -0.04  -0.02   0.16    -0.01   0.02  -0.00    -0.02   0.03   0.01
  92   6    -0.03  -0.01   0.11    -0.01   0.02   0.12    -0.02   0.02  -0.03
  93   6    -0.04   0.01   0.09    -0.01   0.03   0.27    -0.02   0.00  -0.08
  94   6    -0.03   0.01  -0.01    -0.02   0.03   0.27    -0.03  -0.01  -0.09
  95   6    -0.01  -0.00  -0.05    -0.02   0.02   0.12    -0.04   0.01  -0.05
  96   7    -0.01  -0.01   0.02    -0.02   0.02   0.07    -0.04   0.02  -0.02
  97   6     0.01   0.00  -0.11    -0.02   0.01  -0.00    -0.05   0.01  -0.01
  98   6     0.02  -0.00  -0.06    -0.02  -0.01  -0.12    -0.03   0.01   0.03
  99   6     0.03   0.01  -0.03    -0.01  -0.01  -0.26    -0.01   0.03   0.09
 100   6     0.04   0.01   0.08     0.00  -0.02  -0.26     0.01   0.01   0.10
 101   6     0.03  -0.00   0.10    -0.00  -0.02  -0.12    -0.00  -0.01   0.06
 102   7     0.02  -0.01   0.02    -0.02  -0.01  -0.06    -0.03  -0.01   0.03
 103   6     0.04  -0.01   0.16     0.01  -0.02   0.01     0.01  -0.04   0.03
 104   6     0.03  -0.03   0.10     0.01   0.00   0.13     0.02  -0.03  -0.02
 105   7     0.01  -0.04   0.02     0.02  -0.00   0.07     0.04  -0.03  -0.01
 106   1     0.01  -0.01   0.04     0.00   0.01   0.10     0.00  -0.01  -0.02
 107   1     0.01  -0.03  -0.02     0.00   0.01   0.10     0.01  -0.00  -0.03
 108   1    -0.01  -0.02  -0.02     0.00  -0.02  -0.10     0.00  -0.01   0.03
 109   1    -0.01  -0.01   0.04    -0.00  -0.01  -0.10    -0.01   0.00   0.03
 110   1    -0.02  -0.00   0.07    -0.00   0.00  -0.00    -0.01   0.01   0.00
 111   1    -0.02   0.00   0.04    -0.00   0.01   0.10    -0.00   0.00  -0.03
 112   1    -0.01   0.01  -0.02    -0.00   0.01   0.10    -0.01  -0.01  -0.03
 113   1     0.01   0.00  -0.02    -0.00  -0.00  -0.10    -0.00   0.02   0.03
 114   1     0.01   0.00   0.04     0.00  -0.01  -0.10     0.01   0.01   0.04
 115   1     0.01  -0.00   0.06     0.00  -0.00   0.00     0.01  -0.01   0.01
                     13                     14                     15
                        a                      a                      a 
 Frequencies --    38.6467                38.9114                39.2601
 Red. masses --    12.7387                10.9335                12.0639
 Frc consts  --     0.0000                 0.0000                 0.0000
 IR Inten    --     1.0858                 3.2835                 6.6293
 Raman Activ --     0.0000                 0.0000                 0.0000
 Depolar     --     0.0000                 0.0000                 0.0000
 Atom AN      X      Y      Z        X      Y      Z        X      Y      Z
   1  29    -0.13  -0.00  -0.00     0.01  -0.00  -0.00     0.01  -0.07   0.00
   2   6    -0.06   0.01   0.05    -0.00  -0.00   0.29    -0.06  -0.08   0.03
   3   6    -0.05   0.00   0.06    -0.00  -0.00   0.30    -0.04  -0.10  -0.02
   4   6    -0.04   0.00   0.03     0.00  -0.00   0.14    -0.02  -0.08  -0.03
   5   6    -0.04   0.00   0.00     0.00  -0.00  -0.00     0.01  -0.10  -0.06
   6   6    -0.04  -0.00  -0.02     0.00  -0.00  -0.14     0.03  -0.08  -0.03
   7   6    -0.05  -0.00  -0.05     0.00  -0.00  -0.30     0.05  -0.10  -0.01
   8   6    -0.06  -0.01  -0.06     0.00  -0.00  -0.29     0.07  -0.08   0.04
   9   6    -0.05  -0.01  -0.03     0.00  -0.00  -0.13     0.06  -0.05   0.04
  10   7    -0.05  -0.01  -0.02     0.00  -0.00  -0.07     0.03  -0.06   0.00
  11   6    -0.05  -0.01  -0.01     0.01  -0.00   0.00     0.07  -0.03   0.07
  12   6    -0.05  -0.01   0.02     0.01  -0.00   0.14     0.06  -0.00   0.04
  13   6    -0.05  -0.00   0.04     0.01  -0.00   0.29     0.07   0.02   0.03
  14   6    -0.05  -0.00   0.05     0.01  -0.00   0.29     0.05   0.04  -0.02
  15   6    -0.06  -0.00   0.02     0.01  -0.00   0.13     0.03   0.03  -0.03
  16   7    -0.06  -0.01   0.01     0.01  -0.00   0.08     0.04   0.00   0.00
  17   6    -0.06  -0.00   0.00     0.01   0.00   0.00     0.01   0.04  -0.06
  18   6    -0.06   0.00  -0.02     0.00   0.00  -0.13    -0.02   0.03  -0.03
  19   6    -0.05  -0.00  -0.04     0.01   0.00  -0.28    -0.04   0.04  -0.02
  20   6    -0.05   0.00  -0.04     0.00   0.00  -0.29    -0.06   0.02   0.03
  21   6    -0.05   0.01  -0.02     0.00   0.00  -0.14    -0.05  -0.00   0.04
  22   7    -0.06   0.01  -0.01     0.00   0.00  -0.08    -0.02  -0.00   0.00
  23   6    -0.05   0.01   0.00     0.00  -0.00  -0.00    -0.06  -0.03   0.07
  24   6    -0.05   0.01   0.03     0.00  -0.00   0.13    -0.05  -0.05   0.04
  25   7    -0.05   0.01   0.02     0.00  -0.00   0.07    -0.02  -0.06   0.00
  26   1    -0.02   0.00   0.02    -0.00  -0.00   0.11    -0.02  -0.02   0.02
  27   1    -0.02  -0.00   0.02    -0.00  -0.00   0.11    -0.01  -0.03  -0.01
  28   1    -0.02   0.00  -0.02     0.00  -0.00  -0.11     0.02  -0.03  -0.01
  29   1    -0.02  -0.00  -0.02     0.00  -0.00  -0.11     0.03  -0.02   0.02
  30   1    -0.01  -0.00  -0.00     0.00  -0.00  -0.00     0.03  -0.01   0.03
  31   1    -0.01  -0.00   0.02     0.00  -0.00   0.11     0.03   0.01   0.01
  32   1    -0.02   0.00   0.02     0.00  -0.00   0.11     0.02   0.02  -0.01
  33   1    -0.02  -0.00   0.00     0.00   0.00   0.00     0.00   0.02  -0.03
  34   1    -0.02  -0.00  -0.02     0.00   0.00  -0.11    -0.01   0.02  -0.01
  35   1    -0.01   0.00  -0.02     0.00   0.00  -0.11    -0.02   0.01   0.02
  36   1    -0.01   0.00   0.00     0.00  -0.00   0.00    -0.02  -0.01   0.03
  37  29     0.12  -0.00  -0.00    -0.01   0.00  -0.00    -0.01   0.08   0.01
  38   6     0.06   0.03  -0.25    -0.00  -0.00   0.03     0.07   0.09   0.01
  39   6     0.05   0.04  -0.25    -0.00  -0.00   0.03     0.05   0.11   0.00
  40   6     0.04   0.01  -0.11    -0.00  -0.00   0.01     0.02   0.10  -0.00
  41   6     0.04  -0.00   0.01    -0.00   0.00   0.00    -0.00   0.11  -0.00
  42   6     0.05  -0.02   0.12    -0.00   0.00  -0.01    -0.03   0.10   0.01
  43   6     0.06  -0.04   0.25    -0.00   0.01  -0.03    -0.06   0.11   0.02
  44   6     0.06  -0.03   0.25    -0.00   0.01  -0.03    -0.08   0.08   0.03
  45   6     0.05  -0.01   0.11    -0.00   0.00  -0.02    -0.07   0.06   0.03
  46   7     0.05   0.00   0.06    -0.00   0.00  -0.01    -0.04   0.07   0.01
  47   6     0.05   0.01  -0.01    -0.00  -0.00  -0.00    -0.08   0.03   0.03
  48   6     0.05   0.03  -0.12    -0.00  -0.00   0.01    -0.07   0.00   0.01
  49   6     0.05   0.05  -0.25    -0.00  -0.01   0.03    -0.08  -0.03  -0.00
  50   6     0.05   0.05  -0.24    -0.00  -0.01   0.03    -0.06  -0.04  -0.02
  51   6     0.06   0.02  -0.11    -0.00  -0.00   0.01    -0.03  -0.03  -0.02
  52   7     0.06   0.02  -0.07    -0.00  -0.00   0.01    -0.04  -0.00  -0.00
  53   6     0.06  -0.00   0.00    -0.00  -0.00   0.00    -0.01  -0.04  -0.02
  54   6     0.06  -0.02   0.12    -0.00   0.00  -0.01     0.02  -0.03  -0.01
  55   6     0.05  -0.04   0.24    -0.00   0.00  -0.03     0.05  -0.05  -0.00
  56   6     0.05  -0.05   0.24    -0.00   0.01  -0.03     0.07  -0.03   0.01
  57   6     0.05  -0.03   0.11    -0.00   0.00  -0.01     0.06   0.00   0.02
  58   7     0.06  -0.02   0.07    -0.00   0.00  -0.01     0.03   0.00   0.00
  59   6     0.05  -0.01  -0.00    -0.00   0.00  -0.00     0.07   0.03   0.02
  60   6     0.05   0.01  -0.12    -0.00  -0.00   0.01     0.05   0.06   0.02
  61   7     0.05  -0.00  -0.06    -0.00   0.00   0.01     0.03   0.07   0.01
  62   1     0.02   0.01  -0.10    -0.00  -0.00   0.01     0.03   0.03   0.01
  63   1     0.02   0.01  -0.09    -0.00  -0.00   0.01     0.01   0.04  -0.00
  64   1     0.02  -0.02   0.10    -0.00   0.00  -0.01    -0.02   0.04   0.01
  65   1     0.02  -0.01   0.09    -0.00   0.00  -0.01    -0.03   0.02   0.01
  66   1     0.01   0.00  -0.00    -0.00  -0.00  -0.00    -0.03   0.01   0.01
  67   1     0.01   0.02  -0.09    -0.00  -0.00   0.01    -0.03  -0.01   0.00
  68   1     0.01   0.02  -0.09    -0.00  -0.00   0.01    -0.02  -0.02  -0.01
  69   1     0.02  -0.00   0.00    -0.00  -0.00   0.00    -0.00  -0.02  -0.01
  70   1     0.01  -0.02   0.09    -0.00   0.00  -0.01     0.02  -0.02  -0.00
  71   1     0.01  -0.02   0.09    -0.00   0.00  -0.01     0.03  -0.01   0.01
  72   1     0.01  -0.00  -0.00    -0.00   0.00  -0.00     0.03   0.01   0.01
  73   6    -0.03   0.00   0.01     0.00  -0.00  -0.00     0.00  -0.10  -0.08
  74   6    -0.03   0.00   0.01     0.00  -0.00  -0.00     0.00   0.00  -0.09
  75   6    -0.03   0.00   0.01     0.00   0.00   0.00     0.00   0.07  -0.08
  76   6    -0.03   0.00   0.01     0.00   0.00   0.00     0.00   0.15  -0.06
  77   6     0.03  -0.00   0.01    -0.00  -0.00   0.00    -0.00  -0.17  -0.06
  78   6     0.03  -0.00   0.01    -0.00  -0.00   0.00    -0.00  -0.07  -0.05
  79   6     0.03  -0.00   0.01    -0.00  -0.00   0.00    -0.00   0.00  -0.04
  80   6     0.04  -0.00   0.01    -0.00   0.00   0.00    -0.00   0.11  -0.01
  81  29     0.00   0.00  -0.00    -0.00   0.00   0.00     0.00  -0.01   0.00
  82   6    -0.00   0.01   0.07    -0.00  -0.01  -0.07    -0.13   0.10   0.06
  83   6    -0.01   0.01   0.08    -0.00  -0.00  -0.07    -0.09   0.14   0.03
  84   6    -0.02   0.01   0.04     0.00  -0.00  -0.03    -0.04   0.11   0.01
  85   6    -0.03   0.00   0.00     0.00   0.00   0.00     0.00   0.13  -0.02
  86   6    -0.02  -0.00  -0.03     0.00   0.01   0.03     0.05   0.11   0.00
  87   6    -0.01  -0.00  -0.08     0.00   0.01   0.07     0.10   0.13   0.02
  88   6     0.00  -0.01  -0.08     0.00   0.01   0.07     0.13   0.10   0.06
  89   6    -0.00  -0.01  -0.04     0.00   0.00   0.03     0.11   0.05   0.05
  90   7    -0.02  -0.01  -0.02     0.00   0.00   0.02     0.06   0.06   0.02
  91   6     0.00  -0.02   0.00     0.00   0.00   0.00     0.13   0.00   0.05
  92   6     0.01  -0.01   0.04     0.00  -0.00  -0.03     0.10  -0.05   0.01
  93   6     0.00   0.01   0.09     0.00  -0.01  -0.06     0.13  -0.10  -0.00
  94   6     0.01   0.01   0.09     0.00  -0.01  -0.06     0.09  -0.15  -0.04
  95   6     0.02   0.00   0.04    -0.00  -0.00  -0.03     0.04  -0.12  -0.04
  96   7     0.02  -0.01   0.02    -0.00  -0.00  -0.02     0.05  -0.07  -0.01
  97   6     0.03  -0.00   0.00    -0.00  -0.00  -0.00    -0.00  -0.15  -0.06
  98   6     0.02  -0.00  -0.04    -0.00   0.00   0.03    -0.05  -0.12  -0.05
  99   6     0.01  -0.01  -0.09    -0.00   0.00   0.06    -0.10  -0.15  -0.05
 100   6     0.00  -0.01  -0.10    -0.00   0.00   0.06    -0.13  -0.10  -0.01
 101   6     0.01   0.01  -0.05    -0.00   0.00   0.03    -0.11  -0.05   0.01
 102   7     0.02   0.01  -0.02    -0.00   0.00   0.01    -0.06  -0.07  -0.02
 103   6    -0.00   0.02  -0.02    -0.00  -0.00  -0.00    -0.13  -0.00   0.05
 104   6    -0.01   0.02   0.03    -0.00  -0.00  -0.03    -0.10   0.05   0.05
 105   7    -0.02   0.01   0.02     0.00  -0.00  -0.02    -0.05   0.06   0.02
 106   1     0.00   0.00   0.03    -0.00  -0.00  -0.03    -0.05   0.03   0.03
 107   1    -0.00  -0.00   0.03    -0.00  -0.00  -0.02    -0.03   0.05   0.01
 108   1    -0.00   0.00  -0.03     0.00   0.00   0.03     0.03   0.05   0.00
 109   1     0.00  -0.00  -0.03     0.00   0.00   0.03     0.05   0.03   0.02
 110   1     0.00  -0.01   0.00     0.00   0.00   0.00     0.05   0.00   0.02
 111   1    -0.00   0.00   0.03     0.00  -0.00  -0.02     0.05  -0.03   0.00
 112   1     0.00   0.01   0.03     0.00  -0.00  -0.02     0.03  -0.06  -0.02
 113   1     0.00  -0.01  -0.03    -0.00   0.00   0.02    -0.03  -0.05  -0.02
 114   1    -0.00  -0.00  -0.04    -0.00   0.00   0.02    -0.05  -0.03  -0.00
 115   1    -0.00   0.01  -0.01    -0.00  -0.00  -0.00    -0.05   0.00   0.02
                     16                     17                     18
                        a                      a                      a 
 Frequencies --    49.1029                62.3605                82.1202
 Red. masses --    11.3321                13.4771                30.6658
 Frc consts  --     0.0000                 0.0000                 0.0000
 IR Inten    --     0.3128                 1.1267                 2.9261
 Raman Activ --     0.0000                 0.0000                 0.0000
 Depolar     --     0.0000                 0.0000                 0.0000
 Atom AN      X      Y      Z        X      Y      Z        X      Y      Z
   1  29    -0.00   0.01  -0.04     0.00   0.00   0.10     0.00  -0.00  -0.39
   2   6     0.01   0.01   0.05     0.00   0.00  -0.02    -0.00  -0.00   0.10
   3   6     0.01   0.01  -0.08     0.00   0.00   0.09    -0.00  -0.00   0.08
   4   6     0.00   0.01  -0.12     0.00   0.00   0.12    -0.00  -0.00  -0.03
   5   6     0.00   0.01  -0.18     0.00   0.00   0.15    -0.00  -0.00  -0.02
   6   6    -0.00   0.01  -0.12    -0.00   0.00   0.12     0.00  -0.00  -0.03
   7   6    -0.01   0.01  -0.08    -0.00   0.00   0.09     0.00  -0.00   0.08
   8   6    -0.01   0.01   0.05    -0.00   0.00  -0.02     0.00  -0.00   0.10
   9   6    -0.01   0.01   0.08    -0.00   0.00  -0.05     0.00   0.00   0.00
  10   7    -0.00   0.01  -0.03    -0.00   0.00   0.05     0.00   0.00  -0.10
  11   6    -0.01   0.00   0.17    -0.00   0.00  -0.15     0.00   0.00   0.05
  12   6    -0.01   0.00   0.11    -0.00   0.00  -0.11     0.00   0.00   0.03
  13   6    -0.01  -0.00   0.10    -0.00   0.00  -0.13     0.00  -0.00   0.16
  14   6    -0.01  -0.01  -0.03    -0.00  -0.00  -0.00     0.00  -0.00   0.12
  15   6    -0.00  -0.00  -0.08    -0.00  -0.00   0.07     0.00   0.00  -0.02
  16   7    -0.00   0.00   0.00    -0.00  -0.00   0.01     0.00   0.00  -0.09
  17   6     0.00  -0.00  -0.15     0.00  -0.00   0.14     0.00   0.00  -0.02
  18   6     0.00  -0.00  -0.08     0.00  -0.00   0.07     0.00  -0.00  -0.02
  19   6     0.01  -0.01  -0.03     0.00  -0.00  -0.00    -0.00  -0.00   0.12
  20   6     0.01  -0.00   0.10     0.00   0.00  -0.13    -0.00  -0.00   0.16
  21   6     0.01   0.00   0.11     0.00   0.00  -0.11    -0.00  -0.00   0.03
  22   7     0.00   0.00   0.00     0.00  -0.00   0.01     0.00  -0.00  -0.09
  23   6     0.01   0.00   0.17     0.00   0.00  -0.15    -0.00  -0.00   0.05
  24   6     0.01   0.01   0.08     0.00   0.00  -0.05    -0.00  -0.00   0.00
  25   7     0.00   0.01  -0.03     0.00   0.00   0.05     0.00  -0.00  -0.10
  26   1     0.00   0.00   0.04     0.00   0.00  -0.02    -0.00  -0.00   0.05
  27   1     0.00   0.00  -0.04     0.00   0.00   0.04    -0.00  -0.00   0.04
  28   1    -0.00   0.00  -0.04    -0.00   0.00   0.04     0.00  -0.00   0.04
  29   1    -0.00   0.00   0.04    -0.00   0.00  -0.02     0.00   0.00   0.05
  30   1    -0.00   0.00   0.08    -0.00   0.00  -0.07     0.00   0.00   0.04
  31   1    -0.00  -0.00   0.05    -0.00   0.00  -0.06     0.00  -0.00   0.08
  32   1    -0.00  -0.00  -0.02    -0.00  -0.00   0.01     0.00  -0.00   0.06
  33   1     0.00  -0.00  -0.06     0.00  -0.00   0.05     0.00   0.00   0.01
  34   1     0.00  -0.00  -0.02     0.00  -0.00   0.01    -0.00  -0.00   0.06
  35   1     0.00  -0.00   0.05     0.00   0.00  -0.06    -0.00  -0.00   0.08
  36   1     0.00   0.00   0.08     0.00   0.00  -0.07    -0.00  -0.00   0.04
  37  29    -0.00  -0.02   0.04    -0.00  -0.01   0.10     0.01  -0.07   0.47
  38   6    -0.01  -0.01  -0.06     0.00   0.01  -0.02     0.01   0.02  -0.12
  39   6    -0.01  -0.03   0.09     0.00  -0.01   0.09     0.01   0.02  -0.10
  40   6    -0.00  -0.03   0.12     0.00  -0.01   0.12     0.00  -0.00   0.03
  41   6     0.00  -0.05   0.19     0.00  -0.02   0.15    -0.00   0.00   0.02
  42   6     0.00  -0.03   0.12    -0.00  -0.01   0.12    -0.00  -0.00   0.03
  43   6     0.01  -0.03   0.08    -0.00  -0.01   0.09    -0.00   0.02  -0.10
  44   6     0.01  -0.00  -0.06    -0.01   0.01  -0.02    -0.00   0.02  -0.12
  45   6     0.01   0.01  -0.09    -0.01   0.01  -0.05    -0.00   0.00  -0.00
  46   7     0.00  -0.01   0.03    -0.00  -0.00   0.05    -0.00  -0.01   0.11
  47   6     0.01   0.03  -0.18    -0.01   0.03  -0.14    -0.00   0.01  -0.05
  48   6     0.01   0.02  -0.12    -0.01   0.02  -0.10    -0.00   0.01  -0.03
  49   6     0.01   0.02  -0.11    -0.01   0.02  -0.12    -0.01   0.03  -0.19
  50   6     0.01   0.00   0.04    -0.01  -0.00  -0.00    -0.00   0.03  -0.15
  51   6     0.00  -0.01   0.09    -0.00  -0.01   0.07     0.00  -0.00   0.02
  52   7     0.00   0.00  -0.00    -0.00  -0.00   0.01     0.00  -0.02   0.11
  53   6    -0.00  -0.02   0.16    -0.00  -0.03   0.13     0.00  -0.01   0.02
  54   6    -0.01  -0.01   0.08     0.00  -0.01   0.07     0.01  -0.00   0.02
  55   6    -0.01   0.00   0.03     0.00  -0.00  -0.00     0.01   0.03  -0.15
  56   6    -0.01   0.02  -0.11     0.01   0.02  -0.12     0.01   0.03  -0.19
  57   6    -0.01   0.02  -0.12     0.00   0.02  -0.10     0.01   0.01  -0.03
  58   7    -0.01   0.00  -0.00     0.00  -0.00   0.01     0.01  -0.02   0.11
  59   6    -0.01   0.03  -0.18     0.01   0.03  -0.14     0.01   0.01  -0.05
  60   6    -0.01   0.00  -0.09     0.00   0.01  -0.04     0.01  -0.00  -0.00
  61   7    -0.01  -0.01   0.03     0.00  -0.00   0.05     0.00  -0.02   0.11
  62   1    -0.00   0.00  -0.04     0.00   0.01  -0.02     0.00   0.01  -0.06
  63   1    -0.00  -0.01   0.04     0.00  -0.00   0.04     0.00   0.01  -0.05
  64   1     0.00  -0.01   0.04    -0.00  -0.00   0.04    -0.00   0.01  -0.05
  65   1     0.00   0.00  -0.04    -0.00   0.01  -0.02    -0.00   0.01  -0.06
  66   1     0.00   0.01  -0.08    -0.00   0.01  -0.07    -0.00   0.01  -0.05
  67   1     0.00   0.01  -0.05    -0.00   0.01  -0.06    -0.00   0.02  -0.09
  68   1     0.00  -0.00   0.03    -0.00  -0.00   0.01    -0.00   0.01  -0.07
  69   1    -0.00  -0.01   0.07    -0.00  -0.01   0.05     0.00   0.00  -0.01
  70   1    -0.00  -0.00   0.03     0.00  -0.00   0.01     0.00   0.01  -0.07
  71   1    -0.00   0.01  -0.06     0.00   0.01  -0.06     0.00   0.02  -0.09
  72   1    -0.00   0.01  -0.08     0.00   0.01  -0.07     0.00   0.01  -0.05
  73   6     0.00   0.01  -0.22     0.00   0.00   0.12    -0.00  -0.00   0.06
  74   6     0.00  -0.01  -0.18     0.00  -0.01   0.00    -0.00   0.01   0.12
  75   6     0.00  -0.02  -0.11    -0.00  -0.02  -0.10    -0.00   0.01   0.13
  76   6     0.00  -0.03  -0.00    -0.00  -0.02  -0.18    -0.00   0.01   0.08
  77   6     0.00   0.03   0.01     0.00  -0.02  -0.19    -0.00  -0.01  -0.09
  78   6     0.00   0.00   0.12     0.00  -0.02  -0.10    -0.00   0.00  -0.15
  79   6     0.00  -0.02   0.19     0.00  -0.02  -0.00    -0.00   0.01  -0.14
  80   6     0.00  -0.05   0.22    -0.00  -0.01   0.11    -0.00   0.01  -0.07
  81  29     0.00   0.01  -0.00     0.00  -0.01  -0.16    -0.01   0.00   0.05
  82   6     0.03  -0.01   0.12     0.00   0.01   0.12    -0.01  -0.01  -0.10
  83   6     0.02  -0.01   0.13     0.00  -0.00  -0.04    -0.01  -0.00  -0.07
  84   6     0.01  -0.01   0.08     0.00  -0.01  -0.12    -0.00   0.00  -0.00
  85   6     0.00  -0.02   0.06    -0.00  -0.02  -0.19    -0.00   0.01   0.03
  86   6    -0.01  -0.01   0.08    -0.00  -0.01  -0.12    -0.00   0.00  -0.00
  87   6    -0.02  -0.01   0.13    -0.00  -0.00  -0.04     0.00  -0.00  -0.07
  88   6    -0.03  -0.01   0.12    -0.00   0.01   0.12     0.00  -0.01  -0.10
  89   6    -0.02  -0.00   0.06    -0.00   0.01   0.10     0.00  -0.00  -0.04
  90   7    -0.01  -0.00   0.06    -0.00  -0.00  -0.05    -0.00   0.00   0.00
  91   6    -0.03   0.00  -0.00    -0.00   0.02   0.20     0.00  -0.00  -0.01
  92   6    -0.02   0.01  -0.07    -0.00   0.01   0.11    -0.00   0.00   0.04
  93   6    -0.03   0.01  -0.13    -0.00   0.01   0.12     0.00   0.00   0.06
  94   6    -0.02   0.02  -0.13    -0.00  -0.00  -0.04    -0.00  -0.00   0.04
  95   6    -0.01   0.02  -0.08     0.00  -0.01  -0.12    -0.00  -0.00   0.01
  96   7    -0.01   0.01  -0.06    -0.00  -0.00  -0.05    -0.00  -0.00   0.02
  97   6     0.00   0.03  -0.06     0.00  -0.02  -0.19    -0.00  -0.01  -0.03
  98   6     0.01   0.02  -0.08     0.00  -0.01  -0.12    -0.00  -0.00   0.01
  99   6     0.02   0.02  -0.13     0.00  -0.00  -0.04    -0.01  -0.00   0.04
 100   6     0.03   0.01  -0.13     0.00   0.01   0.12    -0.01   0.00   0.06
 101   6     0.02   0.01  -0.07     0.00   0.01   0.11    -0.01   0.00   0.04
 102   7     0.01   0.01  -0.06     0.00  -0.00  -0.05    -0.00  -0.00   0.02
 103   6     0.03   0.00  -0.00     0.00   0.02   0.20    -0.01  -0.00  -0.00
 104   6     0.02  -0.00   0.06     0.00   0.01   0.11    -0.01  -0.00  -0.04
 105   7     0.01  -0.00   0.06     0.00  -0.00  -0.05    -0.00   0.00   0.01
 106   1     0.01  -0.00   0.04     0.00   0.01   0.06    -0.00  -0.00  -0.04
 107   1     0.01  -0.01   0.05     0.00  -0.00  -0.02    -0.00  -0.00  -0.03
 108   1    -0.01  -0.01   0.05    -0.00  -0.00  -0.02     0.00  -0.00  -0.03
 109   1    -0.01  -0.00   0.04    -0.00   0.01   0.06     0.00  -0.00  -0.04
 110   1    -0.01   0.00  -0.00    -0.00   0.01   0.10     0.00  -0.00  -0.00
 111   1    -0.01   0.00  -0.05    -0.00   0.01   0.07     0.00   0.00   0.03
 112   1    -0.01   0.01  -0.05     0.00  -0.00  -0.02    -0.00  -0.00   0.01
 113   1     0.01   0.01  -0.05     0.00  -0.00  -0.02    -0.00  -0.00   0.01
 114   1     0.01   0.00  -0.05     0.00   0.01   0.07    -0.00   0.00   0.03
 115   1     0.01   0.00  -0.00     0.00   0.01   0.10    -0.00  -0.00  -0.00
                     19                     20                     21
                        a                      a                      a 
 Frequencies --    82.3065                85.3154                89.4747
 Red. masses --    33.6799                30.6222                21.7681
 Frc consts  --     0.0000                 0.0000                 0.0000
 IR Inten    --     5.0630                 2.5601              4043.4339
 Raman Activ --     0.0000                 0.0000                 0.0000
 Depolar     --     0.0000                 0.0000                 0.0000
 Atom AN      X      Y      Z        X      Y      Z        X      Y      Z
   1  29    -0.00  -0.00  -0.35     0.00   0.00  -0.34    -0.19   0.00  -0.02
   2   6    -0.00   0.00   0.09    -0.00   0.00   0.14    -0.08   0.03   0.01
   3   6    -0.00  -0.00   0.07    -0.00   0.00   0.16    -0.05   0.00   0.01
   4   6    -0.00  -0.00  -0.03    -0.00   0.00   0.03    -0.01   0.02   0.00
   5   6     0.00  -0.00  -0.01    -0.00   0.00   0.03     0.04   0.00   0.00
   6   6     0.00  -0.00  -0.03     0.00   0.00   0.03    -0.01  -0.02   0.00
   7   6     0.00  -0.00   0.07     0.00   0.00   0.16    -0.05   0.00   0.01
   8   6     0.00  -0.00   0.09     0.00   0.00   0.14    -0.08  -0.03   0.01
   9   6     0.00  -0.00   0.00     0.00   0.00  -0.00    -0.06  -0.07  -0.00
  10   7     0.00  -0.00  -0.09     0.00   0.00  -0.07    -0.02  -0.07  -0.00
  11   6     0.00  -0.00   0.04    -0.00   0.00  -0.03    -0.07  -0.08  -0.01
  12   6     0.00  -0.00   0.02    -0.00  -0.00  -0.04    -0.08  -0.05  -0.01
  13   6     0.00  -0.00   0.14     0.00  -0.00   0.07    -0.06  -0.02  -0.00
  14   6     0.00  -0.00   0.11     0.00  -0.00   0.12    -0.09   0.00   0.01
  15   6     0.00  -0.00  -0.02     0.00  -0.00   0.03    -0.12  -0.01   0.00
  16   7    -0.00  -0.00  -0.08    -0.00   0.00  -0.08    -0.12  -0.05  -0.00
  17   6    -0.00   0.00  -0.02    -0.00  -0.00   0.07    -0.14  -0.00   0.01
  18   6    -0.00  -0.00  -0.02    -0.00  -0.00   0.03    -0.12   0.01   0.00
  19   6    -0.00  -0.00   0.11    -0.00  -0.00   0.12    -0.08  -0.01   0.01
  20   6    -0.00  -0.00   0.14    -0.00  -0.00   0.07    -0.06   0.02  -0.00
  21   6    -0.00  -0.00   0.02     0.00  -0.00  -0.04    -0.08   0.05  -0.01
  22   7    -0.00   0.00  -0.08     0.00  -0.00  -0.08    -0.12   0.05  -0.00
  23   6    -0.00  -0.00   0.04     0.00   0.00  -0.03    -0.06   0.08  -0.01
  24   6    -0.00   0.00   0.00    -0.00   0.00  -0.00    -0.06   0.07   0.00
  25   7    -0.00  -0.00  -0.09     0.00   0.00  -0.07    -0.02   0.07  -0.00
  26   1    -0.00   0.00   0.05    -0.00   0.00   0.06    -0.03   0.01   0.01
  27   1    -0.00  -0.00   0.04    -0.00   0.00   0.08    -0.02  -0.01   0.01
  28   1     0.00   0.00   0.04     0.00   0.00   0.08    -0.02   0.01   0.01
  29   1     0.00   0.00   0.05     0.00   0.00   0.06    -0.03  -0.01   0.00
  30   1     0.00  -0.00   0.04    -0.00   0.00   0.00    -0.02  -0.02  -0.00
  31   1     0.00  -0.00   0.07    -0.00  -0.00   0.03    -0.01  -0.01  -0.00
  32   1     0.00  -0.00   0.05     0.00  -0.00   0.06    -0.02   0.01   0.00
  33   1    -0.00   0.00   0.01    -0.00  -0.00   0.05    -0.04  -0.00   0.01
  34   1    -0.00  -0.00   0.05    -0.00  -0.00   0.06    -0.02  -0.01   0.00
  35   1    -0.00  -0.00   0.07    -0.00  -0.00   0.03    -0.01   0.01  -0.00
  36   1    -0.00  -0.00   0.04     0.00   0.00   0.00    -0.02   0.02  -0.00
  37  29    -0.00   0.04  -0.25    -0.00   0.06  -0.33    -0.20  -0.00   0.02
  38   6    -0.00  -0.01   0.06    -0.00  -0.02   0.14    -0.08   0.03  -0.01
  39   6    -0.00  -0.01   0.05    -0.00  -0.02   0.16    -0.05   0.00  -0.01
  40   6    -0.00   0.00  -0.02    -0.00  -0.00   0.03    -0.01   0.02  -0.00
  41   6     0.00  -0.00  -0.01     0.00  -0.00   0.03     0.04   0.00  -0.00
  42   6     0.00   0.00  -0.02     0.00  -0.00   0.03    -0.01  -0.02  -0.01
  43   6     0.00  -0.01   0.05     0.00  -0.02   0.16    -0.05   0.01  -0.02
  44   6     0.00  -0.01   0.06     0.00  -0.02   0.14    -0.08  -0.03  -0.02
  45   6     0.00  -0.00   0.00    -0.00   0.00  -0.00    -0.06  -0.07  -0.01
  46   7     0.00   0.01  -0.06    -0.00   0.01  -0.06    -0.02  -0.07  -0.01
  47   6     0.00  -0.01   0.03    -0.00   0.01  -0.03    -0.07  -0.08  -0.00
  48   6     0.00  -0.00   0.02    -0.00   0.01  -0.04    -0.08  -0.05   0.00
  49   6     0.00  -0.02   0.10    -0.00  -0.01   0.06    -0.06  -0.02  -0.00
  50   6     0.00  -0.01   0.08    -0.00  -0.02   0.12    -0.09   0.01  -0.01
  51   6     0.00   0.00  -0.01    -0.00  -0.01   0.03    -0.12  -0.01  -0.01
  52   7     0.00   0.01  -0.06    -0.00   0.01  -0.08    -0.12  -0.05   0.00
  53   6    -0.00   0.00  -0.01    -0.00  -0.02   0.08    -0.14   0.00  -0.01
  54   6    -0.00   0.00  -0.01    -0.00  -0.01   0.03    -0.12   0.01  -0.00
  55   6    -0.00  -0.01   0.08    -0.00  -0.02   0.12    -0.09  -0.00  -0.01
  56   6    -0.00  -0.02   0.10     0.00  -0.01   0.06    -0.06   0.02   0.01
  57   6    -0.00  -0.00   0.02     0.00   0.01  -0.04    -0.08   0.05   0.01
  58   7    -0.00   0.01  -0.06    -0.00   0.01  -0.08    -0.12   0.05   0.01
  59   6    -0.00  -0.01   0.03     0.00   0.01  -0.03    -0.07   0.08   0.02
  60   6    -0.00  -0.00   0.00     0.00   0.00  -0.00    -0.06   0.07   0.01
  61   7    -0.00   0.01  -0.06    -0.00   0.01  -0.06    -0.02   0.07   0.01
  62   1    -0.00  -0.01   0.03    -0.00  -0.01   0.06    -0.03   0.01  -0.00
  63   1    -0.00  -0.00   0.03    -0.00  -0.01   0.08    -0.02  -0.01  -0.01
  64   1     0.00  -0.00   0.03     0.00  -0.01   0.08    -0.02   0.01  -0.01
  65   1     0.00  -0.01   0.03     0.00  -0.01   0.06    -0.03  -0.01  -0.01
  66   1     0.00  -0.00   0.02    -0.00  -0.00   0.00    -0.02  -0.02  -0.00
  67   1     0.00  -0.01   0.05    -0.00  -0.01   0.03    -0.01  -0.01  -0.00
  68   1     0.00  -0.01   0.04     0.00  -0.01   0.06    -0.03   0.01  -0.00
  69   1    -0.00  -0.00   0.01    -0.00  -0.01   0.05    -0.04   0.00  -0.01
  70   1    -0.00  -0.01   0.04    -0.00  -0.01   0.06    -0.02  -0.01  -0.00
  71   1    -0.00  -0.01   0.05     0.00  -0.01   0.03    -0.01   0.00   0.00
  72   1    -0.00  -0.00   0.02     0.00   0.00   0.00    -0.02   0.02   0.00
  73   6     0.00  -0.00   0.06    -0.00  -0.00   0.03     0.05   0.00  -0.00
  74   6     0.00   0.00   0.11    -0.00  -0.01  -0.02     0.06  -0.00  -0.01
  75   6     0.00   0.01   0.11    -0.00  -0.01  -0.05     0.07  -0.00  -0.01
  76   6     0.00   0.01   0.06    -0.00  -0.01  -0.08     0.08  -0.00  -0.01
  77   6     0.00   0.00   0.04     0.00  -0.01  -0.08     0.07  -0.00   0.01
  78   6     0.00  -0.00   0.07     0.00  -0.01  -0.06     0.07  -0.00   0.01
  79   6     0.00  -0.00   0.07     0.00  -0.01  -0.03     0.06  -0.00   0.01
  80   6     0.00  -0.01   0.04     0.00  -0.01   0.03     0.05   0.00   0.00
  81  29     0.00  -0.04  -0.50     0.00   0.04   0.39     0.34   0.00   0.00
  82   6     0.00   0.02   0.15    -0.00  -0.01  -0.12     0.13   0.01   0.00
  83   6     0.00   0.01   0.13    -0.00  -0.02  -0.14     0.12  -0.00   0.00
  84   6     0.00  -0.00  -0.02    -0.00  -0.00  -0.02     0.11   0.01  -0.00
  85   6     0.00  -0.00  -0.02    -0.00  -0.00  -0.04     0.09  -0.00  -0.00
  86   6    -0.00  -0.00  -0.02     0.00  -0.00  -0.02     0.11  -0.01   0.00
  87   6    -0.00   0.02   0.13     0.00  -0.02  -0.14     0.12   0.00   0.00
  88   6    -0.00   0.02   0.15     0.00  -0.01  -0.12     0.13  -0.00   0.01
  89   6    -0.00   0.00   0.00     0.00   0.00   0.02     0.12  -0.01   0.01
  90   7    -0.00  -0.01  -0.12     0.00   0.01   0.08     0.12  -0.01   0.00
  91   6    -0.00   0.01   0.04     0.00   0.00   0.02     0.12   0.00   0.00
  92   6    -0.00   0.00   0.01     0.00   0.00   0.02     0.13   0.02  -0.00
  93   6    -0.00   0.02   0.17     0.00  -0.01  -0.11     0.13   0.01  -0.01
  94   6    -0.00   0.01   0.14     0.00  -0.01  -0.14     0.12   0.00  -0.01
  95   6    -0.00  -0.00  -0.02     0.00  -0.00  -0.02     0.11   0.01  -0.00
  96   7     0.00  -0.01  -0.11     0.00   0.01   0.08     0.13   0.02   0.00
  97   6     0.00  -0.00  -0.02     0.00  -0.00  -0.04     0.09   0.00   0.00
  98   6     0.00  -0.00  -0.02    -0.00  -0.00  -0.02     0.11  -0.01   0.00
  99   6     0.00   0.01   0.14    -0.00  -0.01  -0.14     0.12  -0.00  -0.00
 100   6     0.00   0.02   0.17    -0.00  -0.01  -0.11     0.13  -0.01  -0.01
 101   6     0.00   0.00   0.02    -0.00   0.00   0.02     0.13  -0.02  -0.00
 102   7     0.00  -0.01  -0.11    -0.00   0.01   0.08     0.13  -0.02   0.00
 103   6     0.00   0.01   0.04     0.00   0.00   0.02     0.12  -0.00  -0.00
 104   6     0.00   0.00   0.00     0.00   0.00   0.02     0.12   0.01   0.00
 105   7     0.00  -0.01  -0.12     0.00   0.01   0.08     0.12   0.01  -0.00
 106   1     0.00   0.01   0.08    -0.00  -0.01  -0.06     0.04   0.00   0.00
 107   1     0.00   0.01   0.06    -0.00  -0.01  -0.07     0.04  -0.00   0.00
 108   1    -0.00   0.01   0.06     0.00  -0.01  -0.07     0.04   0.00   0.00
 109   1    -0.00   0.01   0.08     0.00  -0.01  -0.06     0.04  -0.00   0.00
 110   1    -0.00   0.00   0.04     0.00  -0.00  -0.01     0.03   0.00   0.00
 111   1    -0.00   0.01   0.08     0.00  -0.00  -0.05     0.04   0.00  -0.00
 112   1    -0.00   0.01   0.07     0.00  -0.01  -0.07     0.04  -0.00  -0.00
 113   1     0.00   0.01   0.07    -0.00  -0.01  -0.07     0.04   0.00  -0.00
 114   1     0.00   0.01   0.08    -0.00  -0.00  -0.05     0.04  -0.00  -0.00
 115   1     0.00   0.00   0.04     0.00  -0.00  -0.01     0.03  -0.00   0.00
                     22                     23                     24
                        a                      a                      a 
 Frequencies --    91.2076               109.5973               116.3418
 Red. masses --    13.7307                11.5125                10.8716
 Frc consts  --     0.0000                 0.0000                 0.0000
 IR Inten    --    20.4214                 0.9485                 0.1967
 Raman Activ --     0.0000                 0.0000                 0.0000
 Depolar     --     0.0000                 0.0000                 0.0000
 Atom AN      X      Y      Z        X      Y      Z        X      Y      Z
   1  29     0.01   0.00  -0.17     0.00   0.00  -0.01     0.00  -0.00   0.00
   2   6     0.01   0.00   0.15     0.00  -0.00  -0.15    -0.00   0.00   0.00
   3   6     0.00   0.00   0.18     0.00   0.00  -0.11    -0.00   0.00   0.01
   4   6    -0.00   0.00   0.06     0.00   0.00   0.02     0.00   0.00   0.00
   5   6    -0.00   0.00   0.03    -0.00   0.00   0.10     0.00  -0.00  -0.00
   6   6     0.00   0.01   0.06    -0.00   0.00   0.02     0.00  -0.00  -0.00
   7   6     0.00   0.00   0.18    -0.00   0.00  -0.11     0.00  -0.00  -0.01
   8   6     0.00   0.01   0.15    -0.00   0.00  -0.15     0.00  -0.00  -0.00
   9   6     0.00   0.01   0.01    -0.00   0.00  -0.04     0.00  -0.00   0.00
  10   7     0.00   0.01  -0.02    -0.00   0.00   0.04     0.00  -0.00   0.00
  11   6     0.00   0.01  -0.09     0.00   0.00   0.05     0.00  -0.00   0.01
  12   6     0.00   0.00  -0.10     0.00   0.00   0.08     0.00  -0.00   0.00
  13   6     0.00   0.00  -0.06     0.00  -0.00   0.15     0.00  -0.00  -0.00
  14   6     0.00  -0.00   0.07     0.00  -0.00   0.02     0.00  -0.00  -0.01
  15   6     0.01  -0.00   0.08     0.00   0.00  -0.10     0.00  -0.00  -0.00
  16   7     0.01   0.00  -0.04     0.00   0.00  -0.05     0.00  -0.00   0.00
  17   6     0.01  -0.00   0.16     0.00   0.00  -0.18     0.00   0.00   0.00
  18   6     0.01  -0.00   0.08     0.00   0.00  -0.10     0.00   0.00   0.00
  19   6     0.01  -0.00   0.07     0.00  -0.00   0.02     0.00   0.00   0.01
  20   6     0.01  -0.00  -0.06    -0.00  -0.00   0.15     0.00   0.00   0.00
  21   6     0.01  -0.00  -0.10    -0.00  -0.00   0.08     0.00   0.00  -0.00
  22   7     0.01  -0.00  -0.04     0.00   0.00  -0.05     0.00   0.00  -0.00
  23   6     0.01  -0.00  -0.09     0.00  -0.00   0.05     0.00   0.00  -0.01
  24   6     0.00  -0.00   0.01     0.00  -0.00  -0.04     0.00   0.00  -0.00
  25   7     0.00  -0.00  -0.02     0.00   0.00   0.04     0.00   0.00  -0.01
  26   1     0.00   0.00   0.06     0.00  -0.00  -0.07    -0.00   0.00   0.00
  27   1     0.00   0.00   0.08     0.00   0.00  -0.05    -0.00   0.00   0.00
  28   1     0.00   0.00   0.08    -0.00  -0.00  -0.05     0.00  -0.00  -0.00
  29   1     0.00   0.00   0.06    -0.00  -0.00  -0.07    -0.00  -0.00  -0.00
  30   1    -0.00   0.00  -0.03     0.00   0.00   0.02     0.00  -0.00   0.00
  31   1    -0.00   0.00  -0.03     0.00  -0.00   0.08     0.00  -0.00  -0.00
  32   1     0.00  -0.00   0.04     0.00  -0.00   0.01     0.00  -0.00  -0.00
  33   1     0.00  -0.00   0.07     0.00   0.00  -0.07     0.00   0.00   0.00
  34   1     0.00  -0.00   0.04     0.00  -0.00   0.01     0.00   0.00   0.00
  35   1     0.00  -0.00  -0.03    -0.00  -0.00   0.08     0.00   0.00   0.00
  36   1     0.00  -0.00  -0.03     0.00  -0.00   0.02     0.00   0.00  -0.00
  37  29     0.01  -0.03   0.15     0.00   0.00  -0.01    -0.00  -0.00  -0.00
[...]
 107   1     0.01   0.00  -0.00     0.04   0.00  -0.00     0.04   0.00  -0.00
 108   1     0.01  -0.00   0.00     0.02  -0.00   0.00    -0.53   0.06  -0.01
 109   1     0.00  -0.00   0.00     0.00  -0.02   0.00    -0.04   0.37  -0.04
 110   1    -0.00   0.00  -0.00    -0.00  -0.00   0.00     0.00   0.01  -0.00
 111   1    -0.00  -0.00   0.00     0.00   0.01  -0.00    -0.01  -0.07   0.01
 112   1    -0.01  -0.00   0.00     0.01   0.00  -0.00    -0.11  -0.01   0.00
 113   1    -0.01   0.00  -0.00     0.44  -0.05   0.00     0.02  -0.00   0.00
 114   1    -0.00   0.00  -0.00     0.03  -0.31   0.03     0.00  -0.02   0.00
 115   1    -0.00  -0.00   0.00    -0.00  -0.00   0.00    -0.00   0.00  -0.00
                    334                    335                    336
                        a                      a                      a 
 Frequencies --  3166.9621              3167.0511              3167.1496
 Red. masses --     1.9689                 1.9693                 1.9691
 Frc consts  --     0.0000                 0.0000                 0.0000
 IR Inten    --  1396.4250               415.0322              1993.5234
 Raman Activ --     0.0000                 0.0000                 0.0000
 Depolar     --     0.0000                 0.0000                 0.0000
 Atom AN      X      Y      Z        X      Y      Z        X      Y      Z
   1  29     0.00  -0.00   0.00     0.00  -0.00   0.00     0.00   0.00   0.00
   2   6    -0.00   0.04  -0.00    -0.01   0.11  -0.00    -0.00   0.05  -0.00
   3   6    -0.05   0.00  -0.00    -0.15   0.01  -0.00    -0.07   0.00  -0.00
   4   6    -0.00  -0.00   0.00    -0.00  -0.01   0.00    -0.00  -0.00   0.00
   5   6    -0.00   0.00  -0.00    -0.00   0.00  -0.00    -0.00  -0.00   0.00
   6   6     0.00  -0.00   0.00     0.00  -0.00  -0.00    -0.00   0.00  -0.00
   7   6     0.01   0.00  -0.00     0.03   0.00  -0.00    -0.10  -0.01   0.00
   8   6     0.00   0.00  -0.00     0.00   0.02  -0.00    -0.00  -0.07   0.00
   9   6    -0.00   0.00   0.00    -0.00   0.00   0.00     0.00  -0.00  -0.00
  10   7     0.00   0.00   0.00    -0.00  -0.00   0.00     0.00   0.00  -0.00
  11   6     0.00   0.00   0.00     0.00   0.00  -0.00    -0.00  -0.00  -0.00
  12   6    -0.00   0.00   0.00    -0.00   0.00  -0.00    -0.00  -0.00  -0.00
  13   6     0.00  -0.00  -0.00     0.00   0.00   0.00     0.00  -0.00  -0.00
  14   6     0.00  -0.00  -0.00    -0.00  -0.00  -0.00     0.00  -0.00  -0.00
  15   6    -0.00   0.00   0.00    -0.00   0.00  -0.00     0.00   0.00  -0.00
  16   7    -0.00   0.00   0.00    -0.00   0.00   0.00     0.00  -0.00  -0.00
  17   6     0.00   0.00   0.00    -0.00   0.00  -0.00     0.00  -0.00   0.00
  18   6    -0.00  -0.00  -0.00    -0.00  -0.00  -0.00     0.00  -0.00   0.00
  19   6     0.00   0.00   0.00     0.00   0.00   0.00     0.00   0.00   0.00
  20   6     0.00   0.00   0.00     0.00   0.00   0.00     0.00   0.00   0.00
  21   6    -0.00  -0.00  -0.00    -0.00  -0.00  -0.00    -0.00   0.00   0.00
  22   7    -0.00  -0.00   0.00    -0.00  -0.00  -0.00     0.00   0.00  -0.00
  23   6    -0.00   0.00   0.00    -0.00   0.00   0.00    -0.00   0.00   0.00
  24   6     0.00   0.00   0.00     0.00   0.00   0.00     0.00   0.00   0.00
  25   7     0.00  -0.00   0.00     0.00  -0.00   0.00     0.00  -0.00   0.00
  26   1     0.01  -0.12   0.00     0.04  -0.36   0.00     0.02  -0.16   0.00
  27   1     0.16  -0.02   0.00     0.50  -0.05   0.00     0.23  -0.02   0.00
  28   1    -0.02  -0.00   0.00    -0.09  -0.01   0.00     0.33   0.04  -0.00
  29   1    -0.00  -0.01   0.00    -0.01  -0.06   0.00     0.02   0.22  -0.00
  30   1     0.00  -0.00   0.00     0.00  -0.00  -0.00    -0.00   0.00   0.00
  31   1    -0.00   0.00   0.00     0.00  -0.00  -0.00    -0.00   0.01   0.00
  32   1    -0.00   0.00   0.00     0.00  -0.00  -0.00    -0.01   0.00   0.00
  33   1    -0.00  -0.00   0.00     0.00  -0.00  -0.00    -0.00  -0.00  -0.00
  34   1    -0.00  -0.00  -0.00    -0.00  -0.00  -0.00    -0.01  -0.00  -0.00
  35   1    -0.00  -0.00  -0.00    -0.00  -0.01  -0.00    -0.00  -0.01  -0.00
  36   1    -0.00  -0.00  -0.00    -0.00  -0.01  -0.00    -0.00  -0.00  -0.00
  37  29    -0.00  -0.00  -0.00     0.00   0.00  -0.00    -0.00   0.00   0.00
  38   6    -0.00   0.00   0.00    -0.00   0.02   0.00     0.00  -0.04  -0.01
  39   6    -0.01   0.00   0.00    -0.02   0.00   0.00     0.05  -0.00  -0.00
  40   6    -0.00  -0.00  -0.00    -0.00  -0.00  -0.00     0.00   0.00   0.00
  41   6     0.00   0.00   0.00    -0.00  -0.00  -0.00     0.00  -0.00  -0.00
  42   6     0.00  -0.00  -0.00    -0.00   0.00   0.00    -0.00   0.00   0.00
  43   6     0.12   0.01  -0.00    -0.03  -0.00   0.00    -0.03  -0.00   0.00
  44   6     0.00   0.09   0.01    -0.00  -0.02  -0.00    -0.00  -0.02  -0.00
  45   6    -0.00   0.00   0.00     0.00  -0.00  -0.00     0.00  -0.00  -0.00
  46   7    -0.00  -0.00  -0.00     0.00   0.00   0.00     0.00   0.00  -0.00
  47   6     0.00   0.00   0.00    -0.00  -0.00  -0.00    -0.00  -0.00  -0.00
  48   6     0.00   0.00   0.00    -0.00   0.00   0.00     0.00  -0.00  -0.00
  49   6    -0.00   0.00   0.00     0.00  -0.00  -0.00     0.00  -0.00  -0.00
  50   6    -0.00   0.00   0.00     0.00  -0.00  -0.00     0.00  -0.00  -0.00
  51   6    -0.00  -0.00  -0.00    -0.00   0.00   0.00     0.00  -0.00  -0.00
  52   7    -0.00  -0.00   0.00    -0.00   0.00   0.00     0.00  -0.00  -0.00
  53   6    -0.00   0.00   0.00     0.00  -0.00  -0.00     0.00  -0.00  -0.00
  54   6    -0.00   0.00   0.00    -0.00  -0.00  -0.00     0.00   0.00   0.00
  55   6    -0.00  -0.00  -0.00     0.00   0.00   0.00     0.00  -0.00  -0.00
  56   6    -0.00  -0.00  -0.00     0.00   0.00   0.00    -0.00  -0.00  -0.00
  57   6     0.00  -0.00  -0.00    -0.00  -0.00  -0.00     0.00   0.00   0.00
  58   7    -0.00  -0.00  -0.00    -0.00  -0.00  -0.00     0.00   0.00   0.00
  59   6    -0.00  -0.00  -0.00    -0.00   0.00   0.00     0.00  -0.00  -0.00
  60   6     0.00   0.00   0.00     0.00   0.00   0.00    -0.00  -0.00  -0.00
  61   7     0.00  -0.00  -0.00     0.00  -0.00  -0.00    -0.00   0.00   0.00
  62   1     0.00  -0.01  -0.00     0.01  -0.05  -0.01    -0.01   0.12   0.02
  63   1     0.02  -0.00  -0.00     0.07  -0.01  -0.00    -0.15   0.02   0.00
  64   1    -0.41  -0.05  -0.00     0.10   0.01   0.00     0.10   0.01   0.00
  65   1    -0.03  -0.29  -0.05     0.01   0.07   0.01     0.01   0.07   0.01
  66   1     0.00  -0.01  -0.00    -0.00   0.00   0.00    -0.00   0.00   0.00
  67   1     0.00  -0.02  -0.00    -0.00   0.01   0.00    -0.00   0.00   0.00
  68   1     0.01  -0.00  -0.00    -0.00   0.00   0.00    -0.00   0.00   0.00
  69   1     0.00  -0.00  -0.00    -0.00   0.00  -0.00    -0.00   0.00   0.00
  70   1     0.01   0.00   0.00    -0.00  -0.00  -0.00    -0.00  -0.00  -0.00
  71   1     0.00   0.01   0.00    -0.00  -0.00  -0.00     0.00   0.00   0.00
  72   1    -0.00  -0.00   0.00    -0.00  -0.00  -0.00     0.00   0.00   0.00
  73   6    -0.00   0.00   0.00     0.00   0.00  -0.00     0.00  -0.00   0.00
  74   6     0.00  -0.00  -0.00    -0.00  -0.00  -0.00    -0.00   0.00  -0.00
  75   6    -0.00   0.00  -0.00    -0.00   0.00  -0.00     0.00   0.00  -0.00
  76   6     0.00  -0.00   0.00     0.00  -0.00   0.00    -0.00  -0.00   0.00
  77   6     0.00   0.00  -0.00     0.00  -0.00   0.00    -0.00   0.00  -0.00
  78   6    -0.00  -0.00   0.00    -0.00   0.00  -0.00     0.00  -0.00   0.00
  79   6     0.00  -0.00  -0.00    -0.00   0.00  -0.00    -0.00   0.00   0.00
  80   6    -0.00   0.00   0.00     0.00  -0.00  -0.00     0.00  -0.00  -0.00
  81  29     0.00  -0.00   0.00     0.00   0.00  -0.00    -0.00   0.00  -0.00
  82   6    -0.00  -0.06   0.01    -0.00  -0.08   0.01    -0.00  -0.05   0.01
  83   6    -0.09  -0.01   0.00    -0.12  -0.01   0.00    -0.07  -0.00   0.00
  84   6    -0.00   0.00  -0.00    -0.00   0.00  -0.00    -0.00   0.00  -0.00
  85   6    -0.00  -0.00   0.00    -0.00  -0.00   0.00    -0.00  -0.00   0.00
  86   6    -0.00  -0.00   0.00    -0.00  -0.00   0.00     0.00   0.00  -0.00
  87   6    -0.03   0.00  -0.00    -0.04   0.00  -0.00     0.05  -0.00   0.00
  88   6    -0.00   0.02  -0.00    -0.00   0.03  -0.00     0.00  -0.04   0.00
  89   6     0.00   0.00   0.00     0.00   0.00  -0.00    -0.00  -0.00   0.00
  90   7     0.00  -0.00   0.00     0.00  -0.00   0.00    -0.00   0.00  -0.00
  91   6     0.00   0.00  -0.00    -0.00  -0.00   0.00     0.00   0.00  -0.00
  92   6    -0.00   0.00  -0.00     0.00  -0.00   0.00    -0.00   0.00  -0.00
  93   6     0.00   0.03  -0.00    -0.00  -0.08   0.01     0.01   0.12  -0.01
  94   6     0.04   0.00   0.00    -0.11  -0.01  -0.00     0.17   0.01   0.00
  95   6     0.00  -0.00   0.00    -0.00   0.00  -0.00     0.00  -0.01   0.00
  96   7    -0.00  -0.00   0.00     0.00   0.00  -0.00    -0.00  -0.00   0.00
  97   6    -0.00   0.00  -0.00    -0.00  -0.00   0.00     0.00   0.00  -0.00
  98   6    -0.00  -0.01   0.00     0.00   0.00  -0.00     0.00   0.00  -0.00
  99   6    -0.17   0.01  -0.00     0.07  -0.01   0.00     0.06  -0.01   0.00
 100   6    -0.01   0.12  -0.01     0.00  -0.05   0.00     0.00  -0.04   0.00
 101   6     0.00   0.00  -0.00    -0.00  -0.00   0.00    -0.00  -0.00   0.00
 102   7     0.00  -0.00   0.00    -0.00   0.00  -0.00    -0.00   0.00  -0.00
 103   6    -0.00   0.00  -0.00    -0.00  -0.00   0.00    -0.00  -0.00   0.00
 104   6     0.00  -0.00   0.00     0.00  -0.00   0.00     0.00  -0.00   0.00
 105   7     0.00   0.00  -0.00     0.00   0.00  -0.00     0.00   0.00  -0.00
 106   1     0.02   0.19  -0.02     0.03   0.26  -0.03     0.02   0.16  -0.02
 107   1     0.29   0.03  -0.01     0.38   0.04  -0.01     0.22   0.02  -0.00
 108   1     0.09  -0.01   0.00     0.12  -0.01   0.00    -0.17   0.02  -0.00
 109   1     0.01  -0.06   0.01     0.01  -0.08   0.01    -0.01   0.11  -0.01
 110   1     0.00  -0.00   0.00    -0.00   0.00  -0.00     0.00  -0.00   0.00
 111   1    -0.01  -0.08   0.01     0.03   0.24  -0.02    -0.04  -0.37   0.04
 112   1    -0.12  -0.01   0.00     0.35   0.04  -0.00    -0.55  -0.06   0.00
 113   1     0.55  -0.07   0.00    -0.22   0.03  -0.00    -0.19   0.02  -0.00
 114   1     0.04  -0.38   0.03    -0.01   0.15  -0.01    -0.01   0.13  -0.01
 115   1    -0.00  -0.00   0.00    -0.00   0.01  -0.00    -0.00   0.01  -0.00
                    337                    338                    339
                        a                      a                      a 
 Frequencies --  3167.2950              3167.6425              3168.0564
 Red. masses --     1.9688                 1.9688                 1.9707
 Frc consts  --     0.0000                 0.0000                 0.0000
 IR Inten    --    50.7743              2742.7390                11.7791
 Raman Activ --     0.0000                 0.0000                 0.0000
 Depolar     --     0.0000                 0.0000                 0.0000
 Atom AN      X      Y      Z        X      Y      Z        X      Y      Z
   1  29     0.00   0.00  -0.00    -0.00   0.00  -0.00    -0.00   0.00   0.00
   2   6     0.00  -0.05   0.00     0.01  -0.10   0.00     0.00  -0.02   0.00
   3   6     0.07  -0.00   0.00     0.14  -0.01   0.00     0.03  -0.00   0.00
   4   6     0.00   0.00  -0.00     0.00   0.00  -0.00     0.00   0.00  -0.00
   5   6    -0.00  -0.00   0.00     0.00  -0.00   0.00     0.00  -0.00   0.00
   6   6    -0.00   0.00  -0.00     0.00  -0.00   0.00     0.00  -0.00   0.00
   7   6    -0.12  -0.01   0.00     0.06   0.01  -0.00     0.02   0.00  -0.00
   8   6    -0.00  -0.08   0.00     0.00   0.04  -0.00     0.00   0.02  -0.00
   9   6     0.00  -0.00  -0.00    -0.00   0.00   0.00    -0.00   0.00   0.00
  10   7     0.00   0.00  -0.00    -0.00  -0.00   0.00    -0.00  -0.00  -0.00
  11   6    -0.00  -0.00  -0.00     0.00   0.00   0.00     0.00   0.00   0.00
  12   6    -0.00   0.00   0.00     0.00   0.00  -0.00     0.00   0.00  -0.00
  13   6     0.00  -0.00  -0.00    -0.00   0.01   0.00    -0.00   0.00   0.00
  14   6     0.00  -0.00  -0.00    -0.00   0.00   0.00    -0.00   0.00   0.00
  15   6     0.00   0.00   0.00    -0.00  -0.00  -0.00    -0.00  -0.00  -0.00
  16   7    -0.00   0.00  -0.00    -0.00   0.00  -0.00     0.00  -0.00   0.00
  17   6     0.00  -0.00  -0.00    -0.00  -0.00  -0.00    -0.00  -0.00  -0.00
  18   6    -0.00  -0.00  -0.00    -0.00   0.00   0.00    -0.00   0.00   0.00
  19   6     0.00   0.00   0.00    -0.01  -0.00  -0.00    -0.00  -0.00  -0.00
  20   6    -0.00   0.00   0.00    -0.00  -0.01  -0.00    -0.00  -0.00  -0.00
  21   6    -0.00   0.00  -0.00     0.00  -0.00   0.00     0.00  -0.00   0.00
  22   7    -0.00   0.00  -0.00    -0.00  -0.00  -0.00     0.00   0.00  -0.00
  23   6     0.00  -0.00  -0.00     0.00  -0.00  -0.00     0.00  -0.00  -0.00
  24   6    -0.00  -0.00  -0.00    -0.00  -0.00  -0.00    -0.00  -0.00  -0.00
  25   7    -0.00   0.00  -0.00    -0.00   0.00  -0.00    -0.00   0.00  -0.00
  26   1    -0.02   0.15  -0.00    -0.04   0.31  -0.00    -0.01   0.07  -0.00
  27   1    -0.22   0.02  -0.00    -0.46   0.05  -0.00    -0.10   0.01  -0.00
  28   1     0.38   0.05  -0.00    -0.20  -0.03   0.00    -0.07  -0.01   0.00
  29   1     0.02   0.26  -0.00    -0.01  -0.14   0.00    -0.00  -0.05   0.00
  30   1    -0.00   0.01   0.00     0.00  -0.00  -0.00     0.00  -0.00  -0.00
  31   1    -0.00   0.01   0.00     0.00  -0.02  -0.00     0.00  -0.01  -0.00
  32   1    -0.01   0.00   0.00     0.02  -0.00  -0.00     0.01  -0.00  -0.00
  33   1    -0.00   0.00  -0.00     0.00   0.00   0.00     0.00   0.00   0.00
  34   1    -0.00  -0.00  -0.00     0.02   0.00   0.00     0.01   0.00   0.00
  35   1    -0.00  -0.00  -0.00     0.00   0.02   0.00     0.00   0.01   0.00
  36   1     0.00   0.00   0.00     0.00   0.01   0.00     0.00   0.00   0.00
  37  29     0.00  -0.00  -0.00    -0.00   0.00   0.00     0.00  -0.00  -0.00
  38   6    -0.00   0.03   0.01     0.00  -0.05  -0.01    -0.01   0.16   0.03
  39   6    -0.04   0.00   0.00     0.07  -0.00  -0.00    -0.21   0.02   0.00
  40   6    -0.00  -0.00  -0.00     0.00   0.00   0.00    -0.00  -0.01  -0.00
  41   6    -0.00   0.00   0.00     0.00  -0.00  -0.00    -0.00   0.00   0.00
  42   6     0.00  -0.00  -0.00    -0.00   0.00   0.00    -0.00   0.00   0.00
  43   6     0.02   0.00  -0.00    -0.02  -0.00   0.00    -0.02  -0.00   0.00
  44   6     0.00   0.01   0.00    -0.00  -0.02  -0.00    -0.00  -0.01  -0.00
  45   6    -0.00   0.00   0.00     0.00  -0.00  -0.00     0.00  -0.00  -0.00
  46   7    -0.00  -0.00  -0.00     0.00   0.00   0.00     0.00   0.00   0.00
  47   6     0.00   0.00   0.00    -0.00  -0.00  -0.00    -0.00  -0.00  -0.00
  48   6     0.00   0.00   0.00    -0.00  -0.00  -0.00    -0.00  -0.00  -0.00
  49   6    -0.00   0.00   0.00     0.00  -0.00  -0.00     0.00  -0.01  -0.00
  50   6    -0.00   0.00   0.00     0.00  -0.00  -0.00     0.01  -0.00  -0.00
  51   6    -0.00  -0.00  -0.00     0.00   0.00   0.00     0.00   0.00   0.00
  52   7     0.00  -0.00  -0.00    -0.00   0.00   0.00    -0.00   0.00   0.00
  53   6    -0.00   0.00  -0.00     0.00  -0.00  -0.00     0.00   0.00   0.00
  54   6    -0.00   0.00   0.00     0.00  -0.00  -0.00     0.00  -0.00  -0.00
  55   6    -0.00  -0.00  -0.00     0.00   0.00   0.00     0.01   0.00   0.00
  56   6     0.00  -0.00  -0.00     0.00   0.00   0.00     0.00   0.01   0.00
  57   6     0.00  -0.00  -0.00    -0.00   0.00   0.00    -0.00   0.00  -0.00
  58   7     0.00   0.00   0.00    -0.00  -0.00  -0.00    -0.00  -0.00  -0.00
  59   6    -0.00   0.00   0.00     0.00  -0.00  -0.00    -0.00   0.00   0.00
  60   6     0.00   0.00   0.00    -0.00  -0.00  -0.00     0.01   0.00   0.00
  61   7     0.00  -0.00  -0.00    -0.00   0.00   0.00     0.00  -0.00  -0.00
  62   1     0.01  -0.11  -0.02    -0.02   0.16   0.02     0.06  -0.52  -0.08
  63   1     0.14  -0.02  -0.00    -0.22   0.02   0.00     0.69  -0.07  -0.01
  64   1    -0.05  -0.01  -0.00     0.07   0.01   0.00     0.06   0.01   0.00
  65   1    -0.00  -0.04  -0.01     0.00   0.05   0.01     0.00   0.04   0.01
  66   1     0.00  -0.00  -0.00    -0.00   0.00   0.00    -0.00   0.00   0.00
  67   1     0.00  -0.00  -0.00    -0.00   0.01   0.00    -0.00   0.02   0.00
  68   1     0.00  -0.00  -0.00    -0.01   0.00   0.00    -0.02   0.00   0.00
  69   1     0.00  -0.00  -0.00    -0.00   0.00   0.00    -0.00  -0.00  -0.00
  70   1     0.00   0.00   0.00    -0.01  -0.00  -0.00    -0.02  -0.00  -0.00
  71   1     0.00   0.00   0.00    -0.00  -0.00  -0.00    -0.00  -0.03  -0.00
  72   1    -0.00  -0.00  -0.00     0.00   0.00   0.00    -0.00  -0.01  -0.00
  73   6     0.00  -0.00   0.00    -0.00  -0.00   0.00    -0.00  -0.00  -0.00
  74   6    -0.00   0.00  -0.00     0.00   0.00  -0.00     0.00   0.00  -0.00
  75   6     0.00   0.00  -0.00    -0.00   0.00  -0.00    -0.00   0.00  -0.00
  76   6    -0.00  -0.00   0.00     0.00  -0.00   0.00     0.00  -0.00   0.00
  77   6     0.00  -0.00   0.00     0.00  -0.00   0.00    -0.00   0.00  -0.00
  78   6    -0.00   0.00  -0.00    -0.00   0.00   0.00     0.00  -0.00  -0.00
  79   6     0.00  -0.00  -0.00     0.00   0.00   0.00    -0.00  -0.00  -0.00
  80   6     0.00   0.00   0.00    -0.00  -0.00  -0.00     0.00   0.00   0.00
  81  29     0.00   0.00  -0.00     0.00   0.00  -0.00    -0.00  -0.00   0.00
  82   6    -0.00  -0.05   0.01    -0.01  -0.11   0.01    -0.00  -0.02   0.00
  83   6    -0.08  -0.01   0.00    -0.15  -0.01   0.00    -0.03  -0.00   0.00
  84   6    -0.00   0.00  -0.00    -0.00   0.01  -0.00    -0.00   0.00  -0.00
  85   6     0.00  -0.00   0.00    -0.00  -0.00   0.00    -0.00  -0.00   0.00
  86   6     0.00   0.00  -0.00    -0.00  -0.00   0.00    -0.00  -0.00   0.00
  87   6     0.15  -0.01   0.00    -0.06   0.01  -0.00    -0.03   0.00  -0.00
  88   6     0.00  -0.11   0.01    -0.00   0.04  -0.00    -0.00   0.02  -0.00
  89   6    -0.00  -0.00   0.00     0.00   0.00  -0.00     0.00   0.00  -0.00
  90   7    -0.00   0.00  -0.00     0.00  -0.00   0.00     0.00  -0.00   0.00
  91   6     0.00  -0.00   0.00    -0.00   0.00  -0.00     0.00   0.00  -0.00
  92   6     0.00  -0.00   0.00    -0.00   0.00  -0.00    -0.00   0.00  -0.00
  93   6    -0.00  -0.07   0.01     0.00   0.01  -0.00     0.00   0.05  -0.01
  94   6    -0.10  -0.01  -0.00     0.01   0.00   0.00     0.07   0.01   0.00
  95   6    -0.00   0.00  -0.00     0.00  -0.00   0.00     0.00  -0.00   0.00
  96   7     0.00   0.00  -0.00    -0.00  -0.00   0.00    -0.00  -0.00   0.00
  97   6    -0.00  -0.00   0.00     0.00  -0.00   0.00     0.00   0.00  -0.00
  98   6    -0.00  -0.00   0.00     0.00   0.00  -0.00     0.00   0.00  -0.00
  99   6    -0.01   0.00  -0.00     0.03  -0.00   0.00     0.02  -0.00   0.00
 100   6    -0.00   0.01  -0.00     0.00  -0.03   0.00     0.00  -0.02   0.00
 101   6     0.00   0.00  -0.00    -0.00  -0.00   0.00    -0.00  -0.00   0.00
 102   7     0.00  -0.00   0.00    -0.00   0.00  -0.00    -0.00   0.00  -0.00
 103   6    -0.00  -0.00   0.00    -0.00  -0.00   0.00    -0.00  -0.00   0.00
 104   6     0.00  -0.00   0.00     0.00  -0.00   0.00     0.00  -0.00   0.00
 105   7     0.00   0.00  -0.00     0.00   0.00  -0.00     0.00   0.00  -0.00
 106   1     0.02   0.17  -0.02     0.04   0.34  -0.04     0.01   0.08  -0.01
 107   1     0.25   0.03  -0.01     0.50   0.05  -0.01     0.11   0.01  -0.00
 108   1    -0.47   0.06  -0.01     0.20  -0.02   0.00     0.09  -0.01   0.00
 109   1    -0.03   0.33  -0.04     0.01  -0.14   0.02     0.01  -0.07   0.01
 110   1     0.00   0.01  -0.00    -0.00  -0.00   0.00     0.00  -0.00   0.00
 111   1     0.02   0.22  -0.02    -0.00  -0.04   0.00    -0.02  -0.16   0.02
 112   1     0.32   0.03  -0.00    -0.04  -0.00   0.00    -0.24  -0.03   0.00
 113   1     0.05  -0.01   0.00    -0.11   0.01  -0.00    -0.08   0.01  -0.00
 114   1     0.00  -0.03   0.00    -0.01   0.09  -0.01    -0.01   0.05  -0.00
 115   1    -0.00   0.00  -0.00    -0.00   0.01  -0.00    -0.00   0.00  -0.00
