115
 energy: -208.703228159273 gnorm: 0.000590956866 xtb: 6.4.1 (bd6e46d)
Cu       14.47044233895754   -0.00195116297332   -0.00653009552877
C        16.99236489414404   -3.43146860252293    0.01499528272180
C        17.94646518420805   -2.47043328070216    0.02019554791376
C        17.25957100592225   -1.21070162276337    0.00866494861201
C        17.90859808261303    0.03287747305452    0.00034351615732
C        17.23484413345179    1.26308258365709   -0.00954373519300
C        17.89613027032654    2.53640386063949   -0.01799042253745
C        16.92274356992735    3.47795241814027   -0.01698821042316
C        15.66998150915719    2.77780284683847   -0.00822355557474
N        15.89351238961774    1.43542551501141   -0.00569961314542
C        14.43458764035841    3.40031094993421    0.00135054849861
C        13.21314501782612    2.75063186792092    0.00817294207912
C        11.94136061413583    3.42109782930989    0.01990844823341
C        10.99282094930576    2.45687773869435    0.01619360819958
C        11.68396397239984    1.19606358449712    0.00205521520239
N        13.02435426729981    1.40677615990438   -0.00041267549846
C        11.05496015445874   -0.03657414373012   -0.01272516580122
C        11.70873300061870   -1.25629327221331   -0.02563362593722
C        11.04329162322662   -2.53082873079087   -0.04368715164985
C        12.01115268470887   -3.47566397220060   -0.04495548716329
C        13.26902952951252   -2.77960039358100   -0.02738784022791
N        13.05307580250304   -1.43983624526603   -0.01826895424229
C        14.50335501934363   -3.40433844703148   -0.01559153895509
C        15.72575978421893   -2.75682021544947    0.00041332982740
N        15.92206022015471   -1.41018607391507   -0.00087955026220
H        17.11556363818674   -4.49713799652273    0.02035377082541
H        19.01339684742143   -2.58143259299180    0.03040201621388
H        18.96065166997459    2.66889438322566   -0.02308105916406
H        17.02433064573657    4.54595087827315   -0.02158882172841
H        14.42396171620422    4.48079012742347    0.00361944259307
H        11.81539080870983    4.48665706212341    0.02951593201461
H         9.92530917203418    2.56525156285108    0.02220963894506
H         9.97473244634262   -0.04746032997934   -0.01461993036737
H         9.97823370628002   -2.66079757412328   -0.05392414158973
H        11.90686083729677   -4.54354928950703   -0.05643229288218
H        14.51474984226717   -4.48480396617385   -0.01893396012571
Cu       41.38057984372539    0.03153437830289   -0.00386490330582
C        38.87295168628842    3.42997717349989    0.52815926805633
C        37.91481067216903    2.48525256788537    0.37502051660545
C        38.59649099399997    1.23669503649985    0.18788623837801
C        37.94276031569923    0.00895456140477    0.00768107277674
C        38.61161169388855   -1.20960519821111   -0.17925878260046
C        37.94507942586983   -2.46635310162458   -0.36637440948371
C        38.91433890249218   -3.39738970294773   -0.53269094025022
C        40.16968213153122   -2.70795191243295   -0.44478321611322
N        39.95197748398662   -1.38242385244683   -0.22674209407884
C        41.40201742707441   -3.32278936409158   -0.57476911778074
C        42.62598786794241   -2.68366937531850   -0.48807321590134
C        43.89482077783175   -3.34563103937077   -0.62542798569275
C        44.84737380176979   -2.39893655073068   -0.46438566289138
C        44.16167542393958   -1.15715397682182   -0.22993637437956
N        42.82046801626292   -1.36126006477092   -0.25357728745322
C        44.79582295041785    0.05266327306270   -0.00784869763069
C        44.14712610473568    1.25508497308987    0.21254171236242
C        44.81789098304494    2.50611101291277    0.44117698562483
C        43.85409731139301    3.44209944623033    0.59772498284424
C        42.59332015698345    2.76404810020643    0.46537066845536
N        42.80360769941000    1.44298511813700    0.23674099831437
C        41.36180369804668    3.38814451410149    0.55320580559910
C        40.13671078444776    2.75669471044021    0.43396658917232
N        39.93487960340258    1.42740004555308    0.22403347668542
H        38.75421316736852    4.48364226359480    0.69021611780362
H        36.84834189430475    2.60035613028608    0.38564532862816
H        36.88008897063196   -2.59568620275148   -0.36805657833811
H        38.80824311344833   -4.45191178226888   -0.69894339216928
H        41.40803699375982   -4.38770773541781   -0.75762696210970
H        44.01620886976887   -4.39417037395114   -0.81801040507198
H        45.91429342832505   -2.50767543671090   -0.49725916322710
H        45.87608617851672    0.05918012130699   -0.00788552341920
H        45.88340894196242    2.62789416822359    0.47289981769644
H        43.96292730943805    4.49302503647292    0.78486696555366
H        41.35506474633906    4.45413973234308    0.72967294292091
C        19.30604942452655    0.04531861141599    0.00043946450877
C        20.52425287389184    0.05290896934918   -0.00205574976645
C        21.86592779372358    0.05559584691606   -0.00448762974914
C        23.08429398910277    0.05378913289201   -0.00805894774795
C        32.76689027142764   -0.00469601526008    0.00303786314588
C        33.98518546705144   -0.00626232583110    0.01102130912009
C        35.32696657753606   -0.00311886893345    0.01059596772958
C        36.54514222870170   -0.00022868782489    0.01233205279766
Cu       27.92555092833463    0.02301517945371   -0.01330139228399
C        25.41523894697225   -3.39564534448778    0.34872415624192
C        24.45578255789246   -2.44403827075869    0.25756960985320
C        25.13599627225904   -1.18838691433890    0.11961546734701
C        24.48112097223174    0.04577625305074   -0.01118076248513
C        25.15166025186537    1.27077651008159   -0.14675827171022
C        24.48776372212626    2.53447378085001   -0.29037100720504
C        25.45954540458337    3.47269553993820   -0.38964490626652
C        26.71309238836927    2.77958541328799   -0.30549416467262
N        26.49213588240893    1.44467981401665   -0.16076966094844
C        27.94743722792616    3.40143039885582   -0.35886026735580
C        29.17348102101437    2.76614433265759   -0.27926964304478
C        30.43599102178181    3.44604359321892   -0.33275566608891
C        31.39537428746975    2.49556799404203   -0.23012279463268
C        30.71505412421344    1.23758245626864   -0.11535328216578
N        29.37699606586868    1.42732991169906   -0.14522667189999
C        31.36992174179134    0.00181787039391   -0.00161801504758
C        30.69963566885593   -1.22621684976645    0.10411148741755
C        31.36362348575101   -2.49301152049527    0.21759230522737
C        30.39187573631127   -3.43224429591111    0.30715138722993
C        29.13819350380096   -2.73653754994513    0.24851909955082
N        29.35911082234863   -1.39969268521304    0.12310051939946
C        27.90378420331200   -3.35668330731079    0.31853398990996
C        26.67768072918040   -2.71858720872369    0.26702702595012
N        26.47406389120512   -1.38006672223882    0.13009926560893
H        25.29789989627761   -4.45608276285597    0.46101490062580
H        23.38947188257903   -2.55902832206350    0.27945925809907
H        23.42298181741375    2.66331641024840   -0.31097176227820
H        25.35609778841718    4.53387444606517   -0.50841131898628
H        27.95458211256518    4.47628465988307   -0.47114663222682
H        30.55341584192461    4.50747840739838   -0.43520329561333
H        32.46169290862130    2.61261325199202   -0.23156916369007
H        32.42843295317106   -2.62308151053363    0.22648873146236
H        30.49542363227049   -4.49562876247379    0.40441077951129
H        27.89667286314241   -4.43223514399182    0.42399358820223
