115
 energy: -207.727007506346 gnorm: 0.632212838470 xtb: 6.4.1 (bd6e46d)
Cu       12.97627000000000    0.03373500000000   -0.00892400000000
C        15.30526100000000   -3.11305800000000    1.31376500000000
C        16.22136800000000   -2.16885000000000    1.26348300000000
C        15.81018900000000   -1.11494600000000    0.34219100000000
C        16.42905900000000    0.00940000000000   -0.00421900000000
C        15.72501700000000    1.22934800000000   -0.36832400000000
C        16.05312700000000    2.18940300000000   -1.21579800000000
C        15.01834800000000    3.20568800000000   -1.23269600000000
C        14.08208000000000    2.82922600000000   -0.38580400000000
N        14.48407000000000    1.59621500000000    0.17801300000000
C        12.82100500000000    3.47422500000000   -0.00665200000000
C        11.72578800000000    2.83944300000000    0.34410800000000
C        10.65216200000000    3.15739900000000    1.31313600000000
C         9.81460000000000    2.16064500000000    1.23597000000000
C        10.25289700000000    1.15696200000000    0.25551800000000
N        11.35783500000000    1.59581500000000   -0.22877400000000
C         9.64206200000000   -0.09630900000000   -0.15803000000000
C        10.30622300000000   -1.20081500000000   -0.41245500000000
C         9.93237400000000   -2.26375700000000   -1.36998200000000
C        10.88112100000000   -3.15751300000000   -1.28096300000000
C        11.86684500000000   -2.72006300000000   -0.29808500000000
N        11.51379900000000   -1.57425800000000    0.19871200000000
C        13.09773300000000   -3.37613300000000    0.14763600000000
C        14.22077500000000   -2.73027200000000    0.41475700000000
N        14.54937500000000   -1.48283100000000   -0.18364700000000
H        15.36552300000000   -4.02283900000000    1.93131100000000
H        17.13769500000000   -2.20880000000000    1.84153100000000
H        16.98049300000000    2.20619800000000   -1.81694100000000
H        15.03524700000000    4.11037700000000   -1.84531700000000
H        12.77328200000000    4.56902800000000   -0.01043000000000
H        10.59934100000000    4.03612400000000    1.93812800000000
H         8.90296900000000    2.12497500000000    1.85329400000000
H         8.54381200000000   -0.09339800000000   -0.25730100000000
H         9.06351800000000   -2.31622200000000   -2.01893200000000
H        10.87827500000000   -4.07382100000000   -1.87972200000000
H        13.06225100000000   -4.47193500000000    0.25956100000000
Cu       42.86170100000000   -0.01364100000000   -0.01335700000000
C        40.53271000000000    2.83315100000000    1.87014800000000
C        39.61660200000000    1.91466200000000    1.64557400000000
C        40.02778200000000    1.04996500000000    0.54476000000000
C        39.40891100000000    0.00940000000000   -0.00421900000000
C        40.11295400000000   -1.12182500000000   -0.58832200000000
C        39.78484300000000   -1.90799700000000   -1.59918900000000
C        40.81962300000001   -2.90350600000000   -1.80432900000000
C        41.75589100000000   -2.69069000000000   -0.90229900000000
N        41.35390100000000   -1.58367800000000   -0.11952700000000
C        43.01696500000000   -3.39483100000000   -0.64938500000000
C        44.11218300000000   -2.83613800000000   -0.18695200000000
C        45.18580800000000   -3.32834300000000    0.70627000000000
C        46.02337100000000   -2.33457600000000    0.81535500000000
C        45.58507300000000   -1.16642800000000    0.03812000000000
N        44.48013500000000   -1.50782000000000   -0.51917900000000
C        46.19590800000000    0.14180800000000   -0.13575000000000
C        45.53174800000001    1.27434100000000   -0.18085600000000
C        45.90559600000000    2.49646700000000   -0.92457100000000
C        44.95684900000000    3.35819400000000   -0.67129300000000
C        43.97112500000000    2.74599900000000    0.21337100000000
N        44.32417100000000    1.52792100000000    0.48898100000000
C        42.74023700000000    3.30799400000000    0.77306500000000
C        41.61719600000000    2.62378900000000    0.91573300000000
N        41.28859600000000    1.50901400000000    0.09629800000000
H        40.47244800000000    3.61257600000000    2.64575200000000
H        38.70027500000000    1.84668100000000    2.22100000000000
H        38.85747800000001   -1.81298000000000   -2.19301300000000
H        40.80272400000000   -3.67884100000000   -2.57414900000000
H        43.06468800000000   -4.46992900000000   -0.85619900000000
H        45.23863000000001   -4.30776000000000    1.15739700000000
H        46.93500100000000   -2.41404800000000    1.42858000000000
H        47.29415900000000    0.15736300000000   -0.23383700000000
H        46.77445200000000    2.66841000000000   -1.55252400000000
H        44.95969500000000    4.36967500000000   -1.08967000000000
H        42.77572000000001    4.36401000000000    1.08633400000000
C        19.32376300000000    0.00736400000000   -0.00533100000000
C        20.53174000000000    0.01481900000000   -0.00363600000000
C        21.95050700000000    0.01551600000000    0.00150100000000
C        23.16602400000000    0.00736400000000   -0.00533100000000
C        32.67391300000000    0.00736400000000   -0.00533100000000
C        33.88189000000000    0.01481900000000   -0.00363600000000
C        35.30065800000000    0.01551600000000    0.00150100000000
C        36.51617400000000    0.00736400000000   -0.00533100000000
Cu       27.95460500000000    0.02750000000000    0.00680800000000
C        25.67479400000000   -3.23394800000000   -0.90285800000000
C        24.71858500000000   -2.33459700000000   -1.00488500000000
C        25.11095900000000   -1.17229200000000   -0.20236900000000
C        24.47584300000000   -0.02102000000000    0.00989700000000
C        25.16130000000000    1.25358000000000    0.23612700000000
C        24.82601000000000    2.33218000000000    0.94036700000000
C        25.85055100000000    3.35149700000000    0.84978600000000
C        26.80114800000000    2.85457200000000    0.07642100000000
N        26.42415400000001    1.53796700000000   -0.33972200000000
C        28.04828800000000    3.46627300000000   -0.34044500000000
C        29.14983900000000    2.79901600000000   -0.67221600000000
C        30.14338600000000    3.05100100000000   -1.70638600000000
C        31.03726900000000    2.09014200000000   -1.60490200000000
C        30.65757100000000    1.17825800000000   -0.50092500000000
N        29.56265600000000    1.62757700000000    0.00644200000000
C        31.31477800000000   -0.02102000000000    0.00989700000000
C        30.69136600000000   -1.09020200000000    0.47141400000000
C        31.07007900000000   -2.02231700000000    1.54689000000000
C        30.12941000000000   -2.93646300000000    1.63275600000000
C        29.12110900000000   -2.64068400000000    0.63532900000000
N        29.45888400000000   -1.58730700000000   -0.01396600000000
C        27.86871600000000   -3.34769200000000    0.30413500000000
C        26.75483900000000   -2.75099500000000   -0.04320600000000
N        26.37272700000000   -1.46823800000000    0.37447700000000
H        25.67513900000000   -4.22502100000000   -1.39409300000000
H        23.81005100000000   -2.45629100000000   -1.58603300000000
H        23.90115700000000    2.45053100000000    1.51729300000000
H        25.87784600000000    4.34066100000000    1.30643600000000
H        28.13422800000000    4.56365100000000   -0.40246800000000
H        30.17605800000000    3.85721700000000   -2.43321000000000
H        31.93033000000000    1.97717400000000   -2.23867600000000
H        31.98482900000000   -1.94791100000000    2.15706000000000
H        30.14845700000000   -3.75007100000000    2.34102300000000
H        27.90720000000000   -4.44765100000000    0.36317200000000
115
 energy: -207.925729795992 gnorm: 0.333205808739 xtb: 6.4.1 (bd6e46d)
Cu       12.99091359433183    0.03190980752258   -0.00639185340173
C        15.30828126236556   -3.12454897708272    1.30068793477389
C        16.23770805155569   -2.16725837753826    1.25954656773618
C        15.79851067917762   -1.11344642919004    0.35404392336643
C        16.40034919603732    0.03333189538691   -0.01089119807950
C        15.70641021741327    1.22858957049074   -0.35860010157768
C        16.06783410320755    2.22187657973172   -1.23425161316357
C        15.05268981922121    3.20701268710687   -1.24835774165880
C        14.07550131990609    2.79908597981066   -0.38082756267793
N        14.45077681626495    1.57029916250458    0.17818551386597
C        12.84352493057852    3.46888384891058   -0.00531941056357
C        11.71606769280251    2.82056998335960    0.34462208225729
C        10.64986305210963    3.16738935445023    1.29030670614133
C         9.78549580146694    2.15205510884429    1.24096842719475
C        10.24916106131597    1.15779260976033    0.27609815552003
N        11.40004447031325    1.56493116469472   -0.20072100214039
C         9.62914391335974   -0.07228402442665   -0.15150935085026
C        10.30879467651185   -1.20307585883545   -0.41799298558298
C         9.92074075346982   -2.26675516611927   -1.35040296048772
C        10.88916066935803   -3.18179255393952   -1.27821638949034
C        11.87799423418939   -2.72787118316603   -0.31024225100978
N        11.53367544898925   -1.54384934152555    0.16090833721831
C        13.07888101404922   -3.38328028363418    0.13938964547560
C        14.22799431267332   -2.71598146791053    0.41548159306272
N        14.53880772973428   -1.47446281129872   -0.14458420504148
H        15.35466688106057   -4.01732252991622    1.92016024416092
H        17.14505778256618   -2.19550819815042    1.83721925599869
H        16.97855258048020    2.21825052296731   -1.82079204297262
H        15.04595777110818    4.10645275408823   -1.84740631638355
H        12.79683773941540    4.56144636557017    0.00039269931492
H        10.60889439256739    4.03481289628933    1.92815336903727
H         8.89493990410364    2.11263023800089    1.85266768558990
H         8.54511082567502   -0.08038809481418   -0.26703004997094
H         9.06478892502182   -2.30396046182493   -2.00772213203858
H        10.89312187713337   -4.08085025999315   -1.87525961931252
H        13.05389616605093   -4.46690168112129    0.26357960213576
Cu       42.84705207934345   -0.01233701157077   -0.01049133212453
C        40.52973141563608    2.84678773747894    1.85950722144530
C        39.60013578471477    1.91393847451016    1.64134864233683
C        40.03897871918659    1.04655381533080    0.55594921175184
C        39.43671294649285   -0.01308150589327   -0.01467902685881
C        40.13137766245158   -1.12275654649231   -0.57874536570981
C        39.77013496420897   -1.93644305077364   -1.62332890298236
C        40.78530602226610   -2.90198073664408   -1.81991169320463
C        41.76241152599347   -2.66206271029796   -0.89181704013724
N        41.38701007612708   -1.55806647803734   -0.11472483611670
C        42.99441359752523   -3.38981974803671   -0.64711354422180
C        44.12189917821127   -2.81765746719948   -0.18293382167169
C        45.18808329148489   -3.33388639996551    0.68202545933861
C        46.05253641702501   -2.32708443180745    0.82178185395163
C        45.58883210074270   -1.17105026363668    0.05817251294002
N        44.43789538944414   -1.48272912166908   -0.48585188661137
C        46.20882066129349    0.11694502086600   -0.13375795495054
C        45.52913148559866    1.27760353556414   -0.18588686808674
C        45.91716770339286    2.49576770225418   -0.90483215419764
C        44.94883252205734    3.38159242207095   -0.66402261580673
C        43.95999364630500    2.75595265420200    0.20291934631381
N        44.30437521531039    1.50502980572371    0.44620457233391
C        42.75910146237402    3.31647552604050    0.76623803603885
C        41.60998883399577    2.60939486439306    0.91392282338529
N        41.29901241764240    1.49347772203194    0.13313208561346
H        40.48332713194098    3.60920695024239    2.63377442126247
H        38.69287597002341    1.83448633324771    2.21435143645599
H        38.85939409496326   -1.82413893060206   -2.19903425828444
H        40.79203709288377   -3.67461817387192   -2.57548336638769
H        43.04114434485964   -4.46447547352982   -0.84421588751731
H        45.22907291315892   -4.30461069029441    1.14784452289715
H        46.94304203040086   -2.40179801057956    1.43025136764764
H        47.29285901617977    0.14637514400528   -0.24573852580593
H        46.77316102560276    2.65427910512900   -1.54379103284218
H        44.94484070038734    4.37576926515298   -1.08397495667400
H        42.78400293839645    4.35832324887551    1.08916319285712
C        19.30919511713610    0.00785155425664   -0.00200914077134
C        20.53746420630430    0.01497816273389   -0.00491224089884
C        21.91546412657566    0.01722202133089    0.00153212267439
C        23.13961688876998    0.01963941081528   -0.00764716777993
C        32.69672818135606    0.01864840892571    0.00004212233234
C        33.91736423013138    0.01621531563703   -0.00226473597521
C        35.29945720832702    0.01447190751854    0.00135534084195
C        36.52541673246291    0.00626540148014   -0.00390871875715
Cu       27.94374492824870    0.03040737974884    0.00191519497127
C        25.67482189064621   -3.25716149815009   -0.89170747009833
C        24.71419901147617   -2.33405585072333   -0.99495642932686
C        25.14533463531625   -1.18778067397817   -0.20738382374629
C        24.49437716340413    0.00292356609579    0.00761623910601
C        25.19808282211496    1.26015781314374    0.23423724574548
C        24.81591852320985    2.36215026092965    0.95237709857697
C        25.82286921705900    3.35329138493540    0.85756174214900
C        26.81322968155657    2.82957963005451    0.07458653801334
N        26.46075038497176    1.51781306912405   -0.31887288929510
C        28.03132420929569    3.46245555694428   -0.34353201324764
C        29.15822470071324    2.78440218195795   -0.67262689214976
C        30.15437575153904    3.06067732369633   -1.68817158198338
C        31.06097798822476    2.07633983920761   -1.60410652013408
C        30.65507335103650    1.17595883186381   -0.52194633710641
N        29.51842071795511    1.59678825934938   -0.02154102285734
C        31.32244312013617   -0.00272975955191   -0.00010216605080
C        30.67346045619552   -1.10281253773233    0.48043617902381
C        31.08319628320931   -2.02279510242027    1.53281261360275
C        30.12432412495267   -2.95601115913525    1.63088835371936
C        29.10880822052009   -2.64564146427872    0.64752139134333
N        29.43296256484346   -1.54030297948179    0.00879166617488
C        27.88988864915405   -3.35487931645820    0.31452056398241
C        26.74321320856645   -2.73841944196628   -0.05137054496575
N        26.39324996207933   -1.44898647559006    0.33132657613868
H        25.68196464452120   -4.22305321658205   -1.38891814669530
H        23.81141828878444   -2.44186028115437   -1.57885466912844
H        23.89957718915072    2.45676770158874    1.51881261852360
H        25.86196622601604    4.33371015211653    1.30958295411413
H        28.10908399858524    4.55429920591072   -0.41209109626431
H        30.16694781571684    3.85562301593651   -2.42102464013696
H        31.93323536331894    1.96734003951331   -2.23475881914768
H        31.97842390679281   -1.94080632299856    2.14477015881712
H        30.13804785131452   -3.75922788639219    2.34125885664982
H        27.91628241510543   -4.44462083344060    0.35862889719276
115
 energy: -208.038350238812 gnorm: 0.125015980018 xtb: 6.4.1 (bd6e46d)
Cu       13.00135993890642    0.02994274271374   -0.00443957505873
C        15.30936238183177   -3.13154995224471    1.28366438372648
C        16.24950921105509   -2.16339095899275    1.25434160527386
C        15.77782784085964   -1.10792033799035    0.37406915085016
C        16.35577127062604    0.06011772387743   -0.01999327850531
C        15.68223385436405    1.22203706399716   -0.35541219282606
C        16.07511500673793    2.25300064417899   -1.24327169389587
C        15.08734993817526    3.20426013052664   -1.25018304075734
C        14.06774373992079    2.76711737926471   -0.37339330479662
N        14.41491914614305    1.54445692601459    0.15712688813473
C        12.86904226201524    3.45510329993955   -0.00334357808897
C        11.71855152074061    2.79034315586231    0.35520745921139
C        10.65501518210414    3.16894925511922    1.26055849627535
C         9.76220409123190    2.14687500557869    1.23475435571616
C        10.24812008927752    1.15521285788306    0.30082458773395
N        11.44864484889629    1.52812022296960   -0.15820458249601
C         9.62403653940972   -0.05012290303914   -0.14442091566281
C        10.31988034621874   -1.19691732948531   -0.43446264805305
C         9.91597037082142   -2.26627418488644   -1.32623975732133
C        10.89299720657702   -3.20104876070474   -1.26595906753214
C        11.89185341786004   -2.72952963932585   -0.32587325677441
N        11.55938197183463   -1.50120910267896    0.10849778715941
C        13.06168998242150   -3.38315492160258    0.13003786303689
C        14.22913348448217   -2.69537044477327    0.42043987566842
N        14.52034625653272   -1.46352146209976   -0.09587491715053
H        15.34334297434941   -4.01333564060653    1.90124817629127
H        17.15453304740187   -2.17938336012066    1.82697106750710
H        16.97642549794720    2.22765323533471   -1.81829514961923
H        15.05140480007455    4.10073974631250   -1.84157059127899
H        12.82137922940841    4.54450444093340    0.00425680058202
H        10.61927243893884    4.03004564278248    1.90779069668310
H         8.88626888194892    2.09987639608227    1.84439832163825
H         8.54984319071014   -0.07108737683796   -0.26992870791881
H         9.06714775023719   -2.29159201933248   -1.98834976739947
H        10.90806292113714   -4.08910936138482   -1.86318840805873
H        13.05016174851298   -4.45785963096761    0.26290911282548
Cu       42.83663785143641   -0.01088502519953   -0.00812452031073
C        40.52873609007408    2.85667014355604    1.84419746229289
C        39.58806975417337    1.91129172849783    1.63534287713123
C        40.05898721499135    1.03763298159658    0.57435281270821
C        39.47964554349719   -0.03780365045675   -0.02820663932804
C        40.15509655366650   -1.11680744363794   -0.57442416565588
C        39.76267586326890   -1.96542776092069   -1.63789570175477
C        40.75059342154429   -2.89898778777277   -1.82112116783414
C        41.77006300948171   -2.63198912417384   -0.87853949072914
N        41.42253618719016   -1.52839159219794   -0.13083795679492
C        42.96878797119557   -3.37655129018125   -0.64260418553486
C        44.11938725007015   -2.78982446181829   -0.16686788605067
C        45.18289945705919   -3.32983473145810    0.65259312261351
C        46.07596149682469   -2.32090311831824    0.81646730875480
C        45.58994667211962   -1.17307296576369    0.08288777339009
N        44.38923811623008   -1.45452098431871   -0.43717072774276
C        46.21391055652038    0.09376010114634   -0.13082703195206
C        45.51793553942282    1.27462567963409   -0.20327370810100
C        45.92181361766468    2.49077229491456   -0.88133392700381
C        44.94504036794517    3.39832977409904   -0.64829821737829
C        43.94615201904691    2.76054349586425    0.18791961714449
N        44.27880817211011    1.47281164340951    0.38677101656143
C        42.77627047588024    3.31794528556423    0.75687042221626
C        41.60879384515950    2.58788981233898    0.91509042367099
N        41.31711099291099    1.47353722504646    0.17891311953354
H        40.49472914488860    3.60872705984997    2.61447809923746
H        38.68327639864501    1.82071380328769    2.20133354494943
H        38.86145085651698   -1.83394113191322   -2.19842257281525
H        40.78656098943173   -3.67009615263628   -2.56866033038477
H        43.01658657224653   -4.44844838205829   -0.83738264438491
H        45.21868602712178   -4.29611469773615    1.12875472960727
H        46.95174841210311   -2.38772726399611    1.42446528863699
H        47.28812385347869    0.13776785057201   -0.25012227141962
H        46.77074797295839    2.63851507180554   -1.52711411676409
H        44.92988911544641    4.38167528292583   -1.07059622706524
H        42.78757209629455    4.34954235675105    1.08644491682668
C        19.30686658986873    0.00929189907691    0.00031193769099
C        20.55081741488195    0.01495420483619   -0.00611331731831
C        21.89101706223773    0.01717510187564    0.00284063759439
C        23.12637986278559    0.03167181330991   -0.00700179779291
C        32.71493872670128    0.02097861578026   -0.00107388153167
C        33.94645503948206    0.01547743324151    0.00054325108585
C        35.29168872644281    0.01394830581668    0.00026915991877
C        36.53093261411183    0.00493710826602   -0.00243555945404
Cu       27.93899960938116    0.03354573255008   -0.00289604038596
C        25.68020329034985   -3.27406163952410   -0.87736041019387
C        24.71553406692732   -2.32695098933411   -0.98216942324683
C        25.17988497842978   -1.19246686482176   -0.21881036029860
C        24.50722772430793    0.03061417043733    0.00628450452637
C        25.23693462722509    1.25997428711953    0.23277141222926
C        24.80983681072597    2.39032971872225    0.95521967117181
C        25.79449702522565    3.34987990868414    0.85473583977053
C        26.82745894831193    2.80100809205532    0.07386177338363
N        26.49712822474335    1.49418476353640   -0.27501134953381
C        28.01085072506274    3.45080359053674   -0.34643191829678
C        29.15631555022525    2.75646777939593   -0.68201872423340
C        30.16034161966375    3.06272853112140   -1.66515311584129
C        31.08083252606403    2.06327727867374   -1.59190015323505
C        30.65337422297295    1.16755795703619   -0.54511630640926
N        29.46811459600064    1.55708394715766   -0.06174254392615
C        31.33347499667416    0.01434121852529   -0.01134351214159
C        30.64983301132825   -1.10412430410743    0.49674563005336
C        31.08636206868950   -2.01678395564109    1.51503991291173
C        30.12059076989476   -2.97320673680422    1.61573408431452
C        29.09329799368314   -2.64508409954030    0.66171196391707
N        29.40627957290228   -1.47892588326529    0.04591316485429
C        27.91096690836577   -3.35097025032135    0.32499946974203
C        26.74200971941905   -2.72189784985221   -0.06876907653845
N        26.41489568933698   -1.42743897962659    0.27634635089353
H        25.68918254292290   -4.22302608649393   -1.37566274667936
H        23.81383683831555   -2.42364441556089   -1.56308513842068
H        23.89795251585041    2.45948366941804    1.51379276760902
H        25.84726653123142    4.32399411188509    1.30646991648222
H        28.08100186922652    4.53706304630421   -0.41511207891485
H        30.15722874865311    3.85374847923825   -2.39836701117113
H        31.93777301378905    1.95741068055980   -2.22362187030878
H        31.97017861851559   -1.93500197688333    2.12492778806795
H        30.12618916639021   -3.76935591252975    2.33177473201875
H        27.92044498435859   -4.43441600945123    0.36116312624750
115
 energy: -208.094434903464 gnorm: 0.078649815044 xtb: 6.4.1 (bd6e46d)
Cu       13.00587244724418    0.02757838641974   -0.00226850172752
C        15.31317198140705   -3.13393748442880    1.26705176572701
C        16.25419757667223   -2.15829423198185    1.24922467577112
C        15.75524080993317   -1.09471867665127    0.40281914578291
C        16.31823686942703    0.07415719132043   -0.01783687935110
C        15.65997067708257    1.21296972416849   -0.36737184937555
C        16.08185857470004    2.27068878000939   -1.24574192687912
C        15.10753562786510    3.20979457766170   -1.24492902381814
C        14.06218596073944    2.74662432633459   -0.37380073408860
N        14.38441561711471    1.51959075123904    0.12037612009406
C        12.88992006058388    3.43497712013073    0.00334386554890
C        11.73768511838548    2.75617391311503    0.37867307033453
C        10.65937975677796    3.16419041442940    1.23656109690766
C         9.74818249087201    2.14683798211121    1.22004389407882
C        10.25625614057119    1.14029437812124    0.33042004842579
N        11.49397451132752    1.48481867909005   -0.09822722150060
C         9.62814297290561   -0.03819559658481   -0.13964764913113
C        10.33680094722105   -1.18172455618868   -0.46029762628948
C         9.91474282421714   -2.26749681476788   -1.30704714941269
C        10.89055320609013   -3.21306761516038   -1.24884786346523
C        11.90826158253796   -2.71850439962403   -0.35166162295705
N        11.59279203856580   -1.45802170421366    0.04336678936565
C        13.05416671999119   -3.37719785274028    0.12355724276088
C        14.22235654358155   -2.68059716221363    0.43312236522680
N        14.49262264424137   -1.44024380572128   -0.04208124030885
H        15.33692322757420   -4.01997332648041    1.87288951977418
H        17.16875299786166   -2.16226442043703    1.80753479064263
H        16.98808119111174    2.23779697485806   -1.81241421360674
H        15.05657140185688    4.10854700295810   -1.82945101922547
H        12.84950289084865    4.52096217143187    0.00444722902648
H        10.62667539878843    4.03095647544454    1.87358304286293
H         8.86731789303701    2.09172767231757    1.82428769546706
H         8.55502193963069   -0.06044716370543   -0.26710369681019
H         9.06034241905510   -2.28444209710646   -1.95862968384043
H        10.91909159679236   -4.10706336776062   -1.83789306825611
H        13.04591314907649   -4.44952948255348    0.25733966179463
Cu       42.83198222243563   -0.00907765425990   -0.00545576669963
C        40.52486091651088    2.86191385415641    1.82842774846776
C        39.58293836182645    1.90740772229384    1.62924069922022
C        40.08085994010209    1.01930885748560    0.60002376731166
C        39.51583858357973   -0.05196835585040   -0.02880196623574
C        40.17657906583157   -1.10561109194645   -0.58433647702240
C        39.75548191392595   -1.98246302771258   -1.64344752595315
C        40.73014584330081   -2.90527039369820   -1.81684925757045
C        41.77533166762836   -2.61140199246993   -0.87505688998939
N        41.45238846515997   -1.49671876768171   -0.16237160344643
C        42.94766100399003   -3.35769218375280   -0.63217539833492
C        44.10014664240332   -2.76045102135197   -0.13736685724083
C        45.17851639820184   -3.32070473044362    0.62994852716014
C        46.09006693376773   -2.31824605558338    0.80191996962770
C        45.58189199201373   -1.16390052716410    0.11470498497616
N        44.34389363067869   -1.42306733268259   -0.37010151863551
C        46.20982308688561    0.08109916670333   -0.12826965563735
C        45.50094491274516    1.26449219340422   -0.23150304196173
C        45.92297624871788    2.48841980045582   -0.86230916480856
C        44.94750108385844    3.40700555380230   -0.62913329097802
C        43.92969774140598    2.75445805735485    0.16059029238916
N        44.24548658867261    1.44238174894462    0.31477897339694
C        42.78361584289368    3.31297428991096    0.74925920602898
C        41.61532086756750    2.57061317839436    0.92485957971140
N        41.34417728872827    1.44039768180860    0.22741115120374
H        40.50126610168504    3.62030825661653    2.58799613169271
H        38.66871718228739    1.80780274940828    2.17910762666935
H        38.84954307027973   -1.84518505104237   -2.19464543878585
H        40.78128677418978   -3.67990392247892   -2.55807310074953
H        42.98826190656483   -4.42503386169968   -0.83283822440453
H        45.21124672690713   -4.29065294734301    1.09503540534268
H        46.97074296734638   -2.37605674575134    1.40618050541128
H        47.28297891456810    0.12681972801236   -0.24898161509242
H        46.77747781857966    2.62598590373804   -1.49930730733061
H        44.91884388744454    4.39465017139753   -1.04234078986703
H        42.79145695492586    4.34220522910495    1.07893483891307
C        19.30417426136549    0.00985652886893    0.00117575867808
C        20.55318669193241    0.01605757490672   -0.00619561551944
C        21.88838680666251    0.02194483323453    0.00382935854842
C        23.12731175378486    0.04672189946795   -0.00378179064395
C        32.72451040448080    0.01987148669349   -0.00523484869685
C        33.96061892589874    0.01485970694144    0.00144896359005
C        35.29750999140024    0.01198831307170    0.00018891544338
C        36.54201761032861    0.00306602839825   -0.00167818064314
Cu       27.94380744210605    0.03747269241782   -0.00666608216433
C        25.68413249719881   -3.27862272553974   -0.86323010682307
C        24.71902806311266   -2.32010602053703   -0.96884609229383
C        25.20308712178147   -1.18003868030986   -0.24237126941295
C        24.51319968853465    0.05062364792671    0.00114270297342
C        25.26132593459067    1.25339282773584    0.24263302237153
C        24.80365941741144    2.40367727747745    0.95377554948503
C        25.77595790330482    3.35140439659321    0.84738838871714
C        26.83803995437309    2.77930796464953    0.08530305364604
N        26.52561734053512    1.46797809469104   -0.22098585134851
C        27.99462440592938    3.42866159813878   -0.35055690975968
C        29.14119900878924    2.72114636014234   -0.70182479692897
C        30.16396524861900    3.05783814152948   -1.64527435457074
C        31.09449702742275    2.05721097822782   -1.57647242713152
C        30.64714005701098    1.14574571084643   -0.57125153789146
N        29.42616163029630    1.50831933051235   -0.11359582249890
C        31.34416658232478    0.02352142893991   -0.01859357524843
C        30.63002617479480   -1.08877727941271    0.51731825780925