      -----------------------------------------------------------      
     |                   =====================                   |     
     |                           x T B                           |     
     |                   =====================                   |     
     |                         S. Grimme                         |     
     |          Mulliken Center for Theoretical Chemistry        |     
     |                    University of Bonn                     |     
      -----------------------------------------------------------      

   * xtb version 6.4.1 (bd6e46d) compiled by 'conda@4901f00b25ba' on 2021-06-10

   xtb is free software: you can redistribute it and/or modify it under
   the terms of the GNU Lesser General Public License as published by
   the Free Software Foundation, either version 3 of the License, or
   (at your option) any later version.
   
   xtb is distributed in the hope that it will be useful,
   but WITHOUT ANY WARRANTY; without even the implied warranty of
   MERCHANTABILITY or FITNESS FOR A PARTICULAR PURPOSE.  See the
   GNU Lesser General Public License for more details.
   
   Cite this work as:
   * C. Bannwarth, E. Caldeweyher, S. Ehlert, A. Hansen, P. Pracht,
     J. Seibert, S. Spicher, S. Grimme, WIREs Comput. Mol. Sci., 2020, 11,
     e01493. DOI: 10.1002/wcms.1493
   
   for GFN2-xTB:
   * C. Bannwarth, S. Ehlert and S. Grimme., J. Chem. Theory Comput., 2019,
     15, 1652-1671. DOI: 10.1021/acs.jctc.8b01176
   for GFN1-xTB:
   * S. Grimme, C. Bannwarth, P. Shushkov, J. Chem. Theory Comput., 2017,
     13, 1989-2009. DOI: 10.1021/acs.jctc.7b00118
   for GFN0-xTB:
   * P. Pracht, E. Caldeweyher, S. Ehlert, S. Grimme, ChemRxiv, 2019, preprint.
     DOI: 10.26434/chemrxiv.8326202.v1
   for GFN-FF:
   * S. Spicher and S. Grimme, Angew. Chem. Int. Ed., 2020, 59, 15665-15673.
     DOI: 10.1002/anie.202004239
   
   for DFT-D4:
   * E. Caldeweyher, C. Bannwarth and S. Grimme, J. Chem. Phys., 2017,
     147, 034112. DOI: 10.1063/1.4993215
   * E. Caldeweyher, S. Ehlert, A. Hansen, H. Neugebauer, S. Spicher,
     C. Bannwarth and S. Grimme, J. Chem. Phys., 2019, 150, 154122.
     DOI: 10.1063/1.5090222
   * E. Caldeweyher, J.-M. Mewes, S. Ehlert and S. Grimme, Phys. Chem. Chem. Phys.
     2020, 22, 8499-8512. DOI: 10.1039/D0CP00502A
   
   for sTDA-xTB:
   * S. Grimme and C. Bannwarth, J. Chem. Phys., 2016, 145, 054103.
     DOI: 10.1063/1.4959605
   
   in the mass-spec context:
   * V. Asgeirsson, C. Bauer and S. Grimme, Chem. Sci., 2017, 8, 4879.
     DOI: 10.1039/c7sc00601b
   * J. Koopman and S. Grimme, ACS Omega 2019, 4, 12, 15120-15133.
     DOI: 10.1021/acsomega.9b02011
   
   for metadynamics refer to:
   * S. Grimme, J. Chem. Theory Comput., 2019, 155, 2847-2862
     DOI: 10.1021/acs.jctc.9b00143
   
   for SPH calculations refer to:
   * S. Spicher and S. Grimme, J. Chem. Theory Comput., 2021, 17, 1701-1714
     DOI: 10.1021/acs.jctc.0c01306
   
   with help from (in alphabetical order)
   P. Atkinson, C. Bannwarth, F. Bohle, G. Brandenburg, E. Caldeweyher
   M. Checinski, S. Dohm, S. Ehlert, S. Ehrlich, I. Gerasimov, J. Koopman
   C. Lavigne, S. Lehtola, F. März, M. Müller, F. Musil, H. Neugebauer
   J. Pisarek, C. Plett, P. Pracht, J. Seibert, P. Shushkov, S. Spicher
   M. Stahn, M. Steiner, T. Strunk, J. Stückrath, T. Rose, and J. Unsleber
   
 * started run on 2021/11/19 at 17:47:19.279     

           -------------------------------------------------
          |                Calculation Setup                |
           -------------------------------------------------

          program call               : /home/jeff/miniconda3/bin/xtb input_structure_1.xyz --gfn 2 --ohess normal --parallel 1 --etemp 300 --chrg 0 --uhf 0 -I det_control.in
          hostname                   : jelfscompute1
          coordinate file            : input_structure_1.xyz
          omp threads                :                     1
          number of atoms            :                   248
          number of electrons        :                   794
          charge                     :                     0
          spin                       :                   0.0
          first test random number   :      0.11158818247666

   ID    Z sym.   atoms
    1    6 C      1-8, 10-14, 16-20, 22, 23, 38-45, 47-51, 53-57, 59, 60,
                  75-112, 114-118, 120-124, 126, 127, 141-148, 150-154,
                  156-160, 162, 163, 177-184, 186-190, 192-196, 198, 199,
                  213-220, 222-226, 228-232, 234, 235
    2    7 N      9, 15, 21, 24, 46, 52, 58, 61, 113, 119, 125, 128, 149,
                  155, 161, 164, 185, 191, 197, 200, 221, 227, 233, 236
    3    1 H      25-37, 62-74, 129-140, 165-176, 201-212, 237-248

molecular fragmentation (1/2 indicates fragments):
111111111111111111111111111111111111122222222222222222222222222222222222
222222222222222222222222222222222222222222222222222222222222222222222222
222222222222222222222222222222222222222222222222222222222222222222222222
22222222222222222222222222222222
# atoms in fragment 1/2:    37   211
 fragment masses (1/2) :      309.34     1903.01
CMA distance (Bohr)    :  89.486
constraining FC (au)   :  0.0500

           -------------------------------------------------
          |                 G F N 2 - x T B                 |
           -------------------------------------------------

        Reference                      10.1021/acs.jctc.8b01176
      * Hamiltonian:
        H0-scaling (s, p, d)           1.850000    2.230000    2.230000
        zeta-weighting                 0.500000
      * Dispersion:
        s8                             2.700000
        a1                             0.520000
        a2                             5.000000
        s9                             5.000000
      * Repulsion:
        kExp                           1.500000    1.000000
        rExp                           1.000000
      * Coulomb:
        alpha                          2.000000
        third order                    shell-resolved
        anisotropic                    true
        a3                             3.000000
        a5                             4.000000
        cn-shift                       1.200000
        cn-exp                         4.000000
        max-rad                        5.000000


          ...................................................
          :                      SETUP                      :
          :.................................................:
          :  # basis functions                 770          :
          :  # atomic orbitals                 770          :
          :  # shells                          422          :
          :  # electrons                       794          :
          :  max. iterations                   250          :
          :  Hamiltonian                  GFN2-xTB          :
          :  restarted?                      false          :
          :  GBSA solvation                  false          :
          :  PC potential                    false          :
          :  electronic temp.          300.0000000     K    :
          :  accuracy                    1.0000000          :
          :  -> integral cutoff          0.2500000E+02      :
          :  -> integral neglect         0.1000000E-07      :
          :  -> SCF convergence          0.1000000E-05 Eh   :
          :  -> wf. convergence          0.1000000E-03 e    :
          :  Broyden damping             0.4000000          :
          ...................................................

 iter      E             dE          RMSdq      gap      omega  full diag
   1   -434.3357428 -0.434336E+03  0.611E+00    0.00       0.0  T
   2   -412.2763321  0.220594E+02  0.531E+00    0.15       1.0  T
   3   -270.7980615  0.141478E+03  0.972E+00    0.02       1.0  T
   4   -250.5267299  0.202713E+02  0.104E+01    0.01       1.0  T
   5   -416.9895116 -0.166463E+03  0.445E+00    0.02       1.0  T
   6   -433.1757505 -0.161862E+02  0.250E+00    0.07       1.0  T
   7   -431.7493862  0.142636E+01  0.230E+00    0.08       1.0  T
   8   -433.4439178 -0.169453E+01  0.193E+00    0.02       1.0  T
   9   -434.3096828 -0.865765E+00  0.154E+00    0.14       1.0  T
  10   -434.5105502 -0.200867E+00  0.137E+00    0.05       1.0  T
  11   -435.0808137 -0.570264E+00  0.117E+00    0.18       1.0  T
  12   -435.1019054 -0.210918E-01  0.976E-01    0.07       1.0  T
  13   -434.9547827  0.147123E+00  0.103E+00    0.24       1.0  T
  14   -435.4661899 -0.511407E+00  0.496E-01    0.05       1.0  T
  15   -435.1740170  0.292173E+00  0.736E-01    0.06       1.0  T
  16   -434.9682595  0.205757E+00  0.860E-01    0.16       1.0  T
  17   -435.5171616 -0.548902E+00  0.284E-01    0.10       1.0  T
  18   -435.4497311  0.674305E-01  0.358E-01    0.00       1.0  T
  19   -435.5361436 -0.864124E-01  0.176E-01    0.09       1.0  T
  20   -435.5435574 -0.741380E-02  0.963E-02    0.08       1.0  T
  21   -435.5426415  0.915858E-03  0.886E-02    0.08       1.0  T
  22   -435.5427147 -0.731614E-04  0.828E-02    0.06       1.0  T
  23   -435.5450916 -0.237686E-02  0.760E-02    0.07       1.0  T
  24   -435.5461931 -0.110157E-02  0.454E-02    0.06       1.0  T
  25   -435.5470699 -0.876794E-03  0.285E-02    0.07       1.0  T
  26   -435.5469778  0.921017E-04  0.293E-02    0.07       1.0  T
  27   -435.5472509 -0.273127E-03  0.226E-02    0.07       1.0  T
  28   -435.5476199 -0.368914E-03  0.779E-03    0.08       1.0  T
  29   -435.5476211 -0.129206E-05  0.608E-03    0.08       1.0  T
  30   -435.5476289 -0.772072E-05  0.499E-03    0.08       1.3  T
  31   -435.5476301 -0.124870E-05  0.401E-03    0.08       1.6  T
  32   -435.5476329 -0.281432E-05  0.290E-03    0.08       2.2  T
  33   -435.5476353 -0.237761E-05  0.130E-03    0.08       4.9  T
  34   -435.5476356 -0.250762E-06  0.972E-04    0.08       6.5  T
  35   -435.5476356 -0.524806E-07  0.789E-04    0.08       8.0  T

   *** convergence criteria satisfied after 35 iterations ***

         #    Occupation            Energy/Eh            Energy/eV
      -------------------------------------------------------------
         1        2.0000           -0.6940085             -18.8849
       ...           ...                  ...                  ...
       391        2.0000           -0.3548380              -9.6556
       392        2.0000           -0.3527598              -9.5991
       393        2.0000           -0.3462403              -9.4217
       394        2.0000           -0.3455302              -9.4024
       395        2.0000           -0.3455040              -9.4016
       396        1.9985           -0.3389357              -9.2229
       397        1.4754           -0.3330695              -9.0633 (HOMO)
       398        0.2660           -0.3303059              -8.9881 (LUMO)
       399        0.2599           -0.3302807              -8.9874
       400        0.0002           -0.3231409              -8.7931
       401                         -0.3159485              -8.5974
       402                         -0.3101394              -8.4393
       ...                                ...                  ...
       770                          2.0166465              54.8757
      -------------------------------------------------------------
                  HL-Gap            0.0027636 Eh            0.0752 eV
             Fermi-level           -0.3320870 Eh           -9.0365 eV

 SCC (total)                   0 d,  0 h,  0 min,  6.605 sec
 SCC setup                      ...        0 min,  0.010 sec (  0.159%)
 Dispersion                     ...        0 min,  0.023 sec (  0.347%)
 classical contributions        ...        0 min,  0.002 sec (  0.030%)
 integral evaluation            ...        0 min,  0.160 sec (  2.424%)
 iterations                     ...        0 min,  5.980 sec ( 90.541%)
 molecular gradient             ...        0 min,  0.407 sec (  6.160%)
 printout                       ...        0 min,  0.022 sec (  0.339%)

         :::::::::::::::::::::::::::::::::::::::::::::::::::::
         ::                     SUMMARY                     ::
         :::::::::::::::::::::::::::::::::::::::::::::::::::::
         :: total energy            -426.460651124329 Eh    ::
         :: gradient norm              1.589498799800 Eh/a0 ::
         :: HOMO-LUMO gap              0.075202159593 eV    ::
         ::.................................................::
         :: SCC energy              -435.547635609239 Eh    ::
         :: -> isotropic ES            0.234844202228 Eh    ::
         :: -> anisotropic ES         -0.013281976388 Eh    ::
         :: -> anisotropic XC          0.339454125201 Eh    ::
         :: -> dispersion             -0.337731665852 Eh    ::
         :: repulsion energy           9.089834067327 Eh    ::
         :: add. restraining           0.000000000000 Eh    ::
         :: total charge              -0.000000000054 e     ::
         :::::::::::::::::::::::::::::::::::::::::::::::::::::

      ----------------------------------------------------------- 
     |                   =====================                   |
     |                        A N C O P T                        |
     |                   =====================                   |
     |               Approximate Normal Coordinate               |
     |                Rational Function Optimizer                |
      ----------------------------------------------------------- 

          ...................................................
          :                      SETUP                      :
          :.................................................:
          :   optimization level            normal          :
          :   max. optcycles                   744          :
          :   ANC micro-cycles                  20          :
          :   degrees of freedom               738          :
          :.................................................:
          :   RF solver                   davidson          :
          :   write xtbopt.log                true          :
          :   linear?                        false          :
          :   energy convergence         0.5000000E-05 Eh   :
          :   grad. convergence          0.1000000E-02 Eh/α :
          :   maximium RF displ.         1.0000000          :
          :   Hlow (freq-cutoff)         0.1000000E-01      :
          :   Hmax (freq-cutoff)         5.0000000          :
          :   S6 in model hess.         20.0000000          :
          ...................................................

generating ANC from model Hessian ...
Using Lindh-Hessian (1995)
 Shifting diagonal of input Hessian by    1.0167669343328228E-002
 Lowest  eigenvalues of input Hessian
    0.010000    0.010025    0.010154    0.010156    0.010157    0.010165
    0.010166    0.010166    0.010167    0.010167    0.000000    0.000000
    0.000000    0.000000    0.000000    0.000000    0.010168    0.010169
 Highest eigenvalues
    3.277969    3.285283    3.328865    3.334022    3.334025    3.334025


........................................................................
.............................. CYCLE    1 ..............................
........................................................................
   1   -435.5476359 -0.435548E+03  0.525E-04    0.08       0.0  T
   2   -435.5475807  0.552887E-04  0.795E-03    0.07       1.0  T
   3   -435.5476254 -0.447618E-04  0.335E-03    0.07       1.9  T
   4   -435.5476335 -0.806580E-05  0.189E-03    0.08       3.4  T
   5   -435.5476352 -0.176821E-05  0.121E-03    0.08       5.3  T
   6   -435.5476349  0.333481E-06  0.124E-03    0.08       5.1  T
   7   -435.5476357 -0.737823E-06  0.796E-04    0.08       8.0  T
   8   -435.5476360 -0.368552E-06  0.293E-04    0.08      21.7  T
     SCC iter.                  ...        0 min,  1.377 sec
     gradient                   ...        0 min,  0.408 sec
 * total energy  :  -426.4606515 Eh     change       -0.4094621E-06 Eh
   gradient norm :     1.5894919 Eh/α   predicted     0.0000000E+00 (-100.00%)
   displ. norm   :     0.6063649 α      lambda       -0.8784779E+00
   maximum displ.:     0.2030505 α      in ANC's #590, #726, #738, ...

........................................................................
.............................. CYCLE    2 ..............................
........................................................................
   1   -435.6935260 -0.435694E+03  0.333E-01    0.15       0.0  T
   2   -434.4126487  0.128088E+01  0.130E+00    0.20       1.0  T
   3   -435.6538230 -0.124117E+01  0.374E-01    0.31       1.0  T
   4   -435.7133877 -0.595647E-01  0.208E-01    0.08       1.0  T
   5   -435.5288241  0.184564E+00  0.657E-01    0.12       1.0  T
   6   -435.6071138 -0.782896E-01  0.358E-01    0.01       1.0  T
   7   -435.1366910  0.470423E+00  0.798E-01    0.15       1.0  T
   8   -435.7036854 -0.566994E+00  0.179E-01    0.06       1.0  T
   9   -435.7130541 -0.936877E-02  0.151E-01    0.10       1.0  T
  10   -435.7177111 -0.465699E-02  0.902E-02    0.07       1.0  T
  11   -435.7241807 -0.646954E-02  0.268E-02    0.08       1.0  T
  12   -435.7243826 -0.201902E-03  0.200E-02    0.07       1.0  T
  13   -435.7239808  0.401805E-03  0.275E-02    0.07       1.0  T
  14   -435.7246155 -0.634753E-03  0.116E-02    0.08       1.0  T
  15   -435.7246869 -0.713218E-04  0.509E-03    0.07       1.2  T
  16   -435.7247007 -0.138692E-04  0.364E-03    0.08       1.7  T
  17   -435.7247056 -0.490523E-05  0.277E-03    0.08       2.3  T
  18   -435.7247064 -0.727642E-06  0.252E-03    0.08       2.5  T
  19   -435.7247092 -0.280334E-05  0.166E-03    0.08       3.8  T
  20   -435.7247098 -0.615825E-06  0.134E-03    0.08       4.7  T
  21   -435.7247105 -0.681984E-06  0.984E-04    0.08       6.5  T
  22   -435.7247111 -0.641879E-06  0.455E-04    0.08      13.9  T
     SCC iter.                  ...        0 min,  3.779 sec
     gradient                   ...        0 min,  0.407 sec
 * total energy  :  -427.0615952 Eh     change       -0.6009436E+00 Eh
   gradient norm :     0.6202762 Eh/α   predicted    -0.6007406E+00 (  -0.03%)
   displ. norm   :     0.6042934 α      lambda       -0.3155549E+00
   maximum displ.:     0.1558104 α      in ANC's #465, #359, #383, ...

........................................................................
.............................. CYCLE    3 ..............................
........................................................................
   1   -435.8829349 -0.435883E+03  0.264E-01    0.08       0.0  T
   2   -435.2791212  0.603814E+00  0.868E-01    0.03       1.0  T
   3   -435.8442307 -0.565109E+00  0.360E-01    0.14       1.0  T
   4   -435.7922395  0.519912E-01  0.438E-01    0.14       1.0  T
   5   -435.7965952 -0.435575E-02  0.347E-01    0.00       1.0  T
   6   -435.7494785  0.471167E-01  0.414E-01    0.01       1.0  T
   7   -435.7902915 -0.408130E-01  0.350E-01    0.00       1.0  T
   8   -435.8758811 -0.855895E-01  0.170E-01    0.09       1.0  T
   9   -435.8823413 -0.646019E-02  0.134E-01    0.09       1.0  T
  10   -435.8836548 -0.131358E-02  0.105E-01    0.07       1.0  T
  11   -435.8913290 -0.767420E-02  0.343E-02    0.07       1.0  T
  12   -435.8911720  0.157012E-03  0.285E-02    0.06       1.0  T
  13   -435.8911937 -0.216859E-04  0.277E-02    0.06       1.0  T
  14   -435.8915882 -0.394510E-03  0.176E-02    0.06       1.0  T
  15   -435.8917281 -0.139855E-03  0.115E-02    0.06       1.0  T
  16   -435.8917922 -0.641120E-04  0.747E-03    0.06       1.0  T
  17   -435.8918085 -0.163441E-04  0.584E-03    0.06       1.1  T
  18   -435.8918281 -0.195962E-04  0.320E-03    0.07       2.0  T
  19   -435.8918362 -0.810618E-05  0.953E-04    0.07       6.7  T
  20   -435.8918369 -0.699041E-06  0.460E-04    0.07      13.8  T
  21   -435.8918371 -0.130931E-06  0.222E-04    0.07      28.6  T
     SCC iter.                  ...        0 min,  3.610 sec
     gradient                   ...        0 min,  0.406 sec
 * total energy  :  -427.2971064 Eh     change       -0.2355112E+00 Eh
   gradient norm :     0.2782728 Eh/α   predicted    -0.2153932E+00 (  -8.54%)
   displ. norm   :     0.6588082 α      lambda       -0.1473054E+00
   maximum displ.:     0.1842307 α      in ANC's #162, #383, #359, ...

........................................................................
.............................. CYCLE    4 ..............................
........................................................................
   1   -436.0350678 -0.436035E+03  0.248E-01    0.11       0.0  T
   2   -434.8650380  0.117003E+01  0.120E+00    0.20       1.0  T
   3   -436.0386906 -0.117365E+01  0.209E-01    0.08       1.0  T
   4   -435.9332637  0.105427E+00  0.461E-01    0.05       1.0  T
   5   -435.5575044  0.375759E+00  0.725E-01    0.15       1.0  T
   6   -435.5417916  0.157127E-01  0.790E-01    0.15       1.0  T
   7   -436.0143613 -0.472570E+00  0.254E-01    0.10       1.0  T
   8   -436.0146482 -0.286817E-03  0.239E-01    0.13       1.0  T
   9   -436.0330426 -0.183944E-01  0.167E-01    0.10       1.0  T
  10   -436.0436254 -0.105828E-01  0.884E-02    0.08       1.0  T
  11   -436.0483531 -0.472770E-02  0.206E-02    0.07       1.0  T
  12   -436.0483610 -0.791490E-05  0.195E-02    0.06       1.0  T
  13   -436.0483552  0.580404E-05  0.145E-02    0.06       1.0  T
  14   -436.0484500 -0.948162E-04  0.943E-03    0.06       1.0  T
  15   -436.0484450  0.504472E-05  0.976E-03    0.06       1.0  T
  16   -436.0485198 -0.748346E-04  0.286E-03    0.07       2.2  T
  17   -436.0485220 -0.222622E-05  0.194E-03    0.07       3.3  T
  18   -436.0485236 -0.155554E-05  0.100E-03    0.07       6.3  T
  19   -436.0485237 -0.121055E-06  0.712E-04    0.07       8.9  T
  20   -436.0485239 -0.198601E-06  0.518E-04    0.07      12.3  T
     SCC iter.                  ...        0 min,  3.437 sec
     gradient                   ...        0 min,  0.407 sec
 * total energy  :  -427.4059053 Eh     change       -0.1087989E+00 Eh
   gradient norm :     0.1296511 Eh/α   predicted    -0.1056202E+00 (  -2.92%)
   displ. norm   :     0.7571770 α      lambda       -0.7702701E-01
   maximum displ.:     0.2667538 α      in ANC's #162, #67, #96, ...

........................................................................
.............................. CYCLE    5 ..............................
........................................................................
   1   -436.0832088 -0.436083E+03  0.229E-01    0.15       0.0  T
   2   -434.7968316  0.128638E+01  0.125E+00    0.20       1.0  T
   3   -436.0993052 -0.130247E+01  0.125E-01    0.07       1.0  T
   4   -436.0447595  0.545457E-01  0.325E-01    0.06       1.0  T
   5   -435.6836710  0.361088E+00  0.653E-01    0.10       1.0  T
   6   -435.9126869 -0.229016E+00  0.472E-01    0.02       1.0  T
   7   -436.0854491 -0.172762E+00  0.159E-01    0.14       1.0  T
   8   -436.0865932 -0.114414E-02  0.127E-01    0.09       1.0  T
   9   -436.0979179 -0.113247E-01  0.643E-02    0.10       1.0  T
  10   -436.1000019 -0.208405E-02  0.281E-02    0.08       1.0  T
  11   -436.1006204 -0.618505E-03  0.111E-02    0.08       1.0  T
  12   -436.1005817  0.387812E-04  0.118E-02    0.08       1.0  T
  13   -436.1006396 -0.579796E-04  0.799E-03    0.08       1.0  T
  14   -436.1006928 -0.531111E-04  0.326E-03    0.08       2.0  T
  15   -436.1006949 -0.215409E-05  0.264E-03    0.08       2.4  T
  16   -436.1006963 -0.139919E-05  0.210E-03    0.08       3.0  T
  17   -436.1006989 -0.260550E-05  0.113E-03    0.08       5.6  T
  18   -436.1006998 -0.910969E-06  0.410E-04    0.08      15.5  T
  19   -436.1006999 -0.937156E-07  0.219E-04    0.08      29.0  T
     SCC iter.                  ...        0 min,  3.264 sec
     gradient                   ...        0 min,  0.406 sec
 * total energy  :  -427.4703322 Eh     change       -0.6442693E-01 Eh
   gradient norm :     0.0929621 Eh/α   predicted    -0.6059436E-01 (  -5.95%)
   displ. norm   :     0.8360663 α      lambda       -0.5793901E-01
   maximum displ.:     0.2725559 α      in ANC's #67, #162, #96, ...

........................................................................
.............................. CYCLE    6 ..............................
........................................................................
   1   -436.0911820 -0.436091E+03  0.208E-01    0.20       0.0  T
   2   -434.7865662  0.130462E+01  0.122E+00    0.20       1.0  T
   3   -436.0982144 -0.131165E+01  0.155E-01    0.12       1.0  T
   4   -436.0147749  0.834396E-01  0.450E-01    0.14       1.0  T
   5   -436.0688981 -0.541233E-01  0.194E-01    0.02       1.0  T
   6   -435.7558251  0.313073E+00  0.581E-01    0.07       1.0  T
   7   -436.1035442 -0.347719E+00  0.445E-02    0.11       1.0  T
   8   -436.1049524 -0.140816E-02  0.202E-02    0.09       1.0  T
   9   -436.1050462 -0.938193E-04  0.198E-02    0.09       1.0  T
  10   -436.1047135  0.332717E-03  0.239E-02    0.09       1.0  T
  11   -436.1051714 -0.457945E-03  0.105E-02    0.09       1.0  T
  12   -436.1051860 -0.145676E-04  0.791E-03    0.09       1.0  T
  13   -436.1051949 -0.896771E-05  0.495E-03    0.09       1.3  T
  14   -436.1051945  0.441380E-06  0.448E-03    0.10       1.4  T
  15   -436.1051983 -0.375755E-05  0.396E-03    0.10       1.6  T
  16   -436.1052048 -0.656130E-05  0.277E-03    0.10       2.3  T
  17   -436.1052100 -0.514259E-05  0.141E-03    0.09       4.5  T
  18   -436.1052109 -0.986992E-06  0.951E-04    0.09       6.7  T
  19   -436.1052114 -0.418769E-06  0.657E-04    0.09       9.7  T
     SCC iter.                  ...        0 min,  3.271 sec
     gradient                   ...        0 min,  0.409 sec
 * total energy  :  -427.5215212 Eh     change       -0.5118899E-01 Eh
   gradient norm :     0.0693553 Eh/α   predicted    -0.4921940E-01 (  -3.85%)
   displ. norm   :     0.8909184 α      lambda       -0.4844364E-01
   maximum displ.:     0.3384406 α      in ANC's #67, #96, #61, ...

........................................................................
.............................. CYCLE    7 ..............................
........................................................................
   1   -436.0834889 -0.436083E+03  0.193E-01    0.25       0.0  T
   2   -434.8382961  0.124519E+01  0.114E+00    0.16       1.0  T
   3   -436.0669172 -0.122862E+01  0.263E-01    0.20       1.0  T
   4   -436.0652336  0.168367E-02  0.255E-01    0.21       1.0  T
   5   -436.0911276 -0.258940E-01  0.702E-02    0.11       1.0  T
   6   -436.0922686 -0.114103E-02  0.378E-02    0.12       1.0  T
   7   -436.0718893  0.203793E-01  0.140E-01    0.06       1.0  T
   8   -436.0928158 -0.209265E-01  0.245E-02    0.11       1.0  T
   9   -436.0931792 -0.363358E-03  0.160E-02    0.12       1.0  T
  10   -436.0931340  0.452366E-04  0.162E-02    0.12       1.0  T
  11   -436.0932214 -0.873875E-04  0.855E-03    0.12       1.0  T
  12   -436.0932622 -0.408588E-04  0.318E-03    0.12       2.0  T
  13   -436.0932656 -0.339183E-05  0.155E-03    0.12       4.1  T
  14   -436.0932659 -0.309148E-06  0.836E-04    0.12       7.6  T
  15   -436.0932662 -0.244768E-06  0.385E-04    0.12      16.5  T
     SCC iter.                  ...        0 min,  2.578 sec
     gradient                   ...        0 min,  0.406 sec
 * total energy  :  -427.5664253 Eh     change       -0.4490405E-01 Eh
   gradient norm :     0.0559671 Eh/α   predicted    -0.4344756E-01 (  -3.24%)
   displ. norm   :     0.9370927 α      lambda       -0.4488244E-01
   maximum displ.:     0.3754599 α      in ANC's #67, #96, #61, ...

........................................................................
.............................. CYCLE    8 ..............................
........................................................................
   1   -436.0686842 -0.436069E+03  0.203E-01    0.34       0.0  T
   2   -435.7355699  0.333114E+00  0.579E-01    0.01       1.0  T
   3   -436.0542383 -0.318668E+00  0.222E-01    0.47       1.0  T
   4   -436.0574000 -0.316175E-02  0.215E-01    0.36       1.0  T
   5   -436.0711498 -0.137498E-01  0.978E-02    0.41       1.0  T
   6   -436.0727759 -0.162609E-02  0.654E-02    0.34       1.0  T
   7   -436.0736985 -0.922569E-03  0.572E-02    0.31       1.0  T
   8   -436.0742046 -0.506120E-03  0.492E-02    0.29       1.0  T
   9   -436.0746312 -0.426595E-03  0.420E-02    0.27       1.0  T
  10   -436.0753053 -0.674078E-03  0.277E-02    0.22       1.0  T
  11   -436.0757347 -0.429416E-03  0.140E-02    0.18       1.0  T
  12   -436.0757283  0.640995E-05  0.119E-02    0.16       1.0  T
  13   -436.0758497 -0.121362E-03  0.565E-03    0.17       1.1  T
  14   -436.0758790 -0.293288E-04  0.163E-03    0.18       3.9  T
  15   -436.0758793 -0.296305E-06  0.108E-03    0.18       5.9  T
  16   -436.0758798 -0.491126E-06  0.538E-04    0.18      11.8  T
  17   -436.0758799 -0.133343E-06  0.221E-04    0.18      28.7  T
     SCC iter.                  ...        0 min,  2.921 sec
     gradient                   ...        0 min,  0.406 sec
 * total energy  :  -427.6101388 Eh     change       -0.4371356E-01 Eh
   gradient norm :     0.0554741 Eh/α   predicted    -0.4214785E-01 (  -3.58%)
   displ. norm   :     0.9773850 α      lambda       -0.4634534E-01
   maximum displ.:     0.3784729 α      in ANC's #67, #61, #96, ...

........................................................................
.............................. CYCLE    9 ..............................
........................................................................
   1   -436.0469333 -0.436047E+03  0.230E-01    0.50       0.0  T
   2   -436.0223914  0.245420E-01  0.294E-01    0.31       1.0  T
   3   -436.0437962 -0.214048E-01  0.183E-01    0.41       1.0  T
   4   -436.0495861 -0.578994E-02  0.887E-02    0.47       1.0  T
   5   -436.0516669 -0.208085E-02  0.511E-02    0.38       1.0  T
   6   -436.0523974 -0.730413E-03  0.911E-03    0.40       1.0  T
   7   -436.0524059 -0.851853E-05  0.723E-03    0.40       1.0  T
   8   -436.0524114 -0.551866E-05  0.561E-03    0.40       1.1  T
   9   -436.0524192 -0.775672E-05  0.240E-03    0.40       2.6  T
  10   -436.0524206 -0.142424E-05  0.817E-04    0.40       7.8  T
  11   -436.0524207 -0.160561E-06  0.413E-04    0.40      15.4  T
  12   -436.0524208 -0.250853E-07  0.249E-04    0.40      25.5  T
     SCC iter.                  ...        0 min,  2.069 sec
     gradient                   ...        0 min,  0.408 sec
 * total energy  :  -427.6573719 Eh     change       -0.4723304E-01 Eh
   gradient norm :     0.0666868 Eh/α   predicted    -0.4530911E-01 (  -4.07%)
   displ. norm   :     0.9673923 α      lambda       -0.4881163E-01
   maximum displ.:     0.3535858 α      in ANC's #67, #32, #61, ...

........................................................................
.............................. CYCLE   10 ..............................
........................................................................
   1   -436.0260031 -0.436026E+03  0.214E-01    0.64       0.0  T
   2   -436.0190372  0.696590E-02  0.190E-01    0.64       1.0  T
   3   -436.0221551 -0.311790E-02  0.168E-01    0.64       1.0  T
   4   -436.0286458 -0.649073E-02  0.467E-02    0.64       1.0  T
   5   -436.0286947 -0.488843E-04  0.332E-02    0.64       1.0  T
   6   -436.0290919 -0.397181E-03  0.703E-03    0.64       1.0  T
   7   -436.0291047 -0.128276E-04  0.397E-03    0.64       1.6  T
   8   -436.0291076 -0.293206E-05  0.222E-03    0.64       2.9  T
   9   -436.0291083 -0.617765E-06  0.142E-03    0.64       4.5  T
  10   -436.0291088 -0.541560E-06  0.644E-04    0.64       9.9  T
  11   -436.0291089 -0.739450E-07  0.352E-04    0.64      18.1  T
     SCC iter.                  ...        0 min,  1.902 sec
     gradient                   ...        0 min,  0.406 sec
 * total energy  :  -427.7083082 Eh     change       -0.5093628E-01 Eh
   gradient norm :     0.0861708 Eh/α   predicted    -0.4724596E-01 (  -7.24%)
   displ. norm   :     0.9417741 α      lambda       -0.5390489E-01
   maximum displ.:     0.3141089 α      in ANC's #67, #32, #70, ...

........................................................................
.............................. CYCLE   11 ..............................
........................................................................
   1   -436.0072948 -0.436007E+03  0.191E-01    0.67       0.0  T
   2   -436.0051030  0.219183E-02  0.149E-01    0.67       1.0  T
   3   -436.0053614 -0.258405E-03  0.133E-01    0.67       1.0  T
   4   -436.0092061 -0.384467E-02  0.312E-02    0.67       1.0  T
   5   -436.0092620 -0.558816E-04  0.143E-02    0.67       1.0  T
   6   -436.0093360 -0.739926E-04  0.637E-03    0.67       1.0  T
   7   -436.0093483 -0.122917E-04  0.291E-03    0.67       2.2  T
   8   -436.0093493 -0.101170E-05  0.160E-03    0.67       4.0  T
   9   -436.0093496 -0.379228E-06  0.687E-04    0.67       9.2  T
  10   -436.0093497 -0.986547E-07  0.374E-04    0.67      17.0  T
     SCC iter.                  ...        0 min,  1.720 sec
     gradient                   ...        0 min,  0.407 sec
 * total energy  :  -427.7646714 Eh     change       -0.5636329E-01 Eh
   gradient norm :     0.1028815 Eh/α   predicted    -0.5085760E-01 (  -9.77%)
   displ. norm   :     0.9175919 α      lambda       -0.5894035E-01
   maximum displ.:     0.2974283 α      in ANC's #32, #67, #78, ...

........................................................................
.............................. CYCLE   12 ..............................
........................................................................
   1   -435.9976397 -0.435998E+03  0.153E-01    0.69       0.0  T
   2   -435.9965479  0.109188E-02  0.127E-01    0.69       1.0  T
   3   -435.9971676 -0.619724E-03  0.903E-02    0.69       1.0  T
   4   -435.9986931 -0.152552E-02  0.291E-02    0.69       1.0  T
   5   -435.9988001 -0.107010E-03  0.165E-02    0.69       1.0  T
   6   -435.9989193 -0.119173E-03  0.523E-03    0.69       1.2  T
   7   -435.9989240 -0.477006E-05  0.263E-03    0.69       2.4  T
   8   -435.9989250 -0.945489E-06  0.130E-03    0.69       4.9  T
   9   -435.9989252 -0.167075E-06  0.632E-04    0.69      10.0  T
  10   -435.9989252 -0.862703E-07  0.255E-04    0.69      24.9  T
     SCC iter.                  ...        0 min,  1.729 sec
     gradient                   ...        0 min,  0.406 sec
 * total energy  :  -427.8253649 Eh     change       -0.6069347E-01 Eh
   gradient norm :     0.1134245 Eh/α   predicted    -0.5428331E-01 ( -10.56%)
   displ. norm   :     0.8996510 α      lambda       -0.6077864E-01
   maximum displ.:     0.3080786 α      in ANC's #32, #78, #67, ...

........................................................................
.............................. CYCLE   13 ..............................
........................................................................
   1   -435.9973569 -0.435997E+03  0.121E-01    0.70       0.0  T
   2   -435.9961417  0.121516E-02  0.124E-01    0.70       1.0  T
   3   -435.9980586 -0.191684E-02  0.582E-02    0.70       1.0  T
   4   -435.9980358  0.227370E-04  0.283E-02    0.70       1.0  T
   5   -435.9982764 -0.240572E-03  0.116E-02    0.70       1.0  T
   6   -435.9983276 -0.512464E-04  0.427E-03    0.70       1.5  T
   7   -435.9983300 -0.231285E-05  0.242E-03    0.70       2.6  T
   8   -435.9983306 -0.647591E-06  0.117E-03    0.70       5.4  T
   9   -435.9983308 -0.232653E-06  0.578E-04    0.70      11.0  T
  10   -435.9983309 -0.936241E-07  0.180E-04    0.70      35.3  T
     SCC iter.                  ...        0 min,  1.721 sec
     gradient                   ...        0 min,  0.407 sec
 * total energy  :  -427.8808810 Eh     change       -0.5551604E-01 Eh
   gradient norm :     0.1050311 Eh/α   predicted    -0.5498556E-01 (  -0.96%)
   displ. norm   :     0.8510748 α      lambda       -0.6081811E-01
   maximum displ.:     0.3181148 α      in ANC's #32, #78, #70, ...

........................................................................
.............................. CYCLE   14 ..............................
........................................................................
   1   -436.0749453 -0.436075E+03  0.158E-01    0.64       0.0  T
   2   -436.0734025  0.154279E-02  0.139E-01    0.64       1.0  T
   3   -436.0743919 -0.989412E-03  0.850E-02    0.64       1.0  T
   4   -436.0757140 -0.132208E-02  0.299E-02    0.64       1.0  T
   5   -436.0759755 -0.261550E-03  0.118E-02    0.64       1.0  T
   6   -436.0760249 -0.493916E-04  0.365E-03    0.64       1.7  T
   7   -436.0760266 -0.168877E-05  0.209E-03    0.64       3.0  T
   8   -436.0760270 -0.373790E-06  0.118E-03    0.64       5.4  T
   9   -436.0760273 -0.329863E-06  0.436E-04    0.64      14.6  T
  10   -436.0760273 -0.542695E-07  0.166E-04    0.64      38.3  T
     SCC iter.                  ...        0 min,  1.729 sec
     gradient                   ...        0 min,  0.406 sec
 * total energy  :  -427.9241785 Eh     change       -0.4329752E-01 Eh
   gradient norm :     0.0998452 Eh/α   predicted    -0.5243531E-01 (  21.10%)
   displ. norm   :     0.7630332 α      lambda       -0.4363706E-01
   maximum displ.:     0.3143510 α      in ANC's #67, #32, #61, ...

........................................................................
.............................. CYCLE   15 ..............................
........................................................................
   1   -436.1360256 -0.436136E+03  0.103E-01    0.64       0.0  T
   2   -436.1359919  0.336610E-04  0.697E-02    0.64       1.0  T
   3   -436.1349813  0.101061E-02  0.594E-02    0.64       1.0  T
   4   -436.1361023 -0.112100E-02  0.210E-02    0.64       1.0  T
   5   -436.1362240 -0.121619E-03  0.503E-03    0.64       1.3  T
   6   -436.1362292 -0.527944E-05  0.240E-03    0.64       2.6  T
   7   -436.1362307 -0.142630E-05  0.121E-03    0.64       5.2  T
   8   -436.1362308 -0.113940E-06  0.653E-04    0.64       9.7  T
   9   -436.1362309 -0.111704E-06  0.279E-04    0.64      22.8  T
     SCC iter.                  ...        0 min,  1.554 sec
     gradient                   ...        0 min,  0.407 sec
 * total energy  :  -427.9636087 Eh     change       -0.3943022E-01 Eh
   gradient norm :     0.0672166 Eh/α   predicted    -0.3452173E-01 ( -12.45%)
   displ. norm   :     0.8880164 α      lambda       -0.4225159E-01
   maximum displ.:     0.3377876 α      in ANC's #32, #67, #61, ...

........................................................................
.............................. CYCLE   16 ..............................
........................................................................
   1   -436.2167499 -0.436217E+03  0.114E-01    0.65       0.0  T
   2   -436.2166524  0.974944E-04  0.755E-02    0.64       1.0  T
   3   -436.2146350  0.201731E-02  0.752E-02    0.65       1.0  T
   4   -436.2168239 -0.218890E-02  0.161E-02    0.64       1.0  T
   5   -436.2168955 -0.715155E-04  0.502E-03    0.64       1.3  T
   6   -436.2169018 -0.629865E-05  0.194E-03    0.64       3.3  T
   7   -436.2169024 -0.676670E-06  0.109E-03    0.64       5.8  T
   8   -436.2169025 -0.377115E-07  0.689E-04    0.64       9.2  T
   9   -436.2169026 -0.142446E-06  0.256E-04    0.64      24.8  T
     SCC iter.                  ...        0 min,  1.552 sec
     gradient                   ...        0 min,  0.405 sec
 * total energy  :  -428.0014610 Eh     change       -0.3785236E-01 Eh
   gradient norm :     0.0510607 Eh/α   predicted    -0.3778504E-01 (  -0.18%)
   displ. norm   :     0.9237780 α      lambda       -0.3628694E-01
   maximum displ.:     0.3685321 α      in ANC's #67, #32, #61, ...

........................................................................
.............................. CYCLE   17 ..............................
........................................................................
   1   -436.2799623 -0.436280E+03  0.114E-01    0.66       0.0  T
   2   -436.2797803  0.181982E-03  0.774E-02    0.66       1.0  T
   3   -436.2777293  0.205095E-02  0.796E-02    0.66       1.0  T
   4   -436.2800487 -0.231935E-02  0.136E-02    0.66       1.0  T
   5   -436.2801131 -0.644116E-04  0.432E-03    0.66       1.5  T
   6   -436.2801184 -0.528165E-05  0.174E-03    0.66       3.6  T
   7   -436.2801186 -0.248114E-06  0.104E-03    0.66       6.1  T
   8   -436.2801187 -0.941404E-07  0.659E-04    0.66       9.6  T
   9   -436.2801189 -0.147117E-06  0.190E-04    0.66      33.5  T
     SCC iter.                  ...        0 min,  1.557 sec
     gradient                   ...        0 min,  0.406 sec
 * total energy  :  -428.0336417 Eh     change       -0.3218064E-01 Eh
   gradient norm :     0.0502822 Eh/α   predicted    -0.3362653E-01 (   4.49%)
   displ. norm   :     0.9311393 α      lambda       -0.3379597E-01
   maximum displ.:     0.3754972 α      in ANC's #67, #32, #61, ...

........................................................................
.............................. CYCLE   18 ..............................
........................................................................
   1   -436.3419771 -0.436342E+03  0.125E-01    0.68       0.0  T
   2   -436.3417282  0.248867E-03  0.853E-02    0.68       1.0  T
   3   -436.3395596  0.216856E-02  0.868E-02    0.68       1.0  T
   4   -436.3420825 -0.252285E-02  0.156E-02    0.68       1.0  T
   5   -436.3421726 -0.901515E-04  0.472E-03    0.68       1.3  T
   6   -436.3421795 -0.683592E-05  0.186E-03    0.68       3.4  T
   7   -436.3421797 -0.197642E-06  0.115E-03    0.68       5.5  T
   8   -436.3421798 -0.161247E-06  0.694E-04    0.68       9.1  T
   9   -436.3421800 -0.164809E-06  0.182E-04    0.68      35.0  T
     SCC iter.                  ...        0 min,  1.554 sec
     gradient                   ...        0 min,  0.407 sec
 * total energy  :  -428.0624340 Eh     change       -0.2879230E-01 Eh
   gradient norm :     0.0472200 Eh/α   predicted    -0.3154889E-01 (   9.57%)
   displ. norm   :     0.9043644 α      lambda       -0.2828986E-01
   maximum displ.:     0.3973285 α      in ANC's #67, #32, #61, ...

........................................................................
.............................. CYCLE   19 ..............................
........................................................................
   1   -436.4089318 -0.436409E+03  0.113E-01    0.69       0.0  T
   2   -436.4088694  0.624027E-04  0.695E-02    0.69       1.0  T
   3   -436.4069546  0.191481E-02  0.679E-02    0.69       1.0  T
   4   -436.4089710 -0.201648E-02  0.100E-02    0.69       1.0  T
   5   -436.4090054 -0.343783E-04  0.320E-03    0.69       2.0  T
   6   -436.4090079 -0.251830E-05  0.146E-03    0.69       4.3  T
   7   -436.4090081 -0.125403E-06  0.966E-04    0.69       6.6  T
   8   -436.4090083 -0.238581E-06  0.427E-04    0.69      14.9  T
     SCC iter.                  ...        0 min,  1.379 sec
     gradient                   ...        0 min,  0.407 sec
 * total energy  :  -428.0880565 Eh     change       -0.2562247E-01 Eh
   gradient norm :     0.0435932 Eh/α   predicted    -0.2571372E-01 (   0.36%)
   displ. norm   :     0.9383579 α      lambda       -0.2707534E-01
   maximum displ.:     0.4252852 α      in ANC's #67, #32, #61, ...

........................................................................
.............................. CYCLE   20 ..............................
........................................................................
   1   -436.4546247 -0.436455E+03  0.130E-01    0.71       0.0  T
   2   -436.4544222  0.202540E-03  0.875E-02    0.70       1.0  T
   3   -436.4521489  0.227321E-02  0.858E-02    0.71       1.0  T
   4   -436.4547231 -0.257415E-02  0.172E-02    0.71       1.0  T
   5   -436.4548286 -0.105494E-03  0.498E-03    0.71       1.3  T
   6   -436.4548363 -0.769155E-05  0.186E-03    0.70       3.4  T
   7   -436.4548365 -0.230216E-06  0.114E-03    0.70       5.6  T
   8   -436.4548367 -0.197118E-06  0.629E-04    0.70      10.1  T
   9   -436.4548368 -0.129394E-06  0.203E-04    0.70      31.3  T
     SCC iter.                  ...        0 min,  1.553 sec
     gradient                   ...        0 min,  0.407 sec
 * total energy  :  -428.1095331 Eh     change       -0.2147663E-01 Eh
   gradient norm :     0.0601633 Eh/α   predicted    -0.2545779E-01 (  18.54%)
   displ. norm   :     0.8699217 α      lambda       -0.2501214E-01
   maximum displ.:     0.4141816 α      in ANC's #67, #61, #32, ...
 * RMSD in coord.:     0.8708404 α      energy gain  -0.1648882E+01 Eh

generating ANC from model Hessian ...
Using Lindh-Hessian (1995)
 Shifting diagonal of input Hessian by    1.0000364084214317E-002
 Lowest  eigenvalues of input Hessian
    0.010000    0.000000    0.000000    0.000000    0.000000    0.000000
    0.000000    0.010001    0.010002    0.010003    0.010004    0.010006
    0.010007    0.010010    0.010010    0.010014    0.010017    0.010017
 Highest eigenvalues
    2.725904    2.850848    2.851901    3.062499    3.062529    3.072035


........................................................................
.............................. CYCLE   21 ..............................
........................................................................
   1   -436.4915859 -0.436492E+03  0.115E-01    0.72       0.0  T
   2   -436.4914330  0.152899E-03  0.772E-02    0.71       1.0  T
   3   -436.4895291  0.190388E-02  0.766E-02    0.72       1.0  T
   4   -436.4916656 -0.213650E-02  0.141E-02    0.72       1.0  T
   5   -436.4917374 -0.717951E-04  0.415E-03    0.71       1.5  T
   6   -436.4917423 -0.490173E-05  0.169E-03    0.71       3.7  T
   7   -436.4917425 -0.185704E-06  0.101E-03    0.71       6.3  T
   8   -436.4917427 -0.181039E-06  0.536E-04    0.71      11.8  T
   9   -436.4917428 -0.988871E-07  0.174E-04    0.71      36.6  T
     SCC iter.                  ...        0 min,  1.552 sec
     gradient                   ...        0 min,  0.406 sec
 * total energy  :  -428.1304620 Eh     change       -0.2092887E-01 Eh
   gradient norm :     0.0353456 Eh/α   predicted     0.0000000E+00 (-100.00%)
   displ. norm   :     0.7096985 α      lambda       -0.1587683E-01
   maximum displ.:     0.3876503 α      in ANC's #62, #45, #60, ...

........................................................................
.............................. CYCLE   22 ..............................
........................................................................
   1   -436.5275770 -0.436528E+03  0.875E-02    0.72       0.0  T
   2   -436.5275549  0.220474E-04  0.530E-02    0.72       1.0  T
   3   -436.5265926  0.962376E-03  0.440E-02    0.72       1.0  T
   4   -436.5275974 -0.100481E-02  0.523E-03    0.72       1.2  T
   5   -436.5276058 -0.839995E-05  0.218E-03    0.72       2.9  T
   6   -436.5276071 -0.132526E-05  0.991E-04    0.72       6.4  T
   7   -436.5276072 -0.846807E-07  0.604E-04    0.72      10.5  T
   8   -436.5276072 -0.678183E-07  0.256E-04    0.72      24.8  T
     SCC iter.                  ...        0 min,  1.377 sec
     gradient                   ...        0 min,  0.407 sec
 * total energy  :  -428.1452357 Eh     change       -0.1477378E-01 Eh
   gradient norm :     0.0254118 Eh/α   predicted    -0.1193687E-01 ( -19.20%)
   displ. norm   :     0.9494298 α      lambda       -0.1922612E-01
   maximum displ.:     0.5136968 α      in ANC's #62, #45, #60, ...

........................................................................
.............................. CYCLE   23 ..............................
........................................................................
   1   -436.5613629 -0.436561E+03  0.128E-01    0.72       0.0  T
   2   -436.5613270  0.358888E-04  0.772E-02    0.72       1.0  T
   3   -436.5595639  0.176312E-02  0.594E-02    0.72       1.0  T
   4   -436.5613988 -0.183493E-02  0.758E-03    0.72       1.0  T
   5   -436.5614165 -0.177172E-04  0.307E-03    0.72       2.1  T
   6   -436.5614188 -0.232283E-05  0.157E-03    0.72       4.1  T
   7   -436.5614191 -0.245561E-06  0.913E-04    0.72       7.0  T
   8   -436.5614192 -0.160422E-06  0.383E-04    0.72      16.6  T
     SCC iter.                  ...        0 min,  1.384 sec
     gradient                   ...        0 min,  0.408 sec
 * total energy  :  -428.1618252 Eh     change       -0.1658943E-01 Eh
   gradient norm :     0.0255293 Eh/α   predicted    -0.1827844E-01 (  10.18%)
   displ. norm   :     0.9177217 α      lambda       -0.1748480E-01
   maximum displ.:     0.5051425 α      in ANC's #62, #45, #60, ...

........................................................................
.............................. CYCLE   24 ..............................
........................................................................
   1   -436.5840440 -0.436584E+03  0.123E-01    0.72       0.0  T
   2   -436.5840235  0.205806E-04  0.738E-02    0.72       1.0  T
   3   -436.5827094  0.131406E-02  0.513E-02    0.72       1.0  T
   4   -436.5840752 -0.136585E-02  0.711E-03    0.72       1.0  T
   5   -436.5840901 -0.148161E-04  0.285E-03    0.72       2.2  T
   6   -436.5840918 -0.169514E-05  0.152E-03    0.72       4.2  T
   7   -436.5840920 -0.229180E-06  0.871E-04    0.72       7.3  T
   8   -436.5840921 -0.159272E-06  0.408E-04    0.72      15.6  T
     SCC iter.                  ...        0 min,  1.379 sec
     gradient                   ...        0 min,  0.409 sec
 * total energy  :  -428.1770156 Eh     change       -0.1519041E-01 Eh
   gradient norm :     0.0247228 Eh/α   predicted    -0.1610537E-01 (   6.02%)
   displ. norm   :     0.9118407 α      lambda       -0.1422250E-01
   maximum displ.:     0.5050324 α      in ANC's #62, #45, #60, ...

........................................................................
.............................. CYCLE   25 ..............................
........................................................................
   1   -436.6011506 -0.436601E+03  0.118E-01    0.73       0.0  T
   2   -436.6011339  0.166980E-04  0.705E-02    0.73       1.0  T
   3   -436.6000258  0.110813E-02  0.478E-02    0.73       1.0  T
   4   -436.6011789 -0.115314E-02  0.660E-03    0.73       1.0  T
   5   -436.6011919 -0.129991E-04  0.249E-03    0.73       2.6  T
   6   -436.6011931 -0.113016E-05  0.135E-03    0.73       4.7  T
   7   -436.6011932 -0.148472E-06  0.794E-04    0.73       8.0  T
   8   -436.6011934 -0.174883E-06  0.331E-04    0.73      19.2  T
     SCC iter.                  ...        0 min,  1.382 sec
     gradient                   ...        0 min,  0.407 sec
 * total energy  :  -428.1898869 Eh     change       -0.1287133E-01 Eh
   gradient norm :     0.0213295 Eh/α   predicted    -0.1302393E-01 (   1.19%)
   displ. norm   :     0.9290743 α      lambda       -0.1297417E-01
   maximum displ.:     0.5184101 α      in ANC's #62, #45, #60, ...

........................................................................
.............................. CYCLE   26 ..............................
........................................................................
   1   -436.6256321 -0.436626E+03  0.125E-01    0.74       0.0  T
   2   -436.6256198  0.122902E-04  0.746E-02    0.74       1.0  T
   3   -436.6245995  0.102038E-02  0.472E-02    0.74       1.0  T
   4   -436.6256577 -0.105825E-02  0.710E-03    0.74       1.0  T
   5   -436.6256737 -0.159817E-04  0.258E-03    0.74       2.5  T
   6   -436.6256747 -0.105398E-05  0.149E-03    0.74       4.3  T
   7   -436.6256749 -0.195273E-06  0.862E-04    0.74       7.4  T
   8   -436.6256752 -0.227753E-06  0.312E-04    0.74      20.3  T
     SCC iter.                  ...        0 min,  1.384 sec
     gradient                   ...        0 min,  0.407 sec
 * total energy  :  -428.2008692 Eh     change       -0.1098229E-01 Eh
   gradient norm :     0.0179609 Eh/α   predicted    -0.1208661E-01 (  10.06%)
   displ. norm   :     0.8948156 α      lambda       -0.1125098E-01
   maximum displ.:     0.4830519 α      in ANC's #62, #45, #60, ...

........................................................................
.............................. CYCLE   27 ..............................
........................................................................
   1   -436.6479520 -0.436648E+03  0.126E-01    0.76       0.0  T
   2   -436.6479481  0.390075E-05  0.744E-02    0.75       1.0  T
   3   -436.6472370  0.711083E-03  0.395E-02    0.76       1.0  T
   4   -436.6479717 -0.734663E-03  0.641E-03    0.76       1.0  T
   5   -436.6479848 -0.131791E-04  0.224E-03    0.76       2.8  T
   6   -436.6479853 -0.486079E-06  0.145E-03    0.76       4.4  T
   7   -436.6479855 -0.228100E-06  0.767E-04    0.76       8.3  T
   8   -436.6479857 -0.183317E-06  0.273E-04    0.76      23.3  T
     SCC iter.                  ...        0 min,  1.381 sec
     gradient                   ...        0 min,  0.408 sec
 * total energy  :  -428.2099896 Eh     change       -0.9120434E-02 Eh
   gradient norm :     0.0170119 Eh/α   predicted    -0.1012980E-01 (  11.07%)
   displ. norm   :     0.8767831 α      lambda       -0.9545413E-02
   maximum displ.:     0.4621701 α      in ANC's #62, #45, #66, ...

........................................................................
.............................. CYCLE   28 ..............................
........................................................................
   1   -436.6581638 -0.436658E+03  0.141E-01    0.76       0.0  T
   2   -436.6581650 -0.120197E-05  0.838E-02    0.76       1.0  T
   3   -436.6576221  0.542879E-03  0.340E-02    0.76       1.0  T
   4   -436.6581830 -0.560905E-03  0.555E-03    0.76       1.1  T
   5   -436.6581926 -0.957561E-05  0.232E-03    0.76       2.7  T
   6   -436.6581930 -0.451789E-06  0.147E-03    0.76       4.3  T
   7   -436.6581932 -0.177600E-06  0.768E-04    0.76       8.3  T
   8   -436.6581934 -0.185978E-06  0.271E-04    0.76      23.4  T
     SCC iter.                  ...        0 min,  1.387 sec
     gradient                   ...        0 min,  0.408 sec
 * total energy  :  -428.2172506 Eh     change       -0.7260989E-02 Eh
   gradient norm :     0.0260727 Eh/α   predicted    -0.8441716E-02 (  16.26%)
   displ. norm   :     0.8314702 α      lambda       -0.7783073E-02
   maximum displ.:     0.4323829 α      in ANC's #62, #45, #60, ...

........................................................................
.............................. CYCLE   29 ..............................
........................................................................
   1   -436.6747740 -0.436675E+03  0.119E-01    0.77       0.0  T
   2   -436.6747746 -0.574819E-06  0.710E-02    0.77       1.0  T
   3   -436.6743136  0.460996E-03  0.310E-02    0.77       1.0  T
   4   -436.6747909 -0.477354E-03  0.477E-03    0.77       1.3  T
   5   -436.6747967 -0.583133E-05  0.231E-03    0.77       2.8  T
   6   -436.6747973 -0.585560E-06  0.145E-03    0.77       4.4  T
   7   -436.6747976 -0.263585E-06  0.676E-04    0.77       9.4  T
   8   -436.6747977 -0.135172E-06  0.244E-04    0.77      26.0  T
     SCC iter.                  ...        0 min,  1.382 sec
     gradient                   ...        0 min,  0.408 sec
 * total energy  :  -428.2232101 Eh     change       -0.5959471E-02 Eh
   gradient norm :     0.0211636 Eh/α   predicted    -0.6581926E-02 (  10.44%)
   displ. norm   :     0.8183914 α      lambda       -0.6419985E-02
   maximum displ.:     0.4199601 α      in ANC's #45, #62, #66, ...

........................................................................
.............................. CYCLE   30 ..............................
........................................................................
   1   -436.6881208 -0.436688E+03  0.131E-01    0.77       0.0  T
   2   -436.6881267 -0.587347E-05  0.776E-02    0.77       1.0  T
   3   -436.6879740  0.152651E-03  0.184E-02    0.77       1.0  T
   4   -436.6881316 -0.157579E-03  0.367E-03    0.77       1.7  T
   5   -436.6881358 -0.423082E-05  0.179E-03    0.77       3.5  T
   6   -436.6881361 -0.287328E-06  0.116E-03    0.77       5.5  T
   7   -436.6881363 -0.176541E-06  0.611E-04    0.77      10.4  T
   8   -436.6881364 -0.111813E-06  0.195E-04    0.77      32.6  T
     SCC iter.                  ...        0 min,  1.381 sec
     gradient                   ...        0 min,  0.408 sec
 * total energy  :  -428.2280189 Eh     change       -0.4808826E-02 Eh
   gradient norm :     0.0183819 Eh/α   predicted    -0.5359922E-02 (  11.46%)
   displ. norm   :     0.7840761 α      lambda       -0.5033038E-02
   maximum displ.:     0.4007701 α      in ANC's #45, #62, #60, ...

........................................................................
.............................. CYCLE   31 ..............................
........................................................................
   1   -436.7096772 -0.436710E+03  0.989E-02    0.77       0.0  T
   2   -436.7096809 -0.375799E-05  0.586E-02    0.77       1.0  T
   3   -436.7095144  0.166543E-03  0.216E-02    0.77       1.0  T
   4   -436.7096881 -0.173758E-03  0.308E-03    0.77       2.1  T
   5   -436.7096902 -0.207112E-05  0.166E-03    0.77       3.8  T
   6   -436.7096906 -0.410597E-06  0.104E-03    0.77       6.1  T
   7   -436.7096908 -0.167893E-06  0.577E-04    0.77      11.0  T
   8   -436.7096909 -0.932741E-07  0.196E-04    0.77      32.5  T
     SCC iter.                  ...        0 min,  1.378 sec
     gradient                   ...        0 min,  0.442 sec
 * total energy  :  -428.2320581 Eh     change       -0.4039153E-02 Eh
   gradient norm :     0.0141473 Eh/α   predicted    -0.4063629E-02 (   0.61%)
   displ. norm   :     0.8141547 α      lambda       -0.4423617E-02
   maximum displ.:     0.4742216 α      in ANC's #45, #62, #48, ...

........................................................................
.............................. CYCLE   32 ..............................
........................................................................
   1   -436.7246118 -0.436725E+03  0.126E-01    0.77       0.0  T
   2   -436.7246160 -0.418689E-05  0.751E-02    0.77       1.0  T
   3   -436.7243634  0.252668E-03  0.276E-02    0.77       1.0  T
   4   -436.7246268 -0.263428E-03  0.388E-03    0.77       1.6  T
   5   -436.7246297 -0.286630E-05  0.217E-03    0.77       2.9  T
   6   -436.7246304 -0.788772E-06  0.134E-03    0.77       4.7  T
   7   -436.7246308 -0.313671E-06  0.687E-04    0.77       9.2  T
   8   -436.7246309 -0.135586E-06  0.225E-04    0.77      28.2  T
     SCC iter.                  ...        0 min,  1.376 sec
     gradient                   ...        0 min,  0.410 sec
 * total energy  :  -428.2347708 Eh     change       -0.2712718E-02 Eh
   gradient norm :     0.0233962 Eh/α   predicted    -0.3677903E-02 (  35.58%)
   displ. norm   :     0.6962463 α      lambda       -0.3778265E-02
   maximum displ.:     0.3761874 α      in ANC's #45, #62, #46, ...

........................................................................
.............................. CYCLE   33 ..............................
........................................................................
   1   -436.7326447 -0.436733E+03  0.965E-02    0.77       0.0  T
   2   -436.7326467 -0.199470E-05  0.574E-02    0.77       1.0  T
   3   -436.7324023  0.244324E-03  0.270E-02    0.77       1.0  T
   4   -436.7326574 -0.255033E-03  0.370E-03    0.77       1.7  T
   5   -436.7326600 -0.267108E-05  0.202E-03    0.77       3.2  T
   6   -436.7326609 -0.871803E-06  0.107E-03    0.77       6.0  T
   7   -436.7326610 -0.121851E-06  0.596E-04    0.77      10.7  T
   8   -436.7326611 -0.111351E-06  0.198E-04    0.77      32.1  T
     SCC iter.                  ...        0 min,  1.380 sec
     gradient                   ...        0 min,  0.409 sec
 * total energy  :  -428.2374181 Eh     change       -0.2647339E-02 Eh
   gradient norm :     0.0152254 Eh/α   predicted    -0.2804912E-02 (   5.95%)
   displ. norm   :     0.7220770 α      lambda       -0.2899346E-02
   maximum displ.:     0.4333036 α      in ANC's #45, #62, #43, ...

........................................................................
.............................. CYCLE   34 ..............................
........................................................................
   1   -436.7341701 -0.436734E+03  0.122E-01    0.76       0.0  T
   2   -436.7341722 -0.207852E-05  0.731E-02    0.76       1.0  T
   3   -436.7338075  0.364694E-03  0.329E-02    0.76       1.0  T
   4   -436.7341831 -0.375595E-03  0.511E-03    0.76       1.2  T
   5   -436.7341894 -0.636521E-05  0.254E-03    0.76       2.5  T
   6   -436.7341909 -0.149043E-05  0.127E-03    0.76       5.0  T
   7   -436.7341910 -0.117761E-06  0.742E-04    0.76       8.6  T
   8   -436.7341912 -0.160509E-06  0.240E-04    0.76      26.4  T
     SCC iter.                  ...        0 min,  1.382 sec
     gradient                   ...        0 min,  0.408 sec
 * total energy  :  -428.2383801 Eh     change       -0.9619471E-03 Eh
   gradient norm :     0.0280162 Eh/α   predicted    -0.2205528E-02 ( 129.28%)
   displ. norm   :     0.5172809 α      lambda       -0.2952419E-02
   maximum displ.:     0.3163628 α      in ANC's #45, #48, #62, ...

........................................................................
.............................. CYCLE   35 ..............................
........................................................................
   1   -436.7505129 -0.436751E+03  0.865E-02    0.76       0.0  T
   2   -436.7505141 -0.126677E-05  0.517E-02    0.76       1.0  T
   3   -436.7503669  0.147175E-03  0.208E-02    0.76       1.0  T
   4   -436.7505201 -0.153115E-03  0.303E-03    0.76       2.1  T
   5   -436.7505218 -0.176294E-05  0.178E-03    0.76       3.6  T
   6   -436.7505225 -0.704041E-06  0.901E-04    0.76       7.0  T
   7   -436.7505226 -0.761435E-07  0.473E-04    0.76      13.4  T
     SCC iter.                  ...        0 min,  1.210 sec
     gradient                   ...        0 min,  0.408 sec
 * total energy  :  -428.2402486 Eh     change       -0.1868548E-02 Eh
   gradient norm :     0.0097484 Eh/α   predicted    -0.1871218E-02 (   0.14%)
   displ. norm   :     0.6344876 α      lambda       -0.1356906E-02
   maximum displ.:     0.4079257 α      in ANC's #45, #21, #48, ...

........................................................................
.............................. CYCLE   36 ..............................
........................................................................
   1   -436.7517648 -0.436752E+03  0.579E-02    0.76       0.0  T
   2   -436.7517627  0.210143E-05  0.346E-02    0.76       1.0  T
   3   -436.7515625  0.200126E-03  0.246E-02    0.76       1.0  T
   4   -436.7517727 -0.210170E-03  0.294E-03    0.76       2.2  T
   5   -436.7517749 -0.223135E-05  0.145E-03    0.76       4.4  T
   6   -436.7517755 -0.571804E-06  0.692E-04    0.76       9.2  T
   7   -436.7517756 -0.717032E-07  0.391E-04    0.76      16.3  T
     SCC iter.                  ...        0 min,  1.212 sec
     gradient                   ...        0 min,  0.408 sec
 * total energy  :  -428.2412444 Eh     change       -0.9957737E-03 Eh
   gradient norm :     0.0087287 Eh/α   predicted    -0.9515806E-03 (  -4.44%)
   displ. norm   :     0.7041157 α      lambda       -0.1430658E-02
   maximum displ.:     0.4855172 α      in ANC's #45, #21, #48, ...

........................................................................
.............................. CYCLE   37 ..............................
........................................................................
   1   -436.7602152 -0.436760E+03  0.633E-02    0.76       0.0  T
   2   -436.7602121  0.309628E-05  0.379E-02    0.76       1.0  T
   3   -436.7599592  0.252864E-03  0.274E-02    0.76       1.0  T
   4   -436.7602236 -0.264383E-03  0.347E-03    0.76       1.8  T
   5   -436.7602267 -0.311874E-05  0.160E-03    0.76       4.0  T
   6   -436.7602274 -0.660964E-06  0.753E-04    0.76       8.4  T
   7   -436.7602275 -0.728008E-07  0.448E-04    0.76      14.2  T
     SCC iter.                  ...        0 min,  1.207 sec
     gradient                   ...        0 min,  0.408 sec
 * total energy  :  -428.2421504 Eh     change       -0.9060113E-03 Eh
   gradient norm :     0.0120321 Eh/α   predicted    -0.1069975E-02 (  18.10%)
   displ. norm   :     0.5920860 α      lambda       -0.1264042E-02
   maximum displ.:     0.3847946 α      in ANC's #45, #21, #48, ...

........................................................................
.............................. CYCLE   38 ..............................
........................................................................
   1   -436.7738535 -0.436774E+03  0.522E-02    0.77       0.0  T
   2   -436.7738527  0.790733E-06  0.311E-02    0.77       1.0  T
   3   -436.7737105  0.142272E-03  0.208E-02    0.77       1.0  T
   4   -436.7738588 -0.148351E-03  0.284E-03    0.77       2.2  T
   5   -436.7738607 -0.187732E-05  0.137E-03    0.77       4.6  T
   6   -436.7738612 -0.519522E-06  0.589E-04    0.77      10.8  T
   7   -436.7738612 -0.356478E-07  0.364E-04    0.77      17.4  T
     SCC iter.                  ...        0 min,  1.211 sec
     gradient                   ...        0 min,  0.409 sec
 * total energy  :  -428.2430001 Eh     change       -0.8496911E-03 Eh
   gradient norm :     0.0114806 Eh/α   predicted    -0.8535838E-03 (   0.46%)
   displ. norm   :     0.5903511 α      lambda       -0.1125266E-02
   maximum displ.:     0.3779369 α      in ANC's #45, #21, #26, ...

........................................................................
.............................. CYCLE   39 ..............................
........................................................................
   1   -436.7686997 -0.436769E+03  0.528E-02    0.77       0.0  T
   2   -436.7687014 -0.165995E-05  0.313E-02    0.77       1.0  T
   3   -436.7685837  0.117676E-03  0.187E-02    0.77       1.0  T
   4   -436.7687066 -0.122869E-03  0.311E-03    0.77       2.0  T
   5   -436.7687092 -0.259189E-05  0.115E-03    0.77       5.5  T
   6   -436.7687094 -0.234197E-06  0.677E-04    0.77       9.4  T
   7   -436.7687095 -0.923875E-07  0.370E-04    0.77      17.2  T
     SCC iter.                  ...        0 min,  1.208 sec
     gradient                   ...        0 min,  0.408 sec
 * total energy  :  -428.2437543 Eh     change       -0.7541941E-03 Eh
   gradient norm :     0.0099802 Eh/α   predicted    -0.7587206E-03 (   0.60%)
   displ. norm   :     0.5822435 α      lambda       -0.1010509E-02
   maximum displ.:     0.3328398 α      in ANC's #45, #21, #26, ...

........................................................................
.............................. CYCLE   40 ..............................
........................................................................
   1   -436.7644596 -0.436764E+03  0.620E-02    0.77       0.0  T
   2   -436.7644600 -0.410349E-06  0.369E-02    0.77       1.0  T
   3   -436.7643288  0.131212E-03  0.193E-02    0.77       1.0  T
   4   -436.7644659 -0.137112E-03  0.252E-03    0.77       2.5  T
   5   -436.7644674 -0.155326E-05  0.116E-03    0.77       5.5  T
   6   -436.7644676 -0.203543E-06  0.732E-04    0.77       8.7  T
   7   -436.7644677 -0.104163E-06  0.373E-04    0.77      17.0  T
     SCC iter.                  ...        0 min,  1.213 sec
     gradient                   ...        0 min,  0.407 sec
 * total energy  :  -428.2442824 Eh     change       -0.5281161E-03 Eh
   gradient norm :     0.0125203 Eh/α   predicted    -0.6765482E-03 (  28.11%)
   displ. norm   :     0.5132546 α      lambda       -0.8891625E-03
   maximum displ.:     0.2827448 α      in ANC's #45, #21, #62, ...

........................................................................
.............................. CYCLE   41 ..............................
........................................................................
   1   -436.7718665 -0.436772E+03  0.531E-02    0.77       0.0  T
   2   -436.7718656  0.956224E-06  0.315E-02    0.77       1.0  T
   3   -436.7717536  0.112023E-03  0.184E-02    0.77       1.0  T
   4   -436.7718710 -0.117428E-03  0.182E-03    0.77       3.5  T
   5   -436.7718716 -0.646198E-06  0.101E-03    0.77       6.3  T
   6   -436.7718718 -0.187026E-06  0.598E-04    0.77      10.6  T
   7   -436.7718719 -0.710065E-07  0.271E-04    0.77      23.4  T
     SCC iter.                  ...        0 min,  1.214 sec
     gradient                   ...        0 min,  0.407 sec
 * total energy  :  -428.2448094 Eh     change       -0.5269597E-03 Eh
   gradient norm :     0.0093652 Eh/α   predicted    -0.5616943E-03 (   6.59%)
   displ. norm   :     0.4780230 α      lambda       -0.5465308E-03
   maximum displ.:     0.2918290 α      in ANC's #45, #21, #26, ...

........................................................................
.............................. CYCLE   42 ..............................
........................................................................
   1   -436.7717187 -0.436772E+03  0.395E-02    0.77       0.0  T
   2   -436.7717181  0.613484E-06  0.234E-02    0.77       1.0  T
   3   -436.7716386  0.795118E-04  0.147E-02    0.77       1.0  T
   4   -436.7717224 -0.837650E-04  0.145E-03    0.77       4.4  T
   5   -436.7717228 -0.410790E-06  0.759E-04    0.77       8.4  T
   6   -436.7717229 -0.106337E-06  0.466E-04    0.77      13.6  T
     SCC iter.                  ...        0 min,  1.040 sec
     gradient                   ...        0 min,  0.407 sec
 * total energy  :  -428.2451801 Eh     change       -0.3707137E-03 Eh
   gradient norm :     0.0072411 Eh/α   predicted    -0.3357115E-03 (  -9.44%)
   displ. norm   :     0.4752272 α      lambda       -0.3896056E-03
   maximum displ.:     0.2777512 α      in ANC's #45, #21, #26, ...
 * RMSD in coord.:     0.8470502 α      energy gain  -0.1356470E+00 Eh

generating ANC from model Hessian ...
Using Lindh-Hessian (1995)
 Shifting diagonal of input Hessian by    9.9996245878270790E-003
 Lowest  eigenvalues of input Hessian
    0.000000    0.000000    0.000000    0.000000    0.000000    0.000000
    0.010000    0.010001    0.010001    0.010001    0.010002    0.010003
    0.010004    0.010004    0.010005    0.010006    0.010010    0.010011
 Highest eigenvalues
    2.702452    3.037211    3.037307    3.039006    3.039426    3.042523


........................................................................
.............................. CYCLE   43 ..............................
........................................................................
   1   -436.7760643 -0.436776E+03  0.363E-02    0.77       0.0  T
   2   -436.7760639  0.323000E-06  0.214E-02    0.77       1.0  T
   3   -436.7760007  0.632423E-04  0.139E-02    0.77       1.0  T
   4   -436.7760670 -0.663430E-04  0.173E-03    0.77       3.7  T
   5   -436.7760678 -0.760841E-06  0.725E-04    0.77       8.8  T
   6   -436.7760679 -0.110945E-06  0.433E-04    0.77      14.7  T
     SCC iter.                  ...        0 min,  1.038 sec
     gradient                   ...        0 min,  0.410 sec
 * total energy  :  -428.2454793 Eh     change       -0.2991626E-03 Eh
   gradient norm :     0.0049988 Eh/α   predicted     0.0000000E+00 (-100.00%)
   displ. norm   :     0.0953782 α      lambda       -0.1531559E-03
   maximum displ.:     0.0392749 α      in ANC's #23, #29, #44, ...

........................................................................
.............................. CYCLE   44 ..............................
........................................................................
   1   -436.7766948 -0.436777E+03  0.298E-02    0.77       0.0  T
   2   -436.7766950 -0.186892E-06  0.178E-02    0.77       1.0  T
   3   -436.7766907  0.433917E-05  0.371E-03    0.77       1.7  T
   4   -436.7766951 -0.445803E-05  0.763E-04    0.77       8.3  T
   5   -436.7766953 -0.136453E-06  0.406E-04    0.77      15.6  T
   6   -436.7766953 -0.281483E-07  0.218E-04    0.77      29.1  T
     SCC iter.                  ...        0 min,  1.039 sec
     gradient                   ...        0 min,  0.410 sec
 * total energy  :  -428.2455467 Eh     change       -0.6742160E-04 Eh
   gradient norm :     0.0034318 Eh/α   predicted    -0.7789691E-04 (  15.54%)
   displ. norm   :     0.1919291 α      lambda       -0.2709729E-03
   maximum displ.:     0.0858592 α      in ANC's #23, #26, #21, ...

........................................................................
.............................. CYCLE   45 ..............................
........................................................................
   1   -436.7784819 -0.436778E+03  0.329E-02    0.77       0.0  T
   2   -436.7784824 -0.527999E-06  0.196E-02    0.77       1.0  T
   3   -436.7784695  0.129083E-04  0.590E-03    0.77       1.1  T
   4   -436.7784824 -0.129431E-04  0.144E-03    0.77       4.4  T
   5   -436.7784831 -0.700863E-06  0.651E-04    0.77       9.8  T
   6   -436.7784832 -0.863907E-07  0.334E-04    0.77      19.0  T
     SCC iter.                  ...        0 min,  1.041 sec
     gradient                   ...        0 min,  0.409 sec
 * total energy  :  -428.2456549 Eh     change       -0.1082417E-03 Eh
   gradient norm :     0.0064044 Eh/α   predicted    -0.1404774E-03 (  29.78%)
   displ. norm   :     0.1901507 α      lambda       -0.2480641E-03
   maximum displ.:     0.0829951 α      in ANC's #23, #26, #21, ...

........................................................................
.............................. CYCLE   46 ..............................
........................................................................
   1   -436.7791205 -0.436779E+03  0.395E-02    0.77       0.0  T
   2   -436.7791210 -0.431250E-06  0.234E-02    0.77       1.0  T
   3   -436.7791171  0.388432E-05  0.351E-03    0.77       1.8  T
   4   -436.7791211 -0.398778E-05  0.942E-04    0.77       6.7  T
   5   -436.7791213 -0.225837E-06  0.491E-04    0.77      12.9  T
   6   -436.7791213 -0.336157E-07  0.266E-04    0.77      23.9  T
     SCC iter.                  ...        0 min,  1.042 sec
     gradient                   ...        0 min,  0.409 sec
 * total energy  :  -428.2458014 Eh     change       -0.1465282E-03 Eh
   gradient norm :     0.0061920 Eh/α   predicted    -0.1285170E-03 ( -12.29%)
   displ. norm   :     0.2598484 α      lambda       -0.2552868E-03
   maximum displ.:     0.1266753 α      in ANC's #23, #26, #21, ...

........................................................................
.............................. CYCLE   47 ..............................
........................................................................
   1   -436.7768613 -0.436777E+03  0.372E-02    0.77       0.0  T
   2   -436.7768618 -0.541577E-06  0.220E-02    0.77       1.0  T
   3   -436.7768569  0.494282E-05  0.372E-03    0.77       1.7  T
   4   -436.7768621 -0.520486E-05  0.941E-04    0.77       6.7  T
   5   -436.7768623 -0.187974E-06  0.511E-04    0.77      12.4  T
   6   -436.7768623 -0.225518E-07  0.322E-04    0.77      19.7  T
     SCC iter.                  ...        0 min,  1.039 sec
     gradient                   ...        0 min,  0.408 sec
 * total energy  :  -428.2459187 Eh     change       -0.1172920E-03 Eh
   gradient norm :     0.0050347 Eh/α   predicted    -0.1362628E-03 (  16.17%)
   displ. norm   :     0.3614665 α      lambda       -0.3776758E-03
   maximum displ.:     0.1763933 α      in ANC's #23, #26, #21, ...

........................................................................
.............................. CYCLE   48 ..............................
........................................................................
   1   -436.7725115 -0.436773E+03  0.502E-02    0.77       0.0  T
   2   -436.7725125 -0.101348E-05  0.297E-02    0.77       1.0  T
   3   -436.7725039  0.855589E-05  0.508E-03    0.77       1.3  T
   4   -436.7725128 -0.890475E-05  0.136E-03    0.77       4.7  T
   5   -436.7725133 -0.430336E-06  0.703E-04    0.77       9.0  T
   6   -436.7725133 -0.474382E-07  0.438E-04    0.77      14.5  T
     SCC iter.                  ...        0 min,  1.042 sec
     gradient                   ...        0 min,  0.407 sec
 * total energy  :  -428.2460264 Eh     change       -0.1076129E-03 Eh
   gradient norm :     0.0080429 Eh/α   predicted    -0.2135135E-03 (  98.41%)
   displ. norm   :     0.2192127 α      lambda       -0.3141204E-03
   maximum displ.:     0.1046253 α      in ANC's #23, #26, #21, ...

........................................................................
.............................. CYCLE   49 ..............................
........................................................................
   1   -436.7724214 -0.436772E+03  0.382E-02    0.77       0.0  T
   2   -436.7724217 -0.309217E-06  0.227E-02    0.77       1.0  T
   3   -436.7724170  0.476151E-05  0.365E-03    0.77       1.7  T
   4   -436.7724220 -0.500910E-05  0.759E-04    0.77       8.4  T
   5   -436.7724221 -0.953650E-07  0.458E-04    0.77      13.9  T
   6   -436.7724221 -0.189910E-07  0.254E-04    0.77      25.0  T
     SCC iter.                  ...        0 min,  1.042 sec
     gradient                   ...        0 min,  0.410 sec
 * total energy  :  -428.2462172 Eh     change       -0.1908073E-03 Eh
   gradient norm :     0.0053175 Eh/α   predicted    -0.1646086E-03 ( -13.73%)
   displ. norm   :     0.2975990 α      lambda       -0.2450834E-03
   maximum displ.:     0.1533512 α      in ANC's #23, #26, #21, ...

........................................................................
.............................. CYCLE   50 ..............................
........................................................................
   1   -436.7739026 -0.436774E+03  0.339E-02    0.77       0.0  T
   2   -436.7739031 -0.429876E-06  0.200E-02    0.77       1.0  T
   3   -436.7738964  0.666489E-05  0.414E-03    0.77       1.5  T
   4   -436.7739033 -0.691155E-05  0.937E-04    0.77       6.8  T
   5   -436.7739035 -0.224073E-06  0.475E-04    0.77      13.4  T
   6   -436.7739036 -0.247334E-07  0.288E-04    0.77      22.0  T
     SCC iter.                  ...        0 min,  1.044 sec
     gradient                   ...        0 min,  0.408 sec
 * total energy  :  -428.2463786 Eh     change       -0.1614511E-03 Eh
   gradient norm :     0.0035452 Eh/α   predicted    -0.1333950E-03 ( -17.38%)
   displ. norm   :     0.4064283 α      lambda       -0.2216860E-03
   maximum displ.:     0.2107547 α      in ANC's #23, #26, #21, ...

........................................................................
.............................. CYCLE   51 ..............................
........................................................................
   1   -436.7744287 -0.436774E+03  0.390E-02    0.77       0.0  T
   2   -436.7744295 -0.782460E-06  0.229E-02    0.77       1.0  T
   3   -436.7744255  0.397201E-05  0.345E-03    0.77       1.8  T
   4   -436.7744298 -0.427461E-05  0.941E-04    0.77       6.7  T
   5   -436.7744300 -0.187334E-06  0.560E-04    0.77      11.3  T
   6   -436.7744300 -0.523925E-07  0.284E-04    0.77      22.3  T
     SCC iter.                  ...        0 min,  1.042 sec
     gradient                   ...        0 min,  0.408 sec
 * total energy  :  -428.2465601 Eh     change       -0.1814615E-03 Eh
   gradient norm :     0.0040788 Eh/α   predicted    -0.1291575E-03 ( -28.82%)
   displ. norm   :     0.5457348 α      lambda       -0.2937914E-03
   maximum displ.:     0.2849196 α      in ANC's #23, #26, #21, ...

........................................................................
[...]
 233:  0.00 234:  0.00 235:  0.00 236:  0.00 237:  0.00 238:  0.00 239:  0.00 240:  0.00
 241:  0.00 242:  0.00 243:  0.00 244:  0.00 245:  0.00 246:  0.00 247:  0.00 248:  0.00
 249:  0.00 250:  0.00 251:  0.00 252:  0.00 253:  0.00 254:  0.00 255:  0.00 256:  0.00
 257:  0.00 258:  0.00 259:  0.00 260:  0.00 261:  0.00 262:  0.00 263:  0.00 264:  0.00
 265:  0.00 266:  0.00 267:  0.00 268:  0.00 269:  0.00 270:  0.00 271:  0.00 272:  0.00
 273:  0.00 274:  0.00 275:  0.00 276:  0.00 277:  0.00 278:  0.00 279:  0.00 280:  0.00
 281:  0.00 282:  0.00 283:  0.00 284:  0.00 285:  0.00 286:  0.00 287:  0.00 288:  0.00
 289:  0.00 290:  0.00 291:  0.00 292:  0.00 293:  0.00 294:  0.00 295:  0.00 296:  0.00
 297:  0.00 298:  0.00 299:  0.00 300:  0.00 301:  0.00 302:  0.00 303:  0.00 304:  0.00
 305:  0.00 306:  0.00 307:  0.00 308:  0.00 309:  0.00 310:  0.00 311:  0.00 312:  0.00
 313:  0.00 314:  0.00 315:  0.00 316:  0.00 317:  0.00 318:  0.00 319:  0.00 320:  0.00
 321:  0.00 322:  0.00 323:  0.00 324:  0.00 325:  0.00 326:  0.00 327:  0.00 328:  0.00
 329:  0.00 330:  0.00 331:  0.00 332:  0.00 333:  0.00 334:  0.00 335:  0.00 336:  0.00
 337:  0.00 338:  0.00 339:  0.00 340:  0.00 341:  0.00 342:  0.00 343:  0.00 344:  0.00
 345:  0.00 346:  0.00 347:  0.00 348:  0.00 349:  0.00 350:  0.00 351:  0.00 352:  0.00
 353:  0.00 354:  0.00 355:  0.00 356:  0.00 357:  0.00 358:  0.00 359:  0.00 360:  0.00
 361:  0.00 362:  0.00 363:  0.00 364:  0.00 365:  0.00 366:  0.00 367:  0.00 368:  0.00
 369:  0.00 370:  0.00 371:  0.00 372:  0.00 373:  0.00 374:  0.00 375:  0.00 376:  0.00
 377:  0.00 378:  0.00 379:  0.00 380:  0.00 381:  0.00 382:  0.00 383:  0.00 384:  0.00
 385:  0.00 386:  0.00 387:  0.00 388:  0.00 389:  0.00 390:  0.00 391:  0.00 392:  0.00
 393:  0.00 394:  0.00 395:  0.00 396:  0.00 397:  0.00 398:  0.00 399:  0.00 400:  0.00
 401:  0.00 402:  0.00 403:  0.00 404:  0.00 405:  0.00 406:  0.00 407:  0.00 408:  0.00
 409:  0.00 410:  0.00 411:  0.00 412:  0.00 413:  0.00 414:  0.00 415:  0.00 416:  0.00
 417:  0.00 418:  0.00 419:  0.00 420:  0.00 421:  0.00 422:  0.00 423:  0.00 424:  0.00
 425:  0.00 426:  0.00 427:  0.00 428:  0.00 429:  0.00 430:  0.00 431:  0.00 432:  0.00
 433:  0.00 434:  0.00 435:  0.00 436:  0.00 437:  0.00 438:  0.00 439:  0.00 440:  0.00
 441:  0.00 442:  0.00 443:  0.00 444:  0.00 445:  0.00 446:  0.00 447:  0.00 448:  0.00
 449:  0.00 450:  0.00 451:  0.00 452:  0.00 453:  0.00 454:  0.00 455:  0.00 456:  0.00
 457:  0.00 458:  0.00 459:  0.00 460:  0.00 461:  0.00 462:  0.00 463:  0.00 464:  0.00
 465:  0.00 466:  0.00 467:  0.00 468:  0.00 469:  0.00 470:  0.00 471:  0.00 472:  0.00
 473:  0.00 474:  0.00 475:  0.00 476:  0.00 477:  0.00 478:  0.00 479:  0.00 480:  0.00
 481:  0.00 482:  0.00 483:  0.00 484:  0.00 485:  0.00 486:  0.00 487:  0.00 488:  0.00
 489:  0.00 490:  0.00 491:  0.00 492:  0.00 493:  0.00 494:  0.00 495:  0.00 496:  0.00
 497:  0.00 498:  0.00 499:  0.00 500:  0.00 501:  0.00 502:  0.00 503:  0.00 504:  0.00
 505:  0.00 506:  0.00 507:  0.00 508:  0.00 509:  0.00 510:  0.00 511:  0.00 512:  0.00
 513:  0.00 514:  0.00 515:  0.00 516:  0.00 517:  0.00 518:  0.00 519:  0.00 520:  0.00
 521:  0.00 522:  0.00 523:  0.00 524:  0.00 525:  0.00 526:  0.00 527:  0.00 528:  0.00
 529:  0.00 530:  0.00 531:  0.00 532:  0.00 533:  0.00 534:  0.00 535:  0.00 536:  0.00
 537:  0.00 538:  0.00 539:  0.00 540:  0.00 541:  0.00 542:  0.00 543:  0.00 544:  0.00
 545:  0.00 546:  0.00 547:  0.00 548:  0.00 549:  0.00 550:  0.00 551:  0.00 552:  0.00
 553:  0.00 554:  0.00 555:  0.00 556:  0.00 557:  0.00 558:  0.00 559:  0.00 560:  0.00
 561:  0.00 562:  0.00 563:  0.00 564:  0.00 565:  0.00 566:  0.00 567:  0.00 568:  0.00
 569:  0.00 570:  0.00 571:  0.00 572:  0.00 573:  0.00 574:  0.00 575:  0.00 576:  0.00
 577:  0.00 578:  0.00 579:  0.00 580:  0.00 581:  0.00 582:  0.00 583:  0.00 584:  0.00
 585:  0.00 586:  0.00 587:  0.00 588:  0.00 589:  0.00 590:  0.00 591:  0.00 592:  0.00
 593:  0.00 594:  0.00 595:  0.00 596:  0.00 597:  0.00 598:  0.00 599:  0.00 600:  0.00
 601:  0.00 602:  0.00 603:  0.00 604:  0.00 605:  0.00 606:  0.00 607:  0.00 608:  0.00
 609:  0.00 610:  0.00 611:  0.00 612:  0.00 613:  0.00 614:  0.00 615:  0.00 616:  0.00
 617:  0.00 618:  0.00 619:  0.00 620:  0.00 621:  0.00 622:  0.00 623:  0.00 624:  0.00
 625:  0.00 626:  0.00 627:  0.00 628:  0.00 629:  0.00 630:  0.00 631:  0.00 632:  0.00
 633:  0.00 634:  0.00 635:  0.00 636:  0.00 637:  0.00 638:  0.00 639:  0.00 640:  0.00
 641:  0.00 642:  0.00 643:  0.00 644:  0.00 645:  0.00 646:  0.00 647:  0.00 648:  0.00
 649:  0.00 650:  0.00 651:  0.00 652:  0.00 653:  0.00 654:  0.00 655:  0.00 656:  0.00
 657:  0.00 658:  0.00 659:  0.00 660:  0.00 661:  0.00 662:  0.00 663:  0.00 664:  0.00
 665:  0.00 666:  0.00 667:  0.00 668:  0.00 669:  0.00 670:  0.00 671:  0.00 672:  0.00
 673:  0.00 674:  0.00 675:  0.00 676:  0.00 677:  0.00 678:  0.00 679:  0.00 680:  0.00
 681:  0.00 682:  0.00 683:  0.00 684:  0.00 685:  0.00 686:  0.00 687:  0.00 688:  0.00
 689:  0.00 690:  0.00 691:  0.00 692:  0.00 693:  0.00 694:  0.00 695:  0.00 696:  0.00
 697:  0.00 698:  0.00 699:  0.00 700:  0.00 701:  0.00 702:  0.00 703:  0.00 704:  0.00
 705:  0.00 706:  0.00 707:  0.00 708:  0.00 709:  0.00 710:  0.00 711:  0.00 712:  0.00
 713:  0.00 714:  0.00 715:  0.00 716:  0.00 717:  0.00 718:  0.00 719:  0.00 720:  0.00
 721:  0.00 722:  0.00 723:  0.00 724:  0.00 725:  0.00 726:  0.00 727:  0.00 728:  0.00
 729:  0.00 730:  0.00 731:  0.00 732:  0.00 733:  0.00 734:  0.00 735:  0.00 736:  0.00
 737:  0.00 738:  0.00 739:  0.00 740:  0.00 741:  0.00 742:  0.00 743:  0.00 744:  0.00
 output can be read by thermo (or use thermo option).
 writing <g98.out> molden fake output.
 recommended (thermochemical) frequency scaling factor: 1.0
           -------------------------------------------------
          |             Thermodynamic Functions             |
           -------------------------------------------------
 symmetry recognition skipped because # atoms >         200
 inverting freq            1   4.5969579351804057     
 inverting freq            2   3.8852551642673210     
 inverting freq            3   2.0156344239251358     

          ...................................................
          :                      SETUP                      :
          :.................................................:
          :  # frequencies                         736      :
          :  # imaginary freq.                       0      :
          :  linear?                             false      :
          :  only rotor calc.                    false      :
          :  symmetry                               C1      :
          :  rotational number                       1      :
          :  scaling factor                  1.0000000      :
          :  rotor cutoff                   50.0000000 cm⁻¹ :
          :  imag. cutoff                  -20.0000000 cm⁻¹ :
          :.................................................:

    mode    ω/cm⁻¹     T·S(HO)/kcal·mol⁻¹    T·S(FR)/kcal·mol⁻¹   T·S(vib)
   ------------------------------------------------------------------------
       1      4.60    -2.84892 (  0.01%)    -1.76357 ( 99.99%)    -1.76365
       2      3.89    -2.94857 (  0.00%)    -1.81340 (100.00%)    -1.81344
       3      2.02    -3.33739 (  0.00%)    -2.00781 (100.00%)    -2.00781
       4      2.61    -3.18371 (  0.00%)    -1.93097 (100.00%)    -1.93098
       5      4.15    -2.91015 (  0.00%)    -1.79419 (100.00%)    -1.79424
       6      4.55    -2.85564 (  0.01%)    -1.76693 ( 99.99%)    -1.76700
       7      6.07    -2.68449 (  0.02%)    -1.68135 ( 99.98%)    -1.68157
       8      6.51    -2.64262 (  0.03%)    -1.66041 ( 99.97%)    -1.66070
       9      6.77    -2.61965 (  0.03%)    -1.64893 ( 99.97%)    -1.64925
      10      7.41    -2.56574 (  0.05%)    -1.62197 ( 99.95%)    -1.62243
      11      7.71    -2.54217 (  0.06%)    -1.61018 ( 99.94%)    -1.61071
      12      7.86    -2.53127 (  0.06%)    -1.60474 ( 99.94%)    -1.60530
      13      9.01    -2.45001 (  0.11%)    -1.56410 ( 99.89%)    -1.56503
      14     10.24    -2.37437 (  0.18%)    -1.52627 ( 99.82%)    -1.52776
      15     13.30    -2.21947 (  0.50%)    -1.44880 ( 99.50%)    -1.45264
      16     14.14    -2.18338 (  0.64%)    -1.43075 ( 99.36%)    -1.43553
      17     14.29    -2.17692 (  0.66%)    -1.42752 ( 99.34%)    -1.43249
      18     16.86    -2.07914 (  1.28%)    -1.37861 ( 98.72%)    -1.38755
      19     18.21    -2.03339 (  1.73%)    -1.35572 ( 98.27%)    -1.36744
      20     20.71    -1.95725 (  2.86%)    -1.31762 ( 97.14%)    -1.33592
      21     22.29    -1.91379 (  3.80%)    -1.29587 ( 96.20%)    -1.31935
      22     24.54    -1.85699 (  5.48%)    -1.26744 ( 94.52%)    -1.29975
      23     25.79    -1.82749 (  6.61%)    -1.25267 ( 93.39%)    -1.29067
      24     28.10    -1.77683 (  9.07%)    -1.22730 ( 90.93%)    -1.27712
      25     28.31    -1.77233 (  9.32%)    -1.22505 ( 90.68%)    -1.27606
      26     32.89    -1.68359 ( 15.78%)    -1.18060 ( 84.22%)    -1.25995
      27     36.96    -1.61473 ( 22.99%)    -1.14609 ( 77.01%)    -1.25382
      28     41.08    -1.55220 ( 31.31%)    -1.11473 ( 68.69%)    -1.25171
      29     41.21    -1.55034 ( 31.58%)    -1.11380 ( 68.42%)    -1.25167
      30     41.61    -1.54470 ( 32.41%)    -1.11097 ( 67.59%)    -1.25156
      31     41.76    -1.54253 ( 32.74%)    -1.10988 ( 67.26%)    -1.25152
      32     41.84    -1.54139 ( 32.91%)    -1.10931 ( 67.09%)    -1.25150
      33     42.37    -1.53406 ( 34.01%)    -1.10563 ( 65.99%)    -1.25135
      34     42.71    -1.52925 ( 34.75%)    -1.10322 ( 65.25%)    -1.25126
      35     43.15    -1.52319 ( 35.68%)    -1.10018 ( 64.32%)    -1.25113
      36     48.17    -1.45831 ( 46.27%)    -1.06761 ( 53.73%)    -1.24840
      37     53.76    -1.39354 ( 57.20%)    -1.03506 ( 42.80%)    -1.24013
      38     54.22    -1.38858 ( 58.03%)    -1.03256 ( 41.97%)    -1.23915
      39     61.60    -1.31340 ( 69.74%)    -0.99473 ( 30.26%)    -1.21696
      40     63.34    -1.29700 ( 72.04%)    -0.98647 ( 27.96%)    -1.21017
      41     66.98    -1.26419 ( 76.31%)    -0.96993 ( 23.69%)    -1.19447
      42     67.80    -1.25708 ( 77.17%)    -0.96634 ( 22.83%)    -1.19071
      43     73.50    -1.20973 ( 82.36%)    -0.94243 ( 17.64%)    -1.16258
      44     79.53    -1.16352 ( 86.49%)    -0.91906 ( 13.51%)    -1.13049
      45     84.06    -1.13111 ( 88.87%)    -0.90265 ( 11.13%)    -1.10569
      46     84.28    -1.12961 ( 88.98%)    -0.90189 ( 11.02%)    -1.10451
      47     86.19    -1.11648 ( 89.83%)    -0.89523 ( 10.17%)    -1.09397
      48     86.55    -1.11409 ( 89.98%)    -0.89402 ( 10.02%)    -1.09203
      49     88.70    -1.09973 ( 90.83%)    -0.88673 (  9.17%)    -1.08019
      50     90.90    -1.08545 ( 91.61%)    -0.87948 (  8.39%)    -1.06818
      51     92.32    -1.07643 ( 92.08%)    -0.87490 (  7.92%)    -1.06046
      52     92.93    -1.07255 ( 92.27%)    -0.87292 (  7.73%)    -1.05711
      53     93.42    -1.06949 ( 92.42%)    -0.87136 (  7.58%)    -1.05446
      54     95.27    -1.05806 ( 92.95%)    -0.86555 (  7.05%)    -1.04449
      55     96.04    -1.05337 ( 93.16%)    -0.86317 (  6.84%)    -1.04036
      56     97.86    -1.04248 ( 93.62%)    -0.85762 (  6.38%)    -1.03069
      57    102.06    -1.01806 ( 94.55%)    -0.84517 (  5.45%)    -1.00864
      58    104.00    -1.00715 ( 94.93%)    -0.83960 (  5.07%)    -0.99865
      59    110.01    -0.97456 ( 95.91%)    -0.82294 (  4.09%)    -0.96836
      60    111.90    -0.96471 ( 96.17%)    -0.81790 (  3.83%)    -0.95908
      61    112.27    -0.96283 ( 96.21%)    -0.81693 (  3.79%)    -0.95730
      62    113.20    -0.95802 ( 96.33%)    -0.81447 (  3.67%)    -0.95276
      63    113.21    -0.95798 ( 96.33%)    -0.81445 (  3.67%)    -0.95272
      64    114.30    -0.95247 ( 96.47%)    -0.81162 (  3.53%)    -0.94749
      65    115.07    -0.94857 ( 96.56%)    -0.80963 (  3.44%)    -0.94379
      66    116.47    -0.94159 ( 96.72%)    -0.80605 (  3.28%)    -0.93714
      67    118.29    -0.93266 ( 96.91%)    -0.80146 (  3.09%)    -0.92860
      68    119.55    -0.92652 ( 97.03%)    -0.79830 (  2.97%)    -0.92271
      69    119.78    -0.92543 ( 97.05%)    -0.79774 (  2.95%)    -0.92166
      70    136.28    -0.85134 ( 98.22%)    -0.75951 (  1.78%)    -0.84971
      71    141.65    -0.82928 ( 98.47%)    -0.74806 (  1.53%)    -0.82804
      72    141.69    -0.82914 ( 98.47%)    -0.74799 (  1.53%)    -0.82791
      73    142.22    -0.82702 ( 98.50%)    -0.74688 (  1.50%)    -0.82581
      74    142.53    -0.82578 ( 98.51%)    -0.74623 (  1.49%)    -0.82459
      75    142.90    -0.82428 ( 98.52%)    -0.74546 (  1.48%)    -0.82312
      76    143.19    -0.82313 ( 98.54%)    -0.74486 (  1.46%)    -0.82199
      77    147.64    -0.80573 ( 98.70%)    -0.73579 (  1.30%)    -0.80482
      78    148.15    -0.80376 ( 98.72%)    -0.73477 (  1.28%)    -0.80287
      79    149.65    -0.79804 ( 98.77%)    -0.73178 (  1.23%)    -0.79722
      80    153.00    -0.78550 ( 98.87%)    -0.72523 (  1.13%)    -0.78482
      81    157.50    -0.76910 ( 98.99%)    -0.71664 (  1.01%)    -0.76858
      82    161.94    -0.75341 ( 99.10%)    -0.70840 (  0.90%)    -0.75301
      83    163.21    -0.74902 ( 99.13%)    -0.70608 (  0.87%)    -0.74864
      84    178.74    -0.69813 ( 99.39%)    -0.67917 (  0.61%)    -0.69801
      85    179.56    -0.69556 ( 99.40%)    -0.67780 (  0.60%)    -0.69546
      86    180.81    -0.69170 ( 99.42%)    -0.67575 (  0.58%)    -0.69161
      87    181.78    -0.68873 ( 99.43%)    -0.67416 (  0.57%)    -0.68865
      88    181.82    -0.68862 ( 99.43%)    -0.67410 (  0.57%)    -0.68853
      89    183.00    -0.68501 ( 99.45%)    -0.67218 (  0.55%)    -0.68494
      90    184.32    -0.68103 ( 99.46%)    -0.67006 (  0.54%)    -0.68097
      91    184.63    -0.68010 ( 99.47%)    -0.66956 (  0.53%)    -0.68004
      92    184.92    -0.67924 ( 99.47%)    -0.66910 (  0.53%)    -0.67919
      93    185.12    -0.67865 ( 99.47%)    -0.66878 (  0.53%)    -0.67859
      94    185.19    -0.67841 ( 99.47%)    -0.66866 (  0.53%)    -0.67836
      95    185.77    -0.67669 ( 99.48%)    -0.66774 (  0.52%)    -0.67664
      96    192.10    -0.65817 ( 99.54%)    -0.65782 (  0.46%)    -0.65816
      97    197.12    -0.64396 ( 99.59%)    -0.65018 (  0.41%)    -0.64399
      98    197.71    -0.64230 ( 99.59%)    -0.64928 (  0.41%)    -0.64233
      99    200.79    -0.63382 ( 99.62%)    -0.64470 (  0.38%)    -0.63386
     100    200.96    -0.63336 ( 99.62%)    -0.64446 (  0.38%)    -0.63340
     101    201.04    -0.63314 ( 99.62%)    -0.64434 (  0.38%)    -0.63319
     102    201.24    -0.63259 ( 99.62%)    -0.64404 (  0.38%)    -0.63263
     103    202.22    -0.62994 ( 99.63%)    -0.64261 (  0.37%)    -0.62999
     104    202.49    -0.62921 ( 99.63%)    -0.64221 (  0.37%)    -0.62926
     105    204.93    -0.62264 ( 99.65%)    -0.63865 (  0.35%)    -0.62269
     106    211.90    -0.60443 ( 99.69%)    -0.62876 (  0.31%)    -0.60451
     107    219.40    -0.58558 ( 99.73%)    -0.61845 (  0.27%)    -0.58567
     108    225.54    -0.57072 ( 99.76%)    -0.61028 (  0.24%)    -0.57081
     109    247.74    -0.52076 ( 99.83%)    -0.58246 (  0.17%)    -0.52086
     110    254.71    -0.50619 ( 99.85%)    -0.57424 (  0.15%)    -0.50629
     111    261.63    -0.49220 ( 99.87%)    -0.56629 (  0.13%)    -0.49230
     112    262.39    -0.49069 ( 99.87%)    -0.56544 (  0.13%)    -0.49079
     113    264.75    -0.48606 ( 99.87%)    -0.56279 (  0.13%)    -0.48616
     114    264.88    -0.48579 ( 99.87%)    -0.56263 (  0.13%)    -0.48589
     115    265.03    -0.48551 ( 99.87%)    -0.56247 (  0.13%)    -0.48561
     116    265.14    -0.48529 ( 99.87%)    -0.56235 (  0.13%)    -0.48539
     117    265.48    -0.48463 ( 99.87%)    -0.56197 (  0.13%)    -0.48473
     118    265.64    -0.48433 ( 99.87%)    -0.56180 (  0.13%)    -0.48442
     119    266.44    -0.48276 ( 99.88%)    -0.56090 (  0.12%)    -0.48286
     120    267.05    -0.48157 ( 99.88%)    -0.56022 (  0.12%)    -0.48167
     121    268.07    -0.47962 ( 99.88%)    -0.55910 (  0.12%)    -0.47971
     122    268.46    -0.47886 ( 99.88%)    -0.55866 (  0.12%)    -0.47895
     123    271.24    -0.47354 ( 99.88%)    -0.55561 (  0.12%)    -0.47364
     124    274.20    -0.46797 ( 99.89%)    -0.55239 (  0.11%)    -0.46806
     125    274.45    -0.46751 ( 99.89%)    -0.55213 (  0.11%)    -0.46760
     126    278.88    -0.45931 ( 99.90%)    -0.54738 (  0.10%)    -0.45940
     127    282.54    -0.45267 ( 99.90%)    -0.54352 (  0.10%)    -0.45276
     128    285.54    -0.44730 ( 99.91%)    -0.54039 (  0.09%)    -0.44739
     129    290.00    -0.43946 ( 99.91%)    -0.53580 (  0.09%)    -0.43954
     130    291.17    -0.43743 ( 99.91%)    -0.53460 (  0.09%)    -0.43751
     131    293.73    -0.43302 ( 99.92%)    -0.53201 (  0.08%)    -0.43310
     132    298.29    -0.42530 ( 99.92%)    -0.52745 (  0.08%)    -0.42538
     133    298.37    -0.42517 ( 99.92%)    -0.52737 (  0.08%)    -0.42525
   ------------------------------------------------------------------------

   temp. (K)  partition function   enthalpy   heat capacity  entropy
                                   cal/mol     cal/K/mol   cal/K/mol   J/K/mol
 298.15  VIB  0.934E+79            89159.405    564.525    574.146
         ROT  0.130E+11              888.752      2.981     49.261
         INT  0.121E+90            90048.157    567.506    623.407
         TR   0.101E+30             1481.254      4.968     48.926
         TOT                       91529.4113   572.4744   672.3334  2813.0427

       T/K    H(0)-H(T)+PV         H(T)/Eh          T*S/Eh         G(T)/Eh
   ------------------------------------------------------------------------
    298.15    0.145861E+00    0.189651E+01    0.319447E+00    0.157706E+01
   ------------------------------------------------------------------------

         :::::::::::::::::::::::::::::::::::::::::::::::::::::
         ::                  THERMODYNAMIC                  ::
         :::::::::::::::::::::::::::::::::::::::::::::::::::::
         :: total free energy        -426.671031186012 Eh   ::
         ::.................................................::
         :: total energy             -428.248094188435 Eh   ::
         :: zero point energy           1.750648872333 Eh   ::
         :: G(RRHO) w/o ZPVE           -0.173585869910 Eh   ::
         :: G(RRHO) contrib.            1.577063002424 Eh   ::
         :::::::::::::::::::::::::::::::::::::::::::::::::::::

optimized geometry written to: xtbopt.xyz


           -------------------------------------------------
          | TOTAL ENERGY             -428.248094188435 Eh   |
          | TOTAL ENTHALPY           -426.351583914718 Eh   |
          | TOTAL FREE ENERGY        -426.671031186012 Eh   |
          | GRADIENT NORM               0.000659526462 Eh/α |
          | HOMO-LUMO GAP               0.769318699908 eV   |
           -------------------------------------------------

------------------------------------------------------------------------
 * finished run on 2021/11/19 at 18:22:18.260     
------------------------------------------------------------------------
 total:
 * wall-time:     0 d,  0 h, 34 min, 58.981 sec
 *  cpu-time:     0 d,  0 h, 34 min, 59.001 sec
 * ratio c/w:     1.000 speedup
 SCF:
 * wall-time:     0 d,  0 h,  0 min,  6.609 sec
 *  cpu-time:     0 d,  0 h,  0 min,  6.609 sec
 * ratio c/w:     1.000 speedup
 ANC optimizer:
 * wall-time:     0 d,  0 h,  2 min, 57.575 sec
 *  cpu-time:     0 d,  0 h,  2 min, 57.575 sec
 * ratio c/w:     1.000 speedup
 analytical hessian:
 * wall-time:     0 d,  0 h, 31 min, 54.434 sec
 *  cpu-time:     0 d,  0 h, 31 min, 54.455 sec
 * ratio c/w:     1.000 speedup

