248
 energy: -426.460651533791 gnorm: 1.589491857165 xtb: 6.4.1 (bd6e46d)
C        35.41848600000000    3.50886600000000    0.78857800000000
C        36.30846300000000    2.56860700000000    0.59038200000000
C        35.64696200000001    1.30853200000000    0.28957500000000
C        36.00540000000000    0.00287000000000    0.00089400000000
C        35.18022200000000   -1.12820200000000   -0.08432200000000
C        35.63578700000000   -2.33692700000000    0.49698500000000
C        34.66309300000000   -3.26947300000000    0.29683000000000
C        33.63199900000000   -2.60177200000000   -0.40615800000000
N        33.96872400000001   -1.32091200000000   -0.62307200000000
C        32.47403800000000   -3.32788800000000   -0.73787500000000
C        31.15593700000000   -2.88519200000000   -0.62434000000000
C        29.84359100000000   -3.48732600000000   -0.72131900000000
C        28.92196300000001   -2.54067800000000   -0.51523400000000
C        29.61884900000000   -1.29484800000000   -0.27850300000000
N        30.93992300000000   -1.57460000000000   -0.35818900000000
C        29.21960700000000    0.00714900000000   -0.01050000000000
C        30.05221900000000    1.14382600000000    0.06540800000000
C        29.61807600000000    2.34581500000000   -0.54473200000000
C        30.61358900000000    3.26220400000000   -0.35277600000000
C        31.62774000000000    2.58896000000000    0.37115500000000
N        31.26254300000000    1.32113800000000    0.60997900000000
C        32.79738200000000    3.29591700000000    0.69265400000000
C        34.11263500000000    2.89239200000000    0.62263900000000
N        34.30225700000000    1.58128800000000    0.32623700000000
H        35.58575000000000    4.53741000000000    1.02716700000000
H        37.37872200000000    2.69194400000000    0.63940100000000
H        36.59630800000001   -2.52262900000000    1.01556100000000
H        34.69997500000001   -4.32608300000000    0.62215700000000
H        33.36543900000000   -0.55350200000000   -1.17059100000000
H        32.56242900000000   -4.36331500000000   -1.11622200000000
H        29.64491600000000   -4.54802700000000   -0.93006400000000
H        27.85255400000000   -2.73261200000000   -0.53446800000000
H        28.14466400000000    0.09641900000000    0.12724400000000
H        28.66442200000000    2.53737300000000   -1.07353000000000
H        30.59916800000000    4.31243200000000   -0.69921800000000
H        31.85586800000000    0.56369500000000    1.18197500000000
H        32.72887400000000    4.35332200000000    1.04937000000000
C       111.27600400000000   -3.49475700000000    0.82494800000000
C       110.38602600000002   -2.55660700000000    0.61699800000000
C       111.04752700000000   -1.29972400000000    0.30312000000000
C       110.68908900000000    0.00287000000000    0.00089400000000
C       111.51426700000002    1.13299500000000   -0.09606500000000
C       111.05870200000000    2.34769200000000    0.47265700000000
C       112.03139600000002    3.27810900000000    0.26282800000000
C       113.06249000000000    2.60314300000000   -0.43318700000000
N       112.72576500000001    1.32010000000000   -0.63678700000000
C       114.22045100000001    3.32577400000000   -0.77242800000000
C       115.53855200000000    2.88428100000000   -0.65430100000000
C       116.85089800000000    3.48537600000000   -0.75752900000000
C       117.77252600000000    2.54091900000000   -0.54162300000000
C       117.07564000000001    1.29761500000000   -0.29196600000000
N       115.75456600000000    1.57652400000000   -0.37455300000000
C       117.47488199999999   -0.00152800000000   -0.01045500000000
C       116.64227000000000   -1.13735500000000    0.07725500000000
C       117.07641300000000   -2.34561600000000   -0.52036900000000
C       116.08090000000000   -3.25996200000000   -0.31890600000000
C       115.06674900000000   -2.57923600000000    0.39799400000000
N       115.43194600000000   -1.30900200000000    0.62363700000000
C       113.89710700000001   -3.28281600000000    0.72681800000000
C       112.58185400000001   -2.88004000000000    0.65261500000000
N       112.39223200000001   -1.57208500000000    0.34261200000000
H       111.10873900000000   -4.52076700000000    1.07420700000000
H       109.31576699999999   -2.67942800000000    0.66729500000000
H       110.09818100000001    2.53877000000000    0.98927700000000
H       111.99451400000000    4.33804100000000    0.57716400000000
H       113.32905000000000    0.54704400000000   -1.17630600000000
H       114.13206000000000    4.35721600000000   -1.16150800000000
H       117.04957300000000    4.54385200000000   -0.97727900000000
H       118.84193500000001    2.73264300000000   -0.56284900000000
H       118.54982500000000   -0.08936300000000    0.12820900000000
H       118.03006700000000   -2.54265600000000   -1.04714900000000
H       116.09532100000000   -4.31373200000000   -0.65442100000000
H       114.83862100000000   -0.54565900000000    1.18773600000000
H       113.96561500000000   -4.33645900000000    1.09449700000000
C        38.92215700000000    0.01467000000000    0.00517800000000
C        40.13769000000001   -0.01067400000000   -0.00530100000000
C        41.55920700000000   -0.03209700000000   -0.00947700000000
C        42.76776800000000   -0.03430800000000   -0.00937200000000
C        44.18884400000000   -0.01534800000000   -0.00999900000000
C        45.39998600000000    0.01467000000000    0.00517800000000
C        54.51488300000000    0.01467000000000    0.00517800000000
C        55.73041600000000   -0.01067400000000   -0.00530100000000
C        57.15193300000000   -0.03209700000000   -0.00947700000000
C        58.36049500000000   -0.03430800000000   -0.00937200000000
C        59.78157000000001   -0.01534800000000   -0.00999900000000
C        60.99271200000000    0.01467000000000    0.00517800000000
C        70.10760999999999    0.01467000000000    0.00517800000000
C        71.32314300000000   -0.01067400000000   -0.00530100000000
C        72.74466000000000   -0.03209700000000   -0.00947700000000
C        73.95322100000000   -0.03430800000000   -0.00937200000000
C        75.37429700000000   -0.01534800000000   -0.00999900000000
C        76.58543899999999    0.01467000000000    0.00517800000000
C        85.70033599999999    0.01467000000000    0.00517800000000
C        86.91586900000000   -0.01067400000000   -0.00530100000000
C        88.33738600000000   -0.03209700000000   -0.00947700000000
C        89.54594800000000   -0.03430800000000   -0.00937200000000
C        90.96702300000001   -0.01534800000000   -0.00999900000000
C        92.17816500000001    0.01467000000000    0.00517800000000
C       101.29306300000000    0.01467000000000    0.00517800000000
C       102.50859600000001   -0.01067400000000   -0.00530100000000
C       103.93011300000002   -0.03209700000000   -0.00947700000000
C       105.13867399999999   -0.03430800000000   -0.00937200000000
C       106.55974999999999   -0.01534800000000   -0.00999900000000
C       107.77089200000000    0.01467000000000    0.00517800000000
C        47.16351900000001   -3.59380400000000    0.00035300000000
C        46.28896900000001   -2.59889900000000   -0.00994900000000
C        46.96043300000000   -1.32011600000000    0.00324000000000
C        46.56340200000000   -0.00453100000000   -0.00153800000000
C        47.37459500000000    1.13979300000000   -0.15566500000000
C        46.89556900000000    2.19230900000000   -0.96773000000000
C        47.88265400000000    3.13506200000000   -0.95919900000000
C        48.92992500000000    2.63326700000000   -0.14639600000000
N        48.59107200000000    1.42689900000000    0.32635000000000
C        50.09030300000000    3.41125000000000    0.00795400000000
C        51.41129200000000    2.95337700000000   -0.02143900000000
C        52.72386100000000    3.58151000000000   -0.08256700000000
C        53.63797400000000    2.62644600000000   -0.08515000000000
C        52.96442700000000    1.33957200000000   -0.02596100000000
N        51.65236900000000    1.62817100000000    0.00882900000000
C        53.36671100000000   -0.00453100000000   -0.00153800000000
C        52.53455700000000   -1.11832000000000    0.18074300000000
C        52.97451500000000   -2.14997700000000    1.04405400000000
C        51.97633300000000   -3.07331700000000    1.04867500000000
C        50.95341700000000   -2.59338000000000    0.19524500000000
N        51.32059400000000   -1.41213300000000   -0.31526300000000
C        49.79650800000000   -3.36878700000000    0.03817700000000
C        48.47573300000000   -2.94930900000000    0.02149100000000
N        48.29934200000001   -1.61110600000000    0.02239200000000
H        46.99500000000000   -4.65597100000000   -0.00505000000000
H        45.20114100000000   -2.78493500000000   -0.02697600000000
H        45.93149100000000    2.26768000000000   -1.50204600000000
H        47.84450700000000    4.10617600000000   -1.49164100000000
H        49.19875100000001    0.78980000000000    1.01497900000000
H        50.03520300000000    4.49751200000000    0.15207000000000
H        52.94228800000000    4.64950200000000   -0.12089700000000
H        54.71428900000000    2.77248900000000   -0.12477700000000
H        53.92852400000001   -2.21438900000000    1.60160200000000
H        52.00175100000001   -4.01863500000000    1.62399500000000
H        50.73351800000000   -0.79267600000000   -1.03891300000000
H        49.85722600000000   -4.48052700000000   -0.07595200000000
C        62.75624600000000   -3.59380400000000    0.00035300000000
C        61.88169600000001   -2.59889900000000   -0.00994900000000
C        62.55316000000000   -1.32011600000000    0.00324000000000
C        62.15612900000000   -0.00453100000000   -0.00153800000000
C        62.96732100000000    1.13979300000000   -0.15566500000000
C        62.48829500000001    2.19230900000000   -0.96773000000000
C        63.47538100000000    3.13506200000000   -0.95919900000000
C        64.52265199999999    2.63326700000000   -0.14639600000000
N        64.18379899999999    1.42689900000000    0.32635000000000
C        65.68302900000000    3.41125000000000    0.00795400000000
C        67.00401800000000    2.95337700000000   -0.02143900000000
C        68.31658800000000    3.58151000000000   -0.08256700000000
C        69.23070000000001    2.62644600000000   -0.08515000000000
C        68.55715400000001    1.33957200000000   -0.02596100000000
N        67.24509600000000    1.62817100000000    0.00882900000000
C        68.95943699999999   -0.00453100000000   -0.00153800000000
C        68.12728300000002   -1.11832000000000    0.18074300000000
C        68.56724100000000   -2.14997700000000    1.04405400000000
C        67.56905900000000   -3.07331700000000    1.04867500000000
C        66.54614400000000   -2.59338000000000    0.19524500000000
N        66.91332100000000   -1.41213300000000   -0.31526300000000
C        65.38923400000000   -3.36878700000000    0.03817700000000
C        64.06845900000000   -2.94930900000000    0.02149100000000
N        63.89206800000000   -1.61110600000000    0.02239200000000
H        62.58772700000000   -4.65597100000000   -0.00505000000000
H        60.79386800000001   -2.78493500000000   -0.02697600000000
H        61.52421800000000    2.26768000000000   -1.50204600000000
H        63.43723400000000    4.10617600000000   -1.49164100000000
H        64.79147700000000    0.78980000000000    1.01497900000000
H        65.62793000000001    4.49751200000000    0.15207000000000
H        68.53501500000002    4.64950200000000   -0.12089700000000
H        70.30701500000001    2.77248900000000   -0.12477700000000
H        69.52125100000001   -2.21438900000000    1.60160200000000
H        67.59447800000000   -4.01863500000000    1.62399500000000
H        66.32624500000000   -0.79267600000000   -1.03891300000000
H        65.44995299999999   -4.48052700000000   -0.07595200000000
C        78.34897300000000   -3.59380400000000    0.00035300000000
C        77.47442300000000   -2.59889900000000   -0.00994900000000
C        78.14588600000000   -1.32011600000000    0.00324000000000
C        77.74885500000001   -0.00453100000000   -0.00153800000000
C        78.56004800000001    1.13979300000000   -0.15566500000000
C        78.08102200000000    2.19230900000000   -0.96773000000000
C        79.06810700000000    3.13506200000000   -0.95919900000000
C        80.11537800000001    2.63326700000000   -0.14639600000000
N        79.77652500000001    1.42689900000000    0.32635000000000
C        81.27575600000000    3.41125000000000    0.00795400000000
C        82.59674500000000    2.95337700000000   -0.02143900000000
C        83.90931500000001    3.58151000000000   -0.08256700000000
C        84.82342700000000    2.62644600000000   -0.08515000000000
C        84.14988000000000    1.33957200000000   -0.02596100000000
N        82.83782200000000    1.62817100000000    0.00882900000000
C        84.55216400000000   -0.00453100000000   -0.00153800000000
C        83.72001000000000   -1.11832000000000    0.18074300000000
C        84.15996800000001   -2.14997700000000    1.04405400000000
C        83.16178600000001   -3.07331700000000    1.04867500000000
C        82.13887000000000   -2.59338000000000    0.19524500000000
N        82.50604700000000   -1.41213300000000   -0.31526300000000
C        80.98196100000000   -3.36878700000000    0.03817700000000
C        79.66118600000001   -2.94930900000000    0.02149100000000
N        79.48479500000001   -1.61110600000000    0.02239200000000
H        78.18045300000000   -4.65597100000000   -0.00505000000000
H        76.38659500000000   -2.78493500000000   -0.02697600000000
H        77.11694400000000    2.26768000000000   -1.50204600000000
H        79.02996000000000    4.10617600000000   -1.49164100000000
H        80.38420400000000    0.78980000000000    1.01497900000000
H        81.22065600000001    4.49751200000000    0.15207000000000
H        84.12774100000000    4.64950200000000   -0.12089700000000
H        85.89974200000000    2.77248900000000   -0.12477700000000
H        85.11397800000000   -2.21438900000000    1.60160200000000
H        83.18720500000002   -4.01863500000000    1.62399500000000
H        81.91897100000000   -0.79267600000000   -1.03891300000000
H        81.04267900000001   -4.48052700000000   -0.07595200000000
C        93.94169900000000   -3.59380400000000    0.00035300000000
C        93.06714900000000   -2.59889900000000   -0.00994900000000
C        93.73861300000000   -1.32011600000000    0.00324000000000
C        93.34158200000000   -0.00453100000000   -0.00153800000000
C        94.15277399999999    1.13979300000000   -0.15566500000000
C        93.67374800000000    2.19230900000000   -0.96773000000000
C        94.66083399999999    3.13506200000000   -0.95919900000000
C        95.70810500000002    2.63326700000000   -0.14639600000000
N        95.36925200000002    1.42689900000000    0.32635000000000
C        96.86848200000000    3.41125000000000    0.00795400000000
C        98.18947100000000    2.95337700000000   -0.02143900000000
C        99.50204100000002    3.58151000000000   -0.08256700000000
C       100.41615400000001    2.62644600000000   -0.08515000000000
C        99.74260700000001    1.33957200000000   -0.02596100000000
N        98.43054900000001    1.62817100000000    0.00882900000000
C       100.14489000000000   -0.00453100000000   -0.00153800000000
C        99.31273600000000   -1.11832000000000    0.18074300000000
C        99.75269500000002   -2.14997700000000    1.04405400000000
C        98.75451200000001   -3.07331700000000    1.04867500000000
C        97.73159699999999   -2.59338000000000    0.19524500000000
N        98.09877400000002   -1.41213300000000   -0.31526300000000
C        96.57468700000000   -3.36878700000000    0.03817700000000
C        95.25391200000000   -2.94930900000000    0.02149100000000
N        95.07752100000002   -1.61110600000000    0.02239200000000
H        93.77318000000001   -4.65597100000000   -0.00505000000000
H        91.97932100000000   -2.78493500000000   -0.02697600000000
H        92.70967100000000    2.26768000000000   -1.50204600000000
H        94.62268700000000    4.10617600000000   -1.49164100000000
H        95.97693000000000    0.78980000000000    1.01497900000000
H        96.81338300000000    4.49751200000000    0.15207000000000
H        99.72046800000001    4.64950200000000   -0.12089700000000
H       101.49246800000000    2.77248900000000   -0.12477700000000
H       100.70670400000000   -2.21438900000000    1.60160200000000
H        98.77993100000000   -4.01863500000000    1.62399500000000
H        97.51169800000000   -0.79267600000000   -1.03891300000000
H        96.63540600000000   -4.48052700000000   -0.07595200000000
248
 energy: -427.061595170521 gnorm: 0.620276247069 xtb: 6.4.1 (bd6e46d)
C        35.41226054068455    3.51214416673742    0.79017882789155
C        36.31935207604418    2.56270231144556    0.58774246278619
C        35.64315612154607    1.30862175365152    0.28699704477968
C        36.00315578354838    0.01178079555862    0.00241169637559
C        35.19384473194125   -1.12024798733246   -0.08046002318719
C        35.64178660193407   -2.33995691987663    0.49868806393786
C        34.66702377778224   -3.27236147565996    0.29320607319718
C        33.62606825709544   -2.61011932431093   -0.41013754479644
N        33.96434447720779   -1.31529183706024   -0.62623940288569
C        32.46383946372663   -3.33144080518423   -0.74221652835095
C        31.15428500122180   -2.87376140332317   -0.62810783912192
C        29.84401223023012   -3.49481317909384   -0.72445566218292
C        28.91764989113689   -2.54317403655227   -0.51455056720934
C        29.62825177728421   -1.29836927966474   -0.27374289779353
N        30.94904121723123   -1.56673574423573   -0.35604677400068
C        29.21641852093052   -0.00213776881769   -0.00870770020292
C        30.04247667859094    1.13899822052110    0.06397481663945
C        29.61344950109155    2.34816868112703   -0.54254181946039
C        30.61049544596313    3.26545201716530   -0.34976829950546
C        31.63318315960491    2.59886787246539    0.37316273228525
N        31.26907832042414    1.31507032021978    0.60865617248525
C        32.80398776796473    3.30501164861495    0.69884211291456
C        34.11332612171528    2.87944554263072    0.62389763476726
N        34.30012095501079    1.57323173481896    0.32625122223798
H        35.58426107904682    4.53991818605021    1.02792421701714
H        37.38215089149646    2.68979671254872    0.63883206591288
H        36.59096763558072   -2.51889146760961    1.01279034602869
H        34.69755063822257   -4.31852611665474    0.61909349861837
H        33.37630370780752   -0.56900417299335   -1.15715680423233
H        32.56410246451008   -4.36174853627380   -1.10798930563051
H        29.64670800853014   -4.54530766699337   -0.92965764009551
H        27.85316128423437   -2.72924122832238   -0.53361601392623
H        28.14447090494016    0.10049929703980    0.12192533451891
H        28.67069650834560    2.53346277616246   -1.07005197762157
H        30.60169143536007    4.30498490442879   -0.69631030910865
H        31.84470864237687    0.57846813156628    1.16732886490979
H        32.72502717579993    4.35136316518050    1.04243559600157
C       111.28223231378806   -3.49801616863145    0.82658386960682
C       110.37512801600290   -2.55072650282366    0.61429815034113
C       111.05130984289772   -1.29981698427271    0.30054474064273
C       110.69135275540064   -0.00591976417332    0.00248670453233
C       111.50067747894023    1.12508943439723   -0.09212329122771
C       111.05270843403186    2.35074353674183    0.47433126049593
C       112.02746348998980    3.28095997089561    0.25917696143960
C       113.06842693113484    2.61145250968243   -0.43725632742681
N       112.73016173482056    1.31445273459656   -0.63989681840158
C       114.23064824620174    3.32928304071236   -0.77680679469743
C       115.54020458034789    2.87281151357942   -0.65795085848508
C       116.85047663412178    3.49283054536965   -0.76074188162766
C       117.77683920814495    2.54342196559786   -0.54096551182404
C       117.06623758228218    1.30118584520448   -0.28724323346200
N       115.74544755616311    1.56868310979129   -0.37232822169050
C       117.47807052281354    0.00777701604031   -0.00875898536228
C       116.65201272449130   -1.13254248534434    0.07577059491476
C       117.08103941346103   -2.34794627748660   -0.51815450785933
C       116.08399282763351   -3.26317892389798   -0.31586450459525
C       115.06130556814911   -2.58912227418518    0.40010497319894
N       115.42541092840453   -1.30294855257532    0.62225206525540
C       113.89049970778731   -3.29184528631136    0.73309823164163
C       112.58115826101250   -2.86707600386179    0.65373428169700
N       112.39435287268250   -1.56402417666837    0.34254271668310
H       111.11022925451421   -4.52326742983256    1.07498881435938
H       109.31234250346628   -2.67729750141052    0.66670397282601
H       110.10352431488626    2.53500381171522    0.98654217228528
H       111.99693769600394    4.33045350141104    0.57417884903657
H       113.31818707144642    0.56268657230024   -1.16303571939493
H       114.13038686642992    4.35573642948807   -1.15325796018233
H       117.04778092895027    4.54113698957593   -0.97684397695511
H       118.84132768406469    2.72928126257859   -0.56196191313114
H       118.55001806451355   -0.09349834552677    0.12293278173871
H       118.02379224071407   -2.53870976704028   -1.04371226927766
H       116.09279738564638   -4.30625510975771   -0.65159179176149
H       114.84978040519431   -0.56058325141813    1.17324312906869
H       113.96946150876680   -4.33457231247096    1.08754087112149
C        38.92070370437404    0.01377434257190    0.00545681229146
C        40.14530717022160   -0.01115518518249   -0.00512268630565
C        41.54605997113573   -0.03173246850977   -0.00950554926195
C        42.77084866018227   -0.03409766814111   -0.00888865258303
C        44.14034054500956   -0.01347572321753   -0.00917060608928
C        45.33740440871151    0.02245791755878    0.00197566709056
C        54.58176146442915    0.00918737714704    0.00852869457128
C        55.78074706607007   -0.01459489036940   -0.00596121591321
C        57.14373753337878   -0.03107624700274   -0.01024048473071
C        58.36865329566648   -0.03377101167325   -0.00879881301620
C        59.73244642912218   -0.01372277801653   -0.00908473366141
C        60.93104420267486    0.02223524613231    0.00209031957196
C        70.17436938371021    0.00917440470500    0.00846837532264
C        71.37362513880095   -0.01460481879190   -0.00595859438254
C        72.73638556690520   -0.03108023413768   -0.01022831660758
C        73.96145690821500   -0.03377096944515   -0.00879525111427
C        75.32512053963234   -0.01372864002090   -0.00908553619631
C        76.52378962849126    0.02220717374810    0.00208995939402
C        85.76709639681349    0.00914974767787    0.00847480139379
C        86.96631555352826   -0.01461120229489   -0.00595346894104
C        88.32917153584887   -0.03108612362961   -0.01022969150796
C        89.55412240638347   -0.03377294977823   -0.00877811314296
C        90.91797224043128   -0.01373051229292   -0.00908892884669
C        92.11641960036245    0.02219459855369    0.00202624833091
C       101.36064204054415    0.00899680091925    0.00863865389469
C       102.55841409169949   -0.01472288094571   -0.00577558482413
C       103.92658160953471   -0.03092527864449   -0.01015385763488
C       105.15150140654424   -0.03342924188634   -0.00952679674222
C       106.55097684423460   -0.01560409737628   -0.00966906048908
C       107.77425503211880    0.01490403267537    0.00552626089301
C        47.17120883683983   -3.59654791054881   -0.00059501698680
C        46.27908233949144   -2.59964782218992   -0.00939464674509
C        46.98810010225313   -1.33767833987766    0.00712857467228
C        46.60765585206530   -0.00990744036936   -0.00029868051025
C        47.38049414302022    1.14049833845952   -0.15813739341404
C        46.89462797878019    2.19362333255739   -0.96601969482932
C        47.88226437601271    3.14180339536948   -0.95743236449085
C        48.93500290103322    2.64468629369813   -0.14666512486783
N        48.60092474795284    1.42416360169762    0.32770404613048
C        50.10373407253977    3.41607730846424    0.01157777451609
C        51.41147091932924    2.94967507084671   -0.01667591741540
C        52.72076341727253    3.59094457338081   -0.08097530397424
C        53.64420221861982    2.62402001499823   -0.08590076506549
C        52.93701672358287    1.35420047738662   -0.03022238659178
N        51.63689737560212    1.61986827807932    0.00734397097280
C        53.31697532855654    0.00500520643036   -0.00339251023405
C        52.52610488361481   -1.12017752682002    0.18344121915857
C        52.97640097963051   -2.15043778205461    1.04241031774281
C        51.97750574382884   -3.08116082398782    1.04760372188359
C        50.94885281813996   -2.60573055269882    0.19602395483625
N        51.31093291566303   -1.40877425363628   -0.31688207399491
C        49.78743419925283   -3.38024282766046    0.03383572868787
C        48.47825470044913   -2.94374402379495    0.01661215839074
N        48.30542012239507   -1.60697057488446    0.02345712312929
H        46.99629637741839   -4.65579107349464   -0.00510590970455
H        45.20322230071267   -2.77989703724904   -0.02676968516580
H        45.93831030811715    2.26392589103850   -1.49748062953525
H        47.84724557616747    4.10011756526449   -1.48756124669205
H        49.18809038915679    0.80178341715459    0.99869521129754
H        50.03235278164878    4.49620975680270    0.14569130781929
H        52.93932967880192    4.64916758448868   -0.12074545004789
H        54.71392544209807    2.77007621087225   -0.12497775850782
H        53.92168186483681   -2.21061245289193    1.59667403351281
H        51.99863433561380   -4.01355326729835    1.61975047527541
H        50.74395112113294   -0.80425795087710   -1.02190205595502
H        49.86162490785075   -4.47692787634329   -0.06948076253443
C        62.76387668540082   -3.59669029339417   -0.00059159412735
C        61.87189852885196   -2.59988372438476   -0.00937799128441
C        62.58110480388158   -1.33791182190772    0.00701857083469
C        62.19993960849281   -0.00971756138043   -0.00019120343918
C        62.97341918739655    1.14088402763062   -0.15827321871745
C        62.48752722507303    2.19352431385243   -0.96615641321202
C        63.47504880707716    3.14200480849751   -0.95725274073396
C        64.52774902495450    2.64491573516295   -0.14669583443859
N        64.19340510030867    1.42408720515046    0.32772160762029
C        65.69637181249132    3.41600659926694    0.01146049155267
C        67.00429615969431    2.94973118415070   -0.01667196692619
C        68.31341607931873    3.59095347164228   -0.08094436406839
C        69.23693342249329    2.62395358754894   -0.08587501174838
C        68.52979210057761    1.35433203794243   -0.03017171144235
N        67.22965172813269    1.61989271380807    0.00740336614951
C        68.90984963414087    0.00500166723639   -0.00342786992179
C        68.11887902986385   -1.12030228930916    0.18349941076955
C        68.56918225059228   -2.15025891062343    1.04235629781083
C        67.56994558952077   -3.08103948654632    1.04769971257610
C        66.54176970342033   -2.60554785059188    0.19612402594157
N        66.90368081140170   -1.40893246508753   -0.31692175669483
C        65.37961092022123   -3.38034465278026    0.03370824613752
C        64.07132072153325   -2.94402911984109    0.01677349671574
N        63.89765393585961   -1.60653967214363    0.02354268518464
H        62.58899655021863   -4.65585550918912   -0.00511301006648
H        60.79592354383177   -2.77991375318762   -0.02676417368477
H        61.53108045053916    2.26389102905627   -1.49748306583671
H        63.43998391959497    4.10017650705201   -1.48753995359793
H        64.78075371984907    0.80174307166634    0.99866195358854
H        65.62508778148396    4.49620249845206    0.14563078072823
H        68.53204462245783    4.64915854521725   -0.12075137487323
H        70.30663996201966    2.77006481609590   -0.12498411334614
H        69.51443503392744   -2.21061552870378    1.59664159897127
H        67.59133894019956   -4.01354347626096    1.61972644170424
H        66.33667165215512   -0.80430521404418   -1.02191031553816
H        65.45430284140697   -4.47694037605472   -0.06964725587539
C        78.35655624023812   -3.59670551006919   -0.00058190980130
C        77.46464368940022   -2.59995141017519   -0.00936685790289
C        78.17390109303682   -1.33788023262165    0.00702449497167
C        77.79265727165080   -0.00972357886252   -0.00018514090649
C        78.56619677578904    1.14090078415108   -0.15827572995558
C        78.08029720914710    2.19355553958577   -0.96619569941617
C        79.06771074398657    3.14206741213455   -0.95719232603124
C        80.12053053043603    2.64499997738347   -0.14667355503820
N        79.78609519192383    1.42402572257419    0.32770892520580
C        81.28896684455376    3.41595872121780    0.01140589205348
C        82.59711439790692    2.94970713876696   -0.01663726139540
C        83.90609729713569    3.59094212138930   -0.08093541632578
C        84.82967419321913    2.62389410577144   -0.08586402488442
C        84.12257601637421    1.35437367691660   -0.03018433810388
N        82.82234865455594    1.61995563580421    0.00743856984681
C        84.50257517888467    0.00499121790746   -0.00341580762007
C        83.71165908391126   -1.12029470914432    0.18349961193524
C        84.16195744608571   -2.15022985756832    1.04231177043894
C        83.16260121738257   -3.08097024417683    1.04776079299048
C        82.13455495547129   -2.60545962997974    0.19614994120008
N        82.49637204089176   -1.40900002888793   -0.31693345754550