248
 energy: -428.248094188170 gnorm: 0.000659496970 xtb: 6.4.1 (bd6e46d)
C        35.56310929163563    3.42012851569454    0.22919789945697
C        36.52054410550296    2.47385849046768    0.17405296685102
C        35.82167250701647    1.20564890952687    0.06537503576754
C        36.48491270275408   -0.03570699757747   -0.01280208398641
C        35.83499971259550   -1.27772457989924   -0.10611727538293
C        36.43958677584074   -2.56119081412732   -0.17852334376499
C        35.43606338149714   -3.48338034204669   -0.25768701887589
C        34.19736749534296   -2.78271787958714   -0.23680666610012
N        34.49113799811177   -1.45598773544839   -0.14341697695973
C        32.92990993304185   -3.34219883056625   -0.30275778713842
C        31.71274347759188   -2.67514399896542   -0.28938663635573
C        30.43524665103044   -3.36885109813111   -0.36993310791108
C        29.48659936802745   -2.41502133577456   -0.33184081203800
C        30.19181051044930   -1.14688632614461   -0.22695116598106
N        31.52731343314318   -1.34158124811175   -0.20473641329923
C        29.54601057420716    0.08108688715207   -0.15758326004918
C        30.17094383042178    1.31407612506822   -0.05154707067041
C        29.56474841800690    2.60042768377235    0.02946810133173
C        30.56432786226766    3.52293267036676    0.12426058362545
C        31.80679568363379    2.82469326920066    0.10276738389650
N        31.51693011851957    1.50129020231686   -0.00390990366715
C        33.07448858134301    3.38288038895213    0.17503069250735
C        34.29224948379789    2.71973352682045    0.15142950800701
N        34.49041927192470    1.38296797848658    0.05435499737171
H        35.66967417672639    4.48460920257984    0.31284663511650
H        37.58721893812671    2.58500931403490    0.20281257567454
H        37.49722524516537   -2.73995412704282   -0.16962747675686
H        35.53401008089733   -4.54938119177358   -0.32496489311695
H        33.81743961081643   -0.69976845119067   -0.10736670865182
H        32.88859051895971   -4.42027884589070   -0.37473828773964
H        30.32288598920842   -4.43360892067759   -0.44437856414095
H        28.41901911325657   -2.51876681596331   -0.36772488336532
H        28.46597066384795    0.07520636687447   -0.18637526758798
H        28.50730219500637    2.78022218350021    0.01645420831609
H        30.46492543585585    4.58830485146367    0.20198070733961
H        32.18896054741745    0.74451341602642   -0.04306833788104
H        33.11735658941469    4.46024323519600    0.25755198737417
C       111.12709571641257   -3.40889299718016    0.36723390142288
C       110.16879288905669   -2.46363247403246    0.30956894725696
C       110.86576284449957   -1.19782105058434    0.16644070140216
C       110.20127472719713    0.04144250664029    0.06873106310873
C       110.85004331152371    1.28008519359789   -0.06869625466703
C       110.24478668627023    2.56119964714616   -0.17044663078140
C       111.24741974515975    3.48015337180376   -0.28892284318564
C       112.48619348248855    2.77983641021730   -0.26230791094380
N       112.19338630793023    1.45645155307161   -0.12772952005538
C       113.75279823414435    3.33740388610466   -0.35572473236877
C       114.97065248401697    2.67196291036834   -0.33086001262517
C       116.24700806806221    3.36446085150030   -0.43609558766139
C       117.19697722285495    2.41320232490371   -0.37406496290001
C       116.49362278138886    1.14765453972763   -0.23208046995314
N       115.15802035812013    1.34144732922613   -0.20989622186647
C       117.14085176857655   -0.07774855009009   -0.13542856947556
C       116.51691926135621   -1.30849291646478   -0.00125669053203
C       117.12359774483387   -2.59316662748176    0.10007379574469
C       116.12448515531241   -3.51381744933247    0.21543562579919
C       114.88185547839188   -2.81597922104999    0.18825211183872
N       115.17117548547644   -1.49473194523355    0.05643277265038
C       113.61478011001870   -3.37269357413622    0.28046934861604
C       112.39663228058866   -2.71010949402049    0.25884531496516
N       112.19678648520751   -1.37540997094688    0.13950969484427
H       111.02198509247047   -4.47168677544343    0.47170223262497
H       109.10263733654541   -2.57403426946342    0.35587065547941
H       109.18738082990133    2.74069893745091   -0.15369183886932
H       111.14880655986636    4.54380431380904   -0.38587402281896
H       112.86677639454942    0.70065356959545   -0.07835239610099
H       113.79276459135534    4.41297086858518   -0.45925180043630
H       116.35773356659634    4.42681761811832   -0.54107436421136
H       118.26429561921941    2.51714320884044   -0.41650007748487
H       118.22077087138886   -0.07173150223285   -0.16796351238200
H       118.18098610222916   -2.77316814651347    0.08535113336505
H       116.22427112329822   -4.57769705573677    0.31106081796761
H       114.49942842442682   -0.73830383472799    0.00645765255823
H       113.57286373501623   -4.44850817720734    0.38174516627814
C        37.88049761243540   -0.03745428583321    0.00141274286530
C        39.10089486729551   -0.02752758342073    0.00906503792795
C        40.43616360355664   -0.01849750626946    0.01471940721572
C        41.66098502242074   -0.00613379635853    0.01507374090478
C        42.99603667097035    0.00533322550110    0.01790347260701
C        44.21672497556628    0.01728308055263    0.01794163633326
C        54.02931999639711   -0.03940370463633    0.01823430598444
C        55.25002588338604   -0.02486516257112    0.00476054504816
C        56.58439418305871   -0.00408293053657   -0.00345082344573
C        57.80928541660066    0.02046094272668   -0.01234680662994
C        59.14366767489916    0.03965350159931   -0.01923912262898
C        60.36442828600443    0.05526412391575   -0.02411349955051
C        70.17406559918921   -0.03285207115821    0.02237994343013
C        71.39480541534776   -0.01732382820695    0.01584022494723
C        72.72924841740813   -0.00404140972153    0.00807777981125
C        73.95421839949179    0.01899685060355   -0.00241402115659
C        75.28866466990702    0.03362196023677   -0.01161036864767
C        76.50944572023404    0.04561708097022   -0.01943114371287
C        86.32068518353553   -0.03456932479206   -0.00139421605659
C        87.54150805460445   -0.02065933634132   -0.00375176681502
C        88.87603251301545   -0.00527722680488   -0.00435466278406
C        90.10105681079249    0.01388567887615   -0.00509868826492
C        91.43555740817894    0.03050357989979   -0.00154598412528
C        92.65633715693789    0.04648907015310    0.00389780460021
C       102.47026342791989    0.00044286811596    0.17431779157842
C       103.69094237612281    0.01569956348927    0.17627119736992
C       105.02599357647048    0.02670712895971    0.17000829597375
C       106.25077544733503    0.03626951048283    0.15407766750518
C       107.58592095866955    0.04187403734901    0.13300337770684
C       108.80614214990879    0.04520637761165    0.10546608123396
C        46.58036886535575   -3.40373524889184    0.42595131248708
C        45.60841497561395   -2.47727271401343    0.31389211077303
C        46.28805774475767   -1.20380625976327    0.16411665929459
C        45.61096886372931    0.02428702324954    0.01962446811405
C        46.26085590652045    1.26226308052261   -0.12393468904148
C        45.66566572531738    2.54180716879373   -0.27474060508844
C        46.67804260432043    3.45252741410912   -0.38223054669237
C        47.91081446072771    2.74732995910060   -0.29934390244641
N        47.60646926391457    1.42946748752844   -0.14347930233311
C        49.18035610078169    3.30516450887461   -0.36697125023232
C        50.40549370176775    2.66275834424192   -0.29300575893831
C        51.66622569089596    3.38003668949447   -0.38132253461173
C        52.63796751832611    2.45291432872183   -0.27348676009969
C        51.95802804457147    1.17995376343902   -0.12020629455936
N        50.62421647417025    1.33448007162287   -0.13543257349288
C        52.63554442921971   -0.04811508105900    0.02450269733154
C        51.98630427190174   -1.28562607615789    0.17490145274703
C        52.58127123158592   -2.56497048972221    0.32808039739772
C        51.56860405570371   -3.47500794339841    0.43856723177866
C        50.33586271952642   -2.76966807541319    0.35474169439309
N        50.64068349679467   -1.45213028379654    0.19656082605589
C        49.06641109693753   -3.32748794958303    0.42100558464149
C        47.84098478637152   -2.68559506582323    0.34285306487938
N        47.62213561306025   -1.35765620707924    0.18465558345554
H        46.48988377195505   -4.46550984466545    0.55198096810146
H        44.54330395949293   -2.60504357827962    0.32718684410697
H        44.60939420292395    2.72689602191411   -0.29669323266940
H        46.58895886418263    4.51405398893155   -0.50760427397697
H        48.26189738146910    0.66094936495108   -0.05314456111164
H        49.21418581109710    4.37876737328545   -0.49437914365956
H        51.75698960696034    4.44171240117926   -0.50796486683551
H        53.70308684314423    2.58001914892853   -0.29118806895053
H        53.63749818962582   -2.75049642212622    0.34939242274737
H        51.65743412304896   -4.53631247169881    0.56609082292950
H        49.98674293829880   -0.68249041807697    0.10464480771593
H        49.03260545695191   -4.40100007836636    0.54927131749014
C        62.71316187800048   -3.37122612218551    0.39491208968988
C        61.74536525234618   -2.44113726987182    0.27742452394534
C        62.43062716731156   -1.17057667732215    0.12809205838830
C        61.75821945233375    0.05946900932150   -0.02371513024555
C        62.41218795213057    1.29466119449513   -0.17284628043138
C        61.82162535465480    2.57509587570338   -0.33348163225931
C        62.83736097197619    3.48237883215537   -0.43888260894723
C        64.06751275027813    2.77410421467067   -0.34438433553745
N        63.75833501072382    1.45772763548561   -0.18538801010031
C        65.33915751403072    3.32814784883717   -0.40251477279108
C        66.56165528721648    2.68232914071318   -0.31497422317561
C        67.82531822304124    3.39566325354124   -0.39265707412531
C        68.79318236660856    2.46567270595278   -0.27502150419861
C        68.10799898785774    1.19500276389300   -0.12613311969385
N        66.77484805714762    1.35371304786905   -0.15298239784203
C        68.78025864131449   -0.03522887262563    0.02486558298654
C        68.12604106535937   -1.27033040318200    0.17388716838037
C        68.71668917508541   -2.55085573775904    0.33374737855360
C        67.70107754093733   -3.45824679432471    0.43902545827179
C        66.47088816047605   -2.74997964622883    0.34506292320011
N        66.77995905171491   -1.43345665461661    0.18665470605538
C        65.19932439783899   -3.30401912005963    0.40340052182308
C        63.97682938258500   -2.65805786516045    0.31658611625176
N        63.76379115530391   -1.32942340174656    0.15463546793868
H        62.61787930868646   -4.43243099291102    0.52205642754814
H        60.67977004686698   -2.56492100896370    0.28597760326950
H        60.76604491248388    2.76309315176992   -0.36307075065799
H        62.75212558129525    4.54356761735604   -0.56969994493454
H        64.41045518945060    0.68737967612020   -0.08714987150374
H        65.37727609199345    4.40126307439368   -0.53272986171049
H        67.92048566588194    4.45691437250566   -0.51950845028605
H        69.85877562680190    2.58954352405395   -0.28293003938174
H        69.77228392772743   -2.73878566667781    0.36315043119332
H        67.78637831380026   -4.51948626318743    0.56934327015788
H        66.12734064677078   -0.66350165509305    0.08877323171145
H        65.16117033656322   -4.37718714230954    0.53316520893407
C        78.86302284912314   -3.37957055765966    0.39340936523658
C        77.89382747870805   -2.45043661206456    0.28003943535207
C        78.57723504609292   -1.17942205870269    0.12618016305418
C        77.90322922563722    0.04999734478578   -0.02330493417458
C        78.55596267029217    1.28562636215818   -0.17469866556781
C        77.96413455299101    2.56598714548124   -0.33130627999855
C        78.97898104881580    3.47372974406682   -0.44101647559251
C        80.20987000656864    2.76581285826054   -0.35340837389529
N        79.90194153785576    1.44920553239929   -0.19361531699983
C        81.48088885831039    3.32037465018577   -0.41877205730633
C        82.70433094885573    2.67542545807591   -0.33761288267515
C        83.96700441479948    3.38962922078600   -0.42273836077621
C        84.93619965076078    2.46074066582343   -0.30724150680239
C        84.25280393068874    1.18978185320188   -0.15294193724989
N        82.91936802271384    1.34726829617096   -0.17455620899597
C        84.92684555424351   -0.03944132479787   -0.00191338263781
C        84.27408037407169   -1.27526564541550    0.14775459827751
C        84.86589788796819   -2.55573359574685    0.30343543244503
C        83.85105958450188   -3.46374058368231    0.41102147378020
C        82.62017545056551   -2.75583953859274    0.32336423296738
N        82.92807993578843   -1.43904341429179    0.16525850285077
C        81.34911340544386   -3.31048964712659    0.38796414953634
C        80.12571785269023   -2.66538332232658    0.30794236678025
N        79.91064986639428   -1.33704501884636    0.14632043141359
H        78.76936065023578   -4.44071894895688    0.52224136560347
H        76.82837032324854   -2.57501160537428    0.29420253539771
H        76.90836319635409    2.75366608372949   -0.35539701801107
H        78.89267548733812    4.53502331556602   -0.57026949649826
H        80.55485016995029    0.67902176140802   -0.09921994601182
H        81.51767218036011    4.39348119245889   -0.54950374228864
H        84.06069670171151    4.45064160691723   -0.55264416173312
H        86.00164574391017    2.58547446454584   -0.32056185855139
H        85.92167835140349   -2.74327813084090    0.32815647514990
H        83.93737079428873   -4.52519629850356    0.53889756072874
H        82.27509229584426   -0.66889497509841    0.07115645946122
H        81.31228488832207   -4.38372617326279    0.51757806456215
C        95.01691689827065   -3.36733006876633    0.47714236649575
C        94.04580968163071   -2.44347045008999    0.33951944200043
C        94.72624996154875   -1.17041526479667    0.18950439365541
C        94.05006440138519    0.05519742573266    0.01986596692990
C        94.70120172922891    1.29170902799173   -0.13091436722240
C        94.10825383814289    2.56856993922949   -0.31033940717919
C        95.12204767765169    3.47865009295763   -0.40946679295888
C        96.35348482199278    2.77583178054345   -0.29210314027026
N        96.04677743464391    1.45958833841063   -0.12663709653217
C        97.62337169640459    3.33483424159250   -0.33643354494754
C        98.84799015865217    2.69609614092677   -0.22635541142652
C       100.10869670652494    3.41583909004972   -0.29217902674709
C       101.08004123056709    2.49212629349779   -0.15482175691897
C       100.39997888377147    1.21883643750506   -0.00594588776036
N        99.06619442473173    1.37013889962224   -0.05147348713009
C       101.07611292035403   -0.00691392412186    0.16193237830955
C       100.42460690960516   -1.24330704860052    0.31200633516855
C       101.01751066834059   -2.52035704759175    0.49006408122310
C       100.00370256120898   -3.43042433862393    0.58949467698244
C        98.77230760246225   -2.72739726612957    0.47364173697975
N        99.07889432530354   -1.41116815375563    0.30878565514706
C        97.50234181534395   -3.28659486347497    0.51915421832805
C        96.27782424240016   -2.64793659895096    0.41027737285094
N        96.05976157866347   -1.32184203400757    0.23489873522499
H        94.92560542276942   -4.42804625080933    0.61122392859399
H        92.98083180762308   -2.57291317010054    0.33469501768283
H        93.05250201906928    2.75239757125960   -0.35590373405976
H        95.03471442208730    4.53836349855493   -0.55050334467765
H        96.69973229573425    0.69202994484596   -0.01281884124880
H        97.65834998623066    4.40708109892930   -0.47467307621732
H       100.19971609335755    4.47667584998718   -0.42549462862712
H       102.14497313716926    2.62184106429249   -0.14948103921872
H       102.07325746893645   -2.70439100775684    0.53465091303597
H       100.09094888090124   -4.49024374047284    0.72973132604167
H        98.42572207746259   -0.64366952100697    0.19574131351241
H        97.46761866690322   -4.35888139795170    0.65713756144742
