      -----------------------------------------------------------      
     |                   =====================                   |     
     |                           x T B                           |     
     |                   =====================                   |     
     |                         S. Grimme                         |     
     |          Mulliken Center for Theoretical Chemistry        |     
     |                    University of Bonn                     |     
      -----------------------------------------------------------      

   * xtb version 6.4.1 (bd6e46d) compiled by 'conda@4901f00b25ba' on 2021-06-10

   xtb is free software: you can redistribute it and/or modify it under
   the terms of the GNU Lesser General Public License as published by
   the Free Software Foundation, either version 3 of the License, or
   (at your option) any later version.
   
   xtb is distributed in the hope that it will be useful,
   but WITHOUT ANY WARRANTY; without even the implied warranty of
   MERCHANTABILITY or FITNESS FOR A PARTICULAR PURPOSE.  See the
   GNU Lesser General Public License for more details.
   
   Cite this work as:
   * C. Bannwarth, E. Caldeweyher, S. Ehlert, A. Hansen, P. Pracht,
     J. Seibert, S. Spicher, S. Grimme, WIREs Comput. Mol. Sci., 2020, 11,
     e01493. DOI: 10.1002/wcms.1493
   
   for GFN2-xTB:
   * C. Bannwarth, S. Ehlert and S. Grimme., J. Chem. Theory Comput., 2019,
     15, 1652-1671. DOI: 10.1021/acs.jctc.8b01176
   for GFN1-xTB:
   * S. Grimme, C. Bannwarth, P. Shushkov, J. Chem. Theory Comput., 2017,
     13, 1989-2009. DOI: 10.1021/acs.jctc.7b00118
   for GFN0-xTB:
   * P. Pracht, E. Caldeweyher, S. Ehlert, S. Grimme, ChemRxiv, 2019, preprint.
     DOI: 10.26434/chemrxiv.8326202.v1
   for GFN-FF:
   * S. Spicher and S. Grimme, Angew. Chem. Int. Ed., 2020, 59, 15665-15673.
     DOI: 10.1002/anie.202004239
   
   for DFT-D4:
   * E. Caldeweyher, C. Bannwarth and S. Grimme, J. Chem. Phys., 2017,
     147, 034112. DOI: 10.1063/1.4993215
   * E. Caldeweyher, S. Ehlert, A. Hansen, H. Neugebauer, S. Spicher,
     C. Bannwarth and S. Grimme, J. Chem. Phys., 2019, 150, 154122.
     DOI: 10.1063/1.5090222
   * E. Caldeweyher, J.-M. Mewes, S. Ehlert and S. Grimme, Phys. Chem. Chem. Phys.
     2020, 22, 8499-8512. DOI: 10.1039/D0CP00502A
   
   for sTDA-xTB:
   * S. Grimme and C. Bannwarth, J. Chem. Phys., 2016, 145, 054103.
     DOI: 10.1063/1.4959605
   
   in the mass-spec context:
   * V. Asgeirsson, C. Bauer and S. Grimme, Chem. Sci., 2017, 8, 4879.
     DOI: 10.1039/c7sc00601b
   * J. Koopman and S. Grimme, ACS Omega 2019, 4, 12, 15120-15133.
     DOI: 10.1021/acsomega.9b02011
   
   for metadynamics refer to:
   * S. Grimme, J. Chem. Theory Comput., 2019, 155, 2847-2862
     DOI: 10.1021/acs.jctc.9b00143
   
   for SPH calculations refer to:
   * S. Spicher and S. Grimme, J. Chem. Theory Comput., 2021, 17, 1701-1714
     DOI: 10.1021/acs.jctc.0c01306
   
   with help from (in alphabetical order)
   P. Atkinson, C. Bannwarth, F. Bohle, G. Brandenburg, E. Caldeweyher
   M. Checinski, S. Dohm, S. Ehlert, S. Ehrlich, I. Gerasimov, J. Koopman
   C. Lavigne, S. Lehtola, F. März, M. Müller, F. Musil, H. Neugebauer
   J. Pisarek, C. Plett, P. Pracht, J. Seibert, P. Shushkov, S. Spicher
   M. Stahn, M. Steiner, T. Strunk, J. Stückrath, T. Rose, and J. Unsleber
   
 * started run on 2021/11/20 at 13:54:01.870     

           -------------------------------------------------
          |                Calculation Setup                |
           -------------------------------------------------

          program call               : /home/jeff/miniconda3/bin/xtb input_structure_1.xyz --gfn 2 --ohess normal --parallel 1 --etemp 300 --chrg 0 --uhf 0 -I det_control.in
          hostname                   : jelfscompute1
          coordinate file            : input_structure_1.xyz
          omp threads                :                     1
          number of atoms            :                   271
          number of electrons        :                   924
          charge                     :                     0
          spin                       :                   0.0
          first test random number   :      0.25156080063636

   ID    Z sym.   atoms
    1   26 Fe     1, 37, 97, 132, 167, 202, 237
    2    6 C      2-9, 11-15, 17-21, 23, 24, 38-45, 47-51, 53-57, 59, 60,
                  73-96, 98-105, 107-111, 113-117, 119, 120, 133-140,
                  142-146, 148-152, 154, 155, 168-175, 177-181, 183-187, 189,
                  190, 203-210, 212-216, 218-222, 224, 225, 238-245, 247-251,
                  253-257, 259, 260
    3    7 N      10, 16, 22, 25, 46, 52, 58, 61, 106, 112, 118, 121, 141,
                  147, 153, 156, 176, 182, 188, 191, 211, 217, 223, 226, 246,
                  252, 258, 261
    4    1 H      26-36, 62-72, 122-131, 157-166, 192-201, 227-236, 262-271

molecular fragmentation (1/2 indicates fragments):
111111111111111111111111111111111111222222222222222222222222222222222222
222222222222222222222222222222222222222222222222222222222222222222222222
222222222222222222222222222222222222222222222222222222222222222222222222
2222222222222222222222222222222222222222222222222222222
# atoms in fragment 1/2:    36   235
 fragment masses (1/2) :      363.17     2462.26
CMA distance (Bohr)    :  90.330
constraining FC (au)   :  0.0500

           -------------------------------------------------
          |                 G F N 2 - x T B                 |
           -------------------------------------------------

        Reference                      10.1021/acs.jctc.8b01176
      * Hamiltonian:
        H0-scaling (s, p, d)           1.850000    2.230000    2.230000
        zeta-weighting                 0.500000
      * Dispersion:
        s8                             2.700000
        a1                             0.520000
        a2                             5.000000
        s9                             5.000000
      * Repulsion:
        kExp                           1.500000    1.000000
        rExp                           1.000000
      * Coulomb:
        alpha                          2.000000
        third order                    shell-resolved
        anisotropic                    true
        a3                             3.000000
        a5                             4.000000
        cn-shift                       1.200000
        cn-exp                         4.000000
        max-rad                        5.000000


          ...................................................
          :                      SETUP                      :
          :.................................................:
          :  # basis functions                 910          :
          :  # atomic orbitals                 903          :
          :  # shells                          477          :
          :  # electrons                       924          :
          :  max. iterations                   250          :
          :  Hamiltonian                  GFN2-xTB          :
          :  restarted?                      false          :
          :  GBSA solvation                  false          :
          :  PC potential                    false          :
          :  electronic temp.          300.0000000     K    :
          :  accuracy                    1.0000000          :
          :  -> integral cutoff          0.2500000E+02      :
          :  -> integral neglect         0.1000000E-07      :
          :  -> SCF convergence          0.1000000E-05 Eh   :
          :  -> wf. convergence          0.1000000E-03 e    :
          :  Broyden damping             0.4000000          :
          ...................................................

 iter      E             dE          RMSdq      gap      omega  full diag
   1   -492.6975221 -0.492698E+03  0.859E+00    0.17       0.0  T
   2   -462.1812805  0.305162E+02  0.118E+01    0.06       1.0  T
   3   -467.9021620 -0.572088E+01  0.805E+00    0.02       1.0  T
   4   -303.8473012  0.164055E+03  0.102E+01    0.04       1.0  T
   5   -343.6101087 -0.397628E+02  0.106E+01    0.00       1.0  T
   6   -385.4652534 -0.418551E+02  0.842E+00    0.03       1.0  T
   7   -443.8129004 -0.583476E+02  0.657E+00    0.04       1.0  T
   8   -468.5919576 -0.247791E+02  0.715E+00    0.01       1.0  T
   9   -471.1325414 -0.254058E+01  0.639E+00    0.15       1.0  T
  10   -477.6961700 -0.656363E+01  0.580E+00    0.03       1.0  T
  11   -469.0518210  0.864435E+01  0.534E+00    0.02       1.0  T
  12   -478.9211446 -0.986932E+01  0.474E+00    0.01       1.0  T
  13   -483.5816663 -0.466052E+01  0.541E+00    0.06       1.0  T
  14   -483.5686679  0.129984E-01  0.428E+00    0.04       1.0  T
  15   -484.0991525 -0.530485E+00  0.429E+00    0.04       1.0  T
  16   -476.8417143  0.725744E+01  0.512E+00    0.04       1.0  T
  17   -476.2768771  0.564837E+00  0.471E+00    0.01       1.0  T
  18   -486.4005890 -0.101237E+02  0.442E+00    0.04       1.0  T
  19   -481.9099416  0.449065E+01  0.480E+00    0.01       1.0  T
  20   -469.0591845  0.128508E+02  0.554E+00    0.02       1.0  T
  21   -476.9549115 -0.789573E+01  0.666E+00    0.16       1.0  T
  22   -472.5227893  0.443212E+01  0.657E+00    0.11       1.0  T
  23   -481.2649451 -0.874216E+01  0.589E+00    0.02       1.0  T
  24   -481.5182008 -0.253256E+00  0.598E+00    0.11       1.0  T
  25   -484.4553332 -0.293713E+01  0.572E+00    0.02       1.0  T
  26   -481.3223133  0.313302E+01  0.662E+00    0.00       1.0  T
  27   -485.0269080 -0.370459E+01  0.580E+00    0.02       1.0  T
  28   -483.9533649  0.107354E+01  0.583E+00    0.04       1.0  T
  29   -484.3385260 -0.385161E+00  0.589E+00    0.05       1.0  T
  30   -485.9304765 -0.159195E+01  0.572E+00    0.00       1.0  T
  31   -485.6126869  0.317790E+00  0.574E+00    0.01       1.0  T
  32   -481.1793401  0.443335E+01  0.674E+00    0.04       1.0  T
  33   -483.3954251 -0.221608E+01  0.613E+00    0.01       1.0  T
  34   -480.4553282  0.294010E+01  0.681E+00    0.03       1.0  T
  35   -481.5836021 -0.112827E+01  0.702E+00    0.07       1.0  T
  36   -482.8078231 -0.122422E+01  0.673E+00    0.05       1.0  T
  37   -483.0866640 -0.278841E+00  0.670E+00    0.05       1.0  T
  38   -484.7847456 -0.169808E+01  0.654E+00    0.03       1.0  T
  39   -484.6605515  0.124194E+00  0.654E+00    0.03       1.0  T
  40   -487.6846714 -0.302412E+01  0.657E+00    0.03       1.0  T
  41   -486.8591150  0.825556E+00  0.679E+00    0.00       1.0  T
  42   -486.4166776  0.442437E+00  0.669E+00    0.04       1.0  T
  43   -489.4510590 -0.303438E+01  0.629E+00    0.02       1.0  T
  44   -487.4921877  0.195887E+01  0.673E+00    0.02       1.0  T
  45   -488.6210117 -0.112882E+01  0.666E+00    0.02       1.0  T
  46   -488.4931595  0.127852E+00  0.666E+00    0.01       1.0  T
  47   -491.2987692 -0.280561E+01  0.670E+00    0.02       1.0  T
  48   -490.0995037  0.119927E+01  0.668E+00    0.01       1.0  T
  49   -490.7005894 -0.601086E+00  0.675E+00    0.02       1.0  T
  50   -490.9562415 -0.255652E+00  0.686E+00    0.02       1.0  T
  51   -490.5578729  0.398369E+00  0.707E+00    0.00       1.0  T
  52   -490.2402589  0.317614E+00  0.714E+00    0.01       1.0  T
  53   -489.8767624  0.363496E+00  0.721E+00    0.01       1.0  T
  54   -489.8518258  0.249366E-01  0.727E+00    0.00       1.0  T
  55   -489.2177802  0.634046E+00  0.749E+00    0.00       1.0  T
  56   -489.1082880  0.109492E+00  0.756E+00    0.00       1.0  T
  57   -488.7937162  0.314572E+00  0.775E+00    0.00       1.0  T
  58   -488.8022593 -0.854311E-02  0.775E+00    0.00       1.0  T
  59   -489.6986931 -0.896434E+00  0.764E+00    0.02       1.0  T
  60   -489.4050876  0.293606E+00  0.742E+00    0.00       1.0  T
  61   -491.5981558 -0.219307E+01  0.668E+00    0.01       1.0  T
  62   -492.0079909 -0.409835E+00  0.661E+00    0.01       1.0  T
  63   -491.8427960  0.165195E+00  0.656E+00    0.01       1.0  T
  64   -492.5248150 -0.682019E+00  0.623E+00    0.01       1.0  T
  65   -493.4717496 -0.946935E+00  0.551E+00    0.00       1.0  T
  66   -494.4076380 -0.935888E+00  0.535E+00    0.01       1.0  T
  67   -494.5035179 -0.958799E-01  0.525E+00    0.01       1.0  T
  68   -494.1561360  0.347382E+00  0.532E+00    0.01       1.0  T
  69   -494.2445214 -0.883855E-01  0.530E+00    0.01       1.0  T
  70   -494.2175067  0.270147E-01  0.530E+00    0.01       1.0  T
  71   -494.2893502 -0.718435E-01  0.543E+00    0.02       1.0  T
  72   -494.3344319 -0.450817E-01  0.531E+00    0.02       1.0  T
  73   -494.5319145 -0.197483E+00  0.507E+00    0.01       1.0  T
  74   -496.5364494 -0.200453E+01  0.463E+00    0.02       1.0  T
  75   -496.5567118 -0.202624E-01  0.463E+00    0.01       1.0  T
  76   -496.9709605 -0.414249E+00  0.463E+00    0.01       1.0  T
  77   -495.9446228  0.102634E+01  0.479E+00    0.02       1.0  T
  78   -494.6206781  0.132394E+01  0.555E+00    0.03       1.0  T
  79   -493.7578428  0.862835E+00  0.562E+00    0.01       1.0  T
  80   -493.6576862  0.100157E+00  0.563E+00    0.01       1.0  T
  81   -492.2880855  0.136960E+01  0.619E+00    0.05       1.0  T
  82   -492.3921200 -0.104034E+00  0.617E+00    0.05       1.0  T
  83   -492.6032708 -0.211151E+00  0.610E+00    0.04       1.0  T
  84   -492.2351431  0.368128E+00  0.614E+00    0.04       1.0  T
  85   -493.0447771 -0.809634E+00  0.577E+00    0.03       1.0  T
  86   -495.0268131 -0.198204E+01  0.411E+00    0.02       1.0  T
  87   -494.8986219  0.128191E+00  0.400E+00    0.03       1.0  T
  88   -493.8864055  0.101222E+01  0.420E+00    0.01       1.0  T
  89   -493.5618381  0.324567E+00  0.427E+00    0.02       1.0  T
  90   -490.7109182  0.285092E+01  0.485E+00    0.06       1.0  T
  91   -490.6266142  0.843040E-01  0.487E+00    0.08       1.0  T
  92   -490.1252446  0.501370E+00  0.483E+00    0.01       1.0  T
  93   -487.8790277  0.224622E+01  0.521E+00    0.02       1.0  T
  94   -487.8426629  0.363649E-01  0.522E+00    0.02       1.0  T
  95   -487.6268972  0.215766E+00  0.523E+00    0.02       1.0  T
  96   -487.2070690  0.419828E+00  0.534E+00    0.02       1.0  T
  97   -486.4649187  0.742150E+00  0.554E+00    0.00       1.0  T
  98   -486.3996836  0.652351E-01  0.556E+00    0.00       1.0  T
  99   -486.6180831 -0.218400E+00  0.550E+00    0.01       1.0  T
 100   -487.1177880 -0.499705E+00  0.538E+00    0.02       1.0  T
 101   -487.3218824 -0.204094E+00  0.534E+00    0.03       1.0  T
 102   -488.3794515 -0.105757E+01  0.515E+00    0.03       1.0  T
 103   -488.7560889 -0.376637E+00  0.509E+00    0.02       1.0  T
 104   -487.7730170  0.983072E+00  0.526E+00    0.03       1.0  T
 105   -487.6924402  0.805768E-01  0.528E+00    0.03       1.0  T
 106   -487.2803864  0.412054E+00  0.534E+00    0.02       1.0  T
 107   -487.2543670  0.260194E-01  0.535E+00    0.02       1.0  T
 108   -485.9753694  0.127900E+01  0.560E+00    0.03       1.0  T
 109   -483.5563956  0.241897E+01  0.620E+00    0.13       1.0  T
 110   -484.4823065 -0.925911E+00  0.599E+00    0.06       1.0  T
 111   -485.3592847 -0.876978E+00  0.579E+00    0.02       1.0  T
 112   -485.0415561  0.317729E+00  0.586E+00    0.04       1.0  T
 113   -484.0640569  0.977499E+00  0.608E+00    0.08       1.0  T
 114   -484.1406779 -0.766210E-01  0.607E+00    0.08       1.0  T
 115   -484.8248415 -0.684164E+00  0.596E+00    0.04       1.0  T
 116   -485.9364734 -0.111163E+01  0.568E+00    0.00       1.0  T
 117   -488.6963531 -0.275988E+01  0.519E+00    0.01       1.0  T
 118   -488.8129603 -0.116607E+00  0.521E+00    0.01       1.0  T
 119   -487.3178961  0.149506E+01  0.536E+00    0.02       1.0  T
 120   -486.6542888  0.663607E+00  0.559E+00    0.01       1.0  T
 121   -487.1012923 -0.447003E+00  0.541E+00    0.02       1.0  T
 122   -485.2444354  0.185686E+01  0.604E+00    0.01       1.0  T
 123   -487.1034341 -0.185900E+01  0.557E+00    0.02       1.0  T
 124   -485.5118414  0.159159E+01  0.592E+00    0.02       1.0  T
 125   -485.3360583  0.175783E+00  0.615E+00    0.01       1.0  T
 126   -485.9580912 -0.622033E+00  0.597E+00    0.01       1.0  T
 127   -485.8311683  0.126923E+00  0.601E+00    0.01       1.0  T
 128   -487.2732200 -0.144205E+01  0.579E+00    0.00       1.0  T
 129   -490.1117922 -0.283857E+01  0.517E+00    0.00       1.0  T
 130   -491.4562745 -0.134448E+01  0.494E+00    0.02       1.0  T
 131   -490.0402469  0.141603E+01  0.498E+00    0.00       1.0  T
 132   -490.7950871 -0.754840E+00  0.478E+00    0.01       1.0  T
 133   -488.2657432  0.252934E+01  0.552E+00    0.01       1.0  T
 134   -488.5420272 -0.276284E+00  0.543E+00    0.01       1.0  T
 135   -489.0208233 -0.478796E+00  0.545E+00    0.01       1.0  T
 136   -485.0481916  0.397263E+01  0.637E+00    0.02       1.0  T
 137   -484.9591291  0.890625E-01  0.641E+00    0.01       1.0  T
 138   -484.6366614  0.322468E+00  0.654E+00    0.02       1.0  T
 139   -485.0413836 -0.404722E+00  0.659E+00    0.01       1.0  T
 140   -485.4066533 -0.365270E+00  0.661E+00    0.00       1.0  T
 141   -485.5003243 -0.936709E-01  0.662E+00    0.01       1.0  T
 142   -485.5125820 -0.122578E-01  0.661E+00    0.01       1.0  T
 143   -487.0582850 -0.154570E+01  0.635E+00    0.02       1.0  T
 144   -487.0787426 -0.204576E-01  0.627E+00    0.02       1.0  T
 145   -490.8560630 -0.377732E+01  0.544E+00    0.01       1.0  T
 146   -486.4205777  0.443549E+01  0.625E+00    0.02       1.0  T
 147   -489.0195967 -0.259902E+01  0.582E+00    0.01       1.0  T
 148   -490.1976024 -0.117801E+01  0.554E+00    0.01       1.0  T
 149   -490.4680929 -0.270490E+00  0.547E+00    0.01       1.0  T
 150   -490.0840669  0.384026E+00  0.551E+00    0.02       1.0  T
 151   -490.1822509 -0.981840E-01  0.558E+00    0.00       1.0  T
 152   -489.4404648  0.741786E+00  0.572E+00    0.02       1.0  T
 153   -489.3163644  0.124100E+00  0.575E+00    0.01       1.0  T
 154   -488.9153379  0.401026E+00  0.589E+00    0.00       1.0  T
 155   -488.9887116 -0.733737E-01  0.588E+00    0.01       1.0  T
 156   -490.7391799 -0.175047E+01  0.538E+00    0.01       1.0  T
 157   -490.1263031  0.612877E+00  0.566E+00    0.00       1.0  T
 158   -488.7389421  0.138736E+01  0.594E+00    0.00       1.0  T
 159   -489.2974627 -0.558521E+00  0.581E+00    0.01       1.0  T
 160   -489.1730817  0.124381E+00  0.582E+00    0.01       1.0  T
 161   -489.5358986 -0.362817E+00  0.573E+00    0.01       1.0  T
 162   -489.5394734 -0.357476E-02  0.570E+00    0.01       1.0  T
 163   -490.4441842 -0.904711E+00  0.538E+00    0.02       1.0  T
 164   -490.3986173  0.455670E-01  0.531E+00    0.02       1.0  T
 165   -489.9534230  0.445194E+00  0.546E+00    0.03       1.0  T
 166   -489.5182650  0.435158E+00  0.567E+00    0.04       1.0  T
 167   -489.5123119  0.595308E-02  0.564E+00    0.04       1.0  T
 168   -489.5906153 -0.783034E-01  0.564E+00    0.04       1.0  T
 169   -489.5070281  0.835872E-01  0.567E+00    0.04       1.0  T
 170   -489.2157519  0.291276E+00  0.573E+00    0.03       1.0  T
 171   -489.0875521  0.128200E+00  0.577E+00    0.02       1.0  T
 172   -489.0755184  0.120337E-01  0.577E+00    0.02       1.0  T
 173   -488.9221572  0.153361E+00  0.580E+00    0.02       1.0  T
 174   -488.9237065 -0.154930E-02  0.580E+00    0.02       1.0  T
 175   -490.3709703 -0.144726E+01  0.542E+00    0.02       1.0  T
 176   -490.1994812  0.171489E+00  0.538E+00    0.02       1.0  T
 177   -490.3981664 -0.198685E+00  0.534E+00    0.01       1.0  T
 178   -490.7584606 -0.360294E+00  0.529E+00    0.02       1.0  T
 179   -491.1552691 -0.396808E+00  0.519E+00    0.01       1.0  T
 180   -491.7500088 -0.594740E+00  0.508E+00    0.00       1.0  T
 181   -491.8982401 -0.148231E+00  0.507E+00    0.00       1.0  T
 182   -491.4176699  0.480570E+00  0.516E+00    0.02       1.0  T
 183   -491.3961762  0.214937E-01  0.519E+00    0.01       1.0  T
 184   -491.6692765 -0.273100E+00  0.513E+00    0.00       1.0  T
 185   -491.3925612  0.276715E+00  0.523E+00    0.01       1.0  T
 186   -492.5344615 -0.114190E+01  0.503E+00    0.02       1.0  T
 187   -492.6034865 -0.690250E-01  0.501E+00    0.01       1.0  T
 188   -492.7673404 -0.163854E+00  0.498E+00    0.00       1.0  T
 189   -493.3150209 -0.547680E+00  0.482E+00    0.01       1.0  T
 190   -493.1835553  0.131466E+00  0.481E+00    0.01       1.0  T
 191   -494.5430413 -0.135949E+01  0.451E+00    0.00       1.0  T
 192   -494.5380138  0.502750E-02  0.450E+00    0.00       1.0  T
 193   -494.5457026 -0.768874E-02  0.453E+00    0.01       1.0  T
 194   -494.4431537  0.102549E+00  0.455E+00    0.00       1.0  T
 195   -494.0706141  0.372540E+00  0.467E+00    0.01       1.0  T
 196   -495.1260655 -0.105545E+01  0.444E+00    0.00       1.0  T
 197   -495.1499964 -0.239309E-01  0.444E+00    0.00       1.0  T
 198   -495.0086765  0.141320E+00  0.446E+00    0.00       1.0  T
 199   -496.4283016 -0.141963E+01  0.389E+00    0.00       1.0  T
 200   -496.7921146 -0.363813E+00  0.355E+00    0.01       1.0  T
 201   -496.8109177 -0.188031E-01  0.325E+00    0.00       1.0  T
 202   -496.6046354  0.206282E+00  0.326E+00    0.00       1.0  T
 203   -494.4384367  0.216620E+01  0.426E+00    0.00       1.0  T
 204   -497.2214307 -0.278299E+01  0.297E+00    0.01       1.0  T
 205   -496.0298192  0.119161E+01  0.315E+00    0.00       1.0  T
 206   -496.4121635 -0.382344E+00  0.283E+00    0.03       1.0  T
 207   -496.7359865 -0.323823E+00  0.263E+00    0.02       1.0  T
 208   -494.5366150  0.219937E+01  0.361E+00    0.02       1.0  T
 209   -495.6883945 -0.115178E+01  0.339E+00    0.00       1.0  T
 210   -494.9344468  0.753948E+00  0.390E+00    0.00       1.0  T
 211   -496.1741660 -0.123972E+01  0.346E+00    0.00       1.0  T
 212   -496.5601004 -0.385934E+00  0.302E+00    0.00       1.0  T
 213   -495.8961020  0.663998E+00  0.335E+00    0.00       1.0  T
 214   -495.4030681  0.493034E+00  0.338E+00    0.00       1.0  T
 215   -494.3339697  0.106910E+01  0.366E+00    0.01       1.0  T
 216   -495.7320673 -0.139810E+01  0.327E+00    0.00       1.0  T
 217   -497.3418791 -0.160981E+01  0.267E+00    0.02       1.0  T
 218   -496.3350591  0.100682E+01  0.273E+00    0.01       1.0  T
 219   -496.4813219 -0.146263E+00  0.272E+00    0.01       1.0  T
 220   -498.6519251 -0.217060E+01  0.257E+00    0.01       1.0  T
 221   -497.5741747  0.107775E+01  0.282E+00    0.00       1.0  T
 222   -497.4438119  0.130363E+00  0.266E+00    0.01       1.0  T
 223   -497.8047755 -0.360964E+00  0.254E+00    0.00       1.0  T
 224   -497.6395557  0.165220E+00  0.218E+00    0.03       1.0  T
 225   -497.8854278 -0.245872E+00  0.228E+00    0.00       1.0  T
 226   -496.6433313  0.124210E+01  0.300E+00    0.02       1.0  T
 227   -498.2936485 -0.165032E+01  0.201E+00    0.00       1.0  T
 228   -496.4481382  0.184551E+01  0.296E+00    0.00       1.0  T
 229   -496.8261264 -0.377988E+00  0.272E+00    0.01       1.0  T
 230   -498.3616174 -0.153549E+01  0.176E+00    0.00       1.0  T
 231   -498.3629383 -0.132096E-02  0.173E+00    0.00       1.0  T
 232   -498.2584228  0.104516E+00  0.191E+00    0.01       1.0  T
 233   -498.4611642 -0.202741E+00  0.157E+00    0.00       1.0  T
 234   -497.9632951  0.497869E+00  0.185E+00    0.01       1.0  T
 235   -498.2657432 -0.302448E+00  0.149E+00    0.00       1.0  T
 236   -498.5904840 -0.324741E+00  0.128E+00    0.00       1.0  T
 237   -498.2263004  0.364184E+00  0.151E+00    0.01       1.0  T
 238   -498.8806469 -0.654346E+00  0.795E-01    0.01       1.0  T
 239   -498.4220409  0.458606E+00  0.133E+00    0.01       1.0  T
 240   -498.7880001 -0.365959E+00  0.840E-01    0.00       1.0  T
 241   -498.6707034  0.117297E+00  0.104E+00    0.00       1.0  T
 242   -498.6338189  0.368845E-01  0.104E+00    0.00       1.0  T
 243   -498.7775429 -0.143724E+00  0.862E-01    0.00       1.0  T
 244   -498.8874149 -0.109872E+00  0.758E-01    0.00       1.0  T
 245   -498.8594097  0.280052E-01  0.795E-01    0.00       1.0  T
 246   -498.9820232 -0.122613E+00  0.482E-01    0.00       1.0  T
 247   -498.9827267 -0.703493E-03  0.465E-01    0.00       1.0  T
 248   -499.0169839 -0.342572E-01  0.326E-01    0.00       1.0  T
 249   -498.9331302  0.838537E-01  0.518E-01    0.00       1.0  T
 250   -499.0142464 -0.811162E-01  0.327E-01    0.00       1.0  T

   *** convergence criteria cannot be satisfied within 250 iterations ***

         #    Occupation            Energy/Eh            Energy/eV
      -------------------------------------------------------------
         1        2.0000           -0.6800646             -18.5055
       ...           ...                  ...                  ...
       456        1.5255           -0.3355257              -9.1301
       457        1.5003           -0.3354606              -9.1283
       458        1.1421           -0.3346880              -9.1073
       459        1.1066           -0.3346196              -9.1055
       460        1.0894           -0.3345865              -9.1046
       461        1.0776           -0.3345638              -9.1039
       462        1.0600           -0.3345303              -9.1030 (HOMO)
       463        1.0042           -0.3344241              -9.1001 (LUMO)
       464        0.9931           -0.3344031              -9.0996
       465        0.9619           -0.3343437              -9.0980
       466        0.9252           -0.3342737              -9.0961
       467        0.8783           -0.3341837              -9.0936
       ...           ...                  ...                  ...
       903                          1.6192781              44.0628
      -------------------------------------------------------------
                  HL-Gap            0.0001061 Eh            0.0029 eV
             Fermi-level           -0.3344162 Eh           -9.0999 eV

 SCC (total)                   0 d,  0 h,  1 min,  2.743 sec
 SCC setup                      ...        0 min,  0.013 sec (  0.021%)
 Dispersion                     ...        0 min,  0.028 sec (  0.045%)
 classical contributions        ...        0 min,  0.002 sec (  0.004%)
 integral evaluation            ...        0 min,  0.212 sec (  0.339%)
 iterations                     ...        1 min,  1.960 sec ( 98.751%)
 molecular gradient             ...        0 min,  0.494 sec (  0.788%)
 printout                       ...        0 min,  0.033 sec (  0.053%)

########################################################################
[ERROR] Program stopped due to fatal error
-3- Single point calculation terminated
-2- xtb_calculator_singlepoint: Electronic structure method terminated
-1- scf: Self consistent charge iterator did not converge
########################################################################
