      -----------------------------------------------------------      
     |                   =====================                   |     
     |                           x T B                           |     
     |                   =====================                   |     
     |                         S. Grimme                         |     
     |          Mulliken Center for Theoretical Chemistry        |     
     |                    University of Bonn                     |     
      -----------------------------------------------------------      

   * xtb version 6.4.1 (bd6e46d) compiled by 'conda@4901f00b25ba' on 2021-06-10

   xtb is free software: you can redistribute it and/or modify it under
   the terms of the GNU Lesser General Public License as published by
   the Free Software Foundation, either version 3 of the License, or
   (at your option) any later version.
   
   xtb is distributed in the hope that it will be useful,
   but WITHOUT ANY WARRANTY; without even the implied warranty of
   MERCHANTABILITY or FITNESS FOR A PARTICULAR PURPOSE.  See the
   GNU Lesser General Public License for more details.
   
   Cite this work as:
   * C. Bannwarth, E. Caldeweyher, S. Ehlert, A. Hansen, P. Pracht,
     J. Seibert, S. Spicher, S. Grimme, WIREs Comput. Mol. Sci., 2020, 11,
     e01493. DOI: 10.1002/wcms.1493
   
   for GFN2-xTB:
   * C. Bannwarth, S. Ehlert and S. Grimme., J. Chem. Theory Comput., 2019,
     15, 1652-1671. DOI: 10.1021/acs.jctc.8b01176
   for GFN1-xTB:
   * S. Grimme, C. Bannwarth, P. Shushkov, J. Chem. Theory Comput., 2017,
     13, 1989-2009. DOI: 10.1021/acs.jctc.7b00118
   for GFN0-xTB:
   * P. Pracht, E. Caldeweyher, S. Ehlert, S. Grimme, ChemRxiv, 2019, preprint.
     DOI: 10.26434/chemrxiv.8326202.v1
   for GFN-FF:
   * S. Spicher and S. Grimme, Angew. Chem. Int. Ed., 2020, 59, 15665-15673.
     DOI: 10.1002/anie.202004239
   
   for DFT-D4:
   * E. Caldeweyher, C. Bannwarth and S. Grimme, J. Chem. Phys., 2017,
     147, 034112. DOI: 10.1063/1.4993215
   * E. Caldeweyher, S. Ehlert, A. Hansen, H. Neugebauer, S. Spicher,
     C. Bannwarth and S. Grimme, J. Chem. Phys., 2019, 150, 154122.
     DOI: 10.1063/1.5090222
   * E. Caldeweyher, J.-M. Mewes, S. Ehlert and S. Grimme, Phys. Chem. Chem. Phys.
     2020, 22, 8499-8512. DOI: 10.1039/D0CP00502A
   
   for sTDA-xTB:
   * S. Grimme and C. Bannwarth, J. Chem. Phys., 2016, 145, 054103.
     DOI: 10.1063/1.4959605
   
   in the mass-spec context:
   * V. Asgeirsson, C. Bauer and S. Grimme, Chem. Sci., 2017, 8, 4879.
     DOI: 10.1039/c7sc00601b
   * J. Koopman and S. Grimme, ACS Omega 2019, 4, 12, 15120-15133.
     DOI: 10.1021/acsomega.9b02011
   
   for metadynamics refer to:
   * S. Grimme, J. Chem. Theory Comput., 2019, 155, 2847-2862
     DOI: 10.1021/acs.jctc.9b00143
   
   for SPH calculations refer to:
   * S. Spicher and S. Grimme, J. Chem. Theory Comput., 2021, 17, 1701-1714
     DOI: 10.1021/acs.jctc.0c01306
   
   with help from (in alphabetical order)
   P. Atkinson, C. Bannwarth, F. Bohle, G. Brandenburg, E. Caldeweyher
   M. Checinski, S. Dohm, S. Ehlert, S. Ehrlich, I. Gerasimov, J. Koopman
   C. Lavigne, S. Lehtola, F. März, M. Müller, F. Musil, H. Neugebauer
   J. Pisarek, C. Plett, P. Pracht, J. Seibert, P. Shushkov, S. Spicher
   M. Stahn, M. Steiner, T. Strunk, J. Stückrath, T. Rose, and J. Unsleber
   
 * started run on 2021/11/20 at 15:56:24.631     

           -------------------------------------------------
          |                Calculation Setup                |
           -------------------------------------------------

          program call               : /home/jeff/miniconda3/bin/xtb /home/jeff/chem/final-year-proejct/Ni+2_2_5_outenergy/input_structure.xyz --gfn 2 --parallel 1 --etemp 300 --chrg 0 --uhf 0 -I det_control.in
          coordinate file            : /home/jeff/chem/final-year-proejct/Ni+2_2_5_outenergy/input_structure.xyz
          omp threads                :                     1
          number of atoms            :                   185
          number of electrons        :                   634
          charge                     :                     0
          spin                       :                   0.0
          first test random number   :      0.98319257566181

   ID    Z sym.   atoms
    1   28 Ni     1, 37, 81, 116, 151
    2    6 C      2-9, 11-15, 17-21, 23, 24, 38-45, 47-51, 53-57, 59, 60,
                  73-80, 82-89, 91-95, 97-101, 103, 104, 117-124, 126-130,
                  132-136, 138, 139, 152-159, 161-165, 167-171, 173, 174
    3    7 N      10, 16, 22, 25, 46, 52, 58, 61, 90, 96, 102, 105, 125, 131,
                  137, 140, 160, 166, 172, 175
    4    1 H      26-36, 62-72, 106-115, 141-150, 176-185

           -------------------------------------------------
          |                 G F N 2 - x T B                 |
           -------------------------------------------------

        Reference                      10.1021/acs.jctc.8b01176
      * Hamiltonian:
        H0-scaling (s, p, d)           1.850000    2.230000    2.230000
        zeta-weighting                 0.500000
      * Dispersion:
        s8                             2.700000
        a1                             0.520000
        a2                             5.000000
        s9                             5.000000
      * Repulsion:
        kExp                           1.500000    1.000000
        rExp                           1.000000
      * Coulomb:
        alpha                          2.000000
        third order                    shell-resolved
        anisotropic                    true
        a3                             3.000000
        a5                             4.000000
        cn-shift                       1.200000
        cn-exp                         4.000000
        max-rad                        5.000000


          ...................................................
          :                      SETUP                      :
          :.................................................:
          :  # basis functions                 614          :
          :  # atomic orbitals                 609          :
          :  # shells                          323          :
          :  # electrons                       634          :
          :  max. iterations                   250          :
          :  Hamiltonian                  GFN2-xTB          :
          :  restarted?                      false          :
          :  GBSA solvation                  false          :
          :  PC potential                    false          :
          :  electronic temp.          300.0000000     K    :
          :  accuracy                    1.0000000          :
          :  -> integral cutoff          0.2500000E+02      :
          :  -> integral neglect         0.1000000E-07      :
          :  -> SCF convergence          0.1000000E-05 Eh   :
          :  -> wf. convergence          0.1000000E-03 e    :
          :  Broyden damping             0.4000000          :
          ...................................................

 iter      E             dE          RMSdq      gap      omega  full diag
   1   -345.9179714 -0.345918E+03  0.726E+00    0.73       0.0  T
   2   -346.3617768 -0.443805E+00  0.387E+00    1.00       1.0  T
   3   -346.3176438  0.441330E-01  0.118E+00    0.87       1.0  T
   4   -346.3165748  0.106901E-02  0.640E-01    1.03       1.0  T
   5   -346.3762473 -0.596724E-01  0.300E-01    0.98       1.0  T
   6   -346.3884065 -0.121593E-01  0.177E-01    0.99       1.0  T
   7   -346.3860552  0.235130E-02  0.119E-01    1.00       1.0  T
   8   -346.3902591 -0.420386E-02  0.254E-02    0.99       1.0  T
   9   -346.3903843 -0.125165E-03  0.120E-02    0.99       1.0  T
  10   -346.3903901 -0.580850E-05  0.856E-03    0.99       1.0  T
  11   -346.3904106 -0.204936E-04  0.275E-03    0.99       2.7  T
  12   -346.3904108 -0.244210E-06  0.185E-03    0.99       4.0  T
  13   -346.3904111 -0.312686E-06  0.941E-04    0.99       7.8  T
  14   -346.3904112 -0.665295E-07  0.482E-04    0.99      15.2  T

   *** convergence criteria satisfied after 14 iterations ***

         #    Occupation            Energy/Eh            Energy/eV
      -------------------------------------------------------------
         1        2.0000           -0.6769104             -18.4197
       ...           ...                  ...                  ...
       311        2.0000           -0.3624983              -9.8641
       312        2.0000           -0.3623433              -9.8599
       313        2.0000           -0.3623306              -9.8595
       314        2.0000           -0.3609602              -9.8222
       315        2.0000           -0.3609599              -9.8222
       316        2.0000           -0.3590808              -9.7711
       317        2.0000           -0.3535351              -9.6202 (HOMO)
       318                         -0.3169951              -8.6259 (LUMO)
       319                         -0.3106071              -8.4520
       320                         -0.3030706              -8.2470
       321                         -0.3003809              -8.1738
       322                         -0.3002545              -8.1703
       ...                                ...                  ...
       609                          1.4123240              38.4313
      -------------------------------------------------------------
                  HL-Gap            0.0365400 Eh            0.9943 eV
             Fermi-level           -0.3352638 Eh           -9.1230 eV

 SCC (total)                   0 d,  0 h,  0 min,  1.825 sec
 SCC setup                      ...        0 min,  0.006 sec (  0.340%)
 Dispersion                     ...        0 min,  0.014 sec (  0.752%)
 classical contributions        ...        0 min,  0.002 sec (  0.087%)
 integral evaluation            ...        0 min,  0.113 sec (  6.215%)
 iterations                     ...        0 min,  1.331 sec ( 72.913%)
 molecular gradient             ...        0 min,  0.348 sec ( 19.057%)
 printout                       ...        0 min,  0.012 sec (  0.635%)

         :::::::::::::::::::::::::::::::::::::::::::::::::::::
         ::                     SUMMARY                     ::
         :::::::::::::::::::::::::::::::::::::::::::::::::::::
         :: total energy            -340.624359280892 Eh    ::
         :: gradient norm              0.000323607578 Eh/a0 ::
         :: HOMO-LUMO gap              0.994302837974 eV    ::
         ::.................................................::
         :: SCC energy              -346.390411190991 Eh    ::
         :: -> isotropic ES            0.103990777264 Eh    ::
         :: -> anisotropic ES          0.027680192586 Eh    ::
         :: -> anisotropic XC          0.127882156504 Eh    ::
         :: -> dispersion             -0.319512407600 Eh    ::
         :: repulsion energy           5.771730880896 Eh    ::
         :: add. restraining           0.000000000000 Eh    ::
         :: total charge               0.000000000025 e     ::
         :::::::::::::::::::::::::::::::::::::::::::::::::::::

           -------------------------------------------------
          |                Property Printout                |
           -------------------------------------------------

    * Orbital Energies and Occupations

         #    Occupation            Energy/Eh            Energy/eV
      -------------------------------------------------------------
         1        2.0000           -0.6769104             -18.4197
       ...           ...                  ...                  ...
       305        2.0000           -0.3681332             -10.0174
       306        2.0000           -0.3668833              -9.9834
       307        2.0000           -0.3668802              -9.9833
       308        2.0000           -0.3668727              -9.9831
       309        2.0000           -0.3668719              -9.9831
       310        2.0000           -0.3660215              -9.9600
       311        2.0000           -0.3624983              -9.8641
       312        2.0000           -0.3623433              -9.8599
       313        2.0000           -0.3623306              -9.8595
       314        2.0000           -0.3609602              -9.8222
       315        2.0000           -0.3609599              -9.8222
       316        2.0000           -0.3590808              -9.7711
       317        2.0000           -0.3535351              -9.6202 (HOMO)
       318                         -0.3169951              -8.6259 (LUMO)
       319                         -0.3106071              -8.4520
       320                         -0.3030706              -8.2470
       321                         -0.3003809              -8.1738
       322                         -0.3002545              -8.1703
       323                         -0.3002300              -8.1697
       324                         -0.2992078              -8.1419
       325                         -0.2991472              -8.1402
       326                         -0.2991401              -8.1400
       327                         -0.2988899              -8.1332
       328                         -0.2986129              -8.1257
       ...                                ...                  ...
       609                          1.4123240              38.4313
      -------------------------------------------------------------
                  HL-Gap            0.0365400 Eh            0.9943 eV
             Fermi-level           -0.3352638 Eh           -9.1230 eV

     #   Z          covCN         q      C6AA      α(0)
     1  28 Ni       3.024    -0.293   189.403    28.397
     2   6 C        3.023    -0.052    29.270     8.874
     3   6 C        3.022    -0.051    29.236     8.869
     4   6 C        3.184     0.073    25.942     8.313
     5   6 C        2.956     0.027    27.410     8.587
     6   6 C        3.183     0.073    25.942     8.313
     7   6 C        3.022    -0.051    29.229     8.868
     8   6 C        3.023    -0.052    29.270     8.874
     9   6 C        3.171     0.073    26.009     8.331
    10   7 N        2.626    -0.047    22.169     6.993
    11   6 C        2.904    -0.042    29.032     8.835
    12   6 C        3.168     0.074    26.000     8.331
    13   6 C        3.020    -0.051    29.248     8.871
    14   6 C        3.021    -0.051    29.249     8.871
    15   6 C        3.168     0.075    25.994     8.331
    16   7 N        2.626    -0.047    22.152     6.990
    17   6 C        2.904    -0.043    29.072     8.841
    18   6 C        3.168     0.075    25.994     8.331
    19   6 C        3.021    -0.051    29.249     8.871
    20   6 C        3.020    -0.051    29.248     8.871
    21   6 C        3.168     0.074    26.001     8.332
    22   7 N        2.626    -0.047    22.152     6.990
    23   6 C        2.904    -0.042    29.032     8.835
    24   6 C        3.171     0.073    26.010     8.331
    25   7 N        2.626    -0.047    22.166     6.992
    26   1 H        0.926     0.035     2.510     2.478
    27   1 H        0.926     0.037     2.489     2.467
    28   1 H        0.926     0.037     2.494     2.470
    29   1 H        0.926     0.035     2.510     2.478
    30   1 H        0.926     0.049     2.331     2.387
    31   1 H        0.926     0.036     2.505     2.475
    32   1 H        0.926     0.036     2.506     2.476
    33   1 H        0.926     0.049     2.338     2.391
    34   1 H        0.926     0.036     2.506     2.476
    35   1 H        0.926     0.036     2.505     2.475
    36   1 H        0.926     0.049     2.331     2.387
    37  28 Ni       3.023    -0.293   189.401    28.397
    38   6 C        3.023    -0.052    29.270     8.874
    39   6 C        3.022    -0.051    29.234     8.869
    40   6 C        3.183     0.073    25.944     8.313
    41   6 C        2.956     0.027    27.410     8.587
    42   6 C        3.183     0.073    25.944     8.313
    43   6 C        3.022    -0.051    29.230     8.868
    44   6 C        3.023    -0.052    29.270     8.874
    45   6 C        3.171     0.073    26.009     8.331
    46   7 N        2.625    -0.047    22.167     6.992
    47   6 C        2.904    -0.042    29.033     8.835
    48   6 C        3.168     0.074    25.999     8.331
    49   6 C        3.020    -0.051    29.248     8.871
    50   6 C        3.021    -0.051    29.249     8.871
    51   6 C        3.168     0.075    25.993     8.330
    52   7 N        2.625    -0.047    22.155     6.991
    53   6 C        2.904    -0.043    29.072     8.841
    54   6 C        3.168     0.075    25.993     8.330
    55   6 C        3.021    -0.051    29.249     8.871
    56   6 C        3.020    -0.051    29.248     8.871
    57   6 C        3.168     0.074    25.999     8.331
    58   7 N        2.625    -0.047    22.154     6.990
    59   6 C        2.904    -0.042    29.032     8.835
    60   6 C        3.171     0.073    26.010     8.331
    61   7 N        2.626    -0.047    22.165     6.992
    62   1 H        0.926     0.035     2.510     2.478
    63   1 H        0.926     0.037     2.491     2.468
    64   1 H        0.926     0.037     2.493     2.469
    65   1 H        0.926     0.035     2.510     2.478
    66   1 H        0.926     0.049     2.331     2.387
    67   1 H        0.926     0.036     2.505     2.475
    68   1 H        0.926     0.036     2.506     2.476
    69   1 H        0.926     0.049     2.338     2.391
    70   1 H        0.926     0.036     2.506     2.476
    71   1 H        0.926     0.036     2.505     2.475
    72   1 H        0.926     0.049     2.331     2.387
    73   6 C        1.990    -0.028    31.807     9.108
    74   6 C        1.989    -0.029    31.831     9.111
    75   6 C        1.989    -0.029    31.815     9.109
    76   6 C        1.989    -0.029    31.822     9.110
    77   6 C        1.989    -0.029    31.821     9.110
    78   6 C        1.989    -0.029    31.814     9.109
    79   6 C        1.989    -0.029    31.830     9.111
    80   6 C        1.990    -0.028    31.806     9.108
    81  28 Ni       3.029    -0.289   189.311    28.390
    82   6 C        3.023    -0.052    29.265     8.874
    83   6 C        3.022    -0.051    29.229     8.868
    84   6 C        3.184     0.073    25.933     8.311
    85   6 C        2.956     0.027    27.401     8.586
    86   6 C        3.183     0.073    25.935     8.311
    87   6 C        3.022    -0.050    29.224     8.867
    88   6 C        3.023    -0.052    29.266     8.874
    89   6 C        3.171     0.073    26.009     8.331
    90   7 N        2.628    -0.049    22.195     6.997
    91   6 C        2.904    -0.040    28.985     8.828
    92   6 C        3.171     0.073    26.012     8.332
    93   6 C        3.023    -0.052    29.266     8.874
    94   6 C        3.022    -0.051    29.232     8.869
    95   6 C        3.183     0.073    25.937     8.312
    96   7 N        2.628    -0.049    22.192     6.996
    97   6 C        2.955     0.027    27.409     8.587
    98   6 C        3.183     0.074    25.936     8.312
    99   6 C        3.022    -0.051    29.229     8.868
   100   6 C        3.023    -0.052    29.266     8.874
   101   6 C        3.171     0.073    26.012     8.331
   102   7 N        2.628    -0.049    22.194     6.997
   103   6 C        2.904    -0.040    28.985     8.828
   104   6 C        3.171     0.073    26.009     8.331
   105   7 N        2.628    -0.049    22.194     6.997
   106   1 H        0.926     0.036     2.508     2.477
   107   1 H        0.926     0.037     2.488     2.467
   108   1 H        0.926     0.037     2.494     2.470
   109   1 H        0.926     0.036     2.509     2.477
   110   1 H        0.926     0.050     2.323     2.383
   111   1 H        0.926     0.036     2.509     2.477
   112   1 H        0.926     0.037     2.492     2.469
   113   1 H        0.926     0.037     2.494     2.470
   114   1 H        0.926     0.036     2.509     2.477
   115   1 H        0.926     0.050     2.322     2.383
   116  28 Ni       3.034    -0.289   189.317    28.390
   117   6 C        3.022    -0.052    29.266     8.874
   118   6 C        3.022    -0.050    29.227     8.868
   119   6 C        3.182     0.074    25.940     8.313
   120   6 C        2.955     0.027    27.405     8.586
   121   6 C        3.183     0.073    25.939     8.313
   122   6 C        3.022    -0.051    29.230     8.868
   123   6 C        3.022    -0.052    29.266     8.874
   124   6 C        3.171     0.073    26.014     8.332
   125   7 N        2.629    -0.049    22.192     6.996
   126   6 C        2.904    -0.040    28.981     8.827
   127   6 C        3.170     0.073    26.014     8.332
   128   6 C        3.022    -0.052    29.266     8.874
   129   6 C        3.022    -0.050    29.227     8.868
   130   6 C        3.182     0.073    25.941     8.313
   131   7 N        2.629    -0.049    22.193     6.997
   132   6 C        2.955     0.027    27.405     8.586
   133   6 C        3.182     0.073    25.941     8.313
   134   6 C        3.022    -0.051    29.230     8.868
   135   6 C        3.022    -0.052    29.266     8.874
   136   6 C        3.170     0.073    26.014     8.332
   137   7 N        2.629    -0.049    22.191     6.996
   138   6 C        2.904    -0.040    28.981     8.827
   139   6 C        3.171     0.073    26.014     8.332
   140   7 N        2.629    -0.049    22.194     6.997
   141   1 H        0.926     0.036     2.509     2.477
   142   1 H        0.926     0.037     2.494     2.470
   143   1 H        0.926     0.037     2.492     2.468
   144   1 H        0.926     0.036     2.509     2.477
   145   1 H        0.926     0.050     2.322     2.383
   146   1 H        0.926     0.036     2.509     2.477
   147   1 H        0.926     0.037     2.495     2.470
   148   1 H        0.926     0.037     2.492     2.469
   149   1 H        0.926     0.036     2.508     2.477
   150   1 H        0.926     0.050     2.322     2.383
   151  28 Ni       3.026    -0.288   189.305    28.389
   152   6 C        3.023    -0.052    29.266     8.874
   153   6 C        3.022    -0.051    29.231     8.869
   154   6 C        3.183     0.073    25.936     8.312
   155   6 C        2.955     0.027    27.410     8.587
   156   6 C        3.183     0.073    25.936     8.312
   157   6 C        3.022    -0.051    29.230     8.868
   158   6 C        3.023    -0.052    29.266     8.874
   159   6 C        3.171     0.073    26.010     8.331
   160   7 N        2.627    -0.049    22.195     6.997
   161   6 C        2.904    -0.040    28.986     8.828
   162   6 C        3.171     0.073    26.008     8.331
   163   6 C        3.023    -0.052    29.266     8.874
   164   6 C        3.022    -0.051    29.228     8.868
   165   6 C        3.184     0.073    25.935     8.311
   166   7 N        2.627    -0.049    22.195     6.997
   167   6 C        2.956     0.027    27.401     8.586
   168   6 C        3.184     0.073    25.935     8.311
   169   6 C        3.022    -0.050    29.225     8.868
   170   6 C        3.023    -0.052    29.266     8.874
   171   6 C        3.171     0.073    26.008     8.331
   172   7 N        2.627    -0.049    22.195     6.997
   173   6 C        2.904    -0.040    28.986     8.828
   174   6 C        3.171     0.073    26.011     8.331
   175   7 N        2.627    -0.049    22.194     6.997
   176   1 H        0.926     0.036     2.509     2.477
   177   1 H        0.926     0.037     2.492     2.469
   178   1 H        0.926     0.037     2.494     2.469
   179   1 H        0.926     0.036     2.509     2.477
   180   1 H        0.926     0.050     2.322     2.383
   181   1 H        0.926     0.036     2.509     2.477
   182   1 H        0.926     0.037     2.489     2.467
   183   1 H        0.926     0.037     2.493     2.469
   184   1 H        0.926     0.036     2.509     2.477
   185   1 H        0.926     0.050     2.323     2.383

 Mol. C6AA /au·bohr⁶  :     663477.428683
 Mol. C8AA /au·bohr⁸  :   19511101.397705
 Mol. α(0) /au        :       1344.768465


Wiberg/Mayer (AO) data.
largest (>0.10) Wiberg bond orders for each atom

 ---------------------------------------------------------------------------
     #   Z sym  total        # sym  WBO       # sym  WBO       # sym  WBO
 ---------------------------------------------------------------------------
     1  28 Ni   3.478 --    25 N    0.753    10 N    0.753    16 N    0.752
                            22 N    0.752
     2   6 C    3.953 --     3 C    1.647    24 C    1.169    26 H    0.972
     3   6 C    3.958 --     2 C    1.647     4 C    1.177    27 H    0.968
     4   6 C    3.923 --    25 N    1.261     5 C    1.258     3 C    1.177
     5   6 C    3.945 --     6 C    1.259     4 C    1.258    73 C    1.164
     6   6 C    3.923 --    10 N    1.260     5 C    1.259     7 C    1.177
     7   6 C    3.958 --     8 C    1.647     6 C    1.177    28 H    0.968
     8   6 C    3.953 --     7 C    1.647     9 C    1.169    29 H    0.972
     9   6 C    3.931 --    11 C    1.355    10 N    1.228     8 C    1.169
    10   7 N    3.577 --     6 C    1.260     9 C    1.228     1 Ni   0.753
    11   6 C    3.936 --     9 C    1.355    12 C    1.354    30 H    0.964
    12   6 C    3.935 --    11 C    1.354    16 N    1.239    13 C    1.161
    13   6 C    3.957 --    14 C    1.661    12 C    1.161    31 H    0.972
    14   6 C    3.955 --    13 C    1.661    15 C    1.161    32 H    0.972
    15   6 C    3.937 --    17 C    1.353    16 N    1.242    14 C    1.161
    16   7 N    3.572 --    15 C    1.242    12 C    1.239     1 Ni   0.752
    17   6 C    3.932 --    18 C    1.353    15 C    1.353    33 H    0.964
    18   6 C    3.937 --    17 C    1.353    22 N    1.242    19 C    1.161
    19   6 C    3.955 --    20 C    1.661    18 C    1.161    34 H    0.972
    20   6 C    3.957 --    19 C    1.661    21 C    1.161    35 H    0.972
    21   6 C    3.935 --    23 C    1.353    22 N    1.239    20 C    1.161
    22   7 N    3.572 --    18 C    1.242    21 C    1.239     1 Ni   0.752
    23   6 C    3.936 --    24 C    1.355    21 C    1.353    36 H    0.964
    24   6 C    3.931 --    23 C    1.355    25 N    1.228     2 C    1.169
    25   7 N    3.577 --     4 C    1.261    24 C    1.228     1 Ni   0.753
    26   1 H    0.998 --     2 C    0.972
    27   1 H    0.998 --     3 C    0.968
    28   1 H    0.998 --     7 C    0.968
    29   1 H    0.998 --     8 C    0.972
    30   1 H    0.996 --    11 C    0.964
    31   1 H    0.998 --    13 C    0.972
    32   1 H    0.998 --    14 C    0.972
    33   1 H    0.997 --    17 C    0.964
    34   1 H    0.998 --    19 C    0.972
    35   1 H    0.998 --    20 C    0.972
    36   1 H    0.996 --    23 C    0.964
    37  28 Ni   3.477 --    61 N    0.753    46 N    0.753    58 N    0.751
                            52 N    0.751
    38   6 C    3.953 --    39 C    1.647    60 C    1.169    62 H    0.972
    39   6 C    3.958 --    38 C    1.647    40 C    1.177    63 H    0.968
    40   6 C    3.923 --    61 N    1.260    41 C    1.259    39 C    1.177
    41   6 C    3.945 --    42 C    1.259    40 C    1.259    80 C    1.164
    42   6 C    3.923 --    46 N    1.260    41 C    1.259    43 C    1.177
    43   6 C    3.958 --    44 C    1.647    42 C    1.177    64 H    0.968
    44   6 C    3.953 --    43 C    1.647    45 C    1.169    65 H    0.972
    45   6 C    3.931 --    47 C    1.355    46 N    1.228    44 C    1.169
    46   7 N    3.577 --    42 C    1.260    45 C    1.228    37 Ni   0.753
    47   6 C    3.936 --    45 C    1.355    48 C    1.354    66 H    0.964
    48   6 C    3.935 --    47 C    1.354    52 N    1.239    49 C    1.161
    49   6 C    3.957 --    50 C    1.661    48 C    1.161    67 H    0.972
    50   6 C    3.955 --    49 C    1.661    51 C    1.160    68 H    0.972
    51   6 C    3.937 --    53 C    1.353    52 N    1.242    50 C    1.160
    52   7 N    3.572 --    51 C    1.242    48 C    1.239    37 Ni   0.751
    53   6 C    3.932 --    54 C    1.353    51 C    1.353    69 H    0.964
    54   6 C    3.937 --    53 C    1.353    58 N    1.242    55 C    1.160
    55   6 C    3.955 --    56 C    1.661    54 C    1.160    70 H    0.972
    56   6 C    3.957 --    55 C    1.661    57 C    1.161    71 H    0.972
    57   6 C    3.935 --    59 C    1.354    58 N    1.239    56 C    1.161
    58   7 N    3.572 --    54 C    1.242    57 C    1.239    37 Ni   0.751
    59   6 C    3.936 --    60 C    1.355    57 C    1.354    72 H    0.964
    60   6 C    3.931 --    59 C    1.355    61 N    1.228    38 C    1.169
    61   7 N    3.577 --    40 C    1.260    60 C    1.228    37 Ni   0.753
    62   1 H    0.998 --    38 C    0.972
    63   1 H    0.998 --    39 C    0.968
    64   1 H    0.998 --    43 C    0.968
    65   1 H    0.998 --    44 C    0.972
    66   1 H    0.996 --    47 C    0.964
    67   1 H    0.998 --    49 C    0.972
    68   1 H    0.998 --    50 C    0.972
    69   1 H    0.997 --    53 C    0.964
    70   1 H    0.998 --    55 C    0.972
    71   1 H    0.998 --    56 C    0.972
    72   1 H    0.996 --    59 C    0.964
    73   6 C    3.926 --    74 C    2.584     5 C    1.164
    74   6 C    3.929 --    73 C    2.584    85 C    1.166
    75   6 C    3.926 --    76 C    2.579    97 C    1.170
    76   6 C    3.927 --    75 C    2.579   120 C    1.170
    77   6 C    3.927 --    78 C    2.579   132 C    1.170
    78   6 C    3.926 --    77 C    2.579   155 C    1.170
    79   6 C    3.929 --    80 C    2.584   167 C    1.166
    80   6 C    3.926 --    79 C    2.584    41 C    1.164
    81  28 Ni   3.470 --    96 N    0.750   102 N    0.750   105 N    0.749
                            90 N    0.749
    82   6 C    3.954 --    83 C    1.645   104 C    1.170   106 H    0.972
    83   6 C    3.956 --    82 C    1.645    84 C    1.178   107 H    0.968
    84   6 C    3.923 --   105 N    1.262    85 C    1.256    83 C    1.178
    85   6 C    3.935 --    86 C    1.257    84 C    1.256    74 C    1.166
    86   6 C    3.923 --    90 N    1.262    85 C    1.257    87 C    1.178
    87   6 C    3.956 --    88 C    1.645    86 C    1.178   108 H    0.968
    88   6 C    3.954 --    87 C    1.645    89 C    1.171   109 H    0.972
    89   6 C    3.929 --    91 C    1.354    90 N    1.226    88 C    1.171
    90   7 N    3.568 --    86 C    1.262    89 C    1.226    81 Ni   0.749
    91   6 C    3.930 --    92 C    1.355    89 C    1.354   110 H    0.963
    92   6 C    3.929 --    91 C    1.355    96 N    1.225    93 C    1.171
    93   6 C    3.954 --    94 C    1.645    92 C    1.171   111 H    0.972
    94   6 C    3.956 --    93 C    1.645    95 C    1.178   112 H    0.967
    95   6 C    3.922 --    96 N    1.263    97 C    1.255    94 C    1.178
    96   7 N    3.568 --    95 C    1.263    92 C    1.225    81 Ni   0.750
    97   6 C    3.936 --    98 C    1.255    95 C    1.255    75 C    1.170
    98   6 C    3.922 --   102 N    1.263    97 C    1.255    99 C    1.178
    99   6 C    3.956 --   100 C    1.645    98 C    1.178   113 H    0.967
   100   6 C    3.954 --    99 C    1.645   101 C    1.171   114 H    0.972
   101   6 C    3.929 --   103 C    1.354   102 N    1.226   100 C    1.171
   102   7 N    3.568 --    98 C    1.263   101 C    1.226    81 Ni   0.750
   103   6 C    3.930 --   101 C    1.354   104 C    1.354   115 H    0.963
   104   6 C    3.929 --   103 C    1.354   105 N    1.226    82 C    1.170
   105   7 N    3.568 --    84 C    1.262   104 C    1.226    81 Ni   0.749
   106   1 H    0.998 --    82 C    0.972
   107   1 H    0.998 --    83 C    0.968
   108   1 H    0.998 --    87 C    0.968
   109   1 H    0.998 --    88 C    0.972
   110   1 H    0.996 --    91 C    0.963
   111   1 H    0.998 --    93 C    0.972
   112   1 H    0.998 --    94 C    0.967
   113   1 H    0.998 --    99 C    0.967
   114   1 H    0.998 --   100 C    0.972
   115   1 H    0.996 --   103 C    0.963
   116  28 Ni   3.472 --   137 N    0.750   131 N    0.750   125 N    0.750
                           140 N    0.750
   117   6 C    3.954 --   118 C    1.645   139 C    1.171   141 H    0.972
   118   6 C    3.956 --   117 C    1.645   119 C    1.178   142 H    0.967
   119   6 C    3.922 --   140 N    1.262   120 C    1.255   118 C    1.178
   120   6 C    3.935 --   119 C    1.255   121 C    1.254    76 C    1.170
   121   6 C    3.922 --   125 N    1.263   120 C    1.254   122 C    1.179
   122   6 C    3.956 --   123 C    1.645   121 C    1.179   143 H    0.967
   123   6 C    3.954 --   122 C    1.645   124 C    1.171   144 H    0.972
   124   6 C    3.929 --   126 C    1.354   125 N    1.225   123 C    1.171
   125   7 N    3.568 --   121 C    1.263   124 C    1.225   116 Ni   0.750
   126   6 C    3.930 --   124 C    1.354   127 C    1.354   145 H    0.963
   127   6 C    3.929 --   126 C    1.354   131 N    1.225   128 C    1.171
   128   6 C    3.954 --   129 C    1.644   127 C    1.171   146 H    0.972
   129   6 C    3.956 --   128 C    1.644   130 C    1.179   147 H    0.967
   130   6 C    3.922 --   131 N    1.262   132 C    1.255   129 C    1.179
   131   7 N    3.568 --   130 C    1.262   127 C    1.225   116 Ni   0.750
   132   6 C    3.935 --   130 C    1.255   133 C    1.255    77 C    1.170
   133   6 C    3.922 --   137 N    1.262   132 C    1.255   134 C    1.179
   134   6 C    3.956 --   135 C    1.645   133 C    1.179   148 H    0.967
   135   6 C    3.954 --   134 C    1.645   136 C    1.171   149 H    0.972
   136   6 C    3.929 --   138 C    1.354   137 N    1.225   135 C    1.171
   137   7 N    3.568 --   133 C    1.262   136 C    1.225   116 Ni   0.750
   138   6 C    3.930 --   136 C    1.354   139 C    1.354   150 H    0.963
   139   6 C    3.929 --   138 C    1.354   140 N    1.225   117 C    1.171
   140   7 N    3.568 --   119 C    1.262   139 C    1.225   116 Ni   0.750
   141   1 H    0.998 --   117 C    0.972
   142   1 H    0.998 --   118 C    0.967
   143   1 H    0.998 --   122 C    0.967
   144   1 H    0.998 --   123 C    0.972
   145   1 H    0.996 --   126 C    0.963
   146   1 H    0.998 --   128 C    0.972
   147   1 H    0.998 --   129 C    0.967
   148   1 H    0.998 --   134 C    0.967
   149   1 H    0.998 --   135 C    0.972
   150   1 H    0.996 --   138 C    0.963
   151  28 Ni   3.467 --   175 N    0.750   160 N    0.750   166 N    0.749
                           172 N    0.749
   152   6 C    3.954 --   153 C    1.645   174 C    1.170   176 H    0.972
   153   6 C    3.956 --   152 C    1.645   154 C    1.178   177 H    0.967
   154   6 C    3.922 --   175 N    1.263   155 C    1.255   153 C    1.178
   155   6 C    3.936 --   156 C    1.255   154 C    1.255    78 C    1.170
   156   6 C    3.922 --   160 N    1.263   155 C    1.255   157 C    1.178
   157   6 C    3.956 --   158 C    1.645   156 C    1.178   178 H    0.967
   158   6 C    3.954 --   157 C    1.645   159 C    1.170   179 H    0.972
   159   6 C    3.929 --   161 C    1.355   160 N    1.226   158 C    1.170
   160   7 N    3.568 --   156 C    1.263   159 C    1.226   151 Ni   0.750
   161   6 C    3.930 --   159 C    1.355   162 C    1.354   180 H    0.963
   162   6 C    3.929 --   161 C    1.354   166 N    1.226   163 C    1.170
   163   6 C    3.954 --   164 C    1.645   162 C    1.170   181 H    0.972
   164   6 C    3.956 --   163 C    1.645   165 C    1.178   182 H    0.968
   165   6 C    3.923 --   166 N    1.262   167 C    1.257   164 C    1.178
   166   7 N    3.568 --   165 C    1.262   162 C    1.226   151 Ni   0.749
   167   6 C    3.935 --   168 C    1.257   165 C    1.257    79 C    1.166
   168   6 C    3.923 --   172 N    1.262   167 C    1.257   169 C    1.178
   169   6 C    3.956 --   170 C    1.645   168 C    1.178   183 H    0.968
   170   6 C    3.954 --   169 C    1.645   171 C    1.170   184 H    0.972
   171   6 C    3.929 --   173 C    1.354   172 N    1.227   170 C    1.170
   172   7 N    3.568 --   168 C    1.262   171 C    1.227   151 Ni   0.749
   173   6 C    3.930 --   174 C    1.355   171 C    1.354   185 H    0.963
   174   6 C    3.929 --   173 C    1.355   175 N    1.226   152 C    1.170
   175   7 N    3.569 --   154 C    1.263   174 C    1.226   151 Ni   0.750
   176   1 H    0.998 --   152 C    0.972
   177   1 H    0.998 --   153 C    0.967
   178   1 H    0.998 --   157 C    0.967
   179   1 H    0.998 --   158 C    0.972
   180   1 H    0.996 --   161 C    0.963
   181   1 H    0.998 --   163 C    0.972
   182   1 H    0.998 --   164 C    0.968
   183   1 H    0.998 --   169 C    0.968
   184   1 H    0.998 --   170 C    0.972
   185   1 H    0.996 --   173 C    0.963
 ---------------------------------------------------------------------------

Topologies differ in total number of bonds
Writing topology from bond orders to xtbtopo.mol

molecular dipole:
                 x           y           z       tot (Debye)
 q only:       -0.002      -0.002       0.000
   full:       -0.001      -0.002      -0.002       0.009
molecular quadrupole (traceless):
                xx          xy          yy          xz          yz          zz
 q only:       57.824       0.417       8.870       0.247      -2.633     -66.693
  q+dip:      104.679       0.789      23.110       0.010      -5.241    -127.789
   full:       71.219       0.501       9.284      -0.147      -3.125     -80.503


           -------------------------------------------------
          | TOTAL ENERGY             -340.624359280892 Eh   |
          | GRADIENT NORM               0.000323607578 Eh/α |
          | HOMO-LUMO GAP               0.994302837974 eV   |
           -------------------------------------------------

------------------------------------------------------------------------
 * finished run on 2021/11/20 at 15:56:26.562     
------------------------------------------------------------------------
 total:
 * wall-time:     0 d,  0 h,  0 min,  1.932 sec
 *  cpu-time:     0 d,  0 h,  0 min,  1.932 sec
 * ratio c/w:     1.000 speedup
 SCF:
 * wall-time:     0 d,  0 h,  0 min,  1.827 sec
 *  cpu-time:     0 d,  0 h,  0 min,  1.827 sec
 * ratio c/w:     1.000 speedup

