193
 energy: -356.058995618525 gnorm: 0.841645915557 xtb: 6.4.1 (bd6e46d)
Ni       27.54362900000000    0.04105400000000   -0.01229300000000
C        29.87262000000000   -3.10573900000000    1.31039600000000
C        30.78872700000001   -2.16153200000000    1.26011400000000
C        30.37754800000000   -1.10762800000000    0.33882200000000
C        30.99641800000000    0.01671800000000   -0.00758800000000
C        30.29237600000000    1.23666600000000   -0.37169300000000
C        30.62048700000000    2.19672100000000   -1.21916700000000
C        29.58570700000000    3.21300700000000   -1.23606400000000
C        28.64943900000000    2.83654500000000   -0.38917300000000
N        29.05142900000000    1.60353400000000    0.17464400000000
C        27.38836500000000    3.48154400000000   -0.01002100000000
C        26.29314700000000    2.84676200000000    0.34073900000000
C        25.21952200000000    3.16471700000000    1.30976700000000
C        24.38195900000000    2.16796400000000    1.23260100000000
C        24.82025600000000    1.16428000000000    0.25214900000000
N        25.92519400000000    1.60313300000000   -0.23214300000000
C        24.20942200000000   -0.08899100000000   -0.16139900000000
C        24.87358200000000   -1.19349700000000   -0.41582400000000
C        24.49973300000000   -2.25643900000000   -1.37335100000000
C        25.44848100000000   -3.15019400000000   -1.28433200000000
C        26.43420400000000   -2.71274400000000   -0.30145400000000
N        26.08115900000000   -1.56693900000000    0.19534300000000
C        27.66509200000000   -3.36881500000000    0.14426700000000
C        28.78813400000000   -2.72295400000000    0.41138800000000
N        29.11673400000000   -1.47551200000000   -0.18701500000000
H        29.93288200000000   -4.01552000000000    1.92794300000000
H        31.70505500000000   -2.20148100000000    1.83816200000000
H        31.54785200000000    2.21351700000000   -1.82031000000000
H        29.60260600000000    4.11769500000000   -1.84868600000000
H        27.34064200000000    4.57634700000000   -0.01379800000000
H        25.16670000000000    4.04344200000000    1.93476000000000
H        23.47032900000000    2.13229400000000    1.84992500000000
H        23.11117100000000   -0.08608000000000   -0.26067000000000
H        23.63087800000000   -2.30890400000000   -2.02230100000000
H        25.44563500000000   -4.06650300000000   -1.88309100000000
H        27.62961000000000   -4.46461600000000    0.25619200000000
Ni       84.12936100000000   -0.00632200000000   -0.01672600000000
C        81.80037000000000    2.84047000000000    1.86677900000000
C        80.88426300000000    1.92198000000000    1.64220500000000
C        81.29544199999999    1.05728300000000    0.54139100000000
C        80.67657199999999    0.01671800000000   -0.00758800000000
C        81.38061400000001   -1.11450700000000   -0.59169100000000
C        81.05250300000000   -1.90067800000000   -1.60255700000000
C        82.08728300000000   -2.89618800000000   -1.80769800000000
C        83.02355100000000   -2.68337100000000   -0.90566800000000
N        82.62156100000000   -1.57636000000000   -0.12289600000000
C        84.28462500000001   -3.38751200000000   -0.65275400000000
C        85.37984299999999   -2.82882000000000   -0.19032100000000
C        86.45346800000000   -3.32102500000000    0.70290100000000
C        87.29103100000002   -2.32725800000000    0.81198600000000
C        86.85273400000001   -1.15910900000000    0.03475100000000
N        85.74779500000000   -1.50050100000000   -0.52254800000000
C        87.46356800000000    0.14912600000000   -0.13911900000000
C        86.79940800000001    1.28165900000000   -0.18422500000000
C        87.17325700000001    2.50378500000000   -0.92794000000000
C        86.22450900000000    3.36551200000000   -0.67466100000000
C        85.23878499999999    2.75331800000000    0.21000200000000
N        85.59183100000000    1.53523900000000    0.48561200000000
C        84.00789800000000    3.31531200000000    0.76969700000000
C        82.88485600000000    2.63110700000000    0.91236400000000
N        82.55625600000000    1.51633200000000    0.09293000000000
H        81.74010800000001    3.61989400000000    2.64238300000000
H        79.96793500000000    1.85400000000000    2.21763100000000
H        80.12513800000001   -1.80566200000000   -2.19638200000000
H        82.07038400000000   -3.67152200000000   -2.57751800000000
H        84.33234800000000   -4.46261000000000   -0.85956800000000
H        86.50629000000001   -4.30044200000000    1.15402800000000
H        88.20266100000001   -2.40673000000000    1.42521200000000
H        88.56181900000000    0.16468200000000   -0.23720600000000
H        88.04211200000000    2.67572900000000   -1.55589200000000
H        86.22735500000000    4.37699300000000   -1.09303900000000
H        84.04338000000000    4.37132900000000    1.08296600000000
C        33.89112200000001    0.01468300000000   -0.00870000000000
C        35.09909900000000    0.02213700000000   -0.00700500000000
C        36.51786700000000    0.02283400000000   -0.00186800000000
C        37.73338300000001    0.01468300000000   -0.00870000000000
C        47.24127300000000    0.01468300000000   -0.00870000000000
C        48.44924900000000    0.02213700000000   -0.00700500000000
C        49.86801700000001    0.02283400000000   -0.00186800000000
C        51.08353400000000    0.01468300000000   -0.00870000000000
C        60.59142300000000    0.01468300000000   -0.00870000000000
C        61.79940000000001    0.02213700000000   -0.00700500000000
C        63.21816800000000    0.02283400000000   -0.00186800000000
C        64.43368400000000    0.01468300000000   -0.00870000000000
C        73.94157300000001    0.01468300000000   -0.00870000000000
C        75.14955000000000    0.02213700000000   -0.00700500000000
C        76.56831800000002    0.02283400000000   -0.00186800000000
C        77.78383500000000    0.01468300000000   -0.00870000000000
Ni       42.52196400000000    0.03481800000000    0.00343900000000
C        40.24215400000000   -3.22662900000000   -0.90622700000000
C        39.28594400000001   -2.32727900000000   -1.00825300000000
C        39.67831900000000   -1.16497400000000   -0.20573700000000
C        39.04320200000000   -0.01370100000000    0.00652900000000
C        39.72865900000001    1.26089800000000    0.23275800000000
C        39.39336900000000    2.33949800000000    0.93699800000000
C        40.41791000000000    3.35881500000000    0.84641700000000
C        41.36850700000000    2.86189000000000    0.07305200000000
N        40.99151300000000    1.54528500000000   -0.34309100000000
C        42.61564700000001    3.47359200000000   -0.34381300000000
C        43.71719900000000    2.80633500000000   -0.67558500000000
C        44.71074500000000    3.05831900000000   -1.70975500000000
C        45.60462800000001    2.09746000000000   -1.60827100000000
C        45.22493000000000    1.18557600000000   -0.50429400000000
N        44.13001500000000    1.63489500000000    0.00307300000000
C        45.88213700000000   -0.01370100000000    0.00652900000000
C        45.25872600000000   -1.08288300000000    0.46804500000000
C        45.63743800000000   -2.01499900000000    1.54352100000000
C        44.69677000000000   -2.92914500000000    1.62938700000000
C        43.68846800000000   -2.63336600000000    0.63196000000000
N        44.02624300000001   -1.57998800000000   -0.01733500000000
C        42.43607500000000   -3.34037300000000    0.30076700000000
C        41.32219800000000   -2.74367600000000   -0.04657500000000
N        40.94008600000000   -1.46091900000000    0.37110800000000
H        40.24249800000000   -4.21770300000000   -1.39746100000000
H        38.37741000000000   -2.44897300000000   -1.58940100000000
H        38.46851700000000    2.45785000000000    1.51392400000000
H        40.44520500000000    4.34797900000000    1.30306700000000
H        42.70158700000000    4.57097000000000   -0.40583600000000
H        44.74341700000000    3.86453500000000   -2.43657900000000
H        46.49769000000000    1.98449200000000   -2.24204500000000
H        46.55218900000001   -1.94059200000000    2.15369100000000
H        44.71581600000000   -3.74275300000000    2.33765400000000
H        42.47456000000000   -4.44033200000000    0.35980300000000
Ni       55.87211500000000    0.03481800000000    0.00343900000000
C        53.59230400000000   -3.22662900000000   -0.90622700000000
C        52.63609500000000   -2.32727900000000   -1.00825300000000
C        53.02846900000000   -1.16497400000000   -0.20573700000000
C        52.39335300000000   -0.01370100000000    0.00652900000000
C        53.07881000000000    1.26089800000000    0.23275800000000
C        52.74351900000001    2.33949800000000    0.93699800000000
C        53.76806100000000    3.35881500000000    0.84641700000000
C        54.71865800000000    2.86189000000000    0.07305200000000
N        54.34166400000000    1.54528500000000   -0.34309100000000
C        55.96579700000000    3.47359200000000   -0.34381300000000
C        57.06734900000000    2.80633500000000   -0.67558500000000
C        58.06089600000000    3.05831900000000   -1.70975500000000
C        58.95477900000000    2.09746000000000   -1.60827100000000
C        58.57508100000000    1.18557600000000   -0.50429400000000
N        57.48016500000000    1.63489500000000    0.00307300000000
C        59.23228800000000   -0.01370100000000    0.00652900000000
C        58.60887600000000   -1.08288300000000    0.46804500000000
C        58.98758900000000   -2.01499900000000    1.54352100000000
C        58.04692000000001   -2.92914500000000    1.62938700000000
C        57.03861900000000   -2.63336600000000    0.63196000000000
N        57.37639400000000   -1.57998800000000   -0.01733500000000
C        55.78622600000000   -3.34037300000000    0.30076700000000
C        54.67234900000000   -2.74367600000000   -0.04657500000000
N        54.29023700000000   -1.46091900000000    0.37110800000000
H        53.59264900000001   -4.21770300000000   -1.39746100000000
H        51.72756000000000   -2.44897300000000   -1.58940100000000
H        51.81866700000000    2.45785000000000    1.51392400000000
H        53.79535500000000    4.34797900000000    1.30306700000000
H        56.05173700000000    4.57097000000000   -0.40583600000000
H        58.09356800000000    3.86453500000000   -2.43657900000000
H        59.84784000000000    1.98449200000000   -2.24204500000000
H        59.90233900000000   -1.94059200000000    2.15369100000000
H        58.06596700000000   -3.74275300000000    2.33765400000000
H        55.82471000000000   -4.44033200000000    0.35980300000000
Ni       69.22226499999999    0.03481800000000    0.00343900000000
C        66.94245500000000   -3.22662900000000   -0.90622700000000
C        65.98624500000000   -2.32727900000000   -1.00825300000000
C        66.37861900000000   -1.16497400000000   -0.20573700000000
C        65.74350300000000   -0.01370100000000    0.00652900000000
C        66.42896000000000    1.26089800000000    0.23275800000000
C        66.09367000000000    2.33949800000000    0.93699800000000
C        67.11821100000000    3.35881500000000    0.84641700000000
C        68.06880800000000    2.86189000000000    0.07305200000000
N        67.69181399999999    1.54528500000000   -0.34309100000000
C        69.31594800000001    3.47359200000000   -0.34381300000000
C        70.41750000000000    2.80633500000000   -0.67558500000000
C        71.41104600000000    3.05831900000000   -1.70975500000000
C        72.30492900000002    2.09746000000000   -1.60827100000000
C        71.92523100000000    1.18557600000000   -0.50429400000000
N        70.83031600000000    1.63489500000000    0.00307300000000
C        72.58243800000000   -0.01370100000000    0.00652900000000
C        71.95902700000002   -1.08288300000000    0.46804500000000
C        72.33773900000001   -2.01499900000000    1.54352100000000
C        71.39707100000001   -2.92914500000000    1.62938700000000
C        70.38876900000000   -2.63336600000000    0.63196000000000
N        70.72654400000000   -1.57998800000000   -0.01733500000000
C        69.13637600000001   -3.34037300000000    0.30076700000000
C        68.02249900000000   -2.74367600000000   -0.04657500000000
N        67.64038700000000   -1.46091900000000    0.37110800000000
H        66.94279899999999   -4.21770300000000   -1.39746100000000
H        65.07771099999999   -2.44897300000000   -1.58940100000000
H        65.16881800000000    2.45785000000000    1.51392400000000
H        67.14550600000000    4.34797900000000    1.30306700000000
H        69.40188800000001    4.57097000000000   -0.40583600000000
H        71.44371800000000    3.86453500000000   -2.43657900000000
H        73.19799100000000    1.98449200000000   -2.24204500000000
H        73.25248900000000   -1.94059200000000    2.15369100000000
H        71.41611700000000   -3.74275300000000    2.33765400000000
H        69.17486100000001   -4.44033200000000    0.35980300000000
193
 energy: -356.382913739175 gnorm: 0.475740038203 xtb: 6.4.1 (bd6e46d)
Ni       27.55243733973885    0.03922531409717   -0.01113366146064
C        29.87341181125988   -3.11499653700306    1.30198049121316
C        30.80287653299639   -2.16088532220248    1.25724640494685
C        30.37227968273697   -1.11042175193984    0.34427476289397
C        30.97744954150150    0.03813738499386   -0.00916359332114
C        30.27928951314524    1.23038681782180   -0.36425771128597
C        30.63271466625417    2.22508733792501   -1.23655735157571
C        29.61630085219779    3.21493120496504   -1.24949377194926
C        28.64191219832736    2.81192300523308   -0.38226487020405
N        29.02229783310068    1.57839212641991    0.17322144486350
C        27.40711655859192    3.48101117172538   -0.01025676279165
C        26.28348167027065    2.83103785231876    0.34155529977372
C        25.22020717447477    3.17280774523536    1.29312156700111
C        24.35657774957128    2.16097104712284    1.23558980963257
C        24.81606128330797    1.16396384335870    0.26821219834202
N        25.96411976173823    1.57747744227492   -0.21099599606618
C        24.19690386427214   -0.06784688985687   -0.15501084489821
C        24.87759330093978   -1.19669054039092   -0.42063197512874
C        24.49093051184628   -2.25662135892884   -1.35975840119042
C        25.45537065292359   -3.17107856965900   -1.28193917207041
C        26.44433336930311   -2.72066325775586   -0.30937024215815
N        26.09816164133303   -1.53903500529495    0.16782510883689
C        27.64751710443539   -3.37613857825505    0.13713462097489
C        28.79354553030912   -2.70728402010664    0.41423010209271
N        29.10498509414342   -1.46417402853212   -0.15729497488903
H        29.92482736708898   -4.01029007678739    1.92008712119808
H        31.70955029244402   -2.19240598951658    1.83564167881780
H        31.54551207830976    2.22209333301993   -1.82211731890741
H        29.60954928576212    4.11432015144760   -1.84977916614259
H        27.35605096455692    4.57248396246591   -0.00730906691813
H        25.17340978277541    4.04191255025469    1.92873055114861
H        23.46596600349894    2.12343410474230    1.84886901713330
H        23.11207896616907   -0.07804681088624   -0.26627138325559
H        23.63271083633961   -2.29996249039097   -2.01504512197381
H        25.45609921872748   -4.07040949309049   -1.87981010489426
H        27.62505884497642   -4.46111708580260    0.25673354753764
Ni       84.12055730125270   -0.00473266300190   -0.01525412208157
C        81.79959156899196    2.85112561329048    1.86023059157656
C        80.87013192657973    1.92187738248237    1.63925779817593
C        81.30069377111181    1.05901967249123    0.54726768718605
C        80.69531493788169   -0.00407644718961   -0.01295437425725
C        81.39369918426173   -1.10972294987317   -0.58323046454468
C        81.04028015945268   -1.92531849570603   -1.62486425415868
C        82.05671489673614   -2.89559766430946   -1.82123631850640
C        83.03108334656476   -2.66047729854330   -0.89432806462026
N        82.65067628945549   -1.55136211413290   -0.11966814919719
C        84.26586806547699   -3.38695713649816   -0.65288654016247
C        85.38950707988869   -2.81351725580053   -0.18659468947419
C        86.45277677087898   -3.32588396294052    0.68503782663013
C        87.31640911564055   -2.32093185159466    0.81621938537083
C        86.85693147809614   -1.16178010513152    0.05059372280809
N        85.70887073593244   -1.47922402477375   -0.49701267003859
C        87.47608466889481    0.12716254501599   -0.13676258459993
C        86.79539414325625    1.28568887291783   -0.18835663282973
C        87.18205635386889    2.50144122806547   -0.91454862988231
C        86.21761789723045    3.38559061387087   -0.66843504857251
C        85.22865364482334    2.76256750590856    0.20369407497860
N        85.57483041953395    1.51292661970941    0.45340174830037
C        84.02547074154599    3.32383717638104    0.76404361880288
C        82.87943788166704    2.61518190409702    0.91224156982616
N        82.56800360221231    1.49964808275461    0.12005750973823
H        81.74815979747174    3.61621370365757    2.63369212510326
H        79.96344392284000    1.84557232299316    2.21347076987310
H        80.12748921148147   -1.81373618344827   -2.19975689493237
H        82.06345176247673   -3.66800840235689   -2.57797485164858
H        84.31694705770521   -4.46002944250276   -0.85248378786094
H        86.49958087951420   -4.29782213158010    1.14838586524980
H        88.20702538011258   -2.39782725391840    1.42581712315026
H        88.56091060190552    0.15782822493542   -0.24420030975366
H        88.04027800310085    2.66559623802877   -1.55042012912221
H        86.21688882995603    4.38022341711517   -1.08908936290351
H        84.04792783363791    4.36779317621570    1.08284812716777
C        33.88050437671133    0.01494356878100   -0.00751354302396
C        35.10156516770512    0.02234835672082   -0.00714479144259
C        36.48833925810032    0.02362808687487   -0.00197821844512
C        37.70651292250391    0.02316570977592   -0.01121230428390
C        47.25845036482138    0.02214874038423   -0.00523534097108
C        48.47297667551639    0.02279520365079   -0.00554758265249
C        49.84294935370650    0.02347463506065   -0.00247998806864
C        51.05884545528729    0.02298815878536   -0.01214745500965
C        60.60850870061129    0.02220338177803   -0.00505428620700
C        61.82314178920158    0.02282231527620   -0.00546246078652
C        63.19304976445949    0.02346870444294   -0.00249997072408
C        64.40896783209759    0.02294207478267   -0.01224840806249
C        73.96191787083625    0.02240079953250   -0.00503056077189
C        75.17841031614145    0.02264060760901   -0.00582546260274
C        76.56844726094920    0.02211792026018   -0.00215842291410
C        77.78964378708990    0.01431260651593   -0.00834390090106
Ni       42.51496975794412    0.03654375661288    0.00232727517581
C        40.24296567226543   -3.24528145637880   -0.89899326159582
C        39.28055159078374   -2.32660621309226   -1.00011486553514
C        39.70647959911332   -1.17955056764687   -0.20904455169389
C        39.05919439512932    0.00604729509731    0.00577128515694
C        39.75898677706840    1.26375053897813    0.23014538576230
C        39.38427142677378    2.36649423870564    0.94779241270421
C        40.39298542828360    3.36040657522153    0.85378375769561
C        41.38042968586060    2.84054912059721    0.06877581991701
N        41.02132399130822    1.52730910324576   -0.32765047105740
C        42.60108204421173    3.47393110999869   -0.34543565711535
C        43.72518689874772    2.79388138022660   -0.67632454250461
C        44.71757674596137    3.06615209020547   -1.69708942308391
C        45.62521237836680    2.08631335768005   -1.60680216117849
C        45.22426600071331    1.18430199619652   -0.52078408917829
N        44.09082409629924    1.61130001484565   -0.01665617599195
C        45.88568668661429    0.00310300896308   -0.00219327263625
C        45.24188421534122   -1.09534439908339    0.47589028468981
C        45.64985368191671   -2.01465077781980    1.53341261622051
C        44.69322388277967   -2.94527392209531    1.62885360114870
C        43.67688005004918   -2.63957552993388    0.64059265116672
N        44.00518473668053   -1.54144579596023   -0.00353606294018
C        42.45621222334166   -3.34850136267690    0.31008274376234
C        41.31115262511911   -2.73088770935494   -0.05421881900734
N        40.95836799534878   -1.44294479579001    0.33701258755070
H        40.24740832236556   -4.21455307483060   -1.39382503076017
H        38.37850285188167   -2.43907144975954   -1.58480264355492
H        38.46809976376043    2.46205605695631    1.51515068130218
H        40.43442021996742    4.34229524620788    1.30527407894414
H        42.68486892710579    4.56540956777759   -0.41141574168680
H        44.73647081229126    3.86286670936738   -2.42867883313701
H        46.49835115775829    1.97800362023802   -2.23900181999248
H        46.54681750315761   -1.93557961053970    2.14571297207626
H        44.70865406149940   -3.74871457336580    2.33846409572382
H        42.48033701888736   -4.43839767744681    0.35748801729262
Ni       55.86433902943678    0.03631714573879    0.00232559617858
C        53.59278705398150   -3.24508364407720   -0.89927369284046
C        52.63030664325370   -2.32723321636820   -0.99957432844048
C        53.05677492857531   -1.17926419696847   -0.20838540710332
C        52.41091403418694    0.00568598369687    0.00560051032212
C        53.10932227096853    1.26404706922080    0.23010194304818
C        52.73435901011809    2.36653284864700    0.94771758969593
C        53.74308432688419    3.36029510901138    0.85381012552144
C        54.73083145890800    2.84022309469420    0.06872092905213
N        54.37224259142981    1.52701126275070   -0.32714408583956
C        55.95119586397327    3.47379682325410   -0.34534190821542
C        57.07537592473633    2.79373051158714   -0.67632374568727
C        58.06775318506165    3.06619460658972   -1.69710732364932
C        58.97536314444424    2.08635366842504   -1.60683438905082
C        58.57402207813470    1.18430612330296   -0.52093298454467
N        57.44082041037013    1.61106178221010   -0.01699644210268
C        59.23577607200171    0.00291581323349   -0.00215295701695
C        58.59202014214806   -1.09534108258709    0.47571045531264
C        59.00002901014257   -2.01471368368002    1.53351049144061
C        58.04359440244554   -2.94534940895356    1.62877239143777
C        57.02703269784240   -2.63903695918166    0.64074362810856
N        57.35509633754378   -1.54116201603346   -0.00318491234919
C        55.80614976915090   -3.34836598035758    0.30996001625258
C        54.66182633710402   -2.73049689304475   -0.05410746210553
N        54.30976528409682   -1.44269237822391    0.33666539226515
H        53.59744267938284   -4.21450604974340   -1.39381895100241
H        51.72863502508417   -2.43918021968562   -1.58489582183347
H        51.81826199406898    2.46209785667621    1.51521949802384
H        53.78448685846545    4.34230001019357    1.30512413850248
H        56.03500589484778    4.56533402343025   -0.41138113632767
H        58.08663668142503    3.86289229719491   -2.42866712661966
H        59.84849948885864    1.97801284691827   -2.23895875658783
H        59.89698891721493   -1.93561101452286    2.14571019703390
H        58.05879144243356   -3.74868834497617    2.33846195672781
H        55.83047931576948   -4.43829065798415    0.35731089025454
Ni       69.21445348486736    0.03622158760216    0.00218472993627
C        66.94290089997513   -3.24508501577803   -0.89928489173758
C        65.98049169121528   -2.32727449486357   -0.99955577417508
C        66.40683283649990   -1.17917215093996   -0.20835162520909
C        65.76098043288336    0.00564549215727    0.00555670507621
C        66.45913015568135    1.26423762866684    0.23025060717205
C        66.08439096752780    2.36636994971929    0.94768181841503
C        67.09337561795223    3.36017737193544    0.85391733886886
C        68.08093473553910    2.84030213610273    0.06877907134290
N        67.72232793521715    1.52740092762099   -0.32732199146816
C        69.30145790450787    3.47384452387313   -0.34545025814367
C        70.42561935419745    2.79400785330019   -0.67628904646114
C        71.41793392254431    3.06636501011998   -1.69692168370047
C        72.32531902685095    2.08615225715160   -1.60703727906871
C        71.92417276561409    1.18382265384692   -0.52152321658010
N        70.79168822971849    1.61098842165437   -0.01687948622049
C        72.58761378831598    0.00262708877120   -0.00203446971574
C        71.94278226053406   -1.09503281848785    0.47607514624727
C        72.35004387290326   -2.01426552329990    1.53348178539780
C        71.39349632373161   -2.94534187095853    1.62855260758051
C        70.37766177921208   -2.63905719052711    0.64103704449812
N        70.70574869584419   -1.54113850585272   -0.00291592276093
C        69.15595861653459   -3.34853930273625    0.30983899984698
C        68.01205582876203   -2.73085598571604   -0.05384080519813
N        67.65990206918704   -1.44264205072537    0.33694525530824
H        66.94756925795350   -4.21451286314446   -1.39384175172916
H        65.07880861827988   -2.43917464518883   -1.58493616284439
H        65.16837013484037    2.46205668209340    1.51526581739699
H        67.13464168503472    4.34230735066769    1.30509704411891
H        69.38510868249961    4.56537713671486   -0.41159038019994
H        71.43677489441707    3.86293394251180   -2.42866779379367
H        73.19864082479859    1.97798299994362   -2.23890048806043
H        73.24713964756812   -1.93561260159989    2.14558128759446
H        71.40882430567535   -3.74865609016570    2.33840194327430
H        69.18061718738464   -4.43839328208450    0.35701746024073
193
 energy: -356.582986176236 gnorm: 0.212960770191 xtb: 6.4.1 (bd6e46d)
Ni       27.55973426632689    0.03902871360461   -0.00855482560759
C        29.87223008387475   -3.12042637158916    1.29040260728563
C        30.81517732967345   -2.15956514713629    1.25183100165632
C        30.36266398391730   -1.11103523642429    0.35498652439638
C        30.94745053278517    0.06329912397398   -0.01211598655387
C        30.26389483276938    1.22143179534379   -0.36034093988932
C        30.63902172937491    2.25442042395616   -1.24675029788000
C        29.64900690966222    3.21246358651303   -1.25234466541602
C        28.63360300911864    2.78410322082899   -0.37402414924447
N        28.99025284427114    1.55153796182596    0.15554777966523
C        27.42907018055410    3.47377810187485   -0.01124641131571
C        26.28245479985711    2.80630549136523    0.34874657294124
C        25.22546022526959    3.17430810467569    1.27021605991278
C        24.33436317114782    2.15717259447114    1.22959624919010
C        24.81243378135045    1.16150924152940    0.28693780235384
N        26.01028483332579    1.54581970735055   -0.17667093108309
C        24.18967747921661   -0.04668395086717   -0.14664288305233
C        24.88759259871941   -1.19353714351678   -0.43290389176419
C        24.48793244817654   -2.25452018071581   -1.34196071996264
C        25.45897611386732   -3.18899998379966   -1.27188850508808
C        26.45609648200229   -2.72590826232252   -0.31920114321324
N        26.11947021999684   -1.50017018032177    0.12755733665017
C        27.63034624847168   -3.37766460580554    0.12874425012495
C        28.79410560455349   -2.68574724954830    0.42061837629706
N        29.08966180457576   -1.45243769509886   -0.12053011047877
H        29.91515757889541   -4.00472787932349    1.90812477605853
H        31.71618387012165   -2.18161412815807    1.82987938409359
H        31.54288592755912    2.22939662420273   -1.82129753684015
H        29.61362440975562    4.10898563273529   -1.84614156348648
H        27.37284217587590    4.56237350506352   -0.00599445097703
H        25.18065230683120    4.03694039625121    1.91658248977131
H        23.46060850541299    2.11356468153407    1.84404586609810
H        23.11446901623340   -0.07216641876374   -0.26649005580005
H        23.63662997272884   -2.29028568357178   -2.00301280711035
H        25.46754944397381   -4.07545630093973   -1.87262887493660
H        27.62413079536149   -4.45505202377617    0.25288274304774
Ni       84.11325672373822   -0.00500968864255   -0.01269311102104
C        81.80078491061056    2.85861923051852    1.84983961292782
C        80.85784238216405    1.92159016753212    1.63365814350459
C        81.31035259360127    1.05761140942472    0.55789271751724
C        80.72518011718076   -0.02827107087932   -0.02046326017037
C        81.40913689669431   -1.10164836759150   -0.57771637079823
C        81.03397256405579   -1.95225836326489   -1.64028837017927
C        82.02402557773001   -2.89266372038334   -1.82356901781449
C        83.03940588978028   -2.63469473593497   -0.88107141507628
N        82.68273250389001   -1.52165781665518   -0.13206990326888
C        84.24390860037272   -3.37967760685641   -0.65250467587469
C        85.39053511362401   -2.79054981972385   -0.17492714138867
C        86.44751463621360   -3.32309925256882    0.66226359063409
C        87.33862425120400   -2.31607605059983    0.81103389925959
C        86.86056071172231   -1.16284269876999    0.06945069858607
N        85.66270010941498   -1.45449288996491   -0.45740481003317
C        87.48331019914788    0.10481417033306   -0.13247384954516
C        86.78539348256923    1.28486724259951   -0.20101651709104
C        87.18504996410975    2.49606790121603   -0.89747594449078
C        86.21401239138508    3.40133483328793   -0.65526005916602
C        85.21688813531982    2.76954835867770    0.19498271155582
N        85.55352103653017    1.48220901667459    0.40660269885970