      -----------------------------------------------------------      
     |                   =====================                   |     
     |                           x T B                           |     
     |                   =====================                   |     
     |                         S. Grimme                         |     
     |          Mulliken Center for Theoretical Chemistry        |     
     |                    University of Bonn                     |     
      -----------------------------------------------------------      

   * xtb version 6.4.1 (bd6e46d) compiled by 'conda@4901f00b25ba' on 2021-06-10

   xtb is free software: you can redistribute it and/or modify it under
   the terms of the GNU Lesser General Public License as published by
   the Free Software Foundation, either version 3 of the License, or
   (at your option) any later version.
   
   xtb is distributed in the hope that it will be useful,
   but WITHOUT ANY WARRANTY; without even the implied warranty of
   MERCHANTABILITY or FITNESS FOR A PARTICULAR PURPOSE.  See the
   GNU Lesser General Public License for more details.
   
   Cite this work as:
   * C. Bannwarth, E. Caldeweyher, S. Ehlert, A. Hansen, P. Pracht,
     J. Seibert, S. Spicher, S. Grimme, WIREs Comput. Mol. Sci., 2020, 11,
     e01493. DOI: 10.1002/wcms.1493
   
   for GFN2-xTB:
   * C. Bannwarth, S. Ehlert and S. Grimme., J. Chem. Theory Comput., 2019,
     15, 1652-1671. DOI: 10.1021/acs.jctc.8b01176
   for GFN1-xTB:
   * S. Grimme, C. Bannwarth, P. Shushkov, J. Chem. Theory Comput., 2017,
     13, 1989-2009. DOI: 10.1021/acs.jctc.7b00118
   for GFN0-xTB:
   * P. Pracht, E. Caldeweyher, S. Ehlert, S. Grimme, ChemRxiv, 2019, preprint.
     DOI: 10.26434/chemrxiv.8326202.v1
   for GFN-FF:
   * S. Spicher and S. Grimme, Angew. Chem. Int. Ed., 2020, 59, 15665-15673.
     DOI: 10.1002/anie.202004239
   
   for DFT-D4:
   * E. Caldeweyher, C. Bannwarth and S. Grimme, J. Chem. Phys., 2017,
     147, 034112. DOI: 10.1063/1.4993215
   * E. Caldeweyher, S. Ehlert, A. Hansen, H. Neugebauer, S. Spicher,
     C. Bannwarth and S. Grimme, J. Chem. Phys., 2019, 150, 154122.
     DOI: 10.1063/1.5090222
   * E. Caldeweyher, J.-M. Mewes, S. Ehlert and S. Grimme, Phys. Chem. Chem. Phys.
     2020, 22, 8499-8512. DOI: 10.1039/D0CP00502A
   
   for sTDA-xTB:
   * S. Grimme and C. Bannwarth, J. Chem. Phys., 2016, 145, 054103.
     DOI: 10.1063/1.4959605
   
   in the mass-spec context:
   * V. Asgeirsson, C. Bauer and S. Grimme, Chem. Sci., 2017, 8, 4879.
     DOI: 10.1039/c7sc00601b
   * J. Koopman and S. Grimme, ACS Omega 2019, 4, 12, 15120-15133.
     DOI: 10.1021/acsomega.9b02011
   
   for metadynamics refer to:
   * S. Grimme, J. Chem. Theory Comput., 2019, 155, 2847-2862
     DOI: 10.1021/acs.jctc.9b00143
   
   for SPH calculations refer to:
   * S. Spicher and S. Grimme, J. Chem. Theory Comput., 2021, 17, 1701-1714
     DOI: 10.1021/acs.jctc.0c01306
   
   with help from (in alphabetical order)
   P. Atkinson, C. Bannwarth, F. Bohle, G. Brandenburg, E. Caldeweyher
   M. Checinski, S. Dohm, S. Ehlert, S. Ehrlich, I. Gerasimov, J. Koopman
   C. Lavigne, S. Lehtola, F. März, M. Müller, F. Musil, H. Neugebauer
   J. Pisarek, C. Plett, P. Pracht, J. Seibert, P. Shushkov, S. Spicher
   M. Stahn, M. Steiner, T. Strunk, J. Stückrath, T. Rose, and J. Unsleber
   
 * started run on 2021/11/21 at 19:09:17.312     

           -------------------------------------------------
          |                Calculation Setup                |
           -------------------------------------------------

          program call               : /home/jeff/miniconda3/bin/xtb /home/jeff/chem/final-year-proejct/Co+2_2_4_outenergy/input_structure.xyz --gfn 2 --parallel 1 --etemp 300 --chrg 0 --uhf 0 -I det_control.in
          coordinate file            : /home/jeff/chem/final-year-proejct/Co+2_2_4_outenergy/input_structure.xyz
          omp threads                :                     1
          number of atoms            :                   148
          number of electrons        :                   502
          charge                     :                     0
          spin                       :                   0.0
          first test random number   :      0.03729386090335

   ID    Z sym.   atoms
    1   27 Co     1, 37, 79, 114
    2    6 C      2-9, 11-15, 17-21, 23, 24, 38-45, 47-51, 53-57, 59, 60,
                  73-78, 80-87, 89-93, 95-99, 101, 102, 115-122, 124-128,
                  130-134, 136, 137
    3    7 N      10, 16, 22, 25, 46, 52, 58, 61, 88, 94, 100, 103, 123, 129,
                  135, 138
    4    1 H      26-36, 62-72, 104-113, 139-148

           -------------------------------------------------
          |                 G F N 2 - x T B                 |
           -------------------------------------------------

        Reference                      10.1021/acs.jctc.8b01176
      * Hamiltonian:
        H0-scaling (s, p, d)           1.850000    2.230000    2.230000
        zeta-weighting                 0.500000
      * Dispersion:
        s8                             2.700000
        a1                             0.520000
        a2                             5.000000
        s9                             5.000000
      * Repulsion:
        kExp                           1.500000    1.000000
        rExp                           1.000000
      * Coulomb:
        alpha                          2.000000
        third order                    shell-resolved
        anisotropic                    true
        a3                             3.000000
        a5                             4.000000
        cn-shift                       1.200000
        cn-exp                         4.000000
        max-rad                        5.000000


          ...................................................
          :                      SETUP                      :
          :.................................................:
          :  # basis functions                 490          :
          :  # atomic orbitals                 486          :
          :  # shells                          258          :
          :  # electrons                       502          :
          :  max. iterations                   250          :
          :  Hamiltonian                  GFN2-xTB          :
          :  restarted?                      false          :
          :  GBSA solvation                  false          :
          :  PC potential                    false          :
          :  electronic temp.          300.0000000     K    :
          :  accuracy                    1.0000000          :
          :  -> integral cutoff          0.2500000E+02      :
          :  -> integral neglect         0.1000000E-07      :
          :  -> SCF convergence          0.1000000E-05 Eh   :
          :  -> wf. convergence          0.1000000E-03 e    :
          :  Broyden damping             0.4000000          :
          ...................................................

 iter      E             dE          RMSdq      gap      omega  full diag
   1   -270.7156964 -0.270716E+03  0.706E+00    0.24       0.0  T
   2   -256.4818921  0.142338E+02  0.904E+00    0.00       1.0  T
   3   -253.1369346  0.334496E+01  0.683E+00    0.02       1.0  T
   4   -253.7719846 -0.635050E+00  0.642E+00    0.15       1.0  T
   5   -241.6235204  0.121485E+02  0.713E+00    0.07       1.0  T
   6   -239.7762659  0.184725E+01  0.767E+00    0.12       1.0  T
   7   -259.7641319 -0.199879E+02  0.452E+00    0.03       1.0  T
   8   -269.7412216 -0.997709E+01  0.340E+00    0.18       1.0  T
   9   -270.5695692 -0.828348E+00  0.277E+00    0.03       1.0  T
  10   -271.0471536 -0.477584E+00  0.285E+00    0.17       1.0  T
  11   -270.8419961  0.205157E+00  0.262E+00    0.03       1.0  T
  12   -270.7049962  0.137000E+00  0.265E+00    0.09       1.0  T
  13   -270.7782366 -0.732404E-01  0.246E+00    0.03       1.0  T
  14   -270.8554934 -0.772568E-01  0.230E+00    0.02       1.0  T
  15   -269.6275923  0.122790E+01  0.287E+00    0.01       1.0  T
  16   -269.6468935 -0.193013E-01  0.275E+00    0.01       1.0  T
  17   -270.5641524 -0.917259E+00  0.217E+00    0.01       1.0  T
  18   -269.8329188  0.731234E+00  0.258E+00    0.01       1.0  T
  19   -270.2104993 -0.377581E+00  0.236E+00    0.01       1.0  T
  20   -270.7912219 -0.580723E+00  0.181E+00    0.01       1.0  T
  21   -269.1425728  0.164865E+01  0.369E+00    0.12       1.0  T
  22   -269.3949400 -0.252367E+00  0.345E+00    0.10       1.0  T
  23   -269.4046409 -0.970087E-02  0.344E+00    0.10       1.0  T
  24   -271.0241328 -0.161949E+01  0.174E+00    0.01       1.0  T
  25   -270.2694831  0.754650E+00  0.296E+00    0.07       1.0  T
  26   -270.6208580 -0.351375E+00  0.252E+00    0.03       1.0  T
  27   -270.5080732  0.112785E+00  0.266E+00    0.05       1.0  T
  28   -270.5288192 -0.207460E-01  0.263E+00    0.05       1.0  T
  29   -270.5819092 -0.530900E-01  0.261E+00    0.05       1.0  T
  30   -270.6215246 -0.396155E-01  0.255E+00    0.04       1.0  T
  31   -269.4107725  0.121075E+01  0.346E+00    0.11       1.0  T
  32   -269.4670564 -0.562840E-01  0.344E+00    0.10       1.0  T
  33   -269.5099281 -0.428717E-01  0.339E+00    0.10       1.0  T
  34   -269.6727558 -0.162828E+00  0.320E+00    0.08       1.0  T
  35   -270.7903817 -0.111763E+01  0.214E+00    0.02       1.0  T
  36   -271.0367247 -0.246343E+00  0.177E+00    0.02       1.0  T
  37   -271.2100482 -0.173324E+00  0.169E+00    0.01       1.0  T
  38   -271.2872934 -0.772452E-01  0.146E+00    0.00       1.0  T
  39   -271.5101059 -0.222813E+00  0.116E+00    0.02       1.0  T
  40   -271.5204580 -0.103521E-01  0.114E+00    0.01       1.0  T
  41   -271.3976783  0.122780E+00  0.124E+00    0.02       1.0  T
  42   -271.2953114  0.102367E+00  0.135E+00    0.03       1.0  T
  43   -271.2902309  0.508046E-02  0.135E+00    0.04       1.0  T
  44   -271.3214493 -0.312184E-01  0.133E+00    0.04       1.0  T
  45   -271.2671451  0.543042E-01  0.140E+00    0.04       1.0  T
  46   -271.2744506 -0.730553E-02  0.141E+00    0.04       1.0  T
  47   -271.4114760 -0.137025E+00  0.140E+00    0.03       1.0  T
  48   -271.3807177  0.307583E-01  0.146E+00    0.02       1.0  T
  49   -271.1924709  0.188247E+00  0.166E+00    0.00       1.0  T
  50   -271.3431210 -0.150650E+00  0.149E+00    0.01       1.0  T
  51   -271.4553682 -0.112247E+00  0.132E+00    0.00       1.0  T
  52   -271.4713224 -0.159543E-01  0.130E+00    0.01       1.0  T
  53   -271.4628083  0.851412E-02  0.128E+00    0.02       1.0  T
  54   -271.4736233 -0.108151E-01  0.127E+00    0.02       1.0  T
  55   -271.4801096 -0.648621E-02  0.126E+00    0.01       1.0  T
  56   -271.5032572 -0.231477E-01  0.120E+00    0.02       1.0  T
  57   -271.5408280 -0.375708E-01  0.115E+00    0.01       1.0  T
  58   -271.5476615 -0.683355E-02  0.111E+00    0.01       1.0  T
  59   -271.5630948 -0.154333E-01  0.108E+00    0.01       1.0  T
  60   -271.5585787  0.451609E-02  0.107E+00    0.01       1.0  T
  61   -271.5740473 -0.154686E-01  0.103E+00    0.01       1.0  T
  62   -271.5757519 -0.170456E-02  0.102E+00    0.01       1.0  T
  63   -271.5918205 -0.160686E-01  0.986E-01    0.01       1.0  T
  64   -271.6233954 -0.315749E-01  0.918E-01    0.00       1.0  T
  65   -269.9928583  0.163054E+01  0.266E+00    0.01       1.0  T
  66   -269.8050714  0.187787E+00  0.284E+00    0.03       1.0  T
  67   -271.4251015 -0.162003E+01  0.127E+00    0.03       1.0  T
  68   -271.7548088 -0.329707E+00  0.620E-01    0.00       1.0  T
  69   -271.5547844  0.200024E+00  0.106E+00    0.00       1.0  T
  70   -271.6044603 -0.496759E-01  0.952E-01    0.00       1.0  T
  71   -270.9868519  0.617608E+00  0.181E+00    0.01       1.0  T
  72   -271.5068039 -0.519952E+00  0.109E+00    0.03       1.0  T
  73   -271.0766160  0.430188E+00  0.171E+00    0.02       1.0  T
  74   -271.5979277 -0.521312E+00  0.923E-01    0.01       1.0  T
  75   -271.4075545  0.190373E+00  0.129E+00    0.01       1.0  T
  76   -271.6117219 -0.204167E+00  0.911E-01    0.01       1.0  T
  77   -271.7447412 -0.133019E+00  0.620E-01    0.01       1.0  T
  78   -271.6403649  0.104376E+00  0.854E-01    0.00       1.0  T
  79   -271.4693522  0.171013E+00  0.119E+00    0.00       1.0  T
  80   -271.0658316  0.403521E+00  0.173E+00    0.02       1.0  T
  81   -270.7339374  0.331894E+00  0.208E+00    0.02       1.0  T
  82   -270.9145038 -0.180566E+00  0.190E+00    0.02       1.0  T
  83   -271.7012591 -0.786755E+00  0.725E-01    0.02       1.0  T
  84   -271.6437475  0.575116E-01  0.851E-01    0.00       1.0  T
  85   -271.6862200 -0.424724E-01  0.749E-01    0.00       1.0  T
  86   -271.7717794 -0.855595E-01  0.472E-01    0.00       1.0  T
  87   -271.8126683 -0.408888E-01  0.271E-01    0.00       1.0  T
  88   -271.7644423  0.482260E-01  0.500E-01    0.00       1.0  T
  89   -271.8270584 -0.626161E-01  0.163E-01    0.00       1.0  T
  90   -271.7712199  0.558384E-01  0.472E-01    0.00       1.0  T
  91   -271.8217510 -0.505311E-01  0.191E-01    0.00       1.0  T
  92   -271.8024225  0.193285E-01  0.322E-01    0.00       1.0  T
  93   -271.8231491 -0.207266E-01  0.167E-01    0.00       1.0  T
  94   -271.8211379  0.201117E-02  0.181E-01    0.00       1.0  T
  95   -271.8223894 -0.125150E-02  0.164E-01    0.00       1.0  T
  96   -271.8258051 -0.341573E-02  0.108E-01    0.00       1.0  T
  97   -271.8274675 -0.166239E-02  0.653E-02    0.01       1.0  T
  98   -271.8215743  0.589322E-02  0.165E-01    0.01       1.0  T
  99   -271.8202834  0.129096E-02  0.178E-01    0.01       1.0  T
 100   -271.8261680 -0.588466E-02  0.862E-02    0.01       1.0  T
 101   -271.8220454  0.412264E-02  0.146E-01    0.00       1.0  T
 102   -271.8221902 -0.144812E-03  0.145E-01    0.00       1.0  T
 103   -271.8203627  0.182753E-02  0.172E-01    0.01       1.0  T
 104   -271.8045075  0.158552E-01  0.303E-01    0.01       1.0  T
 105   -271.8192146 -0.147072E-01  0.184E-01    0.01       1.0  T
 106   -271.8277361 -0.852145E-02  0.112E-02    0.00       1.0  T
 107   -271.8277459 -0.979980E-05  0.622E-03    0.00       1.3  T
 108   -271.8276458  0.100080E-03  0.207E-02    0.00       1.0  T
 109   -271.8262677  0.137809E-02  0.762E-02    0.01       1.0  T
 110   -271.8271356 -0.867873E-03  0.492E-02    0.00       1.0  T
 111   -271.8274396 -0.304045E-03  0.349E-02    0.00       1.0  T
 112   -271.8276121 -0.172469E-03  0.233E-02    0.00       1.0  T
 113   -271.8276003  0.117582E-04  0.242E-02    0.00       1.0  T
 114   -271.8277017 -0.101360E-03  0.138E-02    0.00       1.0  T
 115   -271.8277194 -0.177141E-04  0.110E-02    0.00       1.0  T
 116   -271.8277434 -0.240004E-04  0.518E-03    0.00       1.6  T
 117   -271.8277452 -0.182304E-05  0.437E-03    0.00       1.9  T
 118   -271.8277500 -0.471900E-05  0.606E-04    0.00      13.6  T
 119   -271.8277500 -0.359956E-07  0.363E-04    0.00      22.7  T
 120   -271.8277500 -0.197081E-07  0.195E-04    0.00      42.1  T

   *** convergence criteria satisfied after 120 iterations ***

         #    Occupation            Energy/Eh            Energy/eV
      -------------------------------------------------------------
         1        2.0000           -0.6692490             -18.2112
       ...           ...                  ...                  ...
       245        1.8581           -0.3468143              -9.4373
       246        1.8283           -0.3466177              -9.4319
       247        1.8276           -0.3466140              -9.4318
       248        1.8202           -0.3465701              -9.4307
       249        1.8196           -0.3465667              -9.4306
       250        1.4606           -0.3453172              -9.3966
       251        1.4197           -0.3452207              -9.3939 (HOMO)
       252        1.3496           -0.3450642              -9.3897 (LUMO)
       253        1.3049           -0.3449691              -9.3871
       254                         -0.3120929              -8.4925
       255                         -0.3043503              -8.2818
       256                         -0.2963870              -8.0651
       ...                                ...                  ...
       486                          1.4126670              38.4406
      -------------------------------------------------------------
                  HL-Gap            0.0001565 Eh            0.0043 eV
             Fermi-level           -0.3443708 Eh           -9.3708 eV

 SCC (total)                   0 d,  0 h,  0 min,  6.968 sec
 SCC setup                      ...        0 min,  0.004 sec (  0.054%)
 Dispersion                     ...        0 min,  0.010 sec (  0.142%)
 classical contributions        ...        0 min,  0.001 sec (  0.016%)
 integral evaluation            ...        0 min,  0.074 sec (  1.057%)
 iterations                     ...        0 min,  6.621 sec ( 95.025%)
 molecular gradient             ...        0 min,  0.252 sec (  3.611%)
 printout                       ...        0 min,  0.007 sec (  0.093%)

         :::::::::::::::::::::::::::::::::::::::::::::::::::::
         ::                     SUMMARY                     ::
         :::::::::::::::::::::::::::::::::::::::::::::::::::::
         :: total energy            -267.225340426410 Eh    ::
         :: gradient norm              0.000507928543 Eh/a0 ::
         :: HOMO-LUMO gap              0.004258198491 eV    ::
         ::.................................................::
         :: SCC energy              -271.827750012098 Eh    ::
         :: -> isotropic ES            0.064824351090 Eh    ::
         :: -> anisotropic ES          0.034308933392 Eh    ::
         :: -> anisotropic XC          0.134809620580 Eh    ::
         :: -> dispersion             -0.250409177102 Eh    ::
         :: repulsion energy           4.606338442279 Eh    ::
         :: add. restraining           0.000000000000 Eh    ::
         :: total charge               0.000000000070 e     ::
         :::::::::::::::::::::::::::::::::::::::::::::::::::::

           -------------------------------------------------
          |                Property Printout                |
           -------------------------------------------------

    * Orbital Energies and Occupations

         #    Occupation            Energy/Eh            Energy/eV
      -------------------------------------------------------------
         1        2.0000           -0.6692490             -18.2112
       ...           ...                  ...                  ...
       239        1.9190           -0.3473772              -9.4526
       240        1.9093           -0.3472653              -9.4496
       241        1.9037           -0.3472053              -9.4479
       242        1.8964           -0.3471326              -9.4460
       243        1.8959           -0.3471275              -9.4458
       244        1.8680           -0.3468885              -9.4393
       245        1.8581           -0.3468143              -9.4373
       246        1.8283           -0.3466177              -9.4319
       247        1.8276           -0.3466140              -9.4318
       248        1.8202           -0.3465701              -9.4307
       249        1.8196           -0.3465667              -9.4306
       250        1.4606           -0.3453172              -9.3966
       251        1.4197           -0.3452207              -9.3939 (HOMO)
       252        1.3496           -0.3450642              -9.3897 (LUMO)
       253        1.3049           -0.3449691              -9.3871
       254                         -0.3120929              -8.4925
       255                         -0.3043503              -8.2818
       256                         -0.2963870              -8.0651
       257                         -0.2963608              -8.0644
       258                         -0.2961536              -8.0587
       259                         -0.2961459              -8.0585
       260                         -0.2948214              -8.0225
       261                         -0.2866692              -7.8007
       262                         -0.2666671              -7.2564
       ...                                ...                  ...
       486                          1.4126670              38.4406
      -------------------------------------------------------------
                  HL-Gap            0.0001565 Eh            0.0043 eV
             Fermi-level           -0.3443708 Eh           -9.3708 eV

     #   Z          covCN         q      C6AA      α(0)
     1  27 Co       3.091     0.100   140.926    24.322
     2   6 C        3.023    -0.053    29.294     8.878
     3   6 C        3.021    -0.052    29.267     8.874
     4   6 C        3.188     0.072    25.947     8.310
     5   6 C        2.956     0.019    27.577     8.613
     6   6 C        3.186     0.072    25.950     8.312
     7   6 C        3.022    -0.051    29.237     8.869
     8   6 C        3.023    -0.053    29.296     8.878
     9   6 C        3.175     0.071    26.022     8.331
    10   7 N        2.641    -0.130    23.826     7.250
    11   6 C        2.904    -0.049    29.227     8.865
    12   6 C        3.172     0.072    26.017     8.332
    13   6 C        3.020    -0.052    29.273     8.875
    14   6 C        3.021    -0.052    29.275     8.875
    15   6 C        3.172     0.073    26.012     8.331
    16   7 N        2.642    -0.129    23.798     7.245
    17   6 C        2.904    -0.051    29.268     8.871
    18   6 C        3.172     0.073    26.011     8.331
    19   6 C        3.021    -0.052    29.276     8.875
    20   6 C        3.021    -0.052    29.274     8.875
    21   6 C        3.172     0.072    26.020     8.332
    22   7 N        2.642    -0.128    23.796     7.245
    23   6 C        2.904    -0.049    29.225     8.864
    24   6 C        3.175     0.071    26.029     8.332
    25   7 N        2.641    -0.129    23.817     7.248
    26   1 H        0.926     0.034     2.524     2.484
    27   1 H        0.926     0.036     2.499     2.472
    28   1 H        0.926     0.035     2.520     2.482
    29   1 H        0.926     0.034     2.525     2.485
    30   1 H        0.926     0.050     2.323     2.383
    31   1 H        0.926     0.035     2.521     2.483
    32   1 H        0.926     0.035     2.522     2.484
    33   1 H        0.926     0.049     2.330     2.387
    34   1 H        0.926     0.035     2.523     2.484
    35   1 H        0.926     0.035     2.522     2.483
    36   1 H        0.926     0.050     2.322     2.383
    37  27 Co       3.092     0.100   140.926    24.322
    38   6 C        3.023    -0.053    29.295     8.878
    39   6 C        3.022    -0.052    29.265     8.874
    40   6 C        3.188     0.072    25.946     8.310
    41   6 C        2.956     0.019    27.577     8.613
    42   6 C        3.186     0.072    25.952     8.312
    43   6 C        3.022    -0.051    29.240     8.870
    44   6 C        3.023    -0.053    29.297     8.878
    45   6 C        3.175     0.071    26.023     8.331
    46   7 N        2.641    -0.130    23.825     7.249
    47   6 C        2.904    -0.049    29.227     8.864
    48   6 C        3.172     0.072    26.017     8.332
    49   6 C        3.020    -0.052    29.273     8.875
    50   6 C        3.021    -0.052    29.275     8.875
    51   6 C        3.172     0.073    26.012     8.331
    52   7 N        2.642    -0.129    23.799     7.245
    53   6 C        2.904    -0.051    29.267     8.871
    54   6 C        3.172     0.073    26.012     8.331
    55   6 C        3.021    -0.052    29.276     8.875
    56   6 C        3.021    -0.052    29.274     8.875
    57   6 C        3.172     0.072    26.021     8.333
    58   7 N        2.642    -0.128    23.795     7.245
    59   6 C        2.904    -0.049    29.225     8.864
    60   6 C        3.175     0.071    26.028     8.332
    61   7 N        2.641    -0.129    23.817     7.248
    62   1 H        0.926     0.034     2.524     2.484
    63   1 H        0.926     0.036     2.500     2.473
    64   1 H        0.926     0.035     2.518     2.482
    65   1 H        0.926     0.034     2.525     2.485
    66   1 H        0.926     0.050     2.322     2.383
    67   1 H        0.926     0.035     2.521     2.483
    68   1 H        0.926     0.035     2.522     2.484
    69   1 H        0.926     0.049     2.330     2.387
    70   1 H        0.926     0.035     2.522     2.484
    71   1 H        0.926     0.035     2.521     2.483
    72   1 H        0.926     0.050     2.322     2.383
    73   6 C        1.989    -0.029    31.833     9.112
    74   6 C        1.990    -0.029    31.812     9.109
    75   6 C        1.990    -0.029    31.827     9.111
    76   6 C        1.990    -0.029    31.827     9.111
    77   6 C        1.990    -0.029    31.812     9.109
    78   6 C        1.989    -0.029    31.833     9.112
    79  27 Co       3.061     0.099   140.948    24.324
    80   6 C        3.024    -0.053    29.291     8.878
    81   6 C        3.022    -0.052    29.269     8.874
    82   6 C        3.194     0.072    25.898     8.298
    83   6 C        2.956     0.018    27.595     8.616
    84   6 C        3.192     0.072    25.910     8.302
    85   6 C        3.023    -0.051    29.239     8.870
    86   6 C        3.024    -0.053    29.294     8.878
    87   6 C        3.180     0.071    25.994     8.323
    88   7 N        2.633    -0.131    23.849     7.253
    89   6 C        2.905    -0.048    29.196     8.860
    90   6 C        3.180     0.071    25.995     8.323
    91   6 C        3.024    -0.053    29.293     8.878
    92   6 C        3.023    -0.052    29.259     8.873
    93   6 C        3.193     0.072    25.904     8.300
    94   7 N        2.633    -0.131    23.847     7.253
    95   6 C        2.956     0.019    27.592     8.616
    96   6 C        3.193     0.072    25.906     8.300
    97   6 C        3.023    -0.052    29.256     8.872
    98   6 C        3.024    -0.053    29.294     8.878
    99   6 C        3.180     0.071    25.996     8.323
   100   7 N        2.633    -0.131    23.848     7.253
   101   6 C        2.905    -0.048    29.195     8.860
   102   6 C        3.180     0.071    25.997     8.324
   103   7 N        2.633    -0.131    23.846     7.252
   104   1 H        0.926     0.034     2.528     2.486
   105   1 H        0.926     0.036     2.502     2.473
   106   1 H        0.926     0.034     2.532     2.488
   107   1 H        0.926     0.034     2.530     2.487
   108   1 H        0.926     0.050     2.319     2.381
   109   1 H        0.926     0.034     2.529     2.487
   110   1 H        0.926     0.035     2.510     2.477
   111   1 H        0.926     0.035     2.511     2.478
   112   1 H        0.926     0.034     2.529     2.487
   113   1 H        0.926     0.050     2.318     2.381
   114  27 Co       3.062     0.099   140.949    24.324
   115   6 C        3.024    -0.053    29.293     8.878
   116   6 C        3.023    -0.052    29.258     8.873
   117   6 C        3.193     0.072    25.905     8.300
   118   6 C        2.956     0.019    27.592     8.616
   119   6 C        3.193     0.072    25.905     8.300
   120   6 C        3.023    -0.052    29.257     8.873
   121   6 C        3.024    -0.053    29.294     8.878
   122   6 C        3.180     0.071    25.996     8.324
   123   7 N        2.633    -0.131    23.848     7.253
   124   6 C        2.905    -0.048    29.195     8.860
   125   6 C        3.180     0.071    25.997     8.324
   126   6 C        3.024    -0.053    29.291     8.878
   127   6 C        3.022    -0.052    29.267     8.874
   128   6 C        3.194     0.072    25.898     8.298
   129   7 N        2.633    -0.131    23.847     7.253
   130   6 C        2.956     0.018    27.596     8.616
   131   6 C        3.192     0.072    25.907     8.301
   132   6 C        3.023    -0.051    29.241     8.870
   133   6 C        3.023    -0.053    29.294     8.878
   134   6 C        3.181     0.071    25.994     8.323
   135   7 N        2.633    -0.131    23.848     7.253
   136   6 C        2.905    -0.048    29.197     8.860
   137   6 C        3.180     0.071    25.995     8.323
   138   7 N        2.633    -0.131    23.847     7.253
   139   1 H        0.926     0.034     2.529     2.487
   140   1 H        0.926     0.035     2.511     2.478
   141   1 H        0.926     0.035     2.510     2.477
   142   1 H        0.926     0.034     2.529     2.487
   143   1 H        0.926     0.050     2.319     2.381
   144   1 H        0.926     0.034     2.528     2.487
   145   1 H        0.926     0.036     2.504     2.474
   146   1 H        0.926     0.034     2.530     2.487
   147   1 H        0.926     0.034     2.529     2.487
   148   1 H        0.926     0.050     2.319     2.381

 Mol. C6AA /au·bohr⁶  :     417454.336825
 Mol. C8AA /au·bohr⁸  :   12135351.374813
 Mol. α(0) /au        :       1061.761224


Wiberg/Mayer (AO) data.
largest (>0.10) Wiberg bond orders for each atom

 ---------------------------------------------------------------------------
     #   Z sym  total        # sym  WBO       # sym  WBO       # sym  WBO
 ---------------------------------------------------------------------------
     1  27 Co   3.372 --    16 N    0.726    22 N    0.726    25 N    0.724
                            10 N    0.723
     2   6 C    3.953 --     3 C    1.641    24 C    1.174    26 H    0.972
     3   6 C    3.958 --     2 C    1.641     4 C    1.183    27 H    0.969
     4   6 C    3.922 --    25 N    1.262     5 C    1.258     3 C    1.183
     5   6 C    3.944 --     6 C    1.262     4 C    1.258    73 C    1.167
     6   6 C    3.922 --     5 C    1.262    10 N    1.259     7 C    1.182
     7   6 C    3.957 --     8 C    1.642     6 C    1.182    28 H    0.967
     8   6 C    3.954 --     7 C    1.642     9 C    1.174    29 H    0.972
     9   6 C    3.930 --    11 C    1.356    10 N    1.229     8 C    1.174
    10   7 N    3.514 --     6 C    1.259     9 C    1.229     1 Co   0.723
    11   6 C    3.936 --    12 C    1.358     9 C    1.356    30 H    0.964
    12   6 C    3.935 --    11 C    1.358    16 N    1.238    13 C    1.166
    13   6 C    3.957 --    14 C    1.657    12 C    1.166    31 H    0.972
    14   6 C    3.955 --    13 C    1.657    15 C    1.165    32 H    0.972
    15   6 C    3.937 --    17 C    1.356    16 N    1.241    14 C    1.165
    16   7 N    3.510 --    15 C    1.241    12 C    1.238     1 Co   0.726
    17   6 C    3.933 --    18 C    1.356    15 C    1.356    33 H    0.964
    18   6 C    3.937 --    17 C    1.356    22 N    1.241    19 C    1.165
    19   6 C    3.955 --    20 C    1.656    18 C    1.165    34 H    0.972
    20   6 C    3.957 --    19 C    1.656    21 C    1.166    35 H    0.972
    21   6 C    3.935 --    23 C    1.356    22 N    1.239    20 C    1.166
    22   7 N    3.510 --    18 C    1.241    21 C    1.239     1 Co   0.726
    23   6 C    3.936 --    24 C    1.359    21 C    1.356    36 H    0.964
    24   6 C    3.930 --    23 C    1.359    25 N    1.226     2 C    1.174
    25   7 N    3.514 --     4 C    1.262    24 C    1.226     1 Co   0.724
    26   1 H    0.998 --     2 C    0.972
    27   1 H    0.998 --     3 C    0.969
    28   1 H    0.998 --     7 C    0.967
    29   1 H    0.998 --     8 C    0.972
    30   1 H    0.996 --    11 C    0.964
    31   1 H    0.998 --    13 C    0.972
    32   1 H    0.998 --    14 C    0.972
    33   1 H    0.996 --    17 C    0.964
    34   1 H    0.998 --    19 C    0.972
    35   1 H    0.998 --    20 C    0.972
    36   1 H    0.996 --    23 C    0.964
    37  27 Co   3.373 --    58 N    0.727    52 N    0.726    61 N    0.724
                            46 N    0.723
    38   6 C    3.953 --    39 C    1.641    60 C    1.174    62 H    0.972
    39   6 C    3.958 --    38 C    1.641    40 C    1.183    63 H    0.969
    40   6 C    3.922 --    61 N    1.261    41 C    1.258    39 C    1.183
    41   6 C    3.944 --    42 C    1.262    40 C    1.258    78 C    1.167
    42   6 C    3.922 --    41 C    1.262    46 N    1.259    43 C    1.182
    43   6 C    3.958 --    44 C    1.641    42 C    1.182    64 H    0.967
    44   6 C    3.954 --    43 C    1.641    45 C    1.174    65 H    0.972
    45   6 C    3.930 --    47 C    1.356    46 N    1.229    44 C    1.174
    46   7 N    3.514 --    42 C    1.259    45 C    1.229    37 Co   0.723
    47   6 C    3.936 --    48 C    1.357    45 C    1.356    66 H    0.964
    48   6 C    3.935 --    47 C    1.357    52 N    1.238    49 C    1.166
    49   6 C    3.957 --    50 C    1.657    48 C    1.166    67 H    0.972
    50   6 C    3.955 --    49 C    1.657    51 C    1.165    68 H    0.972
    51   6 C    3.937 --    53 C    1.356    52 N    1.241    50 C    1.165
    52   7 N    3.510 --    51 C    1.241    48 C    1.238    37 Co   0.726
    53   6 C    3.933 --    54 C    1.356    51 C    1.356    69 H    0.964
    54   6 C    3.937 --    53 C    1.356    58 N    1.241    55 C    1.165
    55   6 C    3.955 --    56 C    1.656    54 C    1.165    70 H    0.972
    56   6 C    3.957 --    55 C    1.656    57 C    1.166    71 H    0.972
    57   6 C    3.935 --    59 C    1.356    58 N    1.238    56 C    1.166
    58   7 N    3.510 --    54 C    1.241    57 C    1.238    37 Co   0.727
    59   6 C    3.936 --    60 C    1.358    57 C    1.356    72 H    0.964
    60   6 C    3.930 --    59 C    1.358    61 N    1.227    38 C    1.174
    61   7 N    3.514 --    40 C    1.261    60 C    1.227    37 Co   0.724
    62   1 H    0.998 --    38 C    0.972
    63   1 H    0.998 --    39 C    0.969
    64   1 H    0.998 --    43 C    0.967
    65   1 H    0.998 --    44 C    0.972
    66   1 H    0.996 --    47 C    0.964
    67   1 H    0.998 --    49 C    0.972
    68   1 H    0.998 --    50 C    0.972
    69   1 H    0.996 --    53 C    0.964
    70   1 H    0.998 --    55 C    0.972
    71   1 H    0.998 --    56 C    0.972
    72   1 H    0.996 --    59 C    0.964
    73   6 C    3.927 --    74 C    2.582     5 C    1.167
    74   6 C    3.927 --    73 C    2.582    83 C    1.166
    75   6 C    3.926 --    76 C    2.582    95 C    1.167
    76   6 C    3.926 --    75 C    2.582   118 C    1.167
    77   6 C    3.927 --    78 C    2.582   130 C    1.166
    78   6 C    3.927 --    77 C    2.582    41 C    1.167
    79  27 Co   3.322 --    94 N    0.720    88 N    0.720   100 N    0.720
                           103 N    0.719
    80   6 C    3.954 --    81 C    1.642   102 C    1.174   104 H    0.972
    81   6 C    3.956 --    80 C    1.642    82 C    1.182   105 H    0.969
    82   6 C    3.922 --   103 N    1.263    83 C    1.259    81 C    1.182
    83   6 C    3.937 --    84 C    1.262    82 C    1.259    74 C    1.166
    84   6 C    3.922 --    83 C    1.262    88 N    1.261    85 C    1.182
    85   6 C    3.956 --    86 C    1.642    84 C    1.182   106 H    0.967
    86   6 C    3.954 --    85 C    1.642    87 C    1.175   107 H    0.972
    87   6 C    3.929 --    89 C    1.358    88 N    1.227    86 C    1.175
    88   7 N    3.506 --    84 C    1.261    87 C    1.227    79 Co   0.720
    89   6 C    3.933 --    90 C    1.359    87 C    1.358   108 H    0.963
    90   6 C    3.929 --    89 C    1.359    94 N    1.226    91 C    1.174
    91   6 C    3.954 --    92 C    1.642    90 C    1.174   109 H    0.972
    92   6 C    3.956 --    91 C    1.642    93 C    1.183   110 H    0.968
    93   6 C    3.922 --    94 N    1.263    95 C    1.260    92 C    1.183
    94   7 N    3.506 --    93 C    1.263    90 C    1.226    79 Co   0.720
    95   6 C    3.937 --    96 C    1.261    93 C    1.260    75 C    1.167
    96   6 C    3.922 --   100 N    1.262    95 C    1.261    97 C    1.182
    97   6 C    3.956 --    98 C    1.641    96 C    1.182   111 H    0.968
    98   6 C    3.954 --    97 C    1.641    99 C    1.175   112 H    0.972
    99   6 C    3.929 --   101 C    1.358   100 N    1.227    98 C    1.175
   100   7 N    3.506 --    96 C    1.262    99 C    1.227    79 Co   0.720
   101   6 C    3.933 --   102 C    1.360    99 C    1.358   113 H    0.963
   102   6 C    3.929 --   101 C    1.360   103 N    1.226    80 C    1.174
   103   7 N    3.506 --    82 C    1.263   102 C    1.226    79 Co   0.719
   104   1 H    0.998 --    80 C    0.972
   105   1 H    0.998 --    81 C    0.969
   106   1 H    0.998 --    85 C    0.967
   107   1 H    0.998 --    86 C    0.972
   108   1 H    0.996 --    89 C    0.963
   109   1 H    0.998 --    91 C    0.972
   110   1 H    0.998 --    92 C    0.968
   111   1 H    0.998 --    97 C    0.968
   112   1 H    0.998 --    98 C    0.972
   113   1 H    0.996 --   101 C    0.963
   114  27 Co   3.322 --   135 N    0.720   123 N    0.720   138 N    0.720
                           129 N    0.719
   115   6 C    3.954 --   116 C    1.642   137 C    1.174   139 H    0.972
   116   6 C    3.956 --   115 C    1.642   117 C    1.183   140 H    0.967
   117   6 C    3.922 --   138 N    1.263   118 C    1.260   116 C    1.183
   118   6 C    3.938 --   119 C    1.261   117 C    1.260    76 C    1.167
   119   6 C    3.922 --   123 N    1.262   118 C    1.261   120 C    1.183
   120   6 C    3.956 --   121 C    1.641   119 C    1.183   141 H    0.968
   121   6 C    3.954 --   120 C    1.641   122 C    1.175   142 H    0.972
   122   6 C    3.929 --   124 C    1.358   123 N    1.227   121 C    1.175
   123   7 N    3.506 --   119 C    1.262   122 C    1.227   114 Co   0.720
   124   6 C    3.933 --   125 C    1.360   122 C    1.358   143 H    0.963
   125   6 C    3.929 --   124 C    1.360   129 N    1.226   126 C    1.174
   126   6 C    3.954 --   127 C    1.642   125 C    1.174   144 H    0.972
   127   6 C    3.956 --   126 C    1.642   128 C    1.182   145 H    0.969
   128   6 C    3.922 --   129 N    1.263   130 C    1.259   127 C    1.182
   129   7 N    3.506 --   128 C    1.263   125 C    1.226   114 Co   0.719
   130   6 C    3.937 --   131 C    1.262   128 C    1.259    77 C    1.166
   131   6 C    3.922 --   130 C    1.262   135 N    1.261   132 C    1.182
   132   6 C    3.956 --   133 C    1.642   131 C    1.182   146 H    0.967
   133   6 C    3.954 --   132 C    1.642   134 C    1.175   147 H    0.972
   134   6 C    3.929 --   136 C    1.358   135 N    1.227   133 C    1.175
   135   7 N    3.506 --   131 C    1.261   134 C    1.227   114 Co   0.720
   136   6 C    3.933 --   137 C    1.359   134 C    1.358   148 H    0.963
   137   6 C    3.929 --   136 C    1.359   138 N    1.226   115 C    1.174
   138   7 N    3.506 --   117 C    1.263   137 C    1.226   114 Co   0.720
   139   1 H    0.998 --   115 C    0.972
   140   1 H    0.998 --   116 C    0.967
   141   1 H    0.998 --   120 C    0.968
   142   1 H    0.998 --   121 C    0.972
   143   1 H    0.996 --   124 C    0.963
   144   1 H    0.998 --   126 C    0.972
   145   1 H    0.998 --   127 C    0.969
   146   1 H    0.998 --   132 C    0.967
   147   1 H    0.998 --   133 C    0.972
   148   1 H    0.996 --   136 C    0.963
 ---------------------------------------------------------------------------

Topologies differ in total number of bonds
Writing topology from bond orders to xtbtopo.mol

molecular dipole:
                 x           y           z       tot (Debye)
 q only:        0.006      -0.003      -0.012
   full:        0.006      -0.004      -0.032       0.084
molecular quadrupole (traceless):
                xx          xy          yy          xz          yz          zz
 q only:       42.805       2.515      -0.717      -1.325      -0.520     -42.087
  q+dip:       77.158       4.804      12.249      -3.720      -1.273     -89.407
   full:       55.449       3.383       2.847      -3.738      -0.765     -58.297


           -------------------------------------------------
          | TOTAL ENERGY             -267.225340426410 Eh   |
          | GRADIENT NORM               0.000507928543 Eh/α |
          | HOMO-LUMO GAP               0.004258198491 eV   |
           -------------------------------------------------

------------------------------------------------------------------------
 * finished run on 2021/11/21 at 19:09:24.358     
------------------------------------------------------------------------
 total:
 * wall-time:     0 d,  0 h,  0 min,  7.046 sec
 *  cpu-time:     0 d,  0 h,  0 min,  7.046 sec
 * ratio c/w:     1.000 speedup
 SCF:
 * wall-time:     0 d,  0 h,  0 min,  6.969 sec
 *  cpu-time:     0 d,  0 h,  0 min,  6.969 sec
 * ratio c/w:     1.000 speedup

