 Entering Gaussian System
 *********************************************
 Gaussian 98:
 frequency output generated by the xtb code
 *********************************************
                         Standard orientation:
 --------------------------------------------------------------------
  Center     Atomic     Atomic              Coordinates (Angstroms)
  Number     Number      Type              X           Y           Z
 --------------------------------------------------------------------
    1         26             0        8.028453   -0.051745    0.050344
    2          6             0       10.529312   -3.515166    0.138301
    3          6             0       11.448533   -2.522165    0.152343
    4          6             0       10.721940   -1.285375    0.126166
    5          6             0       11.359818   -0.039174    0.138116
    6          6             0       10.713344    1.202669    0.133160
    7          6             0       11.430415    2.444687    0.165752
    8          6             0       10.503564    3.430753    0.157716
    9          6             0        9.225991    2.785989    0.116688
   10          7             0        9.368419    1.425565    0.103661
   11          6             0        8.013893    3.445852    0.085896
   12          6             0        6.808971    2.775520    0.032170
   13          6             0        5.521189    3.404638   -0.015016
   14          6             0        4.610127    2.407165   -0.066448
   15          6             0        5.343531    1.171593   -0.047899
   16          7             0        6.686889    1.415921    0.011651
   17          6             0        4.726466   -0.063660   -0.081481
   18          6             0        5.352831   -1.294411   -0.055574
   19          6             0        4.628679   -2.535284   -0.082463
   20          6             0        5.547155   -3.526288   -0.037535
   21          6             0        6.830119   -2.887880    0.014214
   22          7             0        6.697992   -1.529176    0.002590
   23          6             0        8.040165   -3.549273    0.064578
   24          6             0        9.246883   -2.879997    0.100143
   25          7             0        9.378751   -1.518351    0.094802
   26          1             0       10.686177   -4.576216    0.150803
   27          1             0       12.518054   -2.598345    0.179118
   28          1             0       12.499393    2.528874    0.192399
   29          1             0       10.652197    4.492934    0.175781
   30          1             0        8.010162    4.524931    0.099390
   31          1             0        5.359785    4.465313   -0.009787
   32          1             0        3.540248    2.477099   -0.111900
   33          1             0        3.646781   -0.067756   -0.128339
   34          1             0        3.559360   -2.612939   -0.128630
   35          1             0        5.393652   -4.588142   -0.039645
   36          1             0        8.044994   -4.628382    0.071499
   37          6             0       12.761680   -0.034846    0.156053
   38          6             0       13.978847   -0.037589    0.166702
   39          6             0       15.322613   -0.031574    0.159801
   40          6             0       16.539834   -0.026606    0.152182
   41         26             0       21.267707    0.054058   -0.063032
   42          6             0       18.726449    3.480897    0.165417
   43          6             0       17.820747    2.475513    0.181949
   44          6             0       18.562150    1.249496    0.109835
   45          6             0       17.941182   -0.005475    0.115896
   46          6             0       18.604289   -1.238166    0.090510
   47          6             0       17.905883   -2.490157    0.142331
   48          6             0       18.846248   -3.462996    0.113446
   49          6             0       20.113066   -2.800307    0.036857
   50          7             0       19.951084   -1.442034    0.026991
   51          6             0       21.332713   -3.442987   -0.034138
   52          6             0       22.525106   -2.755717   -0.135576
   53          6             0       23.818396   -3.366435   -0.240029
   54          6             0       24.711857   -2.356165   -0.334393
   55          6             0       23.962622   -1.131129   -0.281459
   56          7             0       22.626854   -1.394536   -0.161412
   57          6             0       24.560228    0.112964   -0.336237
   58          6             0       23.919348    1.334599   -0.266977
   59          6             0       24.625392    2.585537   -0.306175
   60          6             0       23.697423    3.563015   -0.200374
   61          6             0       22.426453    2.906405   -0.102185
   62          7             0       22.575333    1.550006   -0.143773
   63          6             0       21.211144    3.550265    0.010428
   64          6             0       20.015218    2.864089    0.076194
   65          7             0       19.900896    1.501139    0.047230
   66          1             0       18.556193    4.539175    0.206066
   67          1             0       16.751564    2.536808    0.240588
   68          1             0       16.839205   -2.589279    0.197299
   69          1             0       18.713253   -4.527127    0.137741
   70          1             0       21.352308   -4.521902   -0.019847
   71          1             0       23.995178   -4.424666   -0.241349
   72          1             0       25.779433   -2.411059   -0.429158
   73          1             0       25.636383    0.132501   -0.433430
   74          1             0       25.690341    2.678664   -0.400054
   75          1             0       23.837138    4.626719   -0.190197
   76          1             0       21.192810    4.628899    0.038360
 --------------------------------------------------------------------
     1 basis functions        1 primitive gaussians
     1 alpha electrons        1 beta electrons

 Harmonic frequencies (cm**-1), IR intensities (km*mol⁻¹),
 Raman scattering activities (A**4/amu), Raman depolarization ratios,
 reduced masses (AMU), force constants (mDyne/A) and normal coordinates:
                      1                      2                      3
                        a                      a                      a 
 Frequencies --     3.0213                 8.2751                 8.6099
 Red. masses --    11.2605                11.4456                11.4281
 Frc consts  --     0.0000                 0.0000                 0.0000
 IR Inten    --     1.5698                 3.3248                 1.9528
 Raman Activ --     0.0000                 0.0000                 0.0000
 Depolar     --     0.0000                 0.0000                 0.0000
 Atom AN      X      Y      Z        X      Y      Z        X      Y      Z
   1  26    -0.00   0.00   0.00    -0.02  -0.00   0.03     0.00   0.02   0.00
   2   6     0.00  -0.00  -0.19    -0.00  -0.00  -0.13    -0.13  -0.08   0.01
   3   6     0.00  -0.00  -0.13    -0.00  -0.00  -0.16    -0.09  -0.12   0.01
   4   6     0.00  -0.00  -0.07    -0.00  -0.00  -0.12    -0.05  -0.09   0.00
   5   6    -0.00  -0.00   0.00    -0.00  -0.00  -0.14     0.00  -0.12   0.00
   6   6    -0.00  -0.00   0.07    -0.00  -0.00  -0.12     0.05  -0.09  -0.00
   7   6    -0.00  -0.00   0.13    -0.00  -0.00  -0.16     0.10  -0.12  -0.00
   8   6    -0.00  -0.00   0.19    -0.00   0.00  -0.14     0.13  -0.08  -0.01
   9   6    -0.00  -0.00   0.16    -0.00   0.00  -0.08     0.11  -0.03  -0.00
  10   7    -0.00  -0.00   0.09    -0.00  -0.00  -0.07     0.06  -0.04  -0.00
  11   6    -0.00  -0.00   0.20    -0.00   0.00  -0.02     0.13   0.01  -0.01
  12   6    -0.00  -0.00   0.16    -0.01   0.00   0.06     0.11   0.06  -0.01
  13   6    -0.00   0.00   0.20    -0.01   0.00   0.13     0.13   0.11  -0.01
  14   6    -0.00   0.00   0.14    -0.01   0.00   0.20     0.09   0.14  -0.01
  15   6    -0.00   0.00   0.07    -0.01  -0.00   0.17     0.05   0.11  -0.00
  16   7    -0.00   0.00   0.09    -0.01  -0.00   0.09     0.06   0.07  -0.00
  17   6     0.00   0.00   0.00    -0.02   0.00   0.21     0.00   0.14  -0.00
  18   6     0.00   0.00  -0.07    -0.01   0.00   0.17    -0.05   0.11   0.00
  19   6     0.00   0.00  -0.14    -0.02   0.00   0.21    -0.09   0.14   0.00
  20   6     0.00   0.00  -0.20    -0.01   0.00   0.14    -0.13   0.10   0.01
  21   6     0.00   0.00  -0.16    -0.01   0.00   0.06    -0.11   0.06   0.01
  22   7     0.00   0.00  -0.09    -0.01   0.00   0.09    -0.06   0.07   0.00
  23   6     0.00  -0.00  -0.20    -0.01  -0.00  -0.01    -0.13   0.01   0.01
  24   6     0.00  -0.00  -0.16    -0.00  -0.00  -0.07    -0.11  -0.04   0.01
  25   7     0.00  -0.00  -0.09    -0.01  -0.00  -0.07    -0.06  -0.04   0.00
  26   1     0.00  -0.00  -0.07    -0.00  -0.00  -0.04    -0.05  -0.03   0.00
  27   1     0.00  -0.00  -0.04    -0.00  -0.00  -0.06    -0.03  -0.05   0.00
  28   1    -0.00  -0.00   0.04     0.00  -0.00  -0.06     0.03  -0.05  -0.00
  29   1    -0.00  -0.00   0.07     0.00   0.00  -0.05     0.05  -0.03  -0.00
  30   1    -0.00  -0.00   0.07    -0.00   0.00  -0.01     0.05   0.00  -0.00
  31   1    -0.00   0.00   0.08    -0.00   0.00   0.04     0.05   0.03  -0.00
  32   1    -0.00   0.00   0.04    -0.00  -0.00   0.08     0.03   0.05  -0.00
  33   1     0.00   0.00   0.00    -0.01   0.00   0.08     0.00   0.05  -0.00
  34   1     0.00   0.00  -0.04    -0.01   0.00   0.08    -0.03   0.05   0.00
  35   1     0.00   0.00  -0.08    -0.00   0.00   0.04    -0.05   0.03   0.00
  36   1     0.00  -0.00  -0.07    -0.00  -0.00  -0.01    -0.05   0.00   0.00
  37   6    -0.00   0.00   0.00    -0.00  -0.00  -0.17     0.00  -0.16   0.00
  38   6    -0.00   0.00   0.00    -0.00  -0.00  -0.18     0.00  -0.18   0.00
  39   6    -0.00   0.00   0.00    -0.00  -0.00  -0.18     0.00  -0.18   0.00
  40   6    -0.00   0.00  -0.00    -0.00  -0.00  -0.17     0.00  -0.16   0.00
  41  26     0.00  -0.00  -0.00     0.02   0.00   0.03    -0.00   0.02  -0.00
  42   6    -0.01   0.01  -0.19    -0.01   0.00  -0.14    -0.13  -0.08  -0.01
  43   6    -0.00   0.01  -0.14    -0.01   0.00  -0.16    -0.09  -0.12  -0.00
  44   6    -0.00   0.00  -0.07    -0.00   0.00  -0.12    -0.05  -0.09  -0.00
  45   6    -0.00   0.00  -0.00    -0.00  -0.00  -0.13     0.00  -0.11   0.00
  46   6     0.00   0.00   0.07    -0.00  -0.00  -0.12     0.05  -0.09   0.00
  47   6     0.00   0.00   0.13    -0.00  -0.00  -0.16     0.09  -0.12   0.00
  48   6     0.01   0.00   0.19    -0.00  -0.00  -0.13     0.13  -0.08   0.01
  49   6     0.01   0.00   0.15     0.00  -0.00  -0.07     0.11  -0.03   0.01
  50   7     0.00   0.00   0.09     0.00   0.00  -0.07     0.06  -0.04   0.00
  51   6     0.01   0.00   0.19     0.00  -0.00  -0.01     0.13   0.01   0.01
  52   6     0.01  -0.00   0.16     0.01   0.00   0.06     0.10   0.06   0.01
  53   6     0.01  -0.01   0.20     0.02  -0.00   0.13     0.13   0.11   0.01
  54   6     0.01  -0.01   0.15     0.02   0.00   0.20     0.09   0.14   0.01
  55   6     0.00  -0.01   0.07     0.02   0.00   0.17     0.04   0.11   0.00
  56   7     0.00  -0.00   0.09     0.01   0.00   0.09     0.06   0.07   0.00
  57   6     0.00  -0.01   0.00     0.03   0.00   0.21    -0.00   0.14  -0.00
  58   6    -0.00  -0.01  -0.07     0.02   0.00   0.17    -0.05   0.11  -0.00
  59   6    -0.00  -0.01  -0.14     0.02   0.00   0.21    -0.10   0.14  -0.01
  60   6    -0.01  -0.00  -0.20     0.02   0.00   0.14    -0.13   0.10  -0.01
  61   6    -0.01  -0.00  -0.16     0.01   0.00   0.06    -0.11   0.06  -0.01
  62   7    -0.00  -0.00  -0.09     0.01   0.00   0.09    -0.06   0.07  -0.00
  63   6    -0.01   0.00  -0.20     0.00   0.00  -0.01    -0.13   0.01  -0.01
  64   6    -0.01   0.00  -0.16    -0.00   0.00  -0.07    -0.11  -0.04  -0.01
  65   7    -0.00   0.00  -0.09     0.00   0.00  -0.07    -0.06  -0.04  -0.00
  66   1    -0.00   0.00  -0.07    -0.00   0.00  -0.05    -0.05  -0.03  -0.00
  67   1    -0.00   0.00  -0.04    -0.00   0.00  -0.06    -0.03  -0.05  -0.00
  68   1     0.00   0.00   0.04    -0.00  -0.00  -0.06     0.03  -0.05   0.00
  69   1     0.00   0.00   0.07    -0.00  -0.00  -0.04     0.05  -0.02   0.00
  70   1     0.00   0.00   0.07     0.00  -0.00  -0.01     0.05   0.00   0.00
  71   1     0.00  -0.00   0.08     0.00  -0.00   0.04     0.05   0.03   0.00
  72   1     0.00  -0.00   0.04     0.01   0.00   0.08     0.03   0.05   0.00
  73   1     0.00  -0.00   0.00     0.01   0.00   0.08    -0.00   0.05  -0.00
  74   1    -0.00  -0.00  -0.04     0.01   0.00   0.08    -0.03   0.05  -0.00
  75   1    -0.00  -0.00  -0.08     0.00   0.00   0.04    -0.05   0.03  -0.00
  76   1    -0.00   0.00  -0.08    -0.00   0.00  -0.01    -0.05   0.00  -0.00
                      4                      5                      6
                        a                      a                      a 
 Frequencies --    15.7062                29.5811                29.9586
 Red. masses --    11.6849                10.9237                10.9418
 Frc consts  --     0.0000                 0.0000                 0.0000
 IR Inten    --     0.6780                 0.0337                 0.0861
 Raman Activ --     0.0000                 0.0000                 0.0000
 Depolar     --     0.0000                 0.0000                 0.0000
 Atom AN      X      Y      Z        X      Y      Z        X      Y      Z
   1  26     0.00   0.00  -0.07    -0.00  -0.00   0.00    -0.00   0.01   0.00
   2   6     0.01  -0.00  -0.21     0.01  -0.00  -0.27     0.01   0.02   0.14
   3   6     0.01   0.00  -0.18     0.01   0.00  -0.27     0.01   0.02   0.14
   4   6     0.00   0.00  -0.13     0.00   0.00  -0.13     0.00   0.02   0.06
   5   6     0.00   0.00  -0.11    -0.00   0.00  -0.00    -0.00   0.02  -0.00
   6   6     0.00   0.00  -0.12    -0.00   0.00   0.13    -0.00   0.02  -0.06
   7   6     0.01   0.00  -0.18    -0.01  -0.00   0.28    -0.01   0.02  -0.14
   8   6     0.01   0.00  -0.20    -0.01  -0.00   0.27    -0.01   0.02  -0.13
   9   6     0.01   0.00  -0.15    -0.01  -0.00   0.12    -0.01   0.01  -0.06
  10   7     0.00   0.00  -0.12    -0.00  -0.00   0.07    -0.01   0.01  -0.03
  11   6     0.01   0.00  -0.12    -0.00  -0.00  -0.00    -0.01   0.01   0.00
  12   6     0.00   0.00  -0.02     0.00   0.00  -0.13    -0.01   0.00   0.06
  13   6    -0.00   0.00   0.06     0.01   0.00  -0.27    -0.02  -0.01   0.13
  14   6    -0.01  -0.00   0.17     0.01   0.00  -0.26    -0.01  -0.01   0.12
  15   6    -0.01  -0.00   0.14     0.00  -0.00  -0.12    -0.01  -0.01   0.05
  16   7    -0.00   0.00   0.03     0.00  -0.00  -0.07    -0.01   0.00   0.03
  17   6    -0.01  -0.00   0.21     0.00  -0.00  -0.00     0.00  -0.01  -0.01
  18   6    -0.01  -0.00   0.14    -0.00  -0.00   0.12     0.01  -0.00  -0.06
  19   6    -0.01  -0.00   0.17    -0.01  -0.00   0.26     0.02  -0.01  -0.13
  20   6    -0.00  -0.00   0.06    -0.01  -0.00   0.27     0.02  -0.00  -0.12
  21   6     0.00  -0.00  -0.02    -0.00  -0.00   0.13     0.01   0.00  -0.06
  22   7    -0.00  -0.00   0.03    -0.00  -0.00   0.07     0.01   0.00  -0.03
  23   6     0.01  -0.00  -0.12     0.00  -0.00   0.01     0.01   0.01   0.01
  24   6     0.01  -0.00  -0.15     0.01  -0.00  -0.12     0.01   0.01   0.07
  25   7     0.00   0.00  -0.12     0.00   0.00  -0.06     0.00   0.01   0.03
  26   1     0.00  -0.00  -0.07     0.00  -0.00  -0.10     0.00   0.01   0.05
  27   1     0.00   0.00  -0.06     0.00   0.00  -0.11     0.00   0.01   0.05
  28   1     0.00   0.00  -0.06    -0.00  -0.00   0.11    -0.00   0.01  -0.05
  29   1     0.00   0.00  -0.07    -0.00  -0.00   0.10    -0.00   0.01  -0.05
  30   1     0.00   0.00  -0.04    -0.00  -0.00   0.00    -0.01   0.00   0.00
  31   1    -0.00   0.00   0.01     0.00   0.00  -0.10    -0.01  -0.00   0.05
  32   1    -0.00  -0.00   0.07     0.00   0.00  -0.10    -0.00  -0.00   0.05
  33   1    -0.00  -0.00   0.09     0.00  -0.00  -0.00     0.00  -0.00  -0.00
  34   1    -0.00  -0.00   0.07    -0.00  -0.00   0.10     0.00  -0.00  -0.05
  35   1    -0.00  -0.00   0.01    -0.00  -0.00   0.10     0.01  -0.00  -0.05
  36   1     0.00  -0.00  -0.05     0.00  -0.00   0.00     0.01   0.00   0.00
  37   6     0.00   0.00  -0.08    -0.00   0.00  -0.00    -0.00   0.02  -0.01
  38   6     0.00   0.00  -0.02    -0.00   0.01  -0.00    -0.00   0.01  -0.01
  39   6     0.00   0.00   0.03    -0.00   0.01  -0.00    -0.00  -0.00  -0.01
  40   6     0.00  -0.00   0.08    -0.00   0.00  -0.00     0.00  -0.01  -0.01
  41  26    -0.00  -0.00   0.07     0.00  -0.00  -0.00     0.00  -0.01  -0.00
  42   6     0.01  -0.00   0.21     0.01  -0.00   0.13     0.01  -0.02   0.27
  43   6     0.01  -0.00   0.18     0.01  -0.00   0.13     0.01  -0.02   0.27
  44   6     0.01  -0.00   0.13     0.00  -0.00   0.06     0.00  -0.02   0.12
  45   6     0.00  -0.00   0.11     0.00   0.00  -0.00     0.00  -0.02  -0.01
  46   6     0.01  -0.00   0.12    -0.00   0.00  -0.06    -0.00  -0.02  -0.13
  47   6     0.01  -0.00   0.18    -0.01  -0.00  -0.13    -0.01  -0.02  -0.28
  48   6     0.01   0.00   0.20    -0.01  -0.00  -0.13    -0.00  -0.02  -0.27
  49   6     0.01   0.00   0.15    -0.00  -0.00  -0.06     0.00  -0.01  -0.12
  50   7     0.00   0.00   0.12    -0.00  -0.00  -0.03     0.00  -0.01  -0.07
  51   6     0.01   0.00   0.12    -0.00  -0.00   0.00     0.01  -0.01   0.00
  52   6    -0.00   0.00   0.02     0.00  -0.00   0.06     0.02  -0.00   0.13
  53   6    -0.01   0.00  -0.06     0.01  -0.00   0.13     0.03   0.00   0.26
  54   6    -0.02   0.00  -0.17     0.01  -0.00   0.13     0.03   0.01   0.26
  55   6    -0.02   0.00  -0.14     0.00  -0.00   0.06     0.01   0.00   0.12
  56   7    -0.01   0.00  -0.03     0.00  -0.00   0.04     0.01  -0.00   0.07
  57   6    -0.02   0.00  -0.20     0.00  -0.00   0.00    -0.00   0.01  -0.00
  58   6    -0.02   0.00  -0.14    -0.00  -0.00  -0.06    -0.01   0.00  -0.12
  59   6    -0.02   0.00  -0.18    -0.01   0.00  -0.13    -0.03   0.01  -0.26
  60   6    -0.01  -0.00  -0.07    -0.01   0.00  -0.13    -0.03   0.01  -0.26
  61   6    -0.00  -0.00   0.02    -0.00   0.00  -0.06    -0.02   0.00  -0.12
  62   7    -0.01  -0.00  -0.03    -0.00  -0.00  -0.04    -0.01  -0.00  -0.07
  63   6     0.01  -0.00   0.12     0.00  -0.00  -0.00    -0.01  -0.01   0.00
  64   6     0.01  -0.00   0.15     0.00  -0.00   0.06    -0.00  -0.01   0.13
  65   7     0.00  -0.00   0.12     0.00  -0.00   0.03    -0.00  -0.01   0.06
  66   1     0.00  -0.00   0.07     0.00  -0.00   0.05     0.00  -0.01   0.10
  67   1     0.00  -0.00   0.06     0.00  -0.00   0.05     0.00  -0.01   0.10
  68   1     0.00  -0.00   0.06    -0.00   0.00  -0.05    -0.00  -0.01  -0.11
  69   1     0.00   0.00   0.07    -0.00  -0.00  -0.05    -0.00  -0.01  -0.10
  70   1     0.00   0.00   0.04    -0.00  -0.00   0.00     0.00  -0.00   0.00
  71   1    -0.00   0.00  -0.01     0.00   0.00   0.05     0.01   0.00   0.10
  72   1    -0.01   0.00  -0.07     0.00  -0.00   0.05     0.01   0.00   0.10
  73   1    -0.01   0.00  -0.09     0.00  -0.00   0.00    -0.00   0.00  -0.00
  74   1    -0.01   0.00  -0.08    -0.00   0.00  -0.05    -0.01   0.00  -0.10
  75   1    -0.00  -0.00  -0.02    -0.00   0.00  -0.05    -0.01   0.00  -0.10
  76   1     0.00  -0.00   0.04     0.00  -0.00  -0.00    -0.00  -0.00   0.00
                      7                      8                      9
                        a                      a                      a 
 Frequencies --    35.3490                36.8793                57.8336
 Red. masses --    11.2329                12.6325                12.2593
 Frc consts  --     0.0000                 0.0000                 0.0000
 IR Inten    --     1.3201                 1.6967                 0.0670
 Raman Activ --     0.0000                 0.0000                 0.0000
 Depolar     --     0.0000                 0.0000                 0.0000
 Atom AN      X      Y      Z        X      Y      Z        X      Y      Z
   1  26    -0.02   0.00  -0.00    -0.00  -0.11  -0.00     0.01   0.00  -0.12
   2   6    -0.01   0.01   0.12    -0.12  -0.14   0.02     0.00   0.00   0.02
   3   6    -0.01   0.00  -0.03    -0.09  -0.17   0.01     0.01   0.00  -0.14
   4   6    -0.00   0.00  -0.07    -0.04  -0.15   0.00     0.01   0.00  -0.16
   5   6    -0.00   0.00  -0.15    -0.00  -0.17  -0.00     0.01   0.00  -0.21
   6   6    -0.01   0.00  -0.07     0.04  -0.15  -0.01     0.01   0.00  -0.16
   7   6    -0.01   0.00  -0.03     0.08  -0.17  -0.02     0.01   0.00  -0.14
   8   6    -0.01   0.00   0.12     0.12  -0.14  -0.01     0.00  -0.00   0.02
   9   6    -0.01  -0.00   0.14     0.10  -0.10  -0.00     0.00  -0.00   0.08
  10   7    -0.01   0.00   0.03     0.05  -0.11  -0.00     0.00  -0.00  -0.05
  11   6    -0.02  -0.00   0.21     0.12  -0.05   0.01    -0.00  -0.00   0.21
  12   6    -0.01  -0.00   0.12     0.10  -0.01   0.01    -0.00  -0.00   0.15
  13   6    -0.01  -0.00   0.08     0.12   0.04   0.02    -0.00  -0.00   0.16
  14   6    -0.00  -0.00  -0.08     0.08   0.07   0.01     0.01  -0.00  -0.02
  15   6    -0.00  -0.00  -0.10     0.04   0.04   0.00     0.01   0.00  -0.10
  16   7    -0.01  -0.00   0.01     0.05  -0.00   0.00     0.01  -0.00   0.00
  17   6     0.00  -0.00  -0.18    -0.00   0.07  -0.00     0.01   0.00  -0.19
  18   6    -0.00  -0.00  -0.10    -0.04   0.04  -0.01     0.01   0.00  -0.10
  19   6    -0.00  -0.00  -0.07    -0.09   0.07  -0.02     0.01   0.00  -0.02
  20   6    -0.01   0.00   0.08    -0.12   0.04  -0.01    -0.00   0.00   0.16
  21   6    -0.01   0.00   0.12    -0.10  -0.01  -0.00    -0.00   0.00   0.15
  22   7    -0.01   0.00   0.01    -0.06  -0.01  -0.00     0.01   0.00   0.00
  23   6    -0.01   0.00   0.21    -0.12  -0.05   0.00    -0.00   0.00   0.21
  24   6    -0.01   0.00   0.14    -0.10  -0.10   0.01     0.00   0.00   0.08
  25   7    -0.01   0.00   0.03    -0.05  -0.11   0.00     0.00   0.00  -0.05
  26   1    -0.00   0.00   0.06    -0.05  -0.04   0.01     0.00   0.00   0.03
  27   1    -0.00   0.00  -0.03    -0.03  -0.06   0.00     0.00   0.00  -0.07
  28   1    -0.00   0.00  -0.03     0.03  -0.06  -0.01     0.00   0.00  -0.07
  29   1    -0.00  -0.00   0.06     0.05  -0.04  -0.00     0.00  -0.00   0.02
  30   1    -0.01  -0.00   0.09     0.05  -0.01   0.00    -0.00  -0.00   0.09
  31   1    -0.00  -0.00   0.04     0.05   0.01   0.01    -0.00  -0.00   0.08
  32   1    -0.00  -0.00  -0.05     0.03   0.03   0.00     0.00   0.00  -0.02
  33   1     0.00  -0.00  -0.08    -0.00   0.03  -0.00     0.00   0.00  -0.08
  34   1     0.00  -0.00  -0.04    -0.03   0.03  -0.01     0.00   0.00  -0.02
  35   1    -0.00   0.00   0.04    -0.05   0.01  -0.00    -0.00   0.00   0.08
  36   1    -0.00   0.00   0.09    -0.05  -0.02   0.00    -0.00   0.00   0.09
  37   6    -0.00   0.01  -0.25    -0.00  -0.18  -0.01     0.01   0.00  -0.19
  38   6    -0.00   0.00  -0.31    -0.00  -0.05  -0.01     0.00   0.00  -0.06
  39   6    -0.00   0.00  -0.31    -0.00   0.05  -0.01     0.00  -0.00   0.06
  40   6    -0.00  -0.00  -0.25    -0.00   0.18  -0.01     0.01  -0.00   0.19
  41  26     0.01  -0.00  -0.00     0.00   0.11   0.00    -0.00  -0.00   0.12
  42   6     0.01  -0.01   0.11     0.12   0.14   0.03    -0.01   0.01  -0.02
  43   6     0.00  -0.01  -0.03     0.09   0.17   0.03     0.00   0.00   0.14
  44   6     0.00  -0.00  -0.07     0.04   0.15   0.01     0.00  -0.00   0.16
  45   6     0.00  -0.00  -0.15    -0.00   0.17  -0.00     0.01  -0.00   0.21
  46   6     0.01  -0.00  -0.07    -0.04   0.15  -0.02     0.00  -0.00   0.16
  47   6     0.01  -0.00  -0.01    -0.09   0.17  -0.03     0.00  -0.00   0.14
  48   6     0.02   0.00   0.13    -0.12   0.14  -0.03    -0.01  -0.00  -0.02
  49   6     0.02   0.00   0.15    -0.10   0.09  -0.01    -0.01  -0.01  -0.08
  50   7     0.01  -0.00   0.03    -0.05   0.11  -0.01    -0.00  -0.00   0.05
  51   6     0.02   0.00   0.21    -0.12   0.05   0.01    -0.02  -0.01  -0.21
  52   6     0.02   0.00   0.11    -0.10   0.01   0.02    -0.02  -0.00  -0.15
  53   6     0.01   0.00   0.07    -0.12  -0.04   0.03    -0.02  -0.00  -0.16
  54   6    -0.00   0.00  -0.09    -0.08  -0.07   0.03    -0.00  -0.00   0.02
  55   6    -0.00   0.00  -0.11    -0.04  -0.04   0.01     0.00  -0.00   0.10
  56   7     0.01   0.00   0.01    -0.05   0.00   0.01    -0.00  -0.00  -0.00
  57   6    -0.01   0.00  -0.18     0.00  -0.07  -0.01     0.01  -0.00   0.19
  58   6    -0.01   0.00  -0.10     0.04  -0.04  -0.02     0.00  -0.00   0.10
  59   6    -0.00   0.00  -0.07     0.09  -0.07  -0.03    -0.00   0.00   0.02
  60   6     0.01  -0.00   0.08     0.12  -0.03  -0.03    -0.02   0.01  -0.16
  61   6     0.01  -0.00   0.12     0.10   0.01  -0.01    -0.02   0.01  -0.15
  62   7     0.00  -0.00   0.01     0.06   0.01  -0.01    -0.00   0.00  -0.00
  63   6     0.02  -0.01   0.21     0.12   0.05   0.01    -0.02   0.01  -0.21
  64   6     0.01  -0.01   0.14     0.10   0.10   0.02    -0.01   0.01  -0.08
  65   7     0.01  -0.01   0.03     0.05   0.11   0.01    -0.00   0.00   0.05
  66   1     0.00  -0.00   0.05     0.05   0.04   0.01    -0.00   0.00  -0.03
  67   1     0.00  -0.00  -0.03     0.03   0.06   0.01     0.00  -0.00   0.07
  68   1     0.00  -0.00  -0.02    -0.03   0.06  -0.01     0.00   0.00   0.07
  69   1     0.01   0.00   0.06    -0.05   0.04  -0.01    -0.00  -0.00  -0.03
  70   1     0.01   0.00   0.09    -0.05   0.01   0.00    -0.01  -0.00  -0.09
  71   1     0.01   0.00   0.04    -0.04  -0.01   0.01    -0.01  -0.00  -0.08
  72   1    -0.00   0.00  -0.05    -0.02  -0.03   0.01     0.00   0.00   0.02
  73   1    -0.01   0.00  -0.08     0.00  -0.03  -0.00     0.01  -0.00   0.08
  74   1    -0.00   0.00  -0.04     0.03  -0.03  -0.01     0.00  -0.00   0.02
  75   1     0.00  -0.00   0.04     0.05  -0.01  -0.01    -0.01   0.00  -0.08
  76   1     0.01  -0.00   0.09     0.05   0.02   0.00    -0.01   0.00  -0.09
                     10                     11                     12
                        a                      a                      a 
 Frequencies --    71.4804                89.8614                93.5095
 Red. masses --    19.0544                26.1781                28.9031
 Frc consts  --     0.0000                 0.0000                 0.0000
 IR Inten    --     3.0838                 0.5205                 3.7793
 Raman Activ --     0.0000                 0.0000                 0.0000
 Depolar     --     0.0000                 0.0000                 0.0000
 Atom AN      X      Y      Z        X      Y      Z        X      Y      Z
   1  26     0.28   0.00   0.01     0.01   0.00  -0.41    -0.01  -0.00   0.45
   2   6     0.13  -0.02  -0.01    -0.00   0.00   0.04     0.01  -0.00  -0.17
   3   6     0.10   0.01  -0.01    -0.00   0.00   0.03     0.00  -0.00  -0.18
   4   6     0.06  -0.01  -0.01     0.00   0.00  -0.05    -0.00  -0.00  -0.01
   5   6     0.03   0.00  -0.01     0.00   0.00  -0.01    -0.00  -0.00  -0.01
   6   6     0.06   0.01  -0.01     0.00   0.00  -0.05    -0.00   0.00  -0.01
   7   6     0.10  -0.01  -0.01    -0.00  -0.00   0.03     0.00   0.00  -0.18
   8   6     0.13   0.02  -0.01    -0.00  -0.00   0.04     0.01   0.00  -0.17
   9   6     0.11   0.05   0.00    -0.00  -0.00  -0.02     0.00   0.00   0.00
  10   7     0.08   0.05  -0.00     0.00  -0.00  -0.10    -0.00   0.00   0.10
  11   6     0.12   0.06   0.01    -0.00  -0.00   0.08     0.00   0.00   0.02
  12   6     0.13   0.03   0.01    -0.00  -0.00   0.07     0.00   0.00   0.04
  13   6     0.12   0.01   0.01    -0.01  -0.00   0.22     0.01   0.00  -0.11
  14   6     0.14  -0.01   0.00    -0.01  -0.00   0.12     0.01   0.00  -0.16
  15   6     0.16   0.01   0.00     0.00  -0.00  -0.06     0.01   0.00  -0.02
  16   7     0.17   0.03   0.01     0.00  -0.00  -0.09    -0.00   0.00   0.11
  17   6     0.18   0.00   0.00     0.00   0.00  -0.09     0.01   0.00  -0.07
  18   6     0.16  -0.01   0.00     0.00   0.00  -0.06     0.01  -0.00  -0.02
  19   6     0.14   0.01   0.00    -0.01   0.00   0.12     0.01   0.00  -0.16
  20   6     0.12  -0.01   0.01    -0.01   0.00   0.22     0.01  -0.00  -0.11
  21   6     0.13  -0.03   0.01    -0.00   0.00   0.07     0.00  -0.00   0.04
  22   7     0.17  -0.03   0.01     0.00   0.00  -0.09    -0.00  -0.00   0.11
  23   6     0.12  -0.06   0.01    -0.00   0.00   0.08     0.00  -0.00   0.02
  24   6     0.11  -0.05   0.00     0.00   0.00  -0.02     0.00  -0.00   0.00
  25   7     0.08  -0.05  -0.00     0.00   0.00  -0.10    -0.00  -0.00   0.10
  26   1     0.04  -0.00  -0.00    -0.00   0.00   0.03     0.00  -0.00  -0.08
  27   1     0.03   0.01  -0.00    -0.00  -0.00   0.02     0.00  -0.00  -0.09
  28   1     0.03  -0.01  -0.00    -0.00   0.00   0.02     0.00   0.00  -0.09
  29   1     0.04   0.00  -0.00    -0.00  -0.00   0.03     0.00   0.00  -0.08
  30   1     0.03   0.02   0.00    -0.00  -0.00   0.05     0.00   0.00  -0.01
  31   1     0.03   0.00   0.00    -0.00  -0.00   0.11     0.00   0.00  -0.05
  32   1     0.04  -0.01   0.00    -0.00  -0.00   0.05     0.00   0.00  -0.08
  33   1     0.05   0.00  -0.00     0.00   0.00  -0.02     0.00   0.00  -0.05
  34   1     0.04   0.01   0.00    -0.00  -0.00   0.05     0.00   0.00  -0.08
  35   1     0.03  -0.00   0.00    -0.00   0.00   0.11     0.00  -0.00  -0.05
  36   1     0.03  -0.02   0.00    -0.00   0.00   0.05     0.00  -0.00  -0.01
  37   6     0.01   0.00  -0.01     0.00  -0.00   0.13    -0.00   0.00  -0.04
  38   6     0.01  -0.00  -0.02    -0.00  -0.00   0.26    -0.00   0.00  -0.01
  39   6    -0.01   0.00  -0.02    -0.00  -0.00   0.26    -0.00   0.00   0.01
  40   6    -0.01   0.00  -0.02    -0.00  -0.00   0.13    -0.00  -0.00   0.04
  41  26    -0.28  -0.00   0.01    -0.03   0.00  -0.41    -0.03   0.00  -0.45
  42   6    -0.13   0.02  -0.01     0.00  -0.00   0.04     0.01  -0.01   0.17
  43   6    -0.10  -0.00  -0.03     0.00  -0.00   0.03     0.01  -0.00   0.17
  44   6    -0.07   0.02  -0.02    -0.01  -0.00  -0.05    -0.00  -0.00   0.01
  45   6    -0.03   0.00  -0.02    -0.00  -0.00  -0.01    -0.00  -0.00   0.01
  46   6    -0.07  -0.01  -0.02    -0.01   0.00  -0.05    -0.00   0.00   0.01
  47   6    -0.10   0.01  -0.03     0.00  -0.00   0.03     0.01   0.00   0.17
  48   6    -0.13  -0.01  -0.01     0.00   0.00   0.04     0.01   0.00   0.17
  49   6    -0.11  -0.05   0.00    -0.00   0.00  -0.02    -0.00   0.00  -0.00
  50   7    -0.08  -0.05  -0.00    -0.01   0.00  -0.10    -0.01   0.00  -0.10
  51   6    -0.12  -0.06   0.02     0.01   0.01   0.08    -0.00   0.00  -0.02
  52   6    -0.13  -0.03   0.02     0.01   0.01   0.07    -0.00   0.00  -0.03
  53   6    -0.12  -0.01   0.02     0.02   0.00   0.22     0.01   0.00   0.11
  54   6    -0.14   0.00   0.01     0.01   0.00   0.12     0.01   0.00   0.15
  55   6    -0.16  -0.01   0.00    -0.00   0.00  -0.06     0.00   0.00   0.02
  56   7    -0.17  -0.03   0.01    -0.00   0.00  -0.09    -0.01   0.00  -0.10
  57   6    -0.18  -0.00  -0.01    -0.00   0.00  -0.09     0.01  -0.00   0.06
  58   6    -0.16   0.00   0.00    -0.00  -0.00  -0.06     0.00  -0.00   0.02
  59   6    -0.14  -0.01   0.01     0.01  -0.00   0.12     0.01  -0.00   0.16
  60   6    -0.12   0.01   0.02     0.02  -0.01   0.22     0.01  -0.00   0.11
  61   6    -0.13   0.03   0.02     0.01  -0.01   0.07    -0.00  -0.00  -0.03
  62   7    -0.17   0.03   0.01    -0.00  -0.00  -0.09    -0.01  -0.00  -0.10
  63   6    -0.12   0.05   0.02     0.01  -0.01   0.08    -0.00  -0.00  -0.02
  64   6    -0.11   0.05   0.00    -0.00  -0.00  -0.02    -0.00  -0.00  -0.01
  65   7    -0.08   0.05  -0.00    -0.01  -0.00  -0.10    -0.01  -0.00  -0.10
  66   1    -0.04   0.00  -0.00     0.00  -0.00   0.03     0.00  -0.00   0.08
  67   1    -0.03  -0.01  -0.01     0.00   0.00   0.02     0.00  -0.00   0.09
  68   1    -0.03   0.01  -0.01     0.00  -0.00   0.02     0.00   0.00   0.08
  69   1    -0.05  -0.00  -0.00     0.00   0.00   0.03     0.00   0.00   0.08
  70   1    -0.03  -0.02   0.01     0.00   0.00   0.05     0.00   0.00   0.01
  71   1    -0.03  -0.00   0.01     0.01   0.00   0.11     0.00   0.00   0.06
  72   1    -0.04   0.01   0.00     0.01   0.00   0.05     0.01  -0.00   0.08
  73   1    -0.05  -0.00  -0.00    -0.00   0.00  -0.02     0.01  -0.00   0.05
  74   1    -0.04  -0.01   0.00     0.01  -0.00   0.05     0.01  -0.00   0.08
  75   1    -0.03   0.00   0.01     0.01  -0.00   0.11     0.00  -0.00   0.06
  76   1    -0.03   0.02   0.01     0.00  -0.00   0.05     0.00  -0.00   0.01
                     13                     14                     15
                        a                      a                      a 
 Frequencies --    97.4559               121.6352               121.8303
 Red. masses --    15.6187                10.5533                10.5573
 Frc consts  --     0.0000                 0.0000                 0.0000
 IR Inten    --     3.3842                 0.0863                 1.1067
 Raman Activ --     0.0000                 0.0000                 0.0000
 Depolar     --     0.0000                 0.0000                 0.0000
 Atom AN      X      Y      Z        X      Y      Z        X      Y      Z
   1  26     0.02   0.00  -0.23    -0.00   0.00  -0.00    -0.00   0.00  -0.00
   2   6    -0.00   0.00   0.21    -0.00  -0.00  -0.06    -0.00  -0.00  -0.03
   3   6    -0.00   0.00   0.21     0.01  -0.00  -0.28     0.00  -0.00  -0.13
   4   6    -0.00  -0.00   0.03     0.00  -0.00  -0.11     0.00  -0.00  -0.05
   5   6    -0.00  -0.00  -0.02     0.00  -0.00  -0.00    -0.00  -0.00   0.00
   6   6    -0.00   0.00   0.03    -0.00  -0.00   0.11    -0.00  -0.00   0.05
   7   6    -0.00  -0.00   0.21    -0.01  -0.00   0.28    -0.00  -0.00   0.13
   8   6    -0.00  -0.00   0.21     0.00  -0.00   0.06     0.00  -0.00   0.03
   9   6     0.00   0.00   0.03     0.01   0.00  -0.17     0.00   0.00  -0.08
  10   7     0.00   0.00  -0.04     0.00   0.00  -0.10     0.00   0.00  -0.05
  11   6     0.01   0.01  -0.08     0.01   0.00  -0.30     0.01   0.00  -0.14
  12   6     0.01   0.00  -0.12     0.00   0.00  -0.15     0.00   0.00  -0.07
  13   6     0.01   0.00  -0.06    -0.01  -0.00   0.07    -0.00  -0.00   0.03
  14   6     0.00  -0.00   0.09    -0.01  -0.00   0.28    -0.01  -0.00   0.13
  15   6     0.00   0.00   0.09    -0.01  -0.00   0.12    -0.00  -0.00   0.06
  16   7     0.01   0.00  -0.05     0.00   0.00  -0.08     0.00   0.00  -0.04
  17   6    -0.00  -0.00   0.19    -0.00  -0.00   0.00     0.00  -0.00  -0.00
  18   6     0.00  -0.00   0.09     0.01  -0.00  -0.12     0.00  -0.00  -0.06
  19   6     0.00  -0.00   0.09     0.01  -0.00  -0.28     0.01  -0.00  -0.13
  20   6     0.01  -0.00  -0.06     0.01  -0.00  -0.07     0.00  -0.00  -0.03
  21   6     0.01  -0.00  -0.12    -0.00   0.00   0.15    -0.00   0.00   0.07
  22   7     0.01  -0.00  -0.05    -0.00   0.00   0.08    -0.00   0.00   0.04
  23   6     0.01  -0.00  -0.08    -0.01   0.00   0.30    -0.01   0.00   0.14
  24   6     0.00  -0.00   0.03    -0.01   0.00   0.17    -0.00   0.00   0.08
  25   7     0.00  -0.00  -0.05    -0.00   0.00   0.10    -0.00  -0.00   0.05
  26   1    -0.00   0.00   0.09     0.00  -0.00  -0.02    -0.00  -0.00  -0.01
  27   1    -0.00   0.00   0.09     0.00  -0.00  -0.15     0.00  -0.00  -0.07
  28   1    -0.00  -0.00   0.09    -0.00  -0.00   0.15    -0.00  -0.00   0.07
  29   1    -0.00  -0.00   0.09    -0.00  -0.00   0.02     0.00  -0.00   0.01
  30   1     0.00   0.00  -0.02     0.00   0.00  -0.11     0.00   0.00  -0.05
  31   1     0.00   0.00  -0.03    -0.00  -0.00   0.03    -0.00  -0.00   0.01
  32   1    -0.00  -0.00   0.05    -0.01  -0.00   0.14    -0.00  -0.00   0.07
  33   1    -0.00  -0.00   0.09    -0.00  -0.00   0.00     0.00  -0.00  -0.00
  34   1    -0.00   0.00   0.06     0.01  -0.00  -0.14     0.00  -0.00  -0.07
  35   1     0.00  -0.00  -0.03     0.00  -0.00  -0.03     0.00  -0.00  -0.01
  36   1     0.00  -0.00  -0.03    -0.00   0.00   0.11    -0.00   0.00   0.05
  37   6    -0.00   0.00  -0.12     0.00  -0.00  -0.00    -0.00  -0.00   0.00
  38   6    -0.00   0.00  -0.26     0.00  -0.00  -0.00    -0.00   0.00   0.00
  39   6    -0.00   0.00  -0.26     0.00  -0.00  -0.00    -0.00   0.00   0.00
  40   6    -0.00   0.00  -0.12     0.00   0.00   0.00    -0.00  -0.00  -0.00
  41  26    -0.02   0.00  -0.24    -0.00  -0.00  -0.00     0.00   0.01   0.00
  42   6     0.01  -0.01   0.21    -0.00   0.00  -0.03    -0.00  -0.00   0.06
  43   6     0.01  -0.01   0.21    -0.01   0.00  -0.13     0.01  -0.01   0.28
  44   6     0.00   0.00   0.03    -0.00   0.00  -0.05     0.00  -0.00   0.11
  45   6     0.00   0.00  -0.02     0.00   0.00  -0.00    -0.00  -0.00  -0.00
  46   6     0.00  -0.00   0.03     0.00   0.00   0.05    -0.00  -0.00  -0.11
  47   6     0.01   0.00   0.21     0.01   0.00   0.13    -0.01  -0.01  -0.28
  48   6     0.01   0.00   0.21    -0.00   0.00   0.03     0.00  -0.00  -0.06
  49   6    -0.00  -0.00   0.03    -0.01  -0.00  -0.08     0.01   0.00   0.17
  50   7    -0.00  -0.00  -0.05    -0.00  -0.00  -0.05     0.01   0.00   0.10
  51   6    -0.01  -0.01  -0.08    -0.01  -0.00  -0.14     0.02   0.01   0.30
  52   6    -0.01  -0.00  -0.12    -0.00  -0.00  -0.07     0.01   0.00   0.15
  53   6    -0.01  -0.00  -0.06     0.01   0.00   0.03    -0.01  -0.00  -0.07
  54   6     0.00  -0.00   0.10     0.01   0.00   0.13    -0.03  -0.00  -0.28
  55   6     0.00  -0.00   0.09     0.01   0.00   0.06    -0.01  -0.00  -0.12
  56   7    -0.01  -0.00  -0.06    -0.00  -0.00  -0.04     0.00   0.00   0.08
  57   6     0.01  -0.00   0.19     0.00   0.00   0.00     0.00  -0.00  -0.00
  58   6     0.00   0.00   0.09    -0.01   0.00  -0.06     0.01  -0.00   0.12
  59   6     0.00  -0.00   0.10    -0.01   0.00  -0.13     0.03  -0.01   0.28
  60   6    -0.01   0.00  -0.06    -0.01   0.00  -0.03     0.01  -0.00   0.07
  61   6    -0.01   0.01  -0.12     0.00  -0.00   0.07    -0.01   0.00  -0.15
  62   7    -0.01   0.00  -0.06     0.00  -0.00   0.04    -0.00   0.00  -0.08
  63   6    -0.01   0.01  -0.09     0.01  -0.00   0.14    -0.02   0.01  -0.30
  64   6    -0.00   0.00   0.02     0.01  -0.00   0.08    -0.01   0.00  -0.17
  65   7    -0.00   0.00  -0.05     0.00  -0.00   0.05    -0.01   0.00  -0.10
  66   1     0.00  -0.00   0.10    -0.00   0.00  -0.01     0.00  -0.00   0.02
  67   1     0.00  -0.00   0.10    -0.00   0.00  -0.07     0.01  -0.00   0.15
  68   1     0.00   0.00   0.10     0.00   0.00   0.07    -0.01  -0.00  -0.15
  69   1     0.00   0.00   0.10     0.00   0.00   0.01     0.00  -0.00  -0.02
  70   1    -0.00  -0.00  -0.02    -0.00  -0.00  -0.05     0.01   0.00   0.11
  71   1    -0.00  -0.00  -0.03     0.00   0.00   0.01    -0.00  -0.00  -0.03
  72   1     0.00   0.00   0.06     0.01   0.00   0.07    -0.01  -0.00  -0.14
  73   1     0.01  -0.00   0.09     0.00   0.00   0.00    -0.00  -0.00  -0.00
  74   1     0.00  -0.00   0.06    -0.01   0.00  -0.07     0.01  -0.00   0.14
  75   1    -0.00   0.00  -0.03    -0.00   0.00  -0.01     0.00  -0.00   0.03
  76   1    -0.00   0.00  -0.03     0.00  -0.00   0.05    -0.01   0.00  -0.11
                     16                     17                     18
                        a                      a                      a 
 Frequencies --   128.5284               154.0592               157.4301
 Red. masses --    11.1359                12.3627                12.3840
 Frc consts  --     0.0000                 0.0000                 0.0000
 IR Inten    --     1.1521               242.9767                 0.0763
 Raman Activ --     0.0000                 0.0000                 0.0000
 Depolar     --     0.0000                 0.0000                 0.0000
 Atom AN      X      Y      Z        X      Y      Z        X      Y      Z
   1  26     0.01  -0.00  -0.05    -0.04   0.00   0.01    -0.00   0.07  -0.01
   2   6     0.01  -0.00  -0.19    -0.02   0.05  -0.01     0.03   0.06   0.03
   3   6     0.00  -0.00  -0.02     0.05  -0.01   0.01     0.01   0.07  -0.02
   4   6    -0.00  -0.00   0.13     0.12   0.03   0.02    -0.01   0.06  -0.04
   5   6    -0.01  -0.00   0.23     0.18   0.00   0.02     0.00   0.06  -0.04
   6   6    -0.00   0.00   0.13     0.13  -0.03   0.02     0.01   0.06  -0.04
   7   6     0.00   0.00  -0.02     0.05   0.02   0.01    -0.01   0.07  -0.01
   8   6     0.01   0.01  -0.19    -0.02  -0.04  -0.01    -0.03   0.06   0.03
   9   6     0.00   0.00  -0.10     0.02  -0.13  -0.01    -0.02   0.04   0.02
  10   7    -0.00   0.00   0.05     0.12  -0.12   0.01     0.00   0.05  -0.02
  11   6    -0.00   0.00  -0.02    -0.01  -0.17  -0.01    -0.04   0.02   0.02
  12   6    -0.00  -0.00   0.08    -0.04  -0.12   0.00    -0.03   0.00  -0.00
  13   6    -0.01  -0.00   0.21    -0.00  -0.04   0.01    -0.04  -0.02  -0.04
  14   6    -0.00  -0.00   0.05    -0.07   0.02   0.00    -0.03  -0.03  -0.02
  15   6     0.01   0.00  -0.12    -0.14  -0.02  -0.01    -0.01  -0.02   0.02
  16   7     0.01   0.00  -0.07    -0.14  -0.12  -0.01    -0.02   0.00   0.02
  17   6     0.01   0.00  -0.22    -0.19  -0.00  -0.02    -0.00  -0.03   0.04
  18   6     0.01   0.00  -0.12    -0.14   0.02  -0.01     0.01  -0.02   0.02
  19   6    -0.00   0.00   0.05    -0.07  -0.02   0.00     0.03  -0.03  -0.01
  20   6    -0.01   0.00   0.21    -0.00   0.04   0.01     0.05  -0.02  -0.03
  21   6    -0.00  -0.00   0.08    -0.04   0.12   0.00     0.03   0.01  -0.00
  22   7     0.01  -0.00  -0.07    -0.14   0.12  -0.01     0.02   0.00   0.02
  23   6    -0.00  -0.00  -0.02    -0.01   0.17  -0.01     0.04   0.02   0.02
  24   6     0.00  -0.00  -0.10     0.02   0.13  -0.01     0.02   0.05   0.02
  25   7    -0.00  -0.00   0.05     0.11   0.13   0.01    -0.00   0.05  -0.02
  26   1     0.00  -0.00  -0.10    -0.03   0.01  -0.01     0.01   0.02   0.02
  27   1     0.00  -0.00  -0.00     0.01  -0.02   0.00     0.00   0.02  -0.01
  28   1     0.00   0.00  -0.00     0.01   0.02   0.00    -0.00   0.02  -0.01
  29   1     0.00   0.00  -0.10    -0.03  -0.01  -0.01    -0.01   0.02   0.02
  30   1    -0.00   0.00  -0.01    -0.00  -0.05  -0.00    -0.02   0.01   0.01
  31   1    -0.00  -0.00   0.11     0.02  -0.01   0.01    -0.02  -0.01  -0.02
  32   1    -0.00  -0.00   0.02    -0.02   0.03   0.00    -0.01  -0.01  -0.01
  33   1     0.00   0.00  -0.08    -0.05  -0.00  -0.01    -0.00  -0.01   0.01
  34   1    -0.00   0.00   0.02    -0.02  -0.03   0.00     0.01  -0.01  -0.01
  35   1    -0.01   0.00   0.11     0.02   0.01   0.01     0.02  -0.01  -0.02
  36   1    -0.00  -0.00  -0.01    -0.00   0.05  -0.00     0.02   0.01   0.01
  37   6    -0.01  -0.00   0.25     0.18  -0.00   0.01     0.00  -0.07  -0.00
  38   6    -0.01   0.00   0.08     0.18  -0.01  -0.02     0.00  -0.64   0.07
  39   6    -0.01   0.00  -0.08     0.18  -0.01  -0.03     0.00  -0.64   0.07
  40   6    -0.01   0.00  -0.25     0.18   0.00  -0.01    -0.00  -0.07  -0.00
  41  26     0.01  -0.00   0.04    -0.04   0.00  -0.01     0.00   0.07  -0.01
  42   6     0.01  -0.01   0.19    -0.02   0.05  -0.01     0.03   0.06   0.04
  43   6     0.00  -0.01   0.01     0.05  -0.01   0.00     0.01   0.07  -0.01
  44   6    -0.00  -0.00  -0.13     0.12   0.03   0.01    -0.01   0.06  -0.04
  45   6    -0.01   0.00  -0.23     0.18   0.00   0.00    -0.01   0.06  -0.05
  46   6    -0.00   0.00  -0.13     0.13  -0.02   0.00     0.00   0.06  -0.04
  47   6     0.00   0.00   0.02     0.05   0.02   0.00    -0.01   0.07  -0.02
  48   6     0.01   0.01   0.19    -0.02  -0.05  -0.01    -0.03   0.06   0.03
  49   6     0.00   0.00   0.10     0.02  -0.13  -0.01    -0.02   0.05   0.02
  50   7    -0.00   0.00  -0.05     0.12  -0.12  -0.00    -0.00   0.05  -0.02
  51   6    -0.00  -0.00   0.01    -0.01  -0.17  -0.01    -0.04   0.02   0.02
  52   6    -0.01  -0.00  -0.08    -0.04  -0.12   0.00    -0.03   0.01   0.00
  53   6    -0.02  -0.01  -0.21     0.00  -0.04   0.02    -0.05  -0.02  -0.03
  54   6    -0.01  -0.00  -0.05    -0.07   0.02   0.01    -0.03  -0.03  -0.02
  55   6     0.01  -0.00   0.12    -0.15  -0.03   0.00    -0.01  -0.02   0.02
  56   7     0.00  -0.00   0.07    -0.14  -0.12   0.00    -0.01   0.00   0.02
  57   6     0.02  -0.00   0.22    -0.19  -0.00   0.00     0.01  -0.03   0.04
  58   6     0.01   0.00   0.12    -0.15   0.02   0.00     0.02  -0.02   0.02
  59   6    -0.01   0.00  -0.05    -0.07  -0.03   0.01     0.03  -0.03  -0.02
  60   6    -0.02   0.01  -0.21     0.00   0.04   0.02     0.04  -0.01  -0.04
  61   6    -0.01   0.00  -0.08    -0.04   0.12   0.00     0.03   0.00  -0.01
  62   7     0.00   0.00   0.07    -0.14   0.11   0.00     0.02   0.00   0.02
  63   6    -0.00   0.00   0.02    -0.01   0.17  -0.01     0.04   0.02   0.02
  64   6     0.01  -0.00   0.10     0.01   0.13  -0.01     0.02   0.04   0.02
  65   7    -0.00  -0.00  -0.05     0.11   0.13  -0.00    -0.00   0.05  -0.02
  66   1     0.00  -0.00   0.10    -0.03   0.01  -0.00     0.01   0.02   0.02
  67   1     0.00  -0.00   0.00     0.01  -0.02   0.00     0.00   0.02  -0.01
  68   1     0.00   0.00   0.00     0.01   0.02   0.00    -0.00   0.02  -0.01
  69   1     0.00   0.00   0.10    -0.03  -0.01  -0.00    -0.01   0.02   0.02
  70   1    -0.00  -0.00   0.01    -0.00  -0.05  -0.00    -0.02   0.01   0.01
  71   1    -0.01  -0.00  -0.11     0.02  -0.01   0.01    -0.02  -0.01  -0.02
  72   1    -0.00  -0.00  -0.02    -0.02   0.03   0.01    -0.01  -0.01  -0.01
  73   1     0.01  -0.00   0.08    -0.05  -0.00   0.00     0.00  -0.01   0.01
  74   1    -0.00   0.00  -0.02    -0.02  -0.03   0.01     0.01  -0.01  -0.01
  75   1    -0.01   0.00  -0.11     0.02   0.01   0.01     0.02  -0.00  -0.02
  76   1    -0.00   0.00   0.01    -0.00   0.05  -0.00     0.02   0.01   0.01
                     19                     20                     21
                        a                      a                      a 
 Frequencies --   157.6132               184.0082               184.2137
 Red. masses --    11.3596                12.0916                12.0948
 Frc consts  --     0.0000                 0.0000                 0.0000
 IR Inten    --     1.5648                 0.6033                 1.4461
 Raman Activ --     0.0000                 0.0000                 0.0000
 Depolar     --     0.0000                 0.0000                 0.0000
 Atom AN      X      Y      Z        X      Y      Z        X      Y      Z
   1  26     0.01   0.02   0.03    -0.00  -0.00   0.00    -0.00  -0.01  -0.00
   2   6     0.01   0.01  -0.13    -0.13   0.13  -0.00    -0.08   0.08  -0.00
   3   6    -0.00   0.01   0.07    -0.13   0.13  -0.01    -0.08   0.08  -0.00
   4   6    -0.02   0.01   0.18    -0.12   0.13  -0.01    -0.07   0.08  -0.00
   5   6    -0.02   0.01   0.20    -0.00   0.08   0.00    -0.00   0.04   0.00
   6   6    -0.01   0.02   0.18     0.12   0.13   0.01     0.07   0.08   0.00
   7   6    -0.01   0.02   0.07     0.13   0.13   0.01     0.08   0.08   0.00
   8   6    -0.00   0.02  -0.13     0.13   0.13   0.00     0.08   0.08   0.00
   9   6    -0.00   0.02  -0.09     0.13   0.12   0.00     0.08   0.07   0.00
  10   7    -0.01   0.02   0.10     0.14   0.14   0.01     0.09   0.08   0.00
  11   6    -0.01   0.02  -0.09     0.07   0.00   0.00     0.04   0.00   0.00
  12   6    -0.01   0.01   0.01     0.13  -0.12   0.00     0.08  -0.07   0.00
  13   6    -0.02  -0.00   0.16     0.13  -0.13   0.00     0.08  -0.08   0.00
  14   6    -0.01  -0.01   0.07     0.13  -0.13   0.00     0.08  -0.08   0.00
  15   6     0.01  -0.00  -0.09     0.12  -0.13   0.00     0.08  -0.08   0.00
  16   7     0.01   0.01  -0.10     0.14  -0.14   0.00     0.09  -0.08   0.00
  17   6     0.02  -0.01  -0.17     0.00  -0.08  -0.00     0.00  -0.05  -0.00
  18   6     0.02  -0.01  -0.09    -0.12  -0.14  -0.00    -0.07  -0.08  -0.00
  19   6     0.01  -0.00   0.07    -0.13  -0.13  -0.01    -0.08  -0.08  -0.00
  20   6     0.00  -0.00   0.16    -0.13  -0.13  -0.01    -0.08  -0.08  -0.00
  21   6     0.01  -0.01   0.01    -0.13  -0.12  -0.00    -0.08  -0.07  -0.00
  22   7     0.02  -0.01  -0.09    -0.14  -0.14  -0.00    -0.09  -0.08  -0.00
  23   6     0.01  -0.01  -0.09    -0.07  -0.00  -0.00    -0.04  -0.00  -0.00
  24   6     0.00  -0.00  -0.09    -0.13   0.12  -0.00    -0.08   0.07  -0.00
  25   7    -0.01  -0.00   0.10    -0.14   0.14  -0.01    -0.09   0.08  -0.00
  26   1     0.01   0.00  -0.08    -0.04   0.04  -0.00    -0.02   0.02   0.00
  27   1    -0.00   0.01   0.04    -0.04   0.04  -0.00    -0.02   0.02  -0.00
  28   1    -0.00   0.00   0.04     0.04   0.04   0.00     0.02   0.02   0.00
  29   1     0.00   0.01  -0.08     0.04   0.04   0.00     0.02   0.02   0.00
  30   1    -0.00   0.01  -0.04    -0.02   0.00  -0.00    -0.01  -0.00  -0.00
  31   1    -0.01  -0.00   0.09     0.04  -0.04   0.00     0.02  -0.02   0.00
  32   1    -0.00  -0.01   0.04     0.04  -0.04   0.00     0.02  -0.02   0.00
  33   1     0.01  -0.00  -0.06     0.00   0.01   0.00     0.00   0.01   0.00
  34   1     0.00  -0.00   0.04    -0.04  -0.04  -0.00    -0.02  -0.02  -0.00
  35   1    -0.00  -0.00   0.09    -0.04  -0.04  -0.00    -0.02  -0.02  -0.00
  36   1     0.00  -0.00  -0.04     0.02   0.00   0.00     0.01  -0.00   0.00
  37   6    -0.02  -0.01   0.01     0.00  -0.03  -0.00    -0.00  -0.01   0.00
  38   6    -0.01  -0.14  -0.31     0.00   0.02   0.00    -0.00   0.05   0.00
  39   6    -0.01  -0.14  -0.31     0.00   0.00   0.00    -0.00   0.05   0.00
  40   6    -0.01  -0.01   0.01     0.00   0.02   0.00    -0.00  -0.02  -0.00
  41  26    -0.00   0.02   0.03     0.00  -0.00   0.00    -0.01  -0.01  -0.00
  42   6     0.00   0.02  -0.13     0.08  -0.08  -0.00    -0.13   0.13   0.01
  43   6     0.00   0.02   0.07     0.08  -0.08  -0.01    -0.13   0.12   0.01
  44   6    -0.00   0.01   0.18     0.07  -0.08  -0.01    -0.12   0.13   0.01
  45   6    -0.01   0.01   0.20     0.00  -0.05  -0.00    -0.00   0.08   0.00
  46   6    -0.00   0.01   0.18    -0.07  -0.08   0.01     0.11   0.13  -0.01
  47   6    -0.00   0.01   0.07    -0.08  -0.08   0.01     0.13   0.13  -0.01
  48   6    -0.01   0.01  -0.13    -0.08  -0.08   0.00     0.13   0.13  -0.00
  49   6    -0.01   0.02  -0.09    -0.08  -0.07   0.01     0.13   0.12  -0.01
  50   7    -0.01   0.02   0.10    -0.08  -0.09   0.01     0.14   0.14  -0.01
  51   6    -0.01   0.02  -0.09    -0.04  -0.00   0.00     0.07   0.00  -0.00
  52   6    -0.00   0.01   0.01    -0.08   0.07   0.01     0.14  -0.11  -0.01
  53   6     0.01   0.00   0.16    -0.08   0.08   0.01     0.13  -0.13  -0.01
  54   6     0.01  -0.00   0.07    -0.08   0.08   0.01     0.14  -0.13  -0.01
  55   6     0.00  -0.00  -0.10    -0.08   0.08   0.01     0.12  -0.13  -0.01
  56   7     0.00   0.01  -0.10    -0.09   0.08   0.01     0.15  -0.13  -0.01
  57   6     0.00  -0.00  -0.17    -0.00   0.05   0.00     0.00  -0.08  -0.00
  58   6     0.01  -0.01  -0.10     0.07   0.08  -0.00    -0.12  -0.14   0.01
  59   6     0.02  -0.01   0.07     0.08   0.08  -0.01    -0.13  -0.13   0.01
  60   6     0.03  -0.01   0.16     0.07   0.08  -0.01    -0.13  -0.14   0.01
  61   6     0.01  -0.01   0.01     0.08   0.07  -0.00    -0.13  -0.12   0.01
  62   7     0.01  -0.01  -0.10     0.09   0.09  -0.00    -0.14  -0.14   0.01
  63   6     0.01  -0.01  -0.09     0.04   0.00  -0.00    -0.07  -0.00   0.00
  64   6    -0.00   0.00  -0.09     0.08  -0.07  -0.01    -0.13   0.11   0.01
  65   7    -0.01   0.00   0.10     0.09  -0.08  -0.01    -0.14   0.13   0.02
  66   1     0.00   0.01  -0.08     0.02  -0.02  -0.00    -0.04   0.04   0.00
  67   1     0.00   0.01   0.04     0.02  -0.02  -0.00    -0.04   0.04   0.00
  68   1     0.00   0.00   0.04    -0.02  -0.02   0.00     0.04   0.04  -0.00
  69   1    -0.00   0.00  -0.08    -0.02  -0.02   0.00     0.04   0.04  -0.00
  70   1    -0.00   0.00  -0.04     0.01  -0.00  -0.00    -0.02  -0.00   0.00
  71   1     0.00   0.00   0.09    -0.02   0.02   0.00     0.04  -0.04  -0.00
  72   1     0.00  -0.00   0.04    -0.02   0.02   0.00     0.04  -0.04  -0.00
  73   1     0.00  -0.00  -0.06    -0.00  -0.01  -0.00     0.00   0.01   0.00
  74   1     0.01  -0.00   0.04     0.02   0.02  -0.00    -0.04  -0.04   0.00
  75   1     0.01  -0.00   0.09     0.02   0.02  -0.00    -0.04  -0.04   0.00
  76   1     0.00  -0.00  -0.04    -0.01  -0.00   0.00     0.02  -0.00  -0.00
                     22                     23                     24
                        a                      a                      a 
 Frequencies --   208.6829               213.4022               217.0990
 Red. masses --    40.3157                47.4755                25.4802
 Frc consts  --     0.0000                 0.0000                 0.0000
 IR Inten    --     2.7286                 5.5812                13.4877
 Raman Activ --     0.0000                 0.0000                 0.0000
 Depolar     --     0.0000                 0.0000                 0.0000
 Atom AN      X      Y      Z        X      Y      Z        X      Y      Z
   1  26    -0.56  -0.00  -0.01    -0.64  -0.00  -0.03    -0.04  -0.00   0.40
   2   6     0.04  -0.01   0.00     0.08   0.02   0.00     0.00   0.00   0.07
   3   6    -0.01   0.03   0.01     0.05   0.03   0.00     0.00   0.00   0.11
   4   6    -0.06   0.00  -0.00     0.02   0.01  -0.00     0.00   0.00  -0.03
   5   6    -0.04  -0.00  -0.00     0.03  -0.00   0.00     0.01   0.00  -0.12
   6   6    -0.06  -0.00  -0.00     0.02  -0.01  -0.00     0.00  -0.00  -0.03
   7   6    -0.01  -0.03   0.00     0.05  -0.03   0.00     0.00  -0.00   0.11
   8   6     0.04   0.01   0.00     0.08  -0.02   0.00     0.00  -0.00   0.07
   9   6     0.01   0.06  -0.01     0.07   0.00  -0.00     0.01   0.00  -0.08
  10   7    -0.06   0.05  -0.01     0.02  -0.00  -0.01     0.01   0.00  -0.08
  11   6     0.04   0.11   0.00     0.07   0.01   0.00     0.01   0.00  -0.13
  12   6     0.04   0.10   0.01     0.07   0.02   0.01     0.01  -0.00  -0.08
  13   6     0.02   0.05   0.00     0.07   0.03   0.00    -0.00  -0.00   0.11
  14   6     0.05   0.01  -0.00     0.06   0.04  -0.00    -0.00   0.00   0.10
  15   6     0.09   0.03   0.00     0.03   0.02   0.00     0.00   0.00  -0.09
  16   7     0.08   0.10   0.01     0.03   0.02   0.01     0.01   0.00  -0.15
  17   6     0.13   0.00   0.00     0.05   0.00   0.00     0.01   0.00  -0.16
  18   6     0.09  -0.03   0.00     0.03  -0.02   0.00     0.00  -0.00  -0.09
  19   6     0.06  -0.01  -0.00     0.06  -0.03  -0.00    -0.00  -0.00   0.10
  20   6     0.02  -0.05   0.00     0.08  -0.02   0.00    -0.00   0.00   0.11
  21   6     0.04  -0.10   0.01     0.07  -0.02   0.01     0.01   0.00  -0.08
  22   7     0.08  -0.10   0.01     0.04  -0.02   0.01     0.01   0.00  -0.15
  23   6     0.04  -0.11  -0.00     0.07  -0.01   0.00     0.01   0.00  -0.13
  24   6     0.02  -0.06  -0.01     0.07  -0.00  -0.00     0.01   0.00  -0.08
  25   7    -0.06  -0.05  -0.01     0.02   0.00  -0.01     0.01   0.00  -0.07
  26   1     0.02  -0.00   0.00     0.03   0.01   0.00     0.00   0.00   0.04
  27   1    -0.00   0.02   0.00     0.02   0.02   0.00    -0.00   0.00   0.06
  28   1    -0.00  -0.02   0.00     0.02  -0.02   0.00    -0.00  -0.00   0.06
  29   1     0.02   0.00   0.00     0.03  -0.01   0.00     0.00  -0.00   0.04
  30   1     0.02   0.03   0.00     0.02   0.00   0.00     0.00   0.00  -0.04
  31   1    -0.01   0.01   0.00     0.02   0.01  -0.00    -0.00  -0.00   0.07
  32   1     0.01  -0.00  -0.00     0.02   0.02  -0.00    -0.00   0.00   0.07
  33   1     0.04  -0.00  -0.00     0.01  -0.00  -0.00     0.00   0.00  -0.05
  34   1     0.02   0.01  -0.00     0.02  -0.02  -0.00    -0.00  -0.00   0.07
  35   1    -0.01  -0.01   0.00     0.02  -0.01  -0.00    -0.00   0.00   0.07
  36   1     0.02  -0.03   0.00     0.02  -0.00   0.00     0.00   0.00  -0.04
  37   6    -0.02  -0.00   0.01     0.03  -0.00   0.01     0.01   0.00  -0.22
  38   6    -0.01  -0.00   0.01     0.03  -0.00   0.00     0.00   0.00  -0.08
  39   6     0.01  -0.00   0.01     0.03  -0.00  -0.00     0.00   0.00   0.08
  40   6     0.02   0.00  -0.00     0.03   0.00  -0.01     0.01  -0.00   0.22
  41  26     0.57   0.01  -0.02    -0.63  -0.01   0.04    -0.01   0.00  -0.40
  42   6    -0.04   0.01   0.00     0.08   0.02  -0.00    -0.00   0.00  -0.07
  43   6     0.01  -0.03   0.02     0.05   0.03  -0.01    -0.01   0.00  -0.10
  44   6     0.06  -0.00  -0.00     0.02   0.01  -0.00    -0.00  -0.00   0.03
  45   6     0.04   0.00  -0.00     0.03   0.00  -0.00     0.00  -0.00   0.12
  46   6     0.06   0.01  -0.00     0.02  -0.01   0.00    -0.00  -0.00   0.03
  47   6     0.01   0.03   0.02     0.05  -0.03  -0.01    -0.01  -0.00  -0.10
  48   6    -0.04  -0.01   0.00     0.08  -0.01  -0.00    -0.00  -0.00  -0.07
  49   6    -0.02  -0.06  -0.01     0.07   0.00   0.01     0.00   0.00   0.08
  50   7     0.06  -0.05  -0.02     0.02  -0.00   0.02     0.00   0.00   0.07
  51   6    -0.04  -0.11  -0.01     0.07   0.01  -0.00     0.01   0.00   0.13
  52   6    -0.04  -0.11   0.01     0.07   0.02  -0.02     0.00   0.00   0.08
  53   6    -0.02  -0.05   0.01     0.07   0.03  -0.01    -0.02  -0.00  -0.11
  54   6    -0.05  -0.02   0.01     0.06   0.04   0.00    -0.01  -0.01  -0.10
  55   6    -0.09  -0.03   0.00     0.03   0.02   0.00     0.01  -0.00   0.09
  56   7    -0.08  -0.11   0.01     0.03   0.02  -0.01     0.01   0.00   0.14
  57   6    -0.14  -0.00  -0.01     0.05   0.00   0.01     0.02  -0.00   0.16
  58   6    -0.09   0.03  -0.00     0.03  -0.02  -0.00     0.01  -0.00   0.09
  59   6    -0.06   0.01   0.00     0.06  -0.03   0.00    -0.01   0.01  -0.10
  60   6    -0.02   0.05   0.01     0.08  -0.02  -0.01    -0.02   0.00  -0.11
  61   6    -0.05   0.10   0.01     0.07  -0.02  -0.02     0.00  -0.00   0.08
  62   7    -0.08   0.10   0.01     0.03  -0.02  -0.02     0.01  -0.00   0.15
  63   6    -0.05   0.11  -0.01     0.07  -0.01  -0.00     0.01  -0.01   0.13
  64   6    -0.02   0.06  -0.01     0.07   0.00   0.01     0.00  -0.00   0.08
  65   7     0.05   0.05  -0.02     0.03   0.00   0.01     0.00  -0.00   0.07
  66   1    -0.03   0.00   0.00     0.03   0.01  -0.00    -0.00   0.00  -0.04
  67   1     0.00  -0.02   0.01     0.02   0.02  -0.01    -0.00   0.00  -0.06
  68   1     0.00   0.02   0.01     0.02  -0.02  -0.01    -0.00  -0.00  -0.06
  69   1    -0.02  -0.00   0.00     0.03  -0.00  -0.00    -0.00  -0.00  -0.04
  70   1    -0.02  -0.03  -0.00     0.02   0.00  -0.00     0.00   0.00   0.04
  71   1     0.01  -0.01   0.01     0.02   0.01  -0.00    -0.01  -0.00  -0.07
  72   1    -0.02   0.00   0.00     0.02   0.02   0.00    -0.01  -0.00  -0.07
  73   1    -0.04  -0.00  -0.01     0.01   0.00   0.01     0.00  -0.00   0.05
  74   1    -0.02  -0.01   0.00     0.02  -0.02   0.00    -0.01   0.00  -0.07
  75   1     0.01   0.01   0.01     0.02  -0.01  -0.00    -0.01   0.00  -0.07
  76   1    -0.02   0.03  -0.00     0.02  -0.00  -0.00     0.00  -0.00   0.04
                     25                     26                     27
                        a                      a                      a 
 Frequencies --   220.9331               221.2646               222.6397
 Red. masses --    11.8848                11.8817                24.3811
 Frc consts  --     0.0000                 0.0000                 0.0000
 IR Inten    --     0.4777                 3.3931                18.0879
 Raman Activ --     0.0000                 0.0000                 0.0000
 Depolar     --     0.0000                 0.0000                 0.0000
 Atom AN      X      Y      Z        X      Y      Z        X      Y      Z
   1  26    -0.01  -0.00  -0.00     0.01  -0.00   0.00     0.03  -0.00   0.38
   2   6    -0.00   0.00   0.12    -0.00   0.00   0.10    -0.01  -0.00   0.09
   3   6     0.00   0.00  -0.01    -0.00  -0.00  -0.00    -0.01  -0.00   0.14
   4   6     0.01  -0.00  -0.17     0.00  -0.00  -0.15    -0.00  -0.00  -0.11
   5   6     0.00   0.00   0.00    -0.00   0.00  -0.00    -0.00   0.00  -0.12
   6   6    -0.00  -0.00   0.17    -0.01  -0.00   0.15    -0.00   0.00  -0.10
   7   6     0.00  -0.00   0.00    -0.00   0.00   0.00    -0.01  -0.00   0.14
   8   6     0.00   0.00  -0.12     0.00   0.00  -0.10    -0.01   0.00   0.08
   9   6    -0.00  -0.00   0.06    -0.00   0.00   0.05    -0.00   0.01  -0.15
  10   7    -0.01  -0.00   0.27    -0.01  -0.00   0.23    -0.00   0.01  -0.24
  11   6     0.00   0.00  -0.09     0.00   0.00  -0.08    -0.00   0.01  -0.10
  12   6    -0.00   0.00   0.03    -0.00   0.00   0.02    -0.01   0.01   0.01
  13   6     0.01   0.00  -0.15     0.00   0.00  -0.13    -0.02  -0.00   0.08
  14   6    -0.00   0.00   0.03    -0.00  -0.00   0.03    -0.01  -0.01   0.01
  15   6    -0.01  -0.00   0.19    -0.01  -0.00   0.17     0.01   0.00  -0.05
  16   7    -0.01  -0.00   0.26    -0.01  -0.00   0.23     0.00   0.01   0.00
  17   6    -0.00   0.00   0.00     0.00   0.00   0.00     0.01   0.00  -0.15
  18   6     0.01   0.00  -0.19     0.01   0.00  -0.17     0.01   0.00  -0.05
  19   6     0.00  -0.00  -0.03     0.00   0.00  -0.03    -0.01   0.01   0.01
  20   6    -0.00   0.00   0.15    -0.01   0.00   0.13    -0.02  -0.00   0.09
  21   6     0.00   0.00  -0.03     0.00  -0.00  -0.03    -0.01  -0.01   0.01
  22   7     0.01   0.00  -0.26     0.01  -0.00  -0.23     0.00  -0.01  -0.00
  23   6    -0.00   0.00   0.09    -0.00   0.00   0.08    -0.00  -0.01  -0.10
  24   6     0.00   0.00  -0.06     0.00  -0.00  -0.05    -0.00  -0.00  -0.15
  25   7     0.01  -0.00  -0.27     0.01  -0.00  -0.23    -0.00  -0.00  -0.24
  26   1    -0.00   0.00   0.09    -0.00   0.00   0.08    -0.00   0.00   0.07
  27   1     0.00   0.00   0.02    -0.00  -0.00   0.02    -0.00   0.00   0.10
  28   1     0.00   0.00  -0.02    -0.00   0.00  -0.02    -0.00  -0.00   0.10
  29   1     0.00   0.00  -0.09     0.00   0.00  -0.08    -0.00  -0.00   0.07
  30   1     0.00   0.00  -0.10     0.00   0.00  -0.08    -0.00   0.00  -0.02
  31   1     0.00   0.00  -0.11     0.00   0.00  -0.09    -0.01  -0.00   0.04
  32   1     0.00   0.00  -0.01     0.00  -0.00  -0.01    -0.00  -0.00   0.01
  33   1    -0.00   0.00   0.00     0.00   0.00   0.00     0.00   0.00  -0.07
  34   1    -0.00  -0.00   0.01    -0.00   0.00   0.01    -0.00   0.00   0.01
  35   1    -0.00   0.00   0.11    -0.00   0.00   0.09    -0.01   0.00   0.05
  36   1    -0.00   0.00   0.10    -0.00   0.00   0.08    -0.00  -0.00  -0.02
  37   6     0.00   0.00   0.00    -0.00   0.00  -0.00    -0.00  -0.00  -0.04
  38   6     0.00  -0.00  -0.00    -0.00   0.00  -0.00    -0.00  -0.00   0.06
  39   6     0.00  -0.00  -0.00     0.00   0.00   0.00     0.00  -0.00   0.06
  40   6    -0.00   0.00   0.00     0.00  -0.01   0.00     0.00   0.00  -0.05
  41  26     0.00  -0.01  -0.00    -0.00   0.01  -0.00    -0.04  -0.00   0.38
  42   6    -0.01   0.00  -0.10     0.01  -0.00   0.11     0.01  -0.00   0.08
  43   6     0.00   0.00   0.00    -0.00  -0.00  -0.00     0.02  -0.00   0.14
  44   6     0.01  -0.00   0.15    -0.01   0.00  -0.17     0.00   0.00  -0.10
  45   6    -0.00   0.00   0.00     0.00  -0.00   0.00     0.00   0.00  -0.12
  46   6    -0.01  -0.00  -0.15     0.01   0.00   0.17     0.00  -0.00  -0.10
  47   6    -0.00   0.00  -0.00     0.00  -0.00   0.00     0.02   0.00   0.14
  48   6     0.00   0.00   0.10    -0.00  -0.00  -0.12     0.01   0.00   0.09
  49   6    -0.00   0.00  -0.05     0.00  -0.00   0.06     0.00  -0.00  -0.15
  50   7    -0.01  -0.00  -0.23     0.02   0.00   0.27    -0.00  -0.01  -0.24
  51   6     0.00   0.00   0.08    -0.01  -0.00  -0.09     0.00  -0.01  -0.10
  52   6    -0.00   0.00  -0.03     0.00  -0.00   0.03     0.01  -0.01   0.00
  53   6     0.01   0.00   0.13    -0.01  -0.01  -0.15     0.02   0.00   0.08
  54   6    -0.00   0.00  -0.03     0.00  -0.00   0.03     0.01   0.01   0.02
  55   6    -0.01   0.00  -0.17     0.02  -0.00   0.20    -0.01   0.00  -0.05
  56   7    -0.02   0.00  -0.23     0.02  -0.00   0.27    -0.00  -0.01  -0.01
  57   6     0.00   0.00   0.00    -0.00  -0.00   0.00    -0.02   0.00  -0.15
  58   6     0.02  -0.00   0.17    -0.02   0.00  -0.19    -0.01  -0.00  -0.05
  59   6     0.00   0.00   0.02    -0.00  -0.00  -0.03     0.01  -0.01   0.02
  60   6    -0.01   0.00  -0.13     0.01  -0.00   0.15     0.02  -0.00   0.08
  61   6     0.00  -0.00   0.03    -0.00   0.00  -0.03     0.01   0.01   0.01
  62   7     0.02  -0.00   0.23    -0.02   0.00  -0.26    -0.00   0.01  -0.00
  63   6    -0.01   0.00  -0.07     0.01  -0.00   0.09     0.00   0.01  -0.10
  64   6     0.00  -0.00   0.05    -0.00   0.00  -0.06     0.00   0.01  -0.15
  65   7     0.01  -0.01   0.23    -0.02   0.01  -0.27    -0.00   0.01  -0.23
  66   1    -0.00   0.00  -0.08     0.00  -0.00   0.09     0.01  -0.00   0.07
  67   1    -0.00   0.00  -0.02     0.00  -0.00   0.02     0.01  -0.00   0.09
  68   1     0.00   0.00   0.02    -0.00  -0.00  -0.02     0.01   0.00   0.09
  69   1     0.00   0.00   0.08    -0.00  -0.00  -0.09     0.01   0.00   0.07
  70   1     0.01   0.00   0.08    -0.01  -0.00  -0.10     0.00  -0.00  -0.02
  71   1     0.01   0.00   0.09    -0.01  -0.00  -0.11     0.01   0.00   0.04
  72   1     0.00   0.00   0.01    -0.00  -0.00  -0.01     0.00   0.01   0.01
  73   1     0.00   0.00   0.00    -0.00  -0.00   0.00    -0.01   0.00  -0.07
  74   1    -0.00   0.00  -0.01     0.00  -0.00   0.01     0.00  -0.01   0.01
  75   1    -0.01   0.00  -0.09     0.01  -0.00   0.11     0.01  -0.00   0.04
  76   1    -0.01   0.00  -0.08     0.01  -0.00   0.10     0.00   0.00  -0.02
                     28                     29                     30
                        a                      a                      a 
 Frequencies --   226.7995               228.8346               233.4254
 Red. masses --    12.5168                18.3691                15.7687
 Frc consts  --     0.0000                 0.0000                 0.0000
 IR Inten    --    58.4235                 3.7660                 9.7677
 Raman Activ --     0.0000                 0.0000                 0.0000
 Depolar     --     0.0000                 0.0000                 0.0000
 Atom AN      X      Y      Z        X      Y      Z        X      Y      Z
   1  26     0.03  -0.00   0.06    -0.27  -0.00   0.00    -0.02  -0.00   0.21
   2   6    -0.01  -0.00   0.02     0.10   0.04   0.00     0.00   0.00   0.06
   3   6    -0.01  -0.00   0.13     0.11   0.02   0.02     0.01   0.00  -0.10
   4   6    -0.00  -0.00  -0.08     0.11   0.02  -0.00     0.00   0.00  -0.03
   5   6    -0.00   0.00  -0.01     0.08   0.00  -0.00     0.00   0.00  -0.09
   6   6    -0.00   0.00  -0.07     0.11  -0.02  -0.00     0.00  -0.00  -0.03
   7   6    -0.01  -0.00   0.13     0.11  -0.02   0.02     0.01  -0.00  -0.10
   8   6    -0.01   0.00   0.02     0.10  -0.04   0.00     0.00  -0.00   0.06
   9   6    -0.00   0.00  -0.17     0.11  -0.08  -0.02     0.00  -0.00   0.12
  10   7     0.00   0.00  -0.27     0.13  -0.07  -0.03     0.00  -0.00   0.12
  11   6    -0.01   0.01  -0.02     0.08  -0.15  -0.00     0.00  -0.01  -0.01
  12   6    -0.01   0.00   0.15     0.08  -0.15   0.02     0.01  -0.00  -0.18
  13   6    -0.01   0.00   0.01     0.14  -0.04   0.01     0.01  -0.00   0.02
  14   6     0.00  -0.00  -0.11     0.04   0.05  -0.01    -0.00   0.00   0.14
  15   6     0.00  -0.00   0.04    -0.08  -0.02  -0.00     0.00  -0.00  -0.08
  16   7    -0.01   0.00   0.22    -0.06  -0.14   0.02     0.01  -0.00  -0.28
  17   6     0.01   0.00  -0.06    -0.13  -0.00  -0.02    -0.00  -0.00   0.00
  18   6     0.00   0.00   0.04    -0.08   0.02  -0.00     0.00   0.00  -0.08
  19   6     0.00   0.00  -0.12     0.04  -0.04  -0.01    -0.00  -0.00   0.15
  20   6    -0.01  -0.00   0.01     0.13   0.04   0.01     0.01   0.00   0.02
  21   6    -0.01  -0.00   0.15     0.07   0.15   0.02     0.01   0.01  -0.19
  22   7    -0.01  -0.00   0.22    -0.06   0.14   0.02     0.01   0.00  -0.28
  23   6    -0.01  -0.01  -0.01     0.08   0.15  -0.00     0.00   0.01  -0.01
  24   6    -0.00  -0.00  -0.17     0.11   0.08  -0.02     0.00   0.00   0.12
  25   7     0.00  -0.00  -0.27     0.13   0.07  -0.03     0.00   0.00   0.12
  26   1    -0.00   0.00   0.04     0.02   0.01   0.00     0.00   0.00   0.02
  27   1    -0.00  -0.00   0.10     0.03   0.01   0.01     0.00   0.00  -0.07
  28   1    -0.00  -0.00   0.10     0.03  -0.01   0.01     0.00  -0.00  -0.07
  29   1    -0.00  -0.00   0.04     0.02  -0.01   0.00     0.00  -0.00   0.02
  30   1    -0.00   0.00  -0.00     0.01  -0.04  -0.00     0.00  -0.00   0.01
  31   1    -0.00   0.00  -0.01     0.07  -0.01   0.00     0.00  -0.00   0.04
  32   1     0.00  -0.00  -0.08     0.01   0.04  -0.01    -0.00   0.00   0.10
  33   1     0.00   0.00  -0.08    -0.04   0.00  -0.01    -0.00  -0.00   0.06
  34   1     0.00   0.00  -0.08     0.01  -0.04  -0.01    -0.00  -0.00   0.11
  35   1    -0.00   0.00  -0.01     0.07   0.01   0.00     0.00   0.00   0.04
  36   1    -0.00  -0.00  -0.00     0.01   0.04  -0.00     0.00   0.00   0.01
  37   6    -0.00  -0.00   0.15     0.04   0.00   0.01     0.00   0.00  -0.10
  38   6    -0.00  -0.00   0.04     0.02   0.01  -0.01    -0.00  -0.00   0.14
  39   6    -0.00  -0.00  -0.04    -0.02   0.01  -0.02    -0.00  -0.00   0.13
  40   6    -0.00   0.00  -0.14    -0.04  -0.00  -0.01    -0.00   0.00  -0.11
  41  26     0.02  -0.00  -0.07     0.27   0.01   0.02     0.04  -0.00   0.21
  42   6    -0.00   0.00  -0.02    -0.10  -0.04   0.01    -0.00  -0.00   0.06
  43   6    -0.01   0.00  -0.14    -0.11  -0.02   0.02    -0.01  -0.00  -0.11
  44   6     0.01  -0.00   0.08    -0.11  -0.02  -0.01    -0.00  -0.00  -0.03
  45   6     0.01   0.00   0.01    -0.08  -0.00  -0.01    -0.00   0.00  -0.09
  46   6     0.01  -0.00   0.08    -0.11   0.02  -0.00    -0.00   0.00  -0.03
  47   6    -0.00  -0.00  -0.14    -0.11   0.02   0.02    -0.01   0.00  -0.10
  48   6    -0.00  -0.00  -0.02    -0.10   0.04   0.01    -0.00   0.00   0.06
  49   6     0.01  -0.00   0.17    -0.11   0.07  -0.01     0.00   0.00   0.12
  50   7     0.02  -0.00   0.27    -0.13   0.07  -0.01     0.00   0.00   0.12
  51   6    -0.00  -0.01   0.02    -0.08   0.15  -0.01    -0.01   0.00  -0.01
  52   6    -0.01  -0.01  -0.14    -0.08   0.15   0.01    -0.02   0.00  -0.19
  53   6    -0.00  -0.00  -0.02    -0.13   0.04   0.02    -0.00   0.00   0.02
  54   6     0.01  -0.00   0.11    -0.04  -0.05   0.01     0.01  -0.00   0.15
  55   6    -0.01  -0.00  -0.04     0.08   0.02  -0.01    -0.00   0.00  -0.08
  56   7    -0.02  -0.01  -0.22     0.05   0.14  -0.00    -0.02   0.00  -0.28
  57   6    -0.00  -0.00   0.07     0.13   0.00  -0.03     0.00   0.00   0.00
  58   6    -0.01   0.00  -0.04     0.08  -0.02  -0.02    -0.00   0.00  -0.08
  59   6     0.01   0.00   0.11    -0.04   0.04   0.00     0.01  -0.00   0.15
  60   6    -0.00   0.00  -0.02    -0.13  -0.05   0.02    -0.01  -0.00   0.02
  61   6    -0.01   0.01  -0.15    -0.07  -0.15   0.00    -0.02  -0.00  -0.19
  62   7    -0.02   0.01  -0.22     0.06  -0.14  -0.01    -0.02   0.00  -0.29
  63   6    -0.00   0.01   0.02    -0.08  -0.15  -0.01    -0.01  -0.01  -0.01
  64   6     0.01   0.00   0.18    -0.11  -0.08  -0.01     0.00  -0.01   0.13
  65   7     0.02  -0.00   0.27    -0.13  -0.07  -0.02     0.00  -0.01   0.12
  66   1    -0.00   0.00  -0.04    -0.02  -0.01   0.01    -0.00  -0.00   0.02
  67   1    -0.00   0.00  -0.10    -0.03  -0.01   0.01    -0.00   0.00  -0.07
  68   1    -0.00  -0.00  -0.10    -0.03   0.01   0.01    -0.00   0.00  -0.07
  69   1    -0.00  -0.00  -0.04    -0.02   0.01   0.01    -0.00   0.00   0.02
  70   1    -0.00  -0.00   0.00    -0.01   0.04  -0.00     0.00   0.00   0.01
  71   1     0.00  -0.00   0.01    -0.07   0.01   0.01     0.00   0.00   0.04
  72   1     0.01   0.00   0.08    -0.01  -0.04   0.00     0.01  -0.00   0.11
  73   1     0.01  -0.00   0.08     0.04   0.00  -0.01     0.01  -0.00   0.06
  74   1     0.01  -0.00   0.08    -0.01   0.04   0.00     0.01  -0.00   0.11
  75   1     0.00   0.00   0.01    -0.07  -0.01   0.01     0.00  -0.00   0.04
  76   1    -0.00   0.00   0.00    -0.01  -0.04  -0.00     0.00  -0.00   0.01
                     31                     32                     33
                        a                      a                      a 
 Frequencies --   244.9681               245.2184               257.1647
 Red. masses --    10.8700                10.8453                12.0970
 Frc consts  --     0.0000                 0.0000                 0.0000
 IR Inten    --     0.1660                 1.2819                 0.3944
 Raman Activ --     0.0000                 0.0000                 0.0000
 Depolar     --     0.0000                 0.0000                 0.0000
 Atom AN      X      Y      Z        X      Y      Z        X      Y      Z
   1  26    -0.00  -0.00   0.00     0.00  -0.00  -0.00     0.00  -0.00   0.00
   2   6     0.01  -0.00  -0.17     0.00  -0.00  -0.09    -0.00   0.00   0.15
   3   6    -0.00   0.00   0.23    -0.00   0.00   0.11     0.00   0.00  -0.01
   4   6    -0.00   0.00   0.13    -0.00   0.00   0.07     0.01  -0.00  -0.20
   5   6     0.00   0.00  -0.00     0.00   0.00   0.00     0.00  -0.00  -0.00
   6   6     0.00   0.00  -0.13     0.00   0.00  -0.06    -0.01  -0.00   0.20
   7   6     0.01   0.00  -0.23     0.00   0.00  -0.11    -0.00   0.00   0.01
   8   6    -0.00  -0.00   0.17    -0.00  -0.00   0.08     0.00   0.00  -0.15
   9   6    -0.01  -0.00   0.24    -0.00  -0.00   0.11    -0.00  -0.00   0.05
  10   7    -0.00  -0.00   0.13    -0.00  -0.00   0.06    -0.01  -0.00   0.28
  11   6     0.00  -0.00  -0.00     0.00  -0.00  -0.00    -0.00  -0.00  -0.01
  12   6     0.01   0.00  -0.26     0.01   0.00  -0.12     0.00   0.00  -0.06
  13   6     0.01   0.00  -0.14     0.00   0.00  -0.07    -0.01  -0.00   0.14
  14   6    -0.01  -0.00   0.24    -0.00  -0.00   0.11    -0.00   0.00  -0.01
  15   6    -0.00  -0.00   0.10    -0.00  -0.00   0.05     0.01   0.00  -0.19
  16   7     0.01   0.00  -0.17     0.00   0.00  -0.07     0.01   0.00  -0.27
  17   6    -0.00  -0.00   0.00    -0.00  -0.00  -0.00     0.00   0.00  -0.00
  18   6     0.00  -0.00  -0.10     0.00  -0.00  -0.05    -0.01   0.00   0.19
  19   6     0.01  -0.00  -0.24     0.00  -0.00  -0.11     0.00   0.00   0.01
  20   6    -0.01   0.00   0.14    -0.00   0.00   0.07     0.01   0.00  -0.14
  21   6    -0.01   0.00   0.25    -0.01   0.00   0.12    -0.00   0.00   0.06
  22   7    -0.01   0.00   0.17    -0.00   0.00   0.08    -0.01   0.00   0.27
  23   6    -0.00  -0.00   0.00    -0.00  -0.00   0.00     0.00  -0.00   0.01
  24   6     0.01  -0.00  -0.24     0.00  -0.00  -0.12     0.00  -0.00  -0.06
  25   7     0.00  -0.00  -0.12     0.00  -0.00  -0.06     0.01  -0.00  -0.28
  26   1     0.00  -0.00  -0.08     0.00  -0.00  -0.04    -0.00   0.00   0.11
  27   1    -0.00   0.00   0.14    -0.00   0.00   0.07    -0.00   0.00   0.02
  28   1     0.00   0.00  -0.14     0.00   0.00  -0.07     0.00   0.00  -0.02
  29   1    -0.00  -0.00   0.08    -0.00  -0.00   0.04     0.00   0.00  -0.11
  30   1     0.00  -0.00   0.01     0.00  -0.00   0.00     0.00  -0.00  -0.00
  31   1     0.00   0.00  -0.06     0.00   0.00  -0.03    -0.00  -0.00   0.11
  32   1    -0.01  -0.00   0.15    -0.00  -0.00   0.07    -0.00   0.00   0.03
  33   1    -0.00  -0.00   0.00    -0.00  -0.00  -0.00     0.00  -0.00  -0.00
  34   1     0.01  -0.00  -0.15     0.00  -0.00  -0.07     0.00   0.00  -0.03
  35   1    -0.00   0.00   0.06    -0.00   0.00   0.03     0.00  -0.00  -0.11
  36   1    -0.00  -0.00  -0.00    -0.00  -0.00  -0.00    -0.00  -0.00   0.00
  37   6     0.00  -0.00  -0.00     0.00   0.00  -0.00     0.00   0.00  -0.00
  38   6     0.00   0.00   0.00     0.00   0.00  -0.00     0.00  -0.00  -0.00
  39   6    -0.00  -0.00   0.00     0.00   0.00  -0.00     0.00  -0.00   0.00
  40   6    -0.00   0.00  -0.00     0.00  -0.00   0.00     0.00   0.00   0.00
  41  26    -0.00   0.00   0.00     0.00  -0.00   0.00    -0.00  -0.01  -0.00
  42   6    -0.01   0.00  -0.08     0.01  -0.00   0.18    -0.00   0.00  -0.12
  43   6     0.01  -0.00   0.11    -0.01   0.01  -0.23     0.00   0.00   0.01
  44   6     0.00  -0.00   0.06    -0.01   0.01  -0.13     0.01  -0.00   0.16
  45   6    -0.00  -0.00  -0.00     0.00   0.00   0.00     0.00  -0.00   0.00
  46   6    -0.00  -0.00  -0.06     0.01   0.00   0.13    -0.01  -0.00  -0.16
  47   6    -0.00  -0.00  -0.11     0.01   0.01   0.23    -0.00   0.00  -0.01
  48   6     0.00   0.00   0.08    -0.01  -0.00  -0.17     0.00   0.00   0.12
  49   6     0.01   0.00   0.12    -0.01  -0.00  -0.24    -0.00  -0.00  -0.05
  50   7     0.00   0.00   0.06    -0.01  -0.00  -0.13    -0.01  -0.00  -0.23
  51   6    -0.00   0.00  -0.00     0.00  -0.00   0.00    -0.00  -0.00   0.01
  52   6    -0.01  -0.00  -0.12     0.02   0.00   0.25     0.00   0.00   0.05
  53   6    -0.01  -0.00  -0.07     0.01   0.00   0.15    -0.01  -0.00  -0.12
  54   6     0.01   0.00   0.11    -0.02  -0.00  -0.24    -0.00   0.00   0.00
  55   6     0.00   0.00   0.04    -0.01  -0.00  -0.10     0.01   0.00   0.15
  56   7    -0.01  -0.00  -0.09     0.01   0.00   0.17     0.02   0.00   0.22
  57   6     0.00   0.00   0.00    -0.00  -0.00  -0.00    -0.00   0.00   0.00
  58   6    -0.00   0.00  -0.04     0.01  -0.00   0.10    -0.01   0.01  -0.15
  59   6    -0.01   0.00  -0.11     0.02  -0.00   0.23     0.00   0.00  -0.00
  60   6     0.01  -0.00   0.07    -0.01   0.00  -0.15     0.01  -0.00   0.12
  61   6     0.01  -0.00   0.12    -0.02   0.00  -0.25    -0.00   0.00  -0.05
  62   7     0.01  -0.00   0.09    -0.01   0.00  -0.17    -0.02   0.00  -0.22
  63   6     0.00   0.00   0.00    -0.00  -0.00  -0.00     0.00  -0.00  -0.01
  64   6    -0.01   0.00  -0.11     0.01  -0.01   0.24     0.00  -0.00   0.05
  65   7    -0.00   0.00  -0.06     0.01  -0.00   0.12     0.01  -0.01   0.23
  66   1    -0.00   0.00  -0.04     0.00  -0.00   0.08    -0.00   0.00  -0.09
  67   1     0.00  -0.00   0.07    -0.01   0.00  -0.14    -0.00   0.00  -0.02
  68   1    -0.00  -0.00  -0.07     0.01   0.00   0.14     0.00   0.00   0.02
  69   1     0.00   0.00   0.04    -0.00  -0.00  -0.08     0.00   0.00   0.09
  70   1    -0.00   0.00   0.00     0.00  -0.00  -0.00     0.00  -0.00   0.00
  71   1    -0.00  -0.00  -0.03     0.01   0.00   0.06    -0.01  -0.00  -0.09
  72   1     0.01   0.00   0.07    -0.01  -0.00  -0.15    -0.00   0.00  -0.02
  73   1     0.00   0.00   0.00    -0.00  -0.00  -0.00     0.00  -0.00   0.00
  74   1    -0.01   0.00  -0.07     0.01  -0.00   0.14     0.00   0.00   0.02
  75   1     0.00  -0.00   0.03    -0.01   0.00  -0.06     0.01  -0.00   0.09
  76   1     0.00   0.00  -0.00    -0.00  -0.00   0.00    -0.00  -0.00  -0.00
                     34                     35                     36
                        a                      a                      a 
 Frequencies --   257.5749               274.5980               278.7779
 Red. masses --    12.0672                15.0093                33.0291
 Frc consts  --     0.0000                 0.0000                 0.0000
 IR Inten    --     1.2394                 4.2636                 0.5312
 Raman Activ --     0.0000                 0.0000                 0.0000
 Depolar     --     0.0000                 0.0000                 0.0000
 Atom AN      X      Y      Z        X      Y      Z        X      Y      Z
   1  26    -0.00  -0.00   0.00    -0.01   0.00   0.20     0.00  -0.56  -0.00
   2   6    -0.00   0.00   0.12    -0.00   0.00   0.07     0.06   0.08   0.00
   3   6     0.00   0.00  -0.01     0.00   0.00  -0.11    -0.03   0.16  -0.00
   4   6     0.00  -0.00  -0.17     0.00   0.00  -0.14    -0.09   0.11  -0.00
   5   6     0.00  -0.00  -0.00    -0.00  -0.00   0.04    -0.00   0.07   0.00
   6   6    -0.00  -0.00   0.17     0.00   0.00  -0.14     0.09   0.11   0.00
   7   6    -0.00   0.00   0.01     0.00  -0.00  -0.11     0.02   0.16   0.00
   8   6     0.00   0.00  -0.12    -0.00  -0.00   0.07    -0.06   0.08  -0.00
[...]
  74   1    -0.01  -0.00   0.00    -0.00  -0.00   0.00    -0.01  -0.00   0.00
  75   1    -0.00  -0.00  -0.00     0.00   0.00   0.00     0.00   0.00   0.00
  76   1     0.00   0.00   0.00     0.00   0.01   0.00     0.00   0.01   0.00
                    214                    215                    216
                        a                      a                      a 
 Frequencies --  3153.6060              3160.5753              3160.7297
 Red. masses --     1.8132                 1.9740                 1.9745
 Frc consts  --     0.0000                 0.0000                 0.0000
 IR Inten    --    44.5486                67.2735                67.8303
 Raman Activ --     0.0000                 0.0000                 0.0000
 Depolar     --     0.0000                 0.0000                 0.0000
 Atom AN      X      Y      Z        X      Y      Z        X      Y      Z
   1  26     0.00   0.00   0.00    -0.00  -0.00  -0.00     0.00  -0.00  -0.00
   2   6    -0.01   0.09  -0.00     0.00   0.00   0.00    -0.00   0.00  -0.00
   3   6     0.05  -0.00   0.00    -0.00   0.00  -0.00     0.01  -0.00   0.00
   4   6     0.00   0.00   0.00    -0.00  -0.00  -0.00     0.00   0.00   0.00
   5   6     0.00   0.00  -0.00     0.00  -0.00   0.00    -0.00   0.00   0.00
   6   6     0.00  -0.00   0.00     0.00   0.00   0.00    -0.00   0.00   0.00
   7   6     0.04   0.00   0.00    -0.00  -0.00  -0.00    -0.01  -0.00  -0.00
   8   6    -0.01  -0.07  -0.00    -0.00  -0.00  -0.00     0.00   0.00   0.00
   9   6     0.00  -0.00   0.00     0.00   0.00   0.00    -0.00   0.00  -0.00
  10   7    -0.00   0.00  -0.00     0.00   0.00   0.00     0.00  -0.00   0.00
  11   6     0.00  -0.00  -0.00     0.00  -0.00  -0.00    -0.00   0.00   0.00
  12   6    -0.00  -0.00  -0.00    -0.00  -0.00  -0.00     0.01   0.00   0.00
  13   6    -0.00   0.00   0.00     0.00  -0.02  -0.00    -0.02   0.16   0.00
  14   6    -0.00   0.00  -0.00     0.02  -0.00   0.00    -0.13   0.00  -0.01
  15   6    -0.00  -0.00  -0.00     0.00   0.00   0.00    -0.00  -0.01  -0.00
  16   7     0.00   0.00   0.00    -0.00   0.00  -0.00     0.00  -0.00   0.00
  17   6    -0.00  -0.00  -0.00     0.00   0.00   0.00    -0.00   0.00   0.00
  18   6    -0.00   0.00  -0.00     0.00  -0.00   0.00     0.00  -0.00   0.00
  19   6    -0.01  -0.00  -0.00     0.02   0.00   0.00     0.13   0.00   0.01
  20   6    -0.00  -0.00   0.00     0.00   0.02   0.00     0.02   0.16   0.00
  21   6    -0.00   0.00  -0.00    -0.00   0.00  -0.00    -0.01   0.00  -0.00
  22   7     0.00  -0.00   0.00    -0.00  -0.00  -0.00    -0.00  -0.00  -0.00
  23   6     0.00   0.00  -0.00     0.00   0.00  -0.00     0.00   0.00  -0.00
  24   6     0.00   0.00   0.00    -0.00  -0.00  -0.00     0.00   0.00   0.00
  25   7    -0.00  -0.00  -0.00     0.00  -0.00   0.00    -0.00  -0.00  -0.00
  26   1     0.05  -0.31   0.00    -0.00   0.00  -0.00     0.00  -0.01   0.00
  27   1    -0.20   0.01  -0.01     0.00  -0.00   0.00    -0.03   0.00  -0.00
  28   1    -0.15  -0.01  -0.00     0.00   0.00   0.00     0.03   0.00   0.00
  29   1     0.03   0.23   0.00     0.00   0.00   0.00    -0.00  -0.01  -0.00
  30   1    -0.00   0.01   0.00     0.00   0.00   0.00    -0.00  -0.01  -0.00
  31   1     0.00  -0.01  -0.00    -0.01   0.08   0.00     0.08  -0.53  -0.00
  32   1     0.01  -0.00   0.00    -0.06   0.00  -0.00     0.42  -0.03   0.02
  33   1     0.00  -0.00   0.00    -0.00  -0.00  -0.00     0.00   0.00   0.00
  34   1     0.02   0.00   0.00    -0.06  -0.00  -0.00    -0.41  -0.03  -0.02
  35   1     0.00   0.01   0.00    -0.01  -0.08  -0.00    -0.07  -0.52  -0.00
  36   1    -0.00  -0.01   0.00     0.00  -0.00   0.00     0.00  -0.01   0.00
  37   6    -0.00   0.00  -0.00    -0.00   0.00   0.00     0.00  -0.00  -0.00
  38   6     0.00  -0.00  -0.00    -0.00  -0.00  -0.00    -0.00   0.00   0.00
  39   6    -0.00  -0.00  -0.00     0.00  -0.00   0.00    -0.00   0.00   0.00
  40   6     0.00   0.00  -0.00    -0.00   0.00   0.00     0.00  -0.00  -0.00
  41  26    -0.00  -0.00   0.00    -0.00   0.00   0.00     0.00   0.00  -0.00
  42   6     0.03  -0.20  -0.01     0.00  -0.00  -0.00    -0.00   0.00   0.00
  43   6    -0.12   0.01   0.01    -0.00   0.00   0.00     0.00  -0.00  -0.00
  44   6    -0.00  -0.00   0.00    -0.00  -0.00  -0.00     0.00  -0.00  -0.00
  45   6    -0.00  -0.00  -0.00     0.00  -0.00  -0.00    -0.00   0.00   0.00
  46   6    -0.00   0.00   0.00     0.00  -0.00  -0.00    -0.00   0.00   0.00
  47   6    -0.02  -0.00   0.00     0.01   0.00  -0.00    -0.00  -0.00   0.00
  48   6     0.00   0.04  -0.00    -0.00  -0.00   0.00     0.00   0.00  -0.00
  49   6    -0.00   0.00   0.00     0.00  -0.00  -0.00    -0.00   0.00   0.00
  50   7     0.00  -0.00  -0.00    -0.00   0.00   0.00    -0.00  -0.00   0.00
  51   6    -0.00   0.00  -0.00     0.00  -0.01   0.00    -0.00   0.00   0.00
  52   6    -0.00   0.00   0.00    -0.01  -0.00   0.00     0.00   0.00  -0.00
  53   6     0.00  -0.00   0.00     0.03  -0.21   0.00    -0.00   0.00  -0.00
  54   6     0.00   0.00  -0.00     0.17   0.00  -0.01    -0.00   0.00   0.00
  55   6     0.00   0.00  -0.00     0.00   0.01  -0.00     0.00  -0.00  -0.00
  56   7     0.00  -0.00   0.00    -0.00   0.00   0.00     0.00  -0.00  -0.00
  57   6     0.00   0.00  -0.00     0.00  -0.00  -0.00    -0.00  -0.00   0.00
  58   6     0.00  -0.00  -0.00    -0.00   0.00   0.00    -0.00   0.00   0.00
  59   6     0.01   0.00  -0.00    -0.07  -0.00   0.01    -0.00  -0.00   0.00
  60   6    -0.00   0.00   0.00    -0.01  -0.09  -0.00    -0.00  -0.00  -0.00
  61   6     0.00  -0.00  -0.00     0.00  -0.00  -0.00     0.00  -0.00  -0.00
  62   7    -0.00   0.00   0.00     0.00   0.00  -0.00     0.00   0.00  -0.00
  63   6    -0.00  -0.01  -0.00    -0.00  -0.00  -0.00    -0.00  -0.00  -0.00
  64   6    -0.01  -0.00   0.00    -0.00  -0.00   0.00     0.00   0.00  -0.00
  65   7     0.00   0.00   0.00     0.00   0.00  -0.00     0.00   0.00   0.00
  66   1    -0.11   0.69   0.03    -0.00   0.01   0.00     0.00  -0.00  -0.00
  67   1     0.44  -0.03  -0.02     0.02  -0.00  -0.00    -0.00   0.00   0.00
  68   1     0.09   0.01  -0.00    -0.03  -0.00   0.00     0.00   0.00  -0.00
  69   1    -0.02  -0.13   0.00     0.00   0.01  -0.00    -0.00  -0.00   0.00
  70   1     0.00  -0.00   0.00     0.00   0.02  -0.00    -0.00  -0.00   0.00
  71   1    -0.00   0.00   0.00    -0.11   0.68   0.00     0.00  -0.00  -0.00
  72   1    -0.01   0.00   0.00    -0.52   0.03   0.05     0.00  -0.00  -0.00
  73   1    -0.00   0.00   0.00    -0.01  -0.00   0.00     0.00  -0.00  -0.00
  74   1    -0.03  -0.00   0.00     0.23   0.02  -0.02     0.01   0.00  -0.00
  75   1    -0.00  -0.01  -0.00     0.04   0.30   0.00     0.00   0.01   0.00
  76   1     0.00   0.02   0.00    -0.00   0.01   0.00    -0.00   0.00   0.00
                    217                    218                    219
                        a                      a                      a 
 Frequencies --  3160.8765              3161.3255              3167.1659
 Red. masses --     1.9754                 1.9745                 1.9679
 Frc consts  --     0.0000                 0.0000                 0.0000
 IR Inten    --    72.7909                 4.5495              1466.3064
 Raman Activ --     0.0000                 0.0000                 0.0000
 Depolar     --     0.0000                 0.0000                 0.0000
 Atom AN      X      Y      Z        X      Y      Z        X      Y      Z
   1  26    -0.00  -0.00  -0.00     0.00   0.00   0.00     0.00  -0.00   0.00
   2   6    -0.00   0.00  -0.00     0.00  -0.00   0.00    -0.00   0.05  -0.00
   3   6     0.00  -0.00   0.00    -0.01   0.00  -0.00    -0.07   0.00  -0.00
   4   6     0.00   0.00  -0.00    -0.00  -0.00   0.00    -0.00  -0.00   0.00
   5   6     0.00   0.00   0.00    -0.00  -0.00  -0.00    -0.00   0.00  -0.00
   6   6     0.00  -0.00  -0.00    -0.00   0.00   0.00    -0.00   0.00   0.00
   7   6     0.00   0.00   0.00    -0.01  -0.00  -0.00    -0.03  -0.00  -0.00
   8   6    -0.00  -0.00  -0.00     0.00  -0.00   0.00    -0.00  -0.02  -0.00
   9   6     0.00  -0.00  -0.00     0.00   0.00   0.00     0.00  -0.00   0.00
  10   7     0.00   0.00   0.00     0.00  -0.00  -0.00     0.00   0.00   0.00
  11   6     0.00  -0.00  -0.00    -0.00   0.00   0.00    -0.00  -0.00  -0.00
  12   6    -0.00  -0.00  -0.00     0.00   0.00   0.00     0.00   0.00   0.00
  13   6     0.01  -0.10  -0.00    -0.01   0.12   0.00    -0.00   0.00   0.00
  14   6     0.08  -0.00   0.00    -0.10   0.00  -0.00    -0.00   0.00  -0.00
  15   6     0.00   0.00   0.00    -0.00  -0.00  -0.00    -0.00  -0.00  -0.00
  16   7    -0.00   0.00  -0.00     0.00  -0.00   0.00    -0.00   0.00  -0.00
  17   6     0.00   0.00   0.00    -0.00  -0.00  -0.00    -0.00  -0.00  -0.00
  18   6     0.00  -0.00   0.00    -0.00   0.00  -0.00    -0.00   0.00   0.00
  19   6     0.09   0.00   0.00    -0.10  -0.00  -0.00    -0.00  -0.00  -0.00
  20   6     0.01   0.11   0.00    -0.01  -0.12  -0.00    -0.00  -0.00  -0.00
  21   6    -0.00   0.00  -0.00     0.00  -0.00   0.00     0.00  -0.00   0.00
  22   7    -0.00  -0.00  -0.00     0.00   0.00   0.00    -0.00  -0.00  -0.00
  23   6     0.00   0.00  -0.00    -0.00  -0.00   0.00    -0.00   0.00  -0.00
  24   6     0.00   0.00   0.00     0.00  -0.00   0.00     0.00   0.00   0.00
  25   7     0.00  -0.00   0.00     0.00   0.00  -0.00     0.00  -0.00   0.00
  26   1     0.00  -0.00   0.00    -0.00   0.00  -0.00     0.02  -0.15   0.00
  27   1    -0.01   0.00  -0.00     0.03  -0.00   0.00     0.23  -0.02   0.01
  28   1    -0.00  -0.00  -0.00     0.03   0.00   0.00     0.11   0.01   0.00
  29   1     0.00   0.00   0.00    -0.00  -0.00  -0.00     0.01   0.07   0.00
  30   1     0.00   0.01   0.00    -0.00  -0.01  -0.00    -0.00   0.00  -0.00
  31   1    -0.05   0.32   0.00     0.06  -0.39  -0.00     0.00  -0.01  -0.00
  32   1    -0.27   0.02  -0.01     0.32  -0.02   0.01     0.00  -0.00   0.00
  33   1    -0.01  -0.00  -0.00     0.02   0.00   0.00     0.00   0.00   0.00
  34   1    -0.28  -0.02  -0.01     0.32   0.02   0.01     0.00   0.00   0.00
  35   1    -0.05  -0.34  -0.00     0.06   0.39   0.00     0.00   0.01   0.00
  36   1     0.00  -0.01   0.00    -0.00   0.01  -0.00    -0.00  -0.00   0.00
  37   6    -0.00  -0.00   0.00     0.00  -0.00   0.00     0.00  -0.00   0.00
  38   6    -0.00   0.00  -0.00    -0.00   0.00   0.00     0.00   0.00   0.00
  39   6     0.00   0.00   0.00     0.00   0.00   0.00    -0.00   0.00  -0.00
  40   6    -0.00   0.00  -0.00    -0.00   0.00   0.00     0.00  -0.00  -0.00
  41  26    -0.00  -0.00   0.00    -0.00  -0.00   0.00     0.00   0.00  -0.00
  42   6    -0.00   0.00   0.00    -0.00   0.00   0.00    -0.00   0.00   0.00
  43   6     0.00  -0.00  -0.00     0.01  -0.00  -0.00    -0.00   0.00   0.00
  44   6     0.00   0.00   0.00     0.00   0.00   0.00     0.00  -0.00  -0.00
  45   6     0.00   0.00  -0.00     0.00   0.00  -0.00    -0.00  -0.00   0.00
  46   6     0.00   0.00   0.00     0.00  -0.00  -0.00    -0.00   0.01   0.00
  47   6    -0.00  -0.00   0.00     0.01   0.00  -0.00    -0.22  -0.01   0.01
  48   6    -0.00  -0.00   0.00    -0.00   0.00  -0.00    -0.01  -0.16   0.00
  49   6     0.00   0.00  -0.00    -0.00  -0.00   0.00     0.01  -0.00  -0.00
  50   7     0.00   0.00  -0.00    -0.00   0.00   0.00     0.00   0.00  -0.00
  51   6     0.00  -0.00  -0.00     0.00  -0.00   0.00    -0.00  -0.00   0.00
  52   6    -0.00  -0.00   0.00    -0.00  -0.00   0.00    -0.00  -0.00   0.00
  53   6     0.01  -0.05   0.00     0.01  -0.08   0.00     0.00  -0.01   0.00
  54   6     0.04  -0.00  -0.00     0.07  -0.00  -0.01     0.00   0.00  -0.00
  55   6     0.00   0.00  -0.00     0.00   0.00  -0.00     0.00   0.00  -0.00
  56   7    -0.00   0.00   0.00    -0.00   0.00   0.00    -0.00   0.00   0.00
  57   6     0.00   0.00  -0.00     0.00   0.00  -0.00     0.00  -0.00  -0.00
  58   6     0.00  -0.01  -0.00     0.00  -0.00  -0.00    -0.00   0.00  -0.00
  59   6     0.14   0.01  -0.01     0.10   0.00  -0.01     0.00   0.00   0.00
  60   6     0.02   0.17   0.00     0.01   0.12   0.00    -0.00  -0.00  -0.00
  61   6    -0.01   0.00   0.00    -0.00   0.00   0.00     0.00  -0.00  -0.00
  62   7    -0.00  -0.00   0.00    -0.00  -0.00   0.00    -0.00  -0.00   0.00
  63   6     0.00   0.00   0.00     0.00   0.00   0.00    -0.00  -0.00  -0.00
  64   6     0.00   0.00  -0.00    -0.00   0.00   0.00     0.00  -0.00  -0.00
  65   7    -0.00  -0.00  -0.00    -0.00  -0.00   0.00     0.00  -0.00  -0.00
  66   1     0.00  -0.01  -0.00     0.00  -0.00  -0.00     0.00  -0.00  -0.00
  67   1    -0.02   0.00   0.00    -0.03   0.00   0.00     0.01  -0.00  -0.00
  68   1     0.01   0.00  -0.00    -0.03  -0.00   0.00     0.73   0.07  -0.04
  69   1     0.00   0.00  -0.00    -0.00  -0.00   0.00     0.06   0.52  -0.01
  70   1     0.00   0.00  -0.00     0.00   0.01  -0.00    -0.00   0.01  -0.00
  71   1    -0.03   0.16   0.00    -0.04   0.27   0.00    -0.00   0.02   0.00
  72   1    -0.13   0.01   0.01    -0.21   0.01   0.02    -0.01   0.00   0.00
  73   1    -0.01   0.00   0.00    -0.01  -0.00   0.00    -0.00  -0.00   0.00
  74   1    -0.44  -0.04   0.04    -0.32  -0.03   0.03    -0.00  -0.00   0.00
  75   1    -0.07  -0.54  -0.01    -0.05  -0.40  -0.00     0.00   0.01   0.00
  76   1     0.00  -0.01  -0.00     0.00  -0.01  -0.00    -0.00   0.00   0.00
                    220                    221                    222
                        a                      a                      a 
 Frequencies --  3167.6324              3168.3646              3168.7476
 Red. masses --     1.9665                 1.9649                 1.9646
 Frc consts  --     0.0000                 0.0000                 0.0000
 IR Inten    --   856.0020               600.2452                49.7846
 Raman Activ --     0.0000                 0.0000                 0.0000
 Depolar     --     0.0000                 0.0000                 0.0000
 Atom AN      X      Y      Z        X      Y      Z        X      Y      Z
   1  26     0.00   0.00   0.00     0.00  -0.00   0.00    -0.00   0.00  -0.00
   2   6     0.00  -0.02   0.00    -0.01   0.14  -0.00     0.01  -0.07   0.00
   3   6     0.02  -0.00   0.00    -0.21   0.01  -0.01     0.10  -0.00   0.00
   4   6     0.00   0.00   0.00    -0.00  -0.01   0.00     0.00   0.00  -0.00
   5   6    -0.00  -0.00  -0.00    -0.00   0.00  -0.00     0.00  -0.00   0.00
   6   6    -0.00   0.01   0.00     0.00  -0.00  -0.00     0.00  -0.00  -0.00
   7   6    -0.22  -0.01  -0.01     0.03   0.00   0.00     0.09   0.00   0.00
   8   6    -0.01  -0.15  -0.00     0.00   0.02   0.00     0.01   0.06   0.00
   9   6     0.01  -0.00   0.00    -0.00   0.00  -0.00    -0.00   0.00  -0.00
  10   7     0.00   0.00   0.00    -0.00  -0.00  -0.00    -0.00  -0.00  -0.00
  11   6    -0.00  -0.00  -0.00     0.00   0.00   0.00     0.00   0.00   0.00
  12   6    -0.00  -0.00  -0.00     0.00   0.00   0.00     0.00   0.00   0.00
  13   6     0.00  -0.01  -0.00    -0.00   0.00   0.00    -0.00   0.01   0.00
  14   6     0.00  -0.00   0.00     0.00  -0.00   0.00    -0.00   0.00  -0.00
  15   6     0.00   0.00   0.00    -0.00  -0.00   0.00    -0.00  -0.00  -0.00
  16   7    -0.00   0.00  -0.00    -0.00   0.00  -0.00     0.00  -0.00   0.00
  17   6     0.00  -0.00   0.00     0.00   0.00   0.00    -0.00   0.00  -0.00
  18   6    -0.00   0.00   0.00     0.00  -0.00   0.00    -0.00   0.00  -0.00
  19   6     0.00   0.00   0.00     0.00   0.00   0.00    -0.00  -0.00  -0.00
  20   6    -0.00  -0.00  -0.00     0.00   0.01  -0.00    -0.00  -0.01   0.00
  21   6     0.00  -0.00   0.00    -0.00   0.00  -0.00     0.00  -0.00   0.00
  22   7    -0.00  -0.00  -0.00    -0.00  -0.00  -0.00     0.00   0.00   0.00
  23   6     0.00  -0.00   0.00    -0.00   0.00  -0.00     0.00  -0.00   0.00
  24   6    -0.00  -0.00  -0.00     0.01   0.00   0.00    -0.00  -0.00  -0.00
  25   7    -0.00   0.00  -0.00     0.00  -0.00   0.00    -0.00   0.00  -0.00
  26   1    -0.01   0.05  -0.00     0.06  -0.44   0.01    -0.03   0.22  -0.00
  27   1    -0.07   0.00  -0.00     0.68  -0.05   0.02    -0.34   0.02  -0.01
  28   1     0.72   0.06   0.02    -0.10  -0.01  -0.00    -0.30  -0.02  -0.01
  29   1     0.07   0.48   0.01    -0.01  -0.07  -0.00    -0.03  -0.19  -0.00
  30   1    -0.00   0.01   0.00     0.00  -0.00  -0.00     0.00  -0.01  -0.00
  31   1    -0.00   0.02   0.00     0.00  -0.01  -0.00     0.00  -0.02  -0.00
  32   1    -0.01   0.00  -0.00    -0.00   0.00  -0.00     0.01  -0.00   0.00
  33   1    -0.00  -0.00  -0.00    -0.00   0.00  -0.00     0.00   0.00   0.00
  34   1    -0.00  -0.00  -0.00    -0.01  -0.00  -0.00     0.01   0.00   0.00
  35   1     0.00   0.01   0.00    -0.00  -0.02  -0.00     0.00   0.02   0.00
  36   1     0.00   0.00  -0.00    -0.00  -0.01   0.00     0.00   0.01  -0.00
  37   6     0.00  -0.00  -0.00     0.00   0.00   0.00    -0.00   0.00   0.00
  38   6    -0.00   0.00   0.00    -0.00  -0.00   0.00     0.00  -0.00  -0.00
  39   6     0.00  -0.00  -0.00     0.00  -0.00  -0.00    -0.00  -0.00  -0.00
  40   6     0.00   0.00  -0.00     0.00   0.00  -0.00     0.00   0.00  -0.00
  41  26     0.00  -0.00  -0.00     0.00  -0.00   0.00     0.00  -0.00  -0.00
  42   6    -0.01   0.06   0.00    -0.01   0.07   0.00    -0.01   0.13   0.00
  43   6    -0.10   0.00   0.01    -0.11   0.00   0.01    -0.20   0.00   0.01
  44   6    -0.00  -0.00  -0.00    -0.00  -0.00  -0.00    -0.00  -0.01  -0.00
  45   6    -0.00   0.00   0.00    -0.00   0.00   0.00    -0.00   0.00   0.00
  46   6     0.00  -0.00  -0.00     0.00  -0.00  -0.00    -0.00   0.00   0.00
  47   6     0.03   0.00  -0.00     0.06   0.00  -0.00    -0.04  -0.00   0.00
  48   6     0.00   0.02  -0.00     0.00   0.04  -0.00    -0.00  -0.03   0.00
  49   6    -0.00   0.00   0.00    -0.00   0.00   0.00     0.00  -0.00  -0.00
  50   7    -0.00  -0.00   0.00    -0.00  -0.00   0.00     0.00   0.00  -0.00
  51   6     0.00   0.00  -0.00     0.00   0.00  -0.00    -0.00  -0.00   0.00
  52   6     0.00   0.00  -0.00     0.00   0.00  -0.00    -0.00  -0.00   0.00
  53   6    -0.00   0.00  -0.00    -0.00   0.00  -0.00     0.00  -0.00   0.00
  54   6    -0.00  -0.00   0.00    -0.00  -0.00   0.00     0.00  -0.00  -0.00
  55   6    -0.00  -0.00   0.00    -0.00  -0.00   0.00     0.00   0.00  -0.00
  56   7    -0.00   0.00   0.00    -0.00  -0.00   0.00    -0.00   0.00   0.00
  57   6    -0.00   0.00   0.00    -0.00   0.00   0.00     0.00   0.00  -0.00
  58   6    -0.00   0.00   0.00     0.00  -0.00   0.00     0.00  -0.00  -0.00
  59   6    -0.00  -0.00   0.00     0.00  -0.00  -0.00     0.01   0.00  -0.00
  60   6    -0.00  -0.00  -0.00     0.00   0.00   0.00     0.00   0.01   0.00
  61   6     0.00  -0.00  -0.00    -0.00  -0.00   0.00    -0.00   0.00   0.00
  62   7    -0.00  -0.00   0.00    -0.00  -0.00   0.00    -0.00  -0.00   0.00
  63   6    -0.00   0.00   0.00    -0.00   0.00   0.00    -0.00   0.00   0.00
  64   6     0.00   0.00  -0.00     0.00   0.00  -0.00     0.01   0.00  -0.00
  65   7     0.00  -0.00  -0.00     0.00  -0.00  -0.00     0.00  -0.00  -0.00
  66   1     0.03  -0.20  -0.01     0.04  -0.22  -0.01     0.07  -0.41  -0.02
  67   1     0.31  -0.02  -0.02     0.35  -0.02  -0.02     0.65  -0.04  -0.04
  68   1    -0.08  -0.01   0.00    -0.19  -0.02   0.01     0.13   0.01  -0.01
  69   1    -0.01  -0.06   0.00    -0.02  -0.13   0.00     0.01   0.09  -0.00
  70   1     0.00  -0.00   0.00     0.00  -0.00   0.00    -0.00   0.00  -0.00
  71   1     0.00  -0.01  -0.00     0.00  -0.01  -0.00    -0.00   0.01   0.00
  72   1     0.01  -0.00  -0.00     0.01  -0.00  -0.00    -0.01   0.00   0.00
  73   1     0.00   0.00  -0.00     0.00   0.00  -0.00    -0.00   0.00   0.00
  74   1     0.00   0.00  -0.00    -0.00  -0.00   0.00    -0.02  -0.00   0.00
  75   1     0.00   0.00   0.00    -0.00  -0.00  -0.00    -0.00  -0.02  -0.00
  76   1    -0.00  -0.00  -0.00    -0.00  -0.00  -0.00    -0.00  -0.01  -0.00
