76
 energy: -133.472739667191 gnorm: 4.336697776179 xtb: 6.4.1 (bd6e46d)
Fe        8.41034900000000    0.02446900000000   -0.00463200000000
C        10.73934000000000   -3.12232400000000    1.31805700000000
C        11.65544700000000   -2.17811600000000    1.26777500000000
C        11.24426800000000   -1.12421200000000    0.34648300000000
C        11.86313800000000    0.00013400000000    0.00007300000000
C        11.15909600000000    1.22008200000000   -0.36403200000000
C        11.48720700000000    2.18013700000000   -1.21150600000000
C        10.45242700000000    3.19642200000000   -1.22840400000000
C         9.51615900000000    2.81996000000000   -0.38151200000000
N         9.91814900000000    1.58694900000000    0.18230500000000
C         8.25508400000000    3.46496000000000   -0.00236000000000
C         7.15986700000000    2.83017700000000    0.34840000000000
C         6.08624200000000    3.14813300000000    1.31742800000000
C         5.24867900000000    2.15137900000000    1.24026200000000
C         5.68697600000000    1.14769600000000    0.25981000000000
N         6.79191400000000    1.58654900000000   -0.22448200000000
C         5.07614100000000   -0.10557500000000   -0.15373800000000
C         5.74030200000000   -1.21008100000000   -0.40816300000000
C         5.36645300000000   -2.27302300000000   -1.36569000000000
C         6.31520000000000   -3.16677900000000   -1.27667100000000
C         7.30092400000000   -2.72932900000000   -0.29379300000000
N         6.94787800000000   -1.58352400000000    0.20300400000000
C         8.53181200000000   -3.38539900000000    0.15192800000000
C         9.65485400000000   -2.73953800000000    0.41904900000000
N         9.98345400000000   -1.49209700000000   -0.17935500000000
H        10.79960200000000   -4.03210400000000    1.93560300000000
H        12.57177500000000   -2.21806600000000    1.84582300000000
H        12.41457200000000    2.19693300000000   -1.81264900000000
H        10.46932600000000    4.10111100000000   -1.84102500000000
H         8.20736200000000    4.55976200000000   -0.00613800000000
H         6.03342000000000    4.02685800000000    1.94242000000000
H         4.33704800000000    2.11571000000000    1.85758600000000
H         3.97789100000000   -0.10266400000000   -0.25300900000000
H         4.49759800000000   -2.32548800000000   -2.01464000000000
H         6.31235400000000   -4.08308700000000   -1.87543000000000
H         8.49633000000000   -4.48120100000000    0.26385300000000
C        12.73429200000000   -0.00240700000000   -0.00131500000000
C        13.94226900000000    0.00504700000000    0.00038000000000
C        15.36103700000000    0.00574400000000    0.00551700000000
C        16.57655400000000   -0.00240700000000   -0.00131500000000
Fe       20.93163600000000   -0.00913300000000   -0.16358000000000
C        18.38576700000000    3.22821100000000    1.12827000000000
C        17.45940800000000    2.30103600000000    0.98372300000000
C        18.06142100000000    1.13225600000000    0.32697900000000
C        17.46846800000000    0.00013400000000    0.00007300000000
C        18.10078300000000   -1.31305300000000   -0.02181800000000
C        17.58011900000000   -2.53261500000000    0.09969400000000
C        18.61566600000000   -3.53389700000000    0.01112700000000
C        19.76904200000000   -2.87842800000000   -0.16658500000000
N        19.48258800000000   -1.50770300000000   -0.19091100000000
C        21.11066600000000   -3.45005000000000   -0.31492400000000
C        22.25286000000000   -2.84482000000000   -0.14557800000000
C        23.53157100000000   -3.26367200000000    0.49097900000000
C        24.33144700000000   -2.25802400000000    0.35276900000000
C        23.68308500000000   -1.13245400000000   -0.35657500000000
N        22.49295700000000   -1.52999800000000   -0.61488800000000
C        24.19241100000000    0.18189900000000   -0.74339700000000
C        23.53302800000000    1.31106000000000   -0.64646700000000
C        23.93083500000000    2.59576500000000   -1.26687700000000
C        23.02363800000000    3.45889100000000   -0.92573600000000
C        22.01708000000000    2.79067800000000   -0.08734200000000
N        22.34700500000000    1.55198000000000    0.05009500000000
C        20.82163200000000    3.36193800000000    0.52621800000000
C        19.65501000000000    2.75155200000000    0.58571200000000
N        19.40399400000000    1.44918800000000    0.10138200000000
H        18.19414300000000    4.21041200000000    1.59604600000000
H        16.41709300000000    2.42588800000000    1.31565900000000
H        16.49410300000000   -2.69963900000000    0.24787100000000
H        18.44359000000000   -4.59540700000000    0.08067200000000
H        21.17159300000000   -4.51816600000000   -0.60100300000000
H        23.68472000000000   -4.22699200000000    0.95208100000000
H        25.35375300000000   -2.26078100000000    0.71973700000000
H        25.22647700000000    0.14857000000000   -1.14034300000000
H        24.80690000000000    2.79844500000000   -1.88984500000000
H        23.06329100000000    4.51013100000000   -1.24736400000000
H        20.90823000000000    4.35161300000000    0.95677700000000
76
 energy: -134.643160401517 gnorm: 0.664711759549 xtb: 6.4.1 (bd6e46d)
Fe        8.41134213231477    0.02480872526270   -0.00423046008484
C        10.73632427402818   -3.12738184163218    1.31674726850002
C        11.65960334876489   -2.17446789742949    1.26670128952850
C        11.20879017988138   -1.14360269643910    0.35089222977230
C        11.69571099785253    0.00603282254948   -0.00009531619766
C        11.13161777033082    1.22682038955854   -0.36231268184599
C        11.49084896925820    2.18898235939073   -1.21852468580454
C        10.46236882196484    3.19867475989236   -1.23452226164046
C         9.51094122018694    2.81513250844169   -0.37687280709873
N         9.91052136521847    1.58534336968022    0.18276402855820
C         8.26228247403499    3.46757583339209   -0.00377716979358
C         7.15286654955305    2.82472188210136    0.34976553082577
C         6.09007546009033    3.15202340501922    1.31363678651030
C         5.23974100258749    2.14703427430265    1.24212582506535
C         5.68267026935003    1.14775881847542    0.26451145151231
N         6.80203484773926    1.58476492103126   -0.22393930033714
C         5.07113190779324   -0.09678244034487   -0.15122652286257
C         5.74304919119941   -1.21524363458590   -0.41042669712283
C         5.36278943939573   -2.26974147428236   -1.36301726754303
C         6.31916593833221   -3.17419729662921   -1.27681157682476
C         7.30459980356033   -2.73508360474145   -0.29580906638120
N         6.94813695927512   -1.57642425546007    0.19981353306918
C         8.52335562860046   -3.38928101255382    0.14910105162005
C         9.65987469207589   -2.73510079066379    0.42023781287670
N         9.98133472299845   -1.49549532522318   -0.17236395326677
H        10.79832896469325   -4.03043244911097    1.93384953357424
H        12.57198293759550   -2.21592491139145    1.84495777667665
H        12.41297478377135    2.19740474061983   -1.81197050709223
H        10.47004098321057    4.10001692330236   -1.84069435479381
H         8.20950764952922    4.55918290975749   -0.00496975560723
H         6.03431005324473    4.02642842067454    1.94172980026061
H         4.33758082624878    2.11420060014902    1.85661983345831
H         3.97905507461559   -0.10181845537548   -0.25376674263306
H         4.49823936213993   -2.32395665715501   -2.01337798824921
H         6.31413088946816   -4.08276642967384   -1.87432262266784
H         8.49576195379639   -4.47990132669336    0.26393950176773
C        12.89945118855140    0.00241554258913   -0.00276301231494
C        13.99971083390553    0.00617273998474    0.00018428255389
C        15.31070633663844    0.00478519239410    0.00432839591909
C        16.42415714694473   -0.00751680858968   -0.00479066106964
Fe       20.92996234029389   -0.00954642373167   -0.16350345989962
C        18.38824549596116    3.23339910393442    1.12989367674766
C        17.45604402894801    2.29777867049871    0.98211416587065
C        18.09463438162186    1.15244162919330    0.33149008980611
C        17.61913394804717   -0.00678279426606    0.00121793514758
C        18.12781198608290   -1.31864349537298   -0.02331571769253
C        17.57534196024058   -2.54142060520148    0.10041420642612
C        18.60587299344820   -3.53479167979610    0.01145146534770
C        19.77413208121708   -2.87330195898147   -0.17032975415148
N        19.48927615407241   -1.50668810783826   -0.19069221825343
C        21.10100888049079   -3.45418273074801   -0.31563428839593
C        22.26200146256666   -2.83810080212714   -0.14606980314979
C        23.52483183856793   -3.26840768525993    0.48702602214219
C        24.34034569341839   -2.25119853463759    0.35211220841268
C        23.68799106519882   -1.13364835648774   -0.35377061441779
N        22.48293983423791   -1.52807035199161   -0.61145162034400
C        24.19749676277236    0.17269609539299   -0.74314457224791
C        23.53145980278133    1.31628179375189   -0.64797903589715
C        23.93527023310344    2.59117844479850   -1.26733772290363
C        23.01927944261942    3.46681976024212   -0.92324557395160
C        22.01556919009654    2.79662264698230   -0.08703208888435
N        22.34586622162244    1.54468831822194    0.04707584666659
C        20.82880479805997    3.36444672318874    0.52441126770614
C        19.64862842937235    2.74612385360285    0.58669756509418
N        19.40668011317503    1.45218869649065    0.10376886588794
H        18.19585517984905    4.20869383820605    1.59491705137580
H        16.41892291272072    2.42371406295512    1.31426365656608
H        16.49645248708947   -2.70036325734547    0.24774264088645
H        18.44328365046308   -4.59522376244388    0.08080738379872
H        21.16948793808940   -4.51771667050373   -0.59725511924109
H        23.68407611454550   -4.22652840366384    0.95186624895460
H        25.35435775712207   -2.25936361338450    0.71979085865312
H        25.22486837680979    0.14908415721057   -1.13971091965694
H        24.80579707816788    2.79663537659250   -1.88876066566812
H        23.06141834383337    4.50915022674640   -1.24600620542812
H        20.90853407255255    4.35248000517867    0.95538570387600
76
 energy: -134.819494064480 gnorm: 0.377660347374 xtb: 6.4.1 (bd6e46d)
Fe        8.41348617638319    0.02414633120146   -0.00270326127245
C        10.73232658137831   -3.14575814216977    1.30776339161240
C        11.66145982785397   -2.18181182659345    1.26046884040494
C        11.14269927160563   -1.17261286789665    0.36718980055879
C        11.62118040939850    0.02719695555719    0.00298961470337
C        11.06437219391596    1.24590489689748   -0.36725580214311
C        11.48869163723411    2.22141721976649   -1.23441839688004
C        10.48664954218088    3.21030091109482   -1.24405470319866
C         9.49836155890774    2.80921862016872   -0.37577302715324
N         9.85358091280685    1.58122528054289    0.17343058058287
C         8.27752806782019    3.46925637741867   -0.00369351732672
C         7.14521507264718    2.80995719848569    0.35138119587587
C         6.08743477676749    3.15759727009031    1.29359984255443
C         5.21350630822991    2.14261622818423    1.24280732197224
C         5.67728656927521    1.14909698257165    0.28311121860880
N         6.83629908455906    1.56285371311603   -0.19789103573717
C         5.06062828433600   -0.07541238183683   -0.14345394008210
C         5.74545682413881   -1.21466426418565   -0.41784439523197
C         5.35616025370551   -2.27198151242187   -1.34682105547671
C         6.32322578074161   -3.19623584923462   -1.27184837283434
C         7.31102003631398   -2.74685686148785   -0.30651160675701
N         6.96039022992199   -1.55390203539498    0.16683089981857
C         8.49948894654001   -3.40539266298107    0.14262819318741
C         9.65008634091775   -2.74188650110669    0.42878351682596
N         9.93469164413082   -1.51270241657669   -0.13080993070359
H        10.78844128290160   -4.03018598240875    1.92654713312302
H        12.57337063921125   -2.20054897880846    1.83681876896204
H        12.40675151177201    2.20424524233059   -1.81161302991397
H        10.47947944370624    4.10153919811059   -1.84458637705533
H         8.22702110254246    4.55690083978290    0.00211904239029
H         6.04250957091807    4.02403673201250    1.93250730719099
H         4.32914998286182    2.10319287477369    1.85627755261895
H         3.97940350956702   -0.09105292971655   -0.25850571637680
H         4.50038439420393   -2.31270694289913   -2.00310813363547
H         6.32706143144113   -4.09035056158760   -1.87065197224358
H         8.48584502828501   -4.48326607145313    0.26284821222124
C        12.85058287754750    0.02237531655629   -0.00515216788718
C        14.05096220653291    0.01542412831472   -0.00162440663088
C        15.27122996707361   -0.00117788766459   -0.00032979246130
C        16.46118056382499   -0.02913982162020   -0.00197711226159
Fe       20.92354855626674   -0.00763911667100   -0.16447217118725
C        18.39680850295665    3.24675042227698    1.13434490387967
C        17.46158045902596    2.30249235173052    0.97050600399319
C        18.15716622224750    1.18476777517278    0.33881462156499
C        17.69330304112885   -0.03074028208342    0.00945497807435
C        18.19534642303466   -1.33576899249090   -0.03225645942151
C        17.57792635223647   -2.56569164271351    0.09634717178194
C        18.58410637537223   -3.53769265618491    0.00451841342731
C        19.78479164972430   -2.86920749339410   -0.18929718803268
N        19.53893212776965   -1.51016758430003   -0.18855192974773
C        21.08188935022035   -3.45963324608219   -0.31587589759308
C        22.27109568216455   -2.82179022454142   -0.15336810494775
C        23.51718160315109   -3.27124357942416    0.46110227668284
C        24.36290605699690   -2.23997567511572    0.34408255909734
C        23.69557754283884   -1.13742488678894   -0.34162232321141
N        22.45232763754473   -1.50732367245728   -0.57591085974603
C        24.20964658076403    0.15006761221448   -0.73898200526279
C        23.53058108034111    1.31603416216256   -0.65788234837813
C        23.94019123827232    2.58554408213950   -1.26085165076463
C        23.01564390814766    3.48488239560087   -0.90968021490952
C        22.01639137508778    2.80796044010272   -0.08647056951541
N        22.33429838426498    1.52715992831835    0.01873029413560
C        20.84795388138039    3.37659729213760    0.52045073375612
C        19.65343886057057    2.74569345895176    0.59696309400647
N        19.44727493639197    1.47134451316875    0.12006535494956
H        18.20789683909076    4.20822919341804    1.59282466917464
H        16.43004782694652    2.40635727166280    1.30256643793153
H        16.50900725963082   -2.70652518469959    0.24767300537489
H        18.43618184333485   -4.59667342698434    0.08197924501927
H        21.15166366199037   -4.52114280181175   -0.56773880402804
H        23.67516636006004   -4.22137736618796    0.94499850524831
H        25.36606276972465   -2.24854090783576    0.72130233248052
H        25.22379289858151    0.14758951326796   -1.13610105558244
H        24.80220737415201    2.78338369568058   -1.88268963793779
H        23.04760300069748    4.51290214005037   -1.23665363242646
H        20.91466249379060    4.36555267277796    0.94273357216515
76
 energy: -134.918272043451 gnorm: 0.209168779960 xtb: 6.4.1 (bd6e46d)
Fe        8.40636773769922    0.02291942105160    0.00273400937847
C        10.72360785742248   -3.16969170293240    1.29526693678622
C        11.65323772008364   -2.18500863260719    1.25354186811342
C        11.08037301861850   -1.18998534168160    0.38840153766887
C        11.56254585940323    0.04996359703621    0.00678762355280
C        10.98890299563773    1.26399108628861   -0.37396852086030
C        11.47728744303964    2.25425511542813   -1.24356201591440
C        10.50787589676312    3.22993691806579   -1.24692219730428
C         9.47601385760035    2.81309083604151   -0.38066289628122
N         9.77908572054179    1.57860452251836    0.13655258996504
C         8.28849856092921    3.47305395013939   -0.00406047832506
C         7.14354112477359    2.78964531774456    0.36065421726424
C         6.08454559568057    3.15965133898712    1.26813944788525
C         5.18579853396086    2.14164187052573    1.23486136386697
C         5.67489628212655    1.14630014497068    0.30788597627944
N         6.88095736433820    1.53142551541179   -0.15126915055931
C         5.05570038708444   -0.05431424198437   -0.13412860890386
C         5.75350488028842   -1.20853796432466   -0.43440273057982
C         5.35095518161200   -2.27416346785435   -1.32740679664859
C         6.32042783208911   -3.22014403098883   -1.26036423731242
C         7.31490058921525   -2.75881616631041   -0.32255013716465
N         6.98072061450445   -1.52262896360974    0.11427611573357
C         8.46763013315540   -3.42841781048264    0.13702642849283
C         9.62813494058236   -2.75811355824977    0.44741333659729
N         9.87669500628716   -1.52691892766164   -0.06683211212223
H        10.77587335319490   -4.04067765183797    1.91376877515567
H        12.57043836247767   -2.17830121982870    1.81848475224445
H        12.39499008495896    2.21106794742404   -1.80429004405952
H        10.48933961450924    4.11272222210319   -1.84622287586858
H         8.24367748032328    4.55580906103306    0.00724570545347
H         6.05125304796915    4.02100737427953    1.91389313848738
H         4.31430870764734    2.08960214870554    1.85035452803245
H         3.98167445695543   -0.07864328245071   -0.25819929088973
H         4.50052257986007   -2.29883634123952   -1.98570209743725
H         6.34067686667079   -4.10432188248986   -1.86156285808498
H         8.46757898338006   -4.49681531144525    0.25656236074496
C        12.82415274655213    0.04445409820317   -0.00954227053781
C        14.02355394845163    0.02639434372257   -0.00653358598725
C        15.28757077831931   -0.00854550090155   -0.00788089070613
C        16.48457850505825   -0.05399187586927    0.00573414027544
Fe       20.92074948417540   -0.00683749227215   -0.16705799029068
C        18.41549731211685    3.26162038685212    1.13759796018316
C        17.48087820926322    2.30214554231092    0.95591005048847
C        18.21651107507275    1.20819768157912    0.34427907715535
C        17.75552153120282   -0.05736931540890    0.02628353549848
C        18.27517466316554   -1.35201587210830   -0.03877835338418
C        17.59395012694171   -2.58652561958490    0.08755346537102
C        18.56825836130148   -3.54293548756887   -0.01124152732033
C        19.80576939142384   -2.87560407324102   -0.20882726092007
N        19.60144031100889   -1.52376106116144   -0.18501954320298
C        21.06724822370303   -3.46826785033296   -0.31076212066599
C        22.27568441248937   -2.80120034592399   -0.15644277123154
C        23.50735722431403   -3.26813094390964    0.42634225152328
C        24.38253540912258   -2.23014722582582    0.32522927366433
C        23.69935852446219   -1.13717880395599   -0.32265046221596
N        22.41497107154377   -1.48065895425615   -0.52298923278746
C        24.21644555693118    0.12780280791962   -0.73054518493046
C        23.52226525923100    1.31282938902222   -0.67653284967997
C        23.94172989205619    2.57751738096860   -1.25106432917771
C        23.01804148465240    3.49993104211313   -0.88802174490511
C        22.01936439522135    2.81933431850545   -0.08980343653551
N        22.31259603535457    1.50613425554474   -0.02797434206497
C        20.87542832026819    3.39628741248098    0.51614067499857
C        19.67082799422391    2.75399136564438    0.61474165704366
N        19.49521395128733    1.49148844105029    0.14793198609660
H        18.22845015702448    4.21351865058258    1.58957120479712
H        16.45153857196820    2.37856169581308    1.27981512756181
H        16.53316445266874   -2.70833118211887    0.24590434059633
H        18.43181947765721   -4.60103875638250    0.07918232770264
H        21.13377955353569   -4.52973144007747   -0.52300909577235
H        23.66386780271906   -4.21095715208067    0.92735532748870
H        25.37844525293323   -2.23455645933028    0.71580092729972
H        25.22398498640590    0.14691126483406   -1.12265208079141
H        24.79871607039161    2.76477690199999   -1.87253830941034
H        23.03217271519127    4.51909820644448   -1.21767365461707
H        20.92764808920534    4.39204433694378    0.91895204600434
76
 energy: -134.979695317874 gnorm: 0.126541229602 xtb: 6.4.1 (bd6e46d)
Fe        8.38056220470529    0.02092244095003    0.01602794938505
C        10.71171985150828   -3.19083365818098    1.28546872873682
C        11.63186818079285   -2.18267236276483    1.24517175783434
C        11.02509211301398   -1.18080689282237    0.41709894817038
C        11.52234747586663    0.06839540898785    0.00976745590895
C        10.91979600762919    1.26182657821214   -0.38606619288607
C        11.45898773318421    2.27420042899401   -1.24211961363411
C        10.51893097126092    3.25705027193124   -1.24410728904711
C         9.44332463902583    2.82817360451029   -0.39461788616009
N         9.69598222801855    1.57048619113478    0.06782437756876
C         8.28632050880365    3.48456461595284   -0.00476328948005
C         7.14956348696967    2.76851261558381    0.38358713312220
C         6.08062561222550    3.15838772587515    1.24903870618867
C         5.16470967188708    2.14430812804413    1.22025183169493
C         5.68024474385088    1.13555805136558    0.33659226167601
N         6.92735381572523    1.49875339318835   -0.08859089946705
C         5.06276793574937   -0.04101676532267   -0.12663083223975
C         5.77126478083260   -1.19751819075572   -0.46267002283934
C         5.34658977550492   -2.27500179638296   -1.31468035033001
C         6.30648955404466   -3.24052084391087   -1.24563511950182
C         7.31568173245498   -2.76815113082880   -0.34383008996364
N         7.00896323821245   -1.49142618368019    0.04995651880369
C         8.43525622612632   -3.45422632640696    0.13536626364677
C         9.59435358629718   -2.77736876423158    0.47888717095963
N         9.80210155451934   -1.52288958668094    0.01327382241658
H        10.76935632256600   -4.06515353329873    1.89534716155513
H        12.56175308230484   -2.15493150031884    1.78657454472704
H        12.38286454875700    2.21346195010526   -1.78613403056386
H        10.49858541610056    4.14136898134628   -1.84063569086298
H         8.24496210260671    4.56276486148610    0.00453672666570
H         6.05194390458528    4.02383937422349    1.88681785367799
H         4.29115952028906    2.07924835518767    1.83172973667070
H         3.98898642129744   -0.07081192000120   -0.24604280657994
H         4.49143904038973   -2.28753709536496   -1.96345904276338
H         6.34382863087680   -4.12671715910207   -1.84267929910903
H         8.44367808531906   -4.52216909409791    0.23919719198226
C        12.81801618530373    0.06178986231635   -0.01668327241697
C        14.01764616107362    0.03358202523641   -0.01609116779114
C        15.29052316345320   -0.01144873720562   -0.01579414052157
C        16.48654015360678   -0.07528270486904    0.01982552837356
Fe       20.93037173669412   -0.00882834254719   -0.17274147489027
C        18.44261360235985    3.27073564595334    1.13877434966855
C        17.51626796547620    2.29381903942101    0.94165821702773
C        18.26398719864870    1.20828682267591    0.35227490115891
C        17.79421378563512   -0.08036170408575    0.05140849270926
C        18.34728780765541   -1.35196384912499   -0.04139366026277
C        17.62100334076317   -2.59144216064065    0.07255591120495
C        18.56565021290576   -3.55244918089956   -0.03452550528654
C        19.83576478196845   -2.89361065323880   -0.22240510493438
N        19.66534478566894   -1.54220198875329   -0.17945694247234
C        21.06772891625929   -3.48721206715553   -0.29876148183685
C        22.27547034770606   -2.78300018180061   -0.14808648306822
C        23.50120224223378   -3.26139328518522    0.39550732458824
C        24.39319055862626   -2.22352774898105    0.29975275762390
C        23.69374355423691   -1.12781390432813   -0.29802582068491
N        22.37878341494036   -1.45765036362704   -0.46459309958450
C        24.20982291290873    0.11433209342027   -0.71964093479367
C        23.50020880364515    1.30843772943433   -0.70417701093639
C        23.94073589287152    2.56873362096396   -1.24292398246197
C        23.02921547467551    3.50858412161968   -0.86457006358523
C        22.02144949859004    2.83043225874541   -0.10043892619760
N        22.28011541736465    1.49032826652581   -0.08402955182147
C        20.90598716839881    3.42294413714028    0.51128919136871
C        19.70132244300150    2.76822053514984    0.63925362742256
N        19.55112439240365    1.49971575085026    0.18806102329708
H        18.25380701949302    4.22382241133790    1.58443456123735
H        16.48288564701000    2.34476707107222    1.24552937338518
H        16.56386888957843   -2.69732896451075    0.24086854231043
H        18.43498407358859   -4.61091184984264    0.06706239456430
H        21.13100422884676   -4.55116590928710   -0.46879370496473
H        23.65898920164521   -4.20260043685161    0.89595185687624
H        25.38918607459677   -2.22038488153690    0.69412279942609
H        25.22448796212703    0.14954267355762   -1.09156102667080
H        24.80127215835892    2.74382823802600   -1.85959337089617
H        23.02592556086663    4.52940979561289   -1.18627523041934
H        20.94760256151128    4.43280264248513    0.88090541829192
76
 energy: -135.024583878376 gnorm: 0.091520724367 xtb: 6.4.1 (bd6e46d)
Fe        8.34645438729277    0.01736870616817    0.03212869220758
C        10.69664908594456   -3.20512533042447    1.28118802282641
C        11.59862055444593   -2.17779522726988    1.23629169683877
C        10.96152395942299   -1.15597374729619    0.45337232799076
C        11.47822220534110    0.07912946942226    0.01182598017986
C        10.85348362301695    1.24567676651948   -0.40936167789432
C        11.43285900905358    2.28208170395728   -1.23606115958266
C        10.51718569147554    3.28237888264037   -1.24198365490375
C         9.40480858746896    2.84309045703515   -0.42339147231184
N         9.60983269147749    1.55609494515768   -0.01599056258083
C         8.27109050827867    3.50185670387577   -0.00450274590354
C         7.15694969478214    2.75547652613107    0.41383349407329
C         6.06818235383484    3.16028160732192    1.23847838619073
C         5.15159583116850    2.14707748737924    1.20908026063719
C         5.69484231182478    1.11811551291867    0.36891699892498
N         6.96963254868173    1.47039611635672   -0.01629569902593
C         5.07981346015303   -0.03757790815091   -0.12147488950139
C         5.79341694029649   -1.18638021812852   -0.49400562863424
C         5.33974870646987   -2.27742463547753   -1.30907279129694
C         6.28621343142080   -3.25575439400981   -1.23607214856192
C         7.31702941192868   -2.77493216606432   -0.37095235924065
N         7.04461271547909   -1.46947648941022   -0.01828706090505
C         8.40926144045018   -3.47573406465355    0.13635514843773
C         9.55293807711113   -2.78976152307878    0.52076950501296
N         9.71600823751901   -1.50525829585973    0.09877104664070
H        10.77215017623360   -4.09751750443097    1.86785379472288
H        12.54856570940669   -2.13426752517356    1.74370178201567
H        12.37010152723354    2.21584504609678   -1.75867239374468
H        10.51355919551514    4.17962213173242   -1.82373123020567
H         8.23337665211201    4.57752590894708    0.00258882077221
H         6.03809411747628    4.03836583555155    1.85544424210710
H         4.26119001791009    2.07489171600890    1.80069820459205
H         4.00285333106499   -0.06619074396935   -0.22762999901081
H         4.47035616743427   -2.28149669203375   -1.93740652370416
H         6.33123799754264   -4.15634022357055   -1.81437333546979
H         8.41733731563154   -4.54834663530799    0.21417425868248
C        12.80264059778010    0.07198062792882   -0.02437885000372
C        14.00262119004669    0.03814604414343   -0.02948948372789
C        15.29848506390085   -0.00824349999931   -0.02405884982274
C        16.49448523204012   -0.08902443884188    0.03837684658598
Fe       20.95035919553542   -0.01039705436823   -0.17264468305866
C        18.47333644882395    3.27368274998883    1.13917099261714
C        17.56247305320411    2.28221233763192    0.93050342249893
C        18.31547815538138    1.19309093615090    0.36835920651606
C        17.82998376048731   -0.09542466298803    0.08126394172527
C        18.40825301995620   -1.34431400122855   -0.03922082365713
C        17.65528013930823   -2.58448523428032    0.05581610350934
C        18.57555911896887   -3.56302284104104   -0.05939560983589
C        19.86376214349189   -2.91457798304963   -0.23259592647199
N        19.72343561385496   -1.55813814588904   -0.17598755092373
C        21.08508655931550   -3.51513859116910   -0.28212494007388
C        22.27481063365839   -2.77455902303789   -0.13165512784702
C        23.50963885946465   -3.25832169114183    0.37102692554441
C        24.39916377951294   -2.21933694230109    0.27848548053159
C        23.68087351353491   -1.11244577944693   -0.27210143255637
N        22.34988994320024   -1.44240083551383   -0.40694188270780
C        24.19402932217332    0.11211371594605   -0.70969572923169
C        23.47352700630067    1.30574833201428   -0.73281471078627
C        23.94267092766352    2.56388222892691   -1.23926090657494
C        23.04737331643500    3.51414522904638   -0.84936437819425
C        22.02157684957083    2.84127729980796   -0.11863198130945