76
 energy: -135.142132783701 gnorm: 0.000545035682 xtb: 6.4.1 (bd6e46d)
Fe        8.02845338072833   -0.05174510420902    0.05034354907054
C        10.52931180216168   -3.51516587263943    0.13830078224538
C        11.44853258902648   -2.52216535811225    0.15234305564583
C        10.72194010848083   -1.28537457646605    0.12616649877988
C        11.35981821336079   -0.03917445445433    0.13811559445786
C        10.71334426285028    1.20266854749919    0.13315982123614
C        11.43041465021153    2.44468700309372    0.16575194394860
C        10.50356372889066    3.43075296383280    0.15771624869339
C         9.22599102521840    2.78598895288370    0.11668814352834
N         9.36841914949809    1.42556534452548    0.10366080089120
C         8.01389288592725    3.44585190215800    0.08589551690617
C         6.80897140219189    2.77551999324430    0.03217033647747
C         5.52118865674955    3.40463827819347   -0.01501572762935
C         4.61012679933892    2.40716470152193   -0.06644809797211
C         5.34353112595826    1.17159308619045   -0.04789939827787
N         6.68688878219345    1.41592145774458    0.01165126179567
C         4.72646594359886   -0.06366047996674   -0.08148054707644
C         5.35283100124306   -1.29441056803730   -0.05557391678657
C         4.62867889827175   -2.53528394508424   -0.08246341473713
C         5.54715533969132   -3.52628792004406   -0.03753459910214
C         6.83011895454526   -2.88788016968524    0.01421371918783
N         6.69799160667401   -1.52917621222551    0.00259002652277
C         8.04016468020032   -3.54927324716080    0.06457806154855
C         9.24688307110176   -2.87999680320458    0.10014250073379
N         9.37875127000074   -1.51835133489176    0.09480168808028
H        10.68617700762548   -4.57621604185518    0.15080275619456
H        12.51805361430386   -2.59834541242796    0.17911761501461
H        12.49939346524864    2.52887394698145    0.19239913246465
H        10.65219713149939    4.49293355737146    0.17578070769383
H         8.01016213335838    4.52493123751015    0.09939046372819
H         5.35978469324874    4.46531318846222   -0.00978705396581
H         3.54024843951283    2.47709934891200   -0.11190019037484
H         3.64678111961855   -0.06775571846089   -0.12833874856383
H         3.55935955132819   -2.61293913546414   -0.12862970326498
H         5.39365227477118   -4.58814219160492   -0.03964492154733
H         8.04499411973847   -4.62838153551630    0.07149865053255
C        12.76167988203181   -0.03484615211625    0.15605334934796
C        13.97884686919932   -0.03758850228629    0.16670176306680
C        15.32261343435279   -0.03157415724905    0.15980113304097
C        16.53983395494924   -0.02660601506528    0.15218185683830
Fe       21.26770658435768    0.05405779806118   -0.06303228191135
C        18.72644914008269    3.48089722202613    0.16541667947800
C        17.82074739743835    2.47551314827168    0.18194917364597
C        18.56214961053905    1.24949647630651    0.10983537651514
C        17.94118165072234   -0.00547482508278    0.11589591038225
C        18.60428912588177   -1.23816584714384    0.09050972273623
C        17.90588263091348   -2.49015666182591    0.14233134687607
C        18.84624828654685   -3.46299626049496    0.11344574115636
C        20.11306567226918   -2.80030708430562    0.03685713123342
N        19.95108359711457   -1.44203416182812    0.02699111919615
C        21.33271268520217   -3.44298664966939   -0.03413759955487
C        22.52510562971487   -2.75571655861381   -0.13557627232653
C        23.81839594012969   -3.36643543441728   -0.24002915489173
C        24.71185686212825   -2.35616487484867   -0.33439331214141
C        23.96262219932324   -1.13112854287511   -0.28145893460672
N        22.62685418030750   -1.39453635287791   -0.16141230495810
C        24.56022840293105    0.11296360699402   -0.33623726078537
C        23.91934837683957    1.33459913559757   -0.26697747987542
C        24.62539181319632    2.58553709266864   -0.30617455185647
C        23.69742295202060    3.56301484513474   -0.20037403036468
C        22.42645310711437    2.90640464924065   -0.10218462153070
N        22.57533291069289    1.55000605264009   -0.14377329453161
C        21.21114388511867    3.55026526223617    0.01042776041479
C        20.01521767643606    2.86408946138129    0.07619426268955
N        19.90089629881599    1.50113922665934    0.04722971500511
H        18.55619331156947    4.53917486482766    0.20606550484959
H        16.75156409627549    2.53680844702307    0.24058833713134
H        16.83920516044142   -2.58927851155870    0.19729944169963
H        18.71325338982565   -4.52712680954508    0.13774110548582
H        21.35230751534411   -4.52190240502403   -0.01984743265329
H        23.99517771889058   -4.42466599479597   -0.24134868869259
H        25.77943345612186   -2.41105901605080   -0.42915835784059
H        25.63638261152445    0.13250072990954   -0.43343039595822
H        25.69034127755189    2.67866390307330   -0.40005442120495
H        23.83713785901871    4.62671893310509   -0.19019704383372
H        21.19281005804440    4.62889948695642    0.03836038423044
