324
 energy: -595.482285429642 gnorm: 2.421105949224 xtb: 6.4.1 (bd6e46d)
Cu       41.31463600000000    0.03959600000000   -0.01298000000000
C        43.64362700000001   -3.10719700000000    1.30970800000000
C        44.55973400000001   -2.16298900000000    1.25942600000000
C        44.14855400000000   -1.10908500000000    0.33813400000000
C        44.76742500000000    0.01526100000000   -0.00827500000000
C        44.06338300000000    1.23520900000000   -0.37238100000000
C        44.39149300000000    2.19526400000000   -1.21985400000000
C        43.35671300000000    3.21154900000000   -1.23675200000000
C        42.42044500000000    2.83508700000000   -0.38986000000000
N        42.82243600000000    1.60207600000000    0.17395700000000
C        41.15937100000000    3.48008600000000   -0.01070900000000
C        40.06415400000001    2.84530400000000    0.34005200000000
C        38.99052800000000    3.16326000000000    1.30908000000000
C        38.15296500000000    2.16650600000000    1.23191300000000
C        38.59126300000000    1.16282300000000    0.25146100000000
N        39.69620100000001    1.60167600000000   -0.23283100000000
C        37.98042800000000   -0.09044800000000   -0.16208700000000
C        38.64458900000000   -1.19495400000000   -0.41651100000000
C        38.27074000000000   -2.25789600000000   -1.37403900000000
C        39.21948700000000   -3.15165200000000   -1.28501900000000
C        40.20521100000001   -2.71420200000000   -0.30214200000000
N        39.85216500000000   -1.56839700000000    0.19465600000000
C        41.43609900000000   -3.37027200000000    0.14358000000000
C        42.55914000000001   -2.72441100000000    0.41070100000000
N        42.88774000000000   -1.47697000000000   -0.18770300000000
H        43.70388800000000   -4.01697800000000    1.92725500000000
H        45.47606100000001   -2.20293900000000    1.83747500000000
H        45.31885800000000    2.21205900000000   -1.82099800000000
H        43.37361200000000    4.11623800000000   -1.84937300000000
H        41.11164800000000    4.57488900000000   -0.01448600000000
H        38.93770700000000    4.04198500000000    1.93407200000000
H        37.24133500000001    2.13083600000000    1.84923700000000
H        36.88217800000000   -0.08753700000000   -0.26135700000000
H        37.40188400000000   -2.31036100000000   -2.02298900000000
H        39.21664100000000   -4.06796000000000   -1.88377900000000
H        41.40061700000000   -4.46607400000000    0.25550500000000
Cu      154.09447800000001   -0.00778000000000   -0.01741300000000
C       151.76548700000001    2.83901200000000    1.86609100000000
C       150.84938000000000    1.92052300000000    1.64151800000000
C       151.26055900000000    1.05582600000000    0.54070400000000
C       150.64168900000004    0.01526100000000   -0.00827500000000
C       151.34573100000000   -1.11596400000000   -0.59237800000000
C       151.01762100000002   -1.90213600000000   -1.60324500000000
C       152.05240000000001   -2.89764500000000   -1.80838500000000
C       152.98866799999999   -2.68482900000000   -0.90635500000000
N       152.58667800000001   -1.57781700000000   -0.12358400000000
C       154.24974300000000   -3.38897000000000   -0.65344200000000
C       155.34495999999999   -2.83027700000000   -0.19100900000000
C       156.41858500000001   -3.32248200000000    0.70221300000000
C       157.25614800000000   -2.32871500000000    0.81129900000000
C       156.81785100000002   -1.16056700000000    0.03406300000000
N       155.71291299999999   -1.50195900000000   -0.52323600000000
C       157.42868600000000    0.14766900000000   -0.13980600000000
C       156.76452500000002    1.28020200000000   -0.18491300000000
C       157.13837400000000    2.50232800000000   -0.92862800000000
C       156.18962700000000    3.36405500000000   -0.67534900000000
C       155.20390300000000    2.75186000000000    0.20931400000000
N       155.55694900000000    1.53378200000000    0.48492400000000
C       153.97301500000000    3.31385500000000    0.76900900000000
C       152.84997300000003    2.62965000000000    0.91167700000000
N       152.52137300000001    1.51487500000000    0.09224200000000
H       151.70522500000001    3.61843700000000    2.64169500000000
H       149.93305200000000    1.85254200000000    2.21694300000000
H       150.09025500000001   -1.80711900000000   -2.19707000000000
H       152.03550100000001   -3.67298000000000   -2.57820500000000
H       154.29746499999999   -4.46406800000000   -0.86025500000000
H       156.47140700000000   -4.30189900000000    1.15334000000000
H       158.16777900000000   -2.40818700000000    1.42452400000000
H       158.52693600000001    0.16322400000000   -0.23789400000000
H       158.00722999999999    2.67427100000000   -1.55658000000000
H       156.19247300000001    4.37553600000000   -1.09372600000000
H       154.00849700000001    4.36987100000000    1.08227800000000
C        47.73943600000000    0.02639200000000   -0.00423400000000
C        48.95496900000000    0.00104800000000   -0.01471400000000
C        50.37648600000000   -0.02037500000000   -0.01888900000000
C        51.58504800000000   -0.02258600000000   -0.01878400000000
C        53.00612300000000   -0.00362600000000   -0.01941100000000
C        54.21726500000000    0.02639200000000   -0.00423400000000
C        63.31461200000000    0.02639200000000   -0.00423400000000
C        64.53014500000000    0.00104800000000   -0.01471400000000
C        65.95166200000000   -0.02037500000000   -0.01888900000000
C        67.16022300000000   -0.02258600000000   -0.01878400000000
C        68.58129900000000   -0.00362600000000   -0.01941100000000
C        69.79244100000000    0.02639200000000   -0.00423400000000
C        78.88978700000000    0.02639200000000   -0.00423400000000
C        80.10532000000001    0.00104800000000   -0.01471400000000
C        81.52683700000000   -0.02037500000000   -0.01888900000000
C        82.73539900000000   -0.02258600000000   -0.01878400000000
C        84.15647400000002   -0.00362600000000   -0.01941100000000
C        85.36761600000000    0.02639200000000   -0.00423400000000
C        94.46496300000001    0.02639200000000   -0.00423400000000
C        95.68049600000001    0.00104800000000   -0.01471400000000
C        97.10201300000000   -0.02037500000000   -0.01888900000000
C        98.31057400000000   -0.02258600000000   -0.01878400000000
C        99.73165000000000   -0.00362600000000   -0.01941100000000
C       100.94279200000001    0.02639200000000   -0.00423400000000
C       110.04013900000000    0.02639200000000   -0.00423400000000
C       111.25567100000002    0.00104800000000   -0.01471400000000
C       112.67718800000000   -0.02037500000000   -0.01888900000000
C       113.88575000000002   -0.02258600000000   -0.01878400000000
C       115.30682500000000   -0.00362600000000   -0.01941100000000
C       116.51796700000000    0.02639200000000   -0.00423400000000
C       125.61531400000000    0.02639200000000   -0.00423400000000
C       126.83084700000001    0.00104800000000   -0.01471400000000
C       128.25236400000000   -0.02037500000000   -0.01888900000000
C       129.46092500000000   -0.02258600000000   -0.01878400000000
C       130.88200100000000   -0.00362600000000   -0.01941100000000
C       132.09314300000000    0.02639200000000   -0.00423400000000
C       141.19049000000001    0.02639200000000   -0.00423400000000
C       142.40602200000001    0.00104800000000   -0.01471400000000
C       143.82753900000000   -0.02037500000000   -0.01888900000000
C       145.03610100000000   -0.02258600000000   -0.01878400000000
C       146.45717600000000   -0.00362600000000   -0.01941100000000
C       147.66831800000000    0.02639200000000   -0.00423400000000
Cu       58.80585500000000    0.03800900000000    0.00059400000000
C        56.52604500000000   -3.22343800000000   -0.90907200000000
C        55.56983500000000   -2.32408800000000   -1.01109800000000
C        55.96221000000000   -1.16178300000000   -0.20858200000000
C        55.32709300000000   -0.01051100000000    0.00368400000000
C        56.01255000000000    1.26408900000000    0.22991300000000
C        55.67726000000000    2.34268900000000    0.93415400000000
C        56.70180100000001    3.36200600000000    0.84357200000000
C        57.65239900000000    2.86508100000000    0.07020700000000
N        57.27540400000000    1.54847600000000   -0.34593500000000
C        58.89953800000000    3.47678300000000   -0.34665800000000
C        60.00109000000000    2.80952500000000   -0.67843000000000
C        60.99463600000000    3.06151000000000   -1.71259900000000
C        61.88851900000000    2.10065100000000   -1.61111600000000
C        61.50882100000000    1.18876700000000   -0.50713900000000
N        60.41390600000000    1.63808600000000    0.00022800000000
C        62.16602800000000   -0.01051100000000    0.00368400000000
C        61.54261700000000   -1.07969300000000    0.46520100000000
C        61.92132900000000   -2.01180800000000    1.54067600000000
C        60.98066100000000   -2.92595400000000    1.62654200000000
C        59.97235900000000   -2.63017500000000    0.62911500000000
N        60.31013400000000   -1.57679800000000   -0.02018000000000
C        58.71996600000000   -3.33718200000000    0.29792200000000
C        57.60609000000000   -2.74048600000000   -0.04941900000000
N        57.22397700000000   -1.45772900000000    0.36826400000000
H        56.52638900000001   -4.21451200000000   -1.40030600000000
H        54.66130100000001   -2.44578200000000   -1.59224600000000
H        54.75240800000000    2.46104000000000    1.51108000000000
H        56.72909600000001    4.35117000000000    1.30022300000000
H        58.98547800000000    4.57416000000000   -0.40868100000000
H        61.02730900000000    3.86772600000000   -2.43942300000000
H        62.78158100000000    1.98768300000000   -2.24489000000000
H        62.83608000000000   -1.93740200000000    2.15084600000000
H        60.99970700000000   -3.73956200000000    2.33481000000000
H        58.75845100000001   -4.43714200000000    0.35695800000000
Cu       74.38103099999999    0.03800900000000    0.00059400000000
C        72.10122000000000   -3.22343800000000   -0.90907200000000
C        71.14501100000000   -2.32408800000000   -1.01109800000000
C        71.53738500000000   -1.16178300000000   -0.20858200000000
C        70.90226900000000   -0.01051100000000    0.00368400000000
C        71.58772600000002    1.26408900000000    0.22991300000000
C        71.25243500000001    2.34268900000000    0.93415400000000
C        72.27697700000000    3.36200600000000    0.84357200000000
C        73.22757400000000    2.86508100000000    0.07020700000000
N        72.85057999999999    1.54847600000000   -0.34593500000000
C        74.47471400000001    3.47678300000000   -0.34665800000000
C        75.57626500000001    2.80952500000000   -0.67843000000000
C        76.56981200000001    3.06151000000000   -1.71259900000000
C        77.46369500000000    2.10065100000000   -1.61111600000000
C        77.08399700000001    1.18876700000000   -0.50713900000000
N        75.98908200000000    1.63808600000000    0.00022800000000
C        77.74120400000000   -0.01051100000000    0.00368400000000
C        77.11779199999999   -1.07969300000000    0.46520100000000
C        77.49650500000000   -2.01180800000000    1.54067600000000
C        76.55583600000000   -2.92595400000000    1.62654200000000
C        75.54753500000000   -2.63017500000000    0.62911500000000
N        75.88531000000000   -1.57679800000000   -0.02018000000000
C        74.29514200000000   -3.33718200000000    0.29792200000000
C        73.18126500000000   -2.74048600000000   -0.04941900000000
N        72.79915300000000   -1.45772900000000    0.36826400000000
H        72.10156499999999   -4.21451200000000   -1.40030600000000
H        70.23647699999999   -2.44578200000000   -1.59224600000000
H        70.32758300000000    2.46104000000000    1.51108000000000
H        72.30427200000000    4.35117000000000    1.30022300000000
H        74.56065400000000    4.57416000000000   -0.40868100000000
H        76.60248400000000    3.86772600000000   -2.43942300000000
H        78.35675600000000    1.98768300000000   -2.24489000000000
H        78.41125500000000   -1.93740200000000    2.15084600000000
H        76.57488300000000   -3.73956200000000    2.33481000000000
H        74.33362600000001   -4.43714200000000    0.35695800000000
Cu       89.95620700000002    0.03800900000000    0.00059400000000
C        87.67639600000000   -3.22343800000000   -0.90907200000000
C        86.72018700000000   -2.32408800000000   -1.01109800000000
C        87.11256100000001   -1.16178300000000   -0.20858200000000
C        86.47744400000001   -0.01051100000000    0.00368400000000
C        87.16290100000001    1.26408900000000    0.22991300000000
C        86.82761100000000    2.34268900000000    0.93415400000000
C        87.85215200000000    3.36200600000000    0.84357200000000
C        88.80275000000000    2.86508100000000    0.07020700000000
N        88.42575500000001    1.54847600000000   -0.34593500000000
C        90.04988899999999    3.47678300000000   -0.34665800000000
C        91.15144100000001    2.80952500000000   -0.67843000000000
C        92.14498700000000    3.06151000000000   -1.71259900000000
C        93.03887000000000    2.10065100000000   -1.61111600000000
C        92.65917200000000    1.18876700000000   -0.50713900000000
N        91.56425700000001    1.63808600000000    0.00022800000000
C        93.31637900000001   -0.01051100000000    0.00368400000000
C        92.69296799999999   -1.07969300000000    0.46520100000000
C        93.07168000000000   -2.01180800000000    1.54067600000000
C        92.13101200000000   -2.92595400000000    1.62654200000000
C        91.12271000000001   -2.63017500000000    0.62911500000000
N        91.46048500000001   -1.57679800000000   -0.02018000000000
C        89.87031700000000   -3.33718200000000    0.29792200000000
C        88.75644100000000   -2.74048600000000   -0.04941900000000
N        88.37432800000001   -1.45772900000000    0.36826400000000
H        87.67674000000001   -4.21451200000000   -1.40030600000000
H        85.81165200000001   -2.44578200000000   -1.59224600000000
H        85.90275900000000    2.46104000000000    1.51108000000000
H        87.87944700000001    4.35117000000000    1.30022300000000
H        90.13582900000000    4.57416000000000   -0.40868100000000
H        92.17766000000000    3.86772600000000   -2.43942300000000
H        93.93193200000002    1.98768300000000   -2.24489000000000
H        93.98643100000000   -1.93740200000000    2.15084600000000
H        92.15005800000000   -3.73956200000000    2.33481000000000
H        89.90880199999999   -4.43714200000000    0.35695800000000
Cu      105.53138199999999    0.03800900000000    0.00059400000000
C       103.25157100000000   -3.22343800000000   -0.90907200000000
C       102.29536200000000   -2.32408800000000   -1.01109800000000
C       102.68773600000000   -1.16178300000000   -0.20858200000000
C       102.05262000000000   -0.01051100000000    0.00368400000000
C       102.73807700000000    1.26408900000000    0.22991300000000
C       102.40278600000002    2.34268900000000    0.93415400000000
C       103.42732800000000    3.36200600000000    0.84357200000000
C       104.37792500000000    2.86508100000000    0.07020700000000
N       104.00093099999999    1.54847600000000   -0.34593500000000
C       105.62506500000001    3.47678300000000   -0.34665800000000
C       106.72661600000001    2.80952500000000   -0.67843000000000
C       107.72016300000001    3.06151000000000   -1.71259900000000
C       108.61404600000000    2.10065100000000   -1.61111600000000
C       108.23434800000000    1.18876700000000   -0.50713900000000
N       107.13943300000000    1.63808600000000    0.00022800000000
C       108.89155500000000   -0.01051100000000    0.00368400000000
C       108.26814300000001   -1.07969300000000    0.46520100000000
C       108.64685600000000   -2.01180800000000    1.54067600000000
C       107.70618700000001   -2.92595400000000    1.62654200000000
C       106.69788600000000   -2.63017500000000    0.62911500000000
N       107.03566100000000   -1.57679800000000   -0.02018000000000
C       105.44549300000000   -3.33718200000000    0.29792200000000
C       104.33161600000001   -2.74048600000000   -0.04941900000000
N       103.94950400000000   -1.45772900000000    0.36826400000000
H       103.25191599999999   -4.21451200000000   -1.40030600000000
H       101.38682799999999   -2.44578200000000   -1.59224600000000
H       101.47793400000002    2.46104000000000    1.51108000000000
H       103.45462300000000    4.35117000000000    1.30022300000000
H       105.71100500000000    4.57416000000000   -0.40868100000000
H       107.75283500000002    3.86772600000000   -2.43942300000000
H       109.50710700000000    1.98768300000000   -2.24489000000000
H       109.56160600000001   -1.93740200000000    2.15084600000000
H       107.72523400000000   -3.73956200000000    2.33481000000000
H       105.48397700000001   -4.43714200000000    0.35695800000000
Cu      121.10655800000001    0.03800900000000    0.00059400000000
C       118.82674700000001   -3.22343800000000   -0.90907200000000
C       117.87053800000000   -2.32408800000000   -1.01109800000000
C       118.26291200000000   -1.16178300000000   -0.20858200000000
C       117.62779500000001   -0.01051100000000    0.00368400000000
C       118.31325200000002    1.26408900000000    0.22991300000000
C       117.97796200000001    2.34268900000000    0.93415400000000
C       119.00250300000000    3.36200600000000    0.84357200000000
C       119.95310100000002    2.86508100000000    0.07020700000000
N       119.57610600000000    1.54847600000000   -0.34593500000000
C       121.20024000000001    3.47678300000000   -0.34665800000000
C       122.30179200000002    2.80952500000000   -0.67843000000000
C       123.29533800000000    3.06151000000000   -1.71259900000000
C       124.18922100000000    2.10065100000000   -1.61111600000000
C       123.80952300000001    1.18876700000000   -0.50713900000000
N       122.71460800000000    1.63808600000000    0.00022800000000
C       124.46673000000001   -0.01051100000000    0.00368400000000
C       123.84331899999999   -1.07969300000000    0.46520100000000
C       124.22203200000001   -2.01180800000000    1.54067600000000
C       123.28136300000000   -2.92595400000000    1.62654200000000
C       122.27306100000000   -2.63017500000000    0.62911500000000
N       122.61083600000002   -1.57679800000000   -0.02018000000000
C       121.02066800000000   -3.33718200000000    0.29792200000000
C       119.90679200000000   -2.74048600000000   -0.04941900000000
N       119.52467900000001   -1.45772900000000    0.36826400000000
H       118.82709100000000   -4.21451200000000   -1.40030600000000
H       116.96200300000001   -2.44578200000000   -1.59224600000000
H       117.05311000000000    2.46104000000000    1.51108000000000
H       119.02979800000000    4.35117000000000    1.30022300000000
H       121.28618000000000    4.57416000000000   -0.40868100000000
H       123.32801100000000    3.86772600000000   -2.43942300000000
H       125.08228300000000    1.98768300000000   -2.24489000000000
H       125.13678200000000   -1.93740200000000    2.15084600000000
H       123.30040900000002   -3.73956200000000    2.33481000000000
H       121.05915299999999   -4.43714200000000    0.35695800000000
Cu      136.68173300000001    0.03800900000000    0.00059400000000
C       134.40192200000001   -3.22343800000000   -0.90907200000000
C       133.44571300000001   -2.32408800000000   -1.01109800000000
C       133.83808700000000   -1.16178300000000   -0.20858200000000
C       133.20297099999999   -0.01051100000000    0.00368400000000
C       133.88842800000000    1.26408900000000    0.22991300000000
C       133.55313799999999    2.34268900000000    0.93415400000000
C       134.57767899999999    3.36200600000000    0.84357200000000
C       135.52827600000001    2.86508100000000    0.07020700000000
N       135.15128200000001    1.54847600000000   -0.34593500000000
C       136.77541600000001    3.47678300000000   -0.34665800000000
C       137.87696700000001    2.80952500000000   -0.67843000000000
C       138.87051399999999    3.06151000000000   -1.71259900000000
C       139.76439700000000    2.10065100000000   -1.61111600000000
C       139.38469900000001    1.18876700000000   -0.50713900000000
N       138.28978400000000    1.63808600000000    0.00022800000000
C       140.04190600000001   -0.01051100000000    0.00368400000000
C       139.41849400000001   -1.07969300000000    0.46520100000000
C       139.79720699999999   -2.01180800000000    1.54067600000000
C       138.85653800000000   -2.92595400000000    1.62654200000000
C       137.84823700000004   -2.63017500000000    0.62911500000000
N       138.18601200000001   -1.57679800000000   -0.02018000000000
C       136.59584400000000   -3.33718200000000    0.29792200000000
C       135.48196700000000   -2.74048600000000   -0.04941900000000
N       135.09985499999999   -1.45772900000000    0.36826400000000
H       134.40226699999999   -4.21451200000000   -1.40030600000000
H       132.53717900000001   -2.44578200000000   -1.59224600000000
H       132.62828500000001    2.46104000000000    1.51108000000000
H       134.60497400000000    4.35117000000000    1.30022300000000
H       136.86135600000000    4.57416000000000   -0.40868100000000
H       138.90318600000001    3.86772600000000   -2.43942300000000
H       140.65745799999999    1.98768300000000   -2.24489000000000
H       140.71195700000001   -1.93740200000000    2.15084600000000
H       138.87558500000000   -3.73956200000000    2.33481000000000
H       136.63432800000001   -4.43714200000000    0.35695800000000
324
 energy: -596.586422872728 gnorm: 1.102755004287 xtb: 6.4.1 (bd6e46d)
Cu       41.31787745111242    0.03978457206188   -0.01244206920208
C        43.64178780872265   -3.11276540460423    1.30739605870496
C        44.56597074919397   -2.16110607601538    1.25948889288363
C        44.14396737931040   -1.11195299835917    0.34079082902073
C        44.75966744711607    0.02484322944546   -0.01178975460840
C        44.05804980485257    1.22907831601498   -0.36473276385797
C        44.39721121739887    2.21081759646617   -1.23112478447363
C        43.37316659687368    3.21265448621193   -1.24615882117298
C        42.41400674711095    2.82387871547508   -0.38282550041780
N        42.81177996397255    1.59521317295659    0.17584588178553
C        41.16930079882987    3.48221846557610   -0.01210586034992
C        40.05559052164637    2.83751825096569    0.34146025607613
C        38.99478467374286    3.16858796207079    1.30287730517705
C        38.14057024922306    2.16048854757724    1.23498555506994
C        38.58686808696463    1.16389209019375    0.25825275584990
N        39.71134516481290    1.59595836779704   -0.23011327075408
C        37.97403337079325   -0.07927947244762   -0.15927327839006
C        38.64729032060929   -1.20029925165131   -0.41894753338686
C        38.26541622157858   -2.25474223576088   -1.36927452812354
C        39.22464677639431   -3.16173757020780   -1.28555999016431
C        40.21016285190161   -2.72007578059308   -0.30478728385336
N        39.85546701545609   -1.55790876882921    0.18780132149732
C        41.42528594157078   -3.37504745924836    0.14012968009265
C        42.56562813148723   -2.71568155140735    0.41016795791318
N        42.88632836029135   -1.47699792290946   -0.17764515372421
H        43.70153186309052   -4.01449740097407    1.92452905576356
H        45.47671250702944   -2.20012033716792    1.83631286872186
H        45.31650995484893    2.21396789359343   -1.82059126270416
H        43.37505397786427    4.11460080331418   -1.84911420060878
H        41.11565256983361    4.57383089736406   -0.01249323484174
H        38.93945832363890    4.04139230282691    1.93271801449308
H        37.24154623044738    2.12820007885943    1.84797368179635
H        36.88376228444400   -0.08578717525792   -0.26319836134276
H        37.40276959787665   -2.30763267438753   -2.02085595092927
H        39.21971775832593   -4.06790891704200   -1.88217157169559
H        41.39943544131869   -4.46403991455827    0.25628359952191
Cu      154.09123946972940   -0.00807532214498   -0.01691245848277
C       151.76734342653862    2.84489863100361    1.86486865604311
C       150.84312307704317    1.91867269999545    1.64120270245188
C       151.26510724953914    1.05825710980237    0.54380789370951
C       150.64914640370446    0.00648966651224   -0.01340676087215
C       151.35106150109559   -1.11133979385180   -0.58378277214954
C       151.01191735109467   -1.91531453887984   -1.61717863628549
C       152.03597468300279   -2.89701310594091   -1.81781482289618
C       152.99509971006611   -2.67516120456490   -0.89737361641853
N       152.59728841696898   -1.57138315053538   -0.12049670761587
C       154.23979893232834   -3.39080827575502   -0.65522342982164
C       155.35353135318968   -2.82286815922049   -0.18817761248292
C       156.41432148507531   -3.32655508163092    0.69513940549091
C       157.26855872611841   -2.32337581397956    0.81541454982643
C       156.82226323338676   -1.16285985417849    0.04053549760776
N       155.69775009153486   -1.49687338890204   -0.51949477478222
C       157.43508198660348    0.13614173857630   -0.13909823908508
C       156.76179781530340    1.28592461903273   -0.18631467190340
C       157.14368182720344    2.49833737200388   -0.92454439774322
C       156.18446886152569    3.37408031975604   -0.67399253489423
C       155.19894994880988    2.75814210108729    0.20781302686759
N       155.55367929151731    1.52472997974884    0.47623715864225
C       153.98384349919317    3.31918446553717    0.76648632817938
C       152.84348385660508    2.62113037296434    0.90957783121316
N       152.52279812837762    1.51303325909364    0.10213624960605
H       151.70758348878636    3.61650196686823    2.63855522141765
H       149.93239789376869    1.84999338624281    2.21528365940954
H       150.09259882452812   -1.80907361865441   -2.19702840346346
H       152.03406093466791   -3.67142038981711   -2.57764986531401
H       154.29346338589636   -4.46339694662070   -0.85811348651709
H       156.46965507760586   -4.30106483821096    1.15211972025620
H       158.16756831743464   -2.40536129901906    1.42377204555034
H       158.52535246764822    0.16184501796781   -0.24001280552867
H       158.00634233623572    2.67119393688450   -1.55498992193534
H       156.18939481836557    4.37518877376785   -1.09215535044338
H       154.00966905273231    4.36773673402671    1.08263472985154
C        47.73769175541963    0.02630708073220   -0.00399369214721
C        48.96439444938260    0.00079744228499   -0.01469129146967
C        50.36558710179538   -0.02002686735042   -0.01891914502538
C        51.59214835497244   -0.02217885372959   -0.01878919137604
C        52.96556107651979   -0.00409471782498   -0.01930813913082
C        54.15555724944426    0.03254986032548   -0.00514732803705
C        63.36744571317379    0.03109337603001   -0.00397040120709
C        64.56459401147927    0.00057910879538   -0.01446436862512
C        65.94230221649596   -0.01990945891458   -0.01925854070221
C        67.16819053384042   -0.02212411301481   -0.01879531790360
C        68.54080922375557   -0.00407137265343   -0.01931068911867
C        69.73074515445671    0.03250043101163   -0.00539903852569
C        78.94285330099692    0.03111013984993   -0.00384825117688
C        80.13936763346742    0.00061020946281   -0.01445973352488
C        81.51779899319347   -0.01991648675030   -0.01928467179874
C        82.74305943818644   -0.02213062297249   -0.01878773424686
C        84.11630361666963   -0.00406401452310   -0.01931166603381
C        85.30575660381471    0.03249585458815   -0.00542334695343
C        94.51800350808573    0.03110937393526   -0.00384364380893
C        95.71458354684914    0.00061092561317   -0.01446059651159
C        97.09294182620978   -0.01991626285510   -0.01928544618212
C        98.31826666244123   -0.02213040579706   -0.01878779424979
C        99.69144670342429   -0.00406488728878   -0.01931062070257
C       100.88094945404450    0.03249666430664   -0.00542085804114
C       110.09319071342665    0.03111004350801   -0.00384201768733
C       111.28973796225927    0.00061202960727   -0.01446084383931
C       112.66813671637799   -0.01991602637428   -0.01928598668836
C       113.89342311090158   -0.02213069168704   -0.01878907478570
C       115.26664533126304   -0.00406516435062   -0.01930918312410
C       116.45611567467199    0.03249865897203   -0.00541551825234
C       125.66825286882342    0.03110502392947   -0.00387222486899
C       126.86511289723579    0.00060266881078   -0.01445831575525
C       128.24312519759954   -0.01991392751192   -0.01927898789104
C       129.46879401440310   -0.02212793839248   -0.01879527905241
C       130.84157313897481   -0.00407290763075   -0.01930902704485
C       132.03140336875231    0.03248674061174   -0.00539330289318
C       141.24374721327777    0.03116845966747   -0.00379005733536
C       142.43997735985104    0.00069844211935   -0.01433489696590
C       143.82020852048930   -0.01992982751721   -0.01926712633236
C       145.04559984408678   -0.02224919367335   -0.01895722918889
C       146.44806139916227   -0.00394339566078   -0.01924506767044
C       147.67061943442593    0.02618102717351   -0.00402294617865
Cu       58.80322425936250    0.03881295545093   -0.00040731557406
C        56.52889536819679   -3.23346214265352   -0.90765853740431
C        55.56662895872520   -2.32083857870648   -1.00913109200432
C        55.98998198850722   -1.17953313077296   -0.20974888228828
C        55.38523739984059   -0.00117297916475    0.00501596800028
C        56.03579760270188    1.26756816857639    0.22621270810481
C        55.67289314567296    2.35687771728407    0.94148179381590