      -----------------------------------------------------------      
     |                   =====================                   |     
     |                           x T B                           |     
     |                   =====================                   |     
     |                         S. Grimme                         |     
     |          Mulliken Center for Theoretical Chemistry        |     
     |                    University of Bonn                     |     
      -----------------------------------------------------------      

   * xtb version 6.4.1 (bd6e46d) compiled by 'conda@4901f00b25ba' on 2021-06-10

   xtb is free software: you can redistribute it and/or modify it under
   the terms of the GNU Lesser General Public License as published by
   the Free Software Foundation, either version 3 of the License, or
   (at your option) any later version.
   
   xtb is distributed in the hope that it will be useful,
   but WITHOUT ANY WARRANTY; without even the implied warranty of
   MERCHANTABILITY or FITNESS FOR A PARTICULAR PURPOSE.  See the
   GNU Lesser General Public License for more details.
   
   Cite this work as:
   * C. Bannwarth, E. Caldeweyher, S. Ehlert, A. Hansen, P. Pracht,
     J. Seibert, S. Spicher, S. Grimme, WIREs Comput. Mol. Sci., 2020, 11,
     e01493. DOI: 10.1002/wcms.1493
   
   for GFN2-xTB:
   * C. Bannwarth, S. Ehlert and S. Grimme., J. Chem. Theory Comput., 2019,
     15, 1652-1671. DOI: 10.1021/acs.jctc.8b01176
   for GFN1-xTB:
   * S. Grimme, C. Bannwarth, P. Shushkov, J. Chem. Theory Comput., 2017,
     13, 1989-2009. DOI: 10.1021/acs.jctc.7b00118
   for GFN0-xTB:
   * P. Pracht, E. Caldeweyher, S. Ehlert, S. Grimme, ChemRxiv, 2019, preprint.
     DOI: 10.26434/chemrxiv.8326202.v1
   for GFN-FF:
   * S. Spicher and S. Grimme, Angew. Chem. Int. Ed., 2020, 59, 15665-15673.
     DOI: 10.1002/anie.202004239
   
   for DFT-D4:
   * E. Caldeweyher, C. Bannwarth and S. Grimme, J. Chem. Phys., 2017,
     147, 034112. DOI: 10.1063/1.4993215
   * E. Caldeweyher, S. Ehlert, A. Hansen, H. Neugebauer, S. Spicher,
     C. Bannwarth and S. Grimme, J. Chem. Phys., 2019, 150, 154122.
     DOI: 10.1063/1.5090222
   * E. Caldeweyher, J.-M. Mewes, S. Ehlert and S. Grimme, Phys. Chem. Chem. Phys.
     2020, 22, 8499-8512. DOI: 10.1039/D0CP00502A
   
   for sTDA-xTB:
   * S. Grimme and C. Bannwarth, J. Chem. Phys., 2016, 145, 054103.
     DOI: 10.1063/1.4959605
   
   in the mass-spec context:
   * V. Asgeirsson, C. Bauer and S. Grimme, Chem. Sci., 2017, 8, 4879.
     DOI: 10.1039/c7sc00601b
   * J. Koopman and S. Grimme, ACS Omega 2019, 4, 12, 15120-15133.
     DOI: 10.1021/acsomega.9b02011
   
   for metadynamics refer to:
   * S. Grimme, J. Chem. Theory Comput., 2019, 155, 2847-2862
     DOI: 10.1021/acs.jctc.9b00143
   
   for SPH calculations refer to:
   * S. Spicher and S. Grimme, J. Chem. Theory Comput., 2021, 17, 1701-1714
     DOI: 10.1021/acs.jctc.0c01306
   
   with help from (in alphabetical order)
   P. Atkinson, C. Bannwarth, F. Bohle, G. Brandenburg, E. Caldeweyher
   M. Checinski, S. Dohm, S. Ehlert, S. Ehrlich, I. Gerasimov, J. Koopman
   C. Lavigne, S. Lehtola, F. März, M. Müller, F. Musil, H. Neugebauer
   J. Pisarek, C. Plett, P. Pracht, J. Seibert, P. Shushkov, S. Spicher
   M. Stahn, M. Steiner, T. Strunk, J. Stückrath, T. Rose, and J. Unsleber
   
 * started run on 2021/11/18 at 21:12:53.633     

           -------------------------------------------------
          |                Calculation Setup                |
           -------------------------------------------------

          program call               : /home/jeff/miniconda3/bin/xtb input_structure_1.xyz --gfn 2 --ohess normal --parallel 1 --etemp 300 --chrg 0 --uhf 0 -I det_control.in
          hostname                   : jelfscompute1
          coordinate file            : input_structure_1.xyz
          omp threads                :                     1
          number of atoms            :                   242
          number of electrons        :                   794
          charge                     :                     0
          spin                       :                   0.0
          first test random number   :      0.81781046609749

   ID    Z sym.   atoms
    1   30 Zn     1, 37, 103, 138, 173, 208
    2    6 C      2-9, 11-15, 17-21, 23, 24, 38-45, 47-51, 53-57, 59, 60,
                  73-102, 104-111, 113-117, 119-123, 125, 126, 139-146,
                  148-152, 154-158, 160, 161, 174-181, 183-187, 189-193, 195,
                  196, 209-216, 218-222, 224-228, 230, 231
    3    7 N      10, 16, 22, 25, 46, 52, 58, 61, 112, 118, 124, 127, 147,
                  153, 159, 162, 182, 188, 194, 197, 217, 223, 229, 232
    4    1 H      26-36, 62-72, 128-137, 163-172, 198-207, 233-242

molecular fragmentation (1/2 indicates fragments):
111111111111111111111111111111111111222222222222222222222222222222222222
222222222222222222222222222222222222222222222222222222222222222222222222
222222222222222222222222222222222222222222222222222222222222222222222222
22222222222222222222222222
# atoms in fragment 1/2:    36   206
 fragment masses (1/2) :      372.71     2219.82
CMA distance (Bohr)    :  90.111
constraining FC (au)   :  0.0500

           -------------------------------------------------
          |                 G F N 2 - x T B                 |
           -------------------------------------------------

        Reference                      10.1021/acs.jctc.8b01176
      * Hamiltonian:
        H0-scaling (s, p, d)           1.850000    2.230000    2.230000
        zeta-weighting                 0.500000
      * Dispersion:
        s8                             2.700000
        a1                             0.520000
        a2                             5.000000
        s9                             5.000000
      * Repulsion:
        kExp                           1.500000    1.000000
        rExp                           1.000000
      * Coulomb:
        alpha                          2.000000
        third order                    shell-resolved
        anisotropic                    true
        a3                             3.000000
        a5                             4.000000
        cn-shift                       1.200000
        cn-exp                         4.000000
        max-rad                        5.000000


          ...................................................
          :                      SETUP                      :
          :.................................................:
          :  # basis functions                 782          :
          :  # atomic orbitals                 782          :
          :  # shells                          422          :
          :  # electrons                       794          :
          :  max. iterations                   250          :
          :  Hamiltonian                  GFN2-xTB          :
          :  restarted?                      false          :
          :  GBSA solvation                  false          :
          :  PC potential                    false          :
          :  electronic temp.          300.0000000     K    :
          :  accuracy                    1.0000000          :
          :  -> integral cutoff          0.2500000E+02      :
          :  -> integral neglect         0.1000000E-07      :
          :  -> SCF convergence          0.1000000E-05 Eh   :
          :  -> wf. convergence          0.1000000E-03 e    :
          :  Broyden damping             0.4000000          :
          ...................................................

 iter      E             dE          RMSdq      gap      omega  full diag
   1   -430.9348850 -0.430935E+03  0.735E+00    0.02       0.0  T
   2   -398.6915188  0.322434E+02  0.576E+00    0.13       1.0  T
   3     49.0779244  0.447769E+03  0.216E+01    0.02       1.0  T
   4   -375.7970495 -0.424875E+03  0.728E+00    0.05       1.0  T
   5   -230.7327537  0.145064E+03  0.150E+01    0.01       1.0  T
   6   -419.1441287 -0.188411E+03  0.445E+00    0.19       1.0  T
   7   -431.0901351 -0.119460E+02  0.298E+00    0.17       1.0  T
   8   -430.2777405  0.812395E+00  0.263E+00    0.11       1.0  T
   9   -432.4750216 -0.219728E+01  0.181E+00    0.12       1.0  T
  10   -432.3297412  0.145280E+00  0.167E+00    0.10       1.0  T
  11   -431.6666942  0.663047E+00  0.180E+00    0.19       1.0  T
  12   -432.7732646 -0.110657E+01  0.142E+00    0.03       1.0  T
  13   -433.0238182 -0.250554E+00  0.115E+00    0.18       1.0  T
  14   -432.9139389  0.109879E+00  0.973E-01    0.10       1.0  T
  15   -432.6079404  0.305999E+00  0.999E-01    0.03       1.0  T
  16   -433.0827765 -0.474836E+00  0.796E-01    0.12       1.0  T
  17   -432.8832714  0.199505E+00  0.788E-01    0.03       1.0  T
  18   -432.8836486 -0.377182E-03  0.923E-01    0.16       1.0  T
  19   -433.0653162 -0.181668E+00  0.636E-01    0.17       1.0  T
  20   -433.0844660 -0.191498E-01  0.514E-01    0.15       1.0  T
  21   -433.0930070 -0.854095E-02  0.489E-01    0.15       1.0  T
  22   -433.1047228 -0.117158E-01  0.463E-01    0.18       1.0  T
  23   -433.1157557 -0.110329E-01  0.419E-01    0.18       1.0  T
  24   -433.1218145 -0.605884E-02  0.396E-01    0.14       1.0  T
  25   -433.1282105 -0.639597E-02  0.375E-01    0.12       1.0  T
  26   -433.1408718 -0.126613E-01  0.325E-01    0.11       1.0  T
  27   -433.1444533 -0.358143E-02  0.306E-01    0.11       1.0  T
  28   -433.1490154 -0.456217E-02  0.280E-01    0.11       1.0  T
  29   -433.1549243 -0.590883E-02  0.245E-01    0.10       1.0  T
  30   -433.1609500 -0.602567E-02  0.195E-01    0.11       1.0  T
  31   -433.1659988 -0.504880E-02  0.169E-01    0.09       1.0  T
  32   -433.1698886 -0.388982E-02  0.132E-01    0.09       1.0  T
  33   -433.1719811 -0.209251E-02  0.102E-01    0.08       1.0  T
  34   -433.1735335 -0.155237E-02  0.785E-02    0.08       1.0  T
  35   -433.1740836 -0.550194E-03  0.673E-02    0.08       1.0  T
  36   -433.1744664 -0.382733E-03  0.514E-02    0.07       1.0  T
  37   -433.1744338  0.325851E-04  0.361E-02    0.07       1.0  T
  38   -433.1744779 -0.441350E-04  0.338E-02    0.07       1.0  T
  39   -433.1745799 -0.101993E-03  0.326E-02    0.07       1.0  T
  40   -433.1746187 -0.388163E-04  0.285E-02    0.07       1.0  T
  41   -433.1746349 -0.161468E-04  0.261E-02    0.07       1.0  T
  42   -433.1746441 -0.923958E-05  0.236E-02    0.07       1.0  T
  43   -433.1746513 -0.717797E-05  0.231E-02    0.07       1.0  T
  44   -433.1746630 -0.117072E-04  0.208E-02    0.07       1.0  T
  45   -433.1746693 -0.632644E-05  0.186E-02    0.07       1.0  T
  46   -433.1746805 -0.111553E-04  0.149E-02    0.07       1.0  T
  47   -433.1746943 -0.138187E-04  0.106E-02    0.07       1.0  T
  48   -433.1747044 -0.100877E-04  0.547E-03    0.08       1.2  T
  49   -433.1747070 -0.259360E-05  0.241E-03    0.08       2.7  T
  50   -433.1747077 -0.699993E-06  0.172E-03    0.08       3.7  T
  51   -433.1747079 -0.249068E-06  0.750E-04    0.08       8.6  T
  52   -433.1747080 -0.989136E-07  0.366E-04    0.08      17.6  T

   *** convergence criteria satisfied after 52 iterations ***

         #    Occupation            Energy/Eh            Energy/eV
      -------------------------------------------------------------
         1        2.0000           -0.6837700             -18.6063
       ...           ...                  ...                  ...
       391        2.0000           -0.3579282              -9.7397
       392        2.0000           -0.3532172              -9.6115
       393        2.0000           -0.3501848              -9.5290
       394        2.0000           -0.3501664              -9.5285
       395        2.0000           -0.3480115              -9.4699
       396        1.9942           -0.3419330              -9.3045
       397        1.4769           -0.3373647              -9.1802 (HOMO)
       398        0.2685           -0.3346077              -9.1051 (LUMO)
       399        0.2604           -0.3345745              -9.1042
       400        0.0000           -0.3260524              -8.8723
       401                         -0.3198835              -8.7045
       402                         -0.3156772              -8.5900
       ...                                ...                  ...
       782                          2.2670734              61.6902
      -------------------------------------------------------------
                  HL-Gap            0.0027570 Eh            0.0750 eV
             Fermi-level           -0.3363787 Eh           -9.1533 eV

 SCC (total)                   0 d,  0 h,  0 min,  9.400 sec
 SCC setup                      ...        0 min,  0.011 sec (  0.112%)
 Dispersion                     ...        0 min,  0.023 sec (  0.240%)
 classical contributions        ...        0 min,  0.002 sec (  0.020%)
 integral evaluation            ...        0 min,  0.168 sec (  1.792%)
 iterations                     ...        0 min,  8.789 sec ( 93.492%)
 molecular gradient             ...        0 min,  0.385 sec (  4.094%)
 printout                       ...        0 min,  0.024 sec (  0.250%)

         :::::::::::::::::::::::::::::::::::::::::::::::::::::
         ::                     SUMMARY                     ::
         :::::::::::::::::::::::::::::::::::::::::::::::::::::
         :: total energy            -423.745996317704 Eh    ::
         :: gradient norm              2.002764245857 Eh/a0 ::
         :: HOMO-LUMO gap              0.075020947143 eV    ::
         ::.................................................::
         :: SCC energy              -433.174708043261 Eh    ::
         :: -> isotropic ES            0.411467949824 Eh    ::
         :: -> anisotropic ES          0.046497429812 Eh    ::
         :: -> anisotropic XC          0.293098565952 Eh    ::
         :: -> dispersion             -0.373795869330 Eh    ::
         :: repulsion energy           9.429634495092 Eh    ::
         :: add. restraining           0.000000000000 Eh    ::
         :: total charge              -0.000000000038 e     ::
         :::::::::::::::::::::::::::::::::::::::::::::::::::::

      ----------------------------------------------------------- 
     |                   =====================                   |
     |                        A N C O P T                        |
     |                   =====================                   |
     |               Approximate Normal Coordinate               |
     |                Rational Function Optimizer                |
      ----------------------------------------------------------- 

          ...................................................
          :                      SETUP                      :
          :.................................................:
          :   optimization level            normal          :
          :   max. optcycles                   726          :
          :   ANC micro-cycles                  20          :
          :   degrees of freedom               720          :
          :.................................................:
          :   RF solver                   davidson          :
          :   write xtbopt.log                true          :
          :   linear?                        false          :
          :   energy convergence         0.5000000E-05 Eh   :
          :   grad. convergence          0.1000000E-02 Eh/α :
          :   maximium RF displ.         1.0000000          :
          :   Hlow (freq-cutoff)         0.1000000E-01      :
          :   Hmax (freq-cutoff)         5.0000000          :
          :   S6 in model hess.         20.0000000          :
          ...................................................

generating ANC from model Hessian ...
Using Lindh-Hessian (1995)
 Shifting diagonal of input Hessian by    1.0134354595250760E-002
 Lowest  eigenvalues of input Hessian
    0.010000    0.010034    0.010100    0.010100    0.010100    0.010101
    0.010106    0.010110    0.010115    0.010117    0.010118    0.010122
    0.010124    0.010127    0.010129    0.010129    0.010132    0.000000
 Highest eigenvalues
    3.325873    3.327672    3.495154    3.495769    3.495770    3.495772


........................................................................
.............................. CYCLE    1 ..............................
........................................................................
   1   -433.1747081 -0.433175E+03  0.215E-04    0.07       0.0  T
   2   -433.1747036  0.446336E-05  0.201E-03    0.08       3.2  T
   3   -433.1747071 -0.354810E-05  0.963E-04    0.07       6.7  T
   4   -433.1747079 -0.735830E-06  0.462E-04    0.07      13.9  T
   5   -433.1747079 -0.622337E-07  0.419E-04    0.08      15.3  T
     SCC iter.                  ...        0 min,  0.853 sec
     gradient                   ...        0 min,  0.383 sec
 * total energy  :  -423.7459962 Eh     change        0.1087548E-06 Eh
   gradient norm :     2.0027676 Eh/α   predicted     0.0000000E+00 (-100.00%)
   displ. norm   :     0.6344197 α      lambda       -0.1192252E+01
   maximum displ.:     0.2282657 α      in ANC's #572, #706, #718, ...

........................................................................
.............................. CYCLE    2 ..............................
........................................................................
   1   -433.2078731 -0.433208E+03  0.384E-01    0.14       0.0  T
   2   -431.9596284  0.124824E+01  0.125E+00    0.17       1.0  T
   3   -433.1740581 -0.121443E+01  0.408E-01    0.35       1.0  T
   4   -433.2137082 -0.396501E-01  0.282E-01    0.10       1.0  T
   5   -432.8203721  0.393336E+00  0.783E-01    0.02       1.0  T
   6   -432.6781493  0.142223E+00  0.817E-01    0.14       1.0  T
   7   -432.9462871 -0.268138E+00  0.576E-01    0.04       1.0  T
   8   -433.2200184 -0.273731E+00  0.201E-01    0.13       1.0  T
   9   -433.2243029 -0.428451E-02  0.214E-01    0.14       1.0  T
  10   -433.2365526 -0.122497E-01  0.131E-01    0.09       1.0  T
  11   -433.2444247 -0.787211E-02  0.743E-02    0.10       1.0  T
  12   -433.2464498 -0.202509E-02  0.467E-02    0.09       1.0  T
  13   -433.2471262 -0.676415E-03  0.337E-02    0.09       1.0  T
  14   -433.2470036  0.122570E-03  0.383E-02    0.09       1.0  T
  15   -433.2475436 -0.539961E-03  0.221E-02    0.07       1.0  T
  16   -433.2476746 -0.131025E-03  0.120E-02    0.08       1.0  T
  17   -433.2477726 -0.980105E-04  0.451E-03    0.08       1.4  T
  18   -433.2477774 -0.482394E-05  0.363E-03    0.08       1.8  T
  19   -433.2477853 -0.783053E-05  0.212E-03    0.08       3.0  T
  20   -433.2477864 -0.109466E-05  0.161E-03    0.08       4.0  T
  21   -433.2477885 -0.211503E-05  0.451E-04    0.08      14.2  T
  22   -433.2477886 -0.878705E-07  0.308E-04    0.08      20.9  T
  23   -433.2477886  0.143135E-07  0.323E-04    0.08      19.9  T
     SCC iter.                  ...        0 min,  3.887 sec
     gradient                   ...        0 min,  0.384 sec
 * total energy  :  -424.5641913 Eh     change       -0.8181951E+00 Eh
   gradient norm :     0.8411138 Eh/α   predicted    -0.8360601E+00 (   2.18%)
   displ. norm   :     0.6036579 α      lambda       -0.4435789E+00
   maximum displ.:     0.1810817 α      in ANC's #572, #252, #247, ...

........................................................................
.............................. CYCLE    3 ..............................
........................................................................
   1   -433.2486995 -0.433249E+03  0.340E-01    0.05       0.0  T
   2   -433.2081790  0.405205E-01  0.377E-01    0.05       1.0  T
   3   -432.5858340  0.622345E+00  0.792E-01    0.10       1.0  T
   4   -433.1867917 -0.600958E+00  0.405E-01    0.15       1.0  T
   5   -432.7043481  0.482444E+00  0.744E-01    0.15       1.0  T
   6   -433.2094132 -0.505065E+00  0.329E-01    0.28       1.0  T
   7   -433.1741301  0.352831E-01  0.423E-01    0.19       1.0  T
   8   -433.2126904 -0.385603E-01  0.341E-01    0.14       1.0  T
   9   -433.2176697 -0.497930E-02  0.265E-01    0.21       1.0  T
  10   -433.2378494 -0.201797E-01  0.227E-01    0.10       1.0  T
  11   -433.2519908 -0.141414E-01  0.140E-01    0.09       1.0  T
  12   -433.2580490 -0.605817E-02  0.110E-01    0.09       1.0  T
  13   -433.2600411 -0.199216E-02  0.973E-02    0.09       1.0  T
  14   -433.2623953 -0.235413E-02  0.801E-02    0.09       1.0  T
  15   -433.2640631 -0.166783E-02  0.630E-02    0.08       1.0  T
  16   -433.2662082 -0.214515E-02  0.322E-02    0.07       1.0  T
  17   -433.2668122 -0.604007E-03  0.136E-02    0.07       1.0  T
  18   -433.2668067  0.558116E-05  0.129E-02    0.06       1.0  T
  19   -433.2668792 -0.725907E-04  0.846E-03    0.06       1.0  T
  20   -433.2669239 -0.446932E-04  0.408E-03    0.06       1.6  T
  21   -433.2669319 -0.799426E-05  0.236E-03    0.06       2.7  T
  22   -433.2669339 -0.191673E-05  0.162E-03    0.06       4.0  T
  23   -433.2669266  0.730284E-05  0.298E-03    0.06       2.2  T
  24   -433.2669348 -0.820555E-05  0.111E-03    0.06       5.8  T
  25   -433.2669359 -0.112182E-05  0.357E-04    0.06      18.0  T
  26   -433.2669360 -0.810623E-07  0.196E-04    0.06      32.8  T
  27   -433.2669359  0.439599E-07  0.239E-04    0.06      26.9  T
     SCC iter.                  ...        0 min,  4.578 sec
     gradient                   ...        0 min,  0.383 sec
 * total energy  :  -424.9015221 Eh     change       -0.3373309E+00 Eh
   gradient norm :     0.4183582 Eh/α   predicted    -0.3026103E+00 ( -10.29%)
   displ. norm   :     0.6696998 α      lambda       -0.2282909E+00
   maximum displ.:     0.2461613 α      in ANC's #252, #247, #276, ...

........................................................................
.............................. CYCLE    4 ..............................
........................................................................
   1   -433.3454682 -0.433345E+03  0.313E-01    0.07       0.0  T
   2   -432.7008782  0.644590E+00  0.962E-01    0.11       1.0  T
   3   -433.2357974 -0.534919E+00  0.424E-01    0.28       1.0  T
   4   -433.2250827  0.107147E-01  0.573E-01    0.09       1.0  T
   5   -433.3196075 -0.945247E-01  0.245E-01    0.04       1.0  T
   6   -432.6851220  0.634485E+00  0.796E-01    0.09       1.0  T
   7   -433.2922954 -0.607173E+00  0.387E-01    0.05       1.0  T
   8   -433.3227776 -0.304822E-01  0.210E-01    0.04       1.0  T
   9   -433.3563799 -0.336023E-01  0.734E-02    0.07       1.0  T
  10   -433.3541850  0.219494E-02  0.745E-02    0.04       1.0  T
  11   -433.3585902 -0.440527E-02  0.430E-02    0.05       1.0  T
  12   -433.3599443 -0.135411E-02  0.267E-02    0.06       1.0  T
  13   -433.3576770  0.226735E-02  0.533E-02    0.05       1.0  T
  14   -433.3601353 -0.245831E-02  0.168E-02    0.05       1.0  T
  15   -433.3601984 -0.630787E-04  0.111E-02    0.05       1.0  T
  16   -433.3602306 -0.322038E-04  0.823E-03    0.05       1.0  T
  17   -433.3602667 -0.360911E-04  0.411E-03    0.05       1.6  T
  18   -433.3602592  0.747936E-05  0.474E-03    0.05       1.4  T
  19   -433.3602717 -0.124507E-04  0.271E-03    0.05       2.4  T
  20   -433.3602751 -0.342585E-05  0.176E-03    0.05       3.7  T
  21   -433.3602776 -0.247756E-05  0.608E-04    0.05      10.6  T
  22   -433.3602778 -0.251228E-06  0.377E-04    0.05      17.0  T
  23   -433.3602778  0.383839E-07  0.358E-04    0.05      17.9  T
     SCC iter.                  ...        0 min,  3.901 sec
     gradient                   ...        0 min,  0.384 sec
 * total energy  :  -425.0739958 Eh     change       -0.1724737E+00 Eh
   gradient norm :     0.1861530 Eh/α   predicted    -0.1653397E+00 (  -4.14%)
   displ. norm   :     0.7532187 α      lambda       -0.1228603E+00
   maximum displ.:     0.3049850 α      in ANC's #252, #247, #192, ...

........................................................................
.............................. CYCLE    5 ..............................
........................................................................
   1   -433.4313441 -0.433431E+03  0.312E-01    0.10       0.0  T
   2   -432.6279672  0.803377E+00  0.109E+00    0.21       1.0  T
   3   -433.0734725 -0.445505E+00  0.829E-01    0.22       1.0  T
   4   -433.3864343 -0.312962E+00  0.411E-01    0.10       1.0  T
   5   -433.4280433 -0.416090E-01  0.213E-01    0.09       1.0  T
   6   -433.3287386  0.993047E-01  0.506E-01    0.00       1.0  T
   7   -433.3095248  0.192138E-01  0.359E-01    0.02       1.0  T
   8   -433.3762736 -0.667488E-01  0.248E-01    0.01       1.0  T
   9   -433.4487212 -0.724476E-01  0.563E-02    0.06       1.0  T
  10   -433.4499717 -0.125051E-02  0.378E-02    0.05       1.0  T
  11   -433.4497145  0.257233E-03  0.457E-02    0.04       1.0  T
  12   -433.4505225 -0.808003E-03  0.311E-02    0.05       1.0  T
  13   -433.4498343  0.688148E-03  0.410E-02    0.04       1.0  T
  14   -433.4509453 -0.111090E-02  0.686E-03    0.05       1.0  T
  15   -433.4509618 -0.165689E-04  0.704E-03    0.05       1.0  T
  16   -433.4509701 -0.824575E-05  0.576E-03    0.05       1.1  T
  17   -433.4509780 -0.798279E-05  0.383E-03    0.05       1.7  T
  18   -433.4509822 -0.416595E-05  0.194E-03    0.05       3.3  T
  19   -433.4509837 -0.147038E-05  0.121E-03    0.05       5.3  T
  20   -433.4509840 -0.305356E-06  0.110E-03    0.05       5.8  T
  21   -433.4509844 -0.385319E-06  0.513E-04    0.05      12.5  T
  22   -433.4509845 -0.110241E-06  0.736E-05    0.05      87.4  T
     SCC iter.                  ...        0 min,  3.727 sec
     gradient                   ...        0 min,  0.433 sec
 * total energy  :  -425.1751943 Eh     change       -0.1011985E+00 Eh
   gradient norm :     0.1175431 Eh/α   predicted    -0.9628186E-01 (  -4.86%)
   displ. norm   :     0.7991506 α      lambda       -0.8573872E-01
   maximum displ.:     0.3096221 α      in ANC's #252, #247, #192, ...

........................................................................
.............................. CYCLE    6 ..............................
........................................................................
   1   -433.4983319 -0.433498E+03  0.305E-01    0.12       0.0  T
   2   -432.6680513  0.830281E+00  0.112E+00    0.21       1.0  T
   3   -433.1811523 -0.513101E+00  0.802E-01    0.23       1.0  T
   4   -433.4686763 -0.287524E+00  0.346E-01    0.13       1.0  T
   5   -433.4822464 -0.135700E-01  0.190E-01    0.06       1.0  T
   6   -432.7746318  0.707615E+00  0.826E-01    0.17       1.0  T
   7   -433.5069410 -0.732309E+00  0.142E-01    0.08       1.0  T
   8   -433.5039403  0.300064E-02  0.151E-01    0.06       1.0  T
   9   -433.5159024 -0.119621E-01  0.494E-02    0.06       1.0  T
  10   -433.5160307 -0.128282E-03  0.465E-02    0.06       1.0  T
  11   -433.5161368 -0.106113E-03  0.466E-02    0.06       1.0  T
  12   -433.5149653  0.117156E-02  0.617E-02    0.05       1.0  T
  13   -433.5168162 -0.185089E-02  0.146E-02    0.06       1.0  T
  14   -433.5168481 -0.318777E-04  0.135E-02    0.07       1.0  T
  15   -433.5169363 -0.881997E-04  0.826E-03    0.07       1.0  T
  16   -433.5169388 -0.255095E-05  0.779E-03    0.07       1.0  T
  17   -433.5169642 -0.254125E-04  0.511E-03    0.06       1.3  T
  18   -433.5169700 -0.574955E-05  0.317E-03    0.06       2.0  T
  19   -433.5169718 -0.182319E-05  0.243E-03    0.06       2.6  T
  20   -433.5169740 -0.217694E-05  0.140E-03    0.06       4.6  T
  21   -433.5169749 -0.937387E-06  0.639E-04    0.06      10.1  T
  22   -433.5169751 -0.155457E-06  0.321E-04    0.06      20.0  T
     SCC iter.                  ...        0 min,  3.725 sec
     gradient                   ...        0 min,  0.383 sec
 * total energy  :  -425.2479289 Eh     change       -0.7273454E-01 Eh
   gradient norm :     0.0897656 Eh/α   predicted    -0.7024754E-01 (  -3.42%)
   displ. norm   :     0.8159658 α      lambda       -0.6253982E-01
   maximum displ.:     0.2759209 α      in ANC's #252, #138, #192, ...

........................................................................
.............................. CYCLE    7 ..............................
........................................................................
   1   -433.5533515 -0.433553E+03  0.276E-01    0.12       0.0  T
   2   -432.6742168  0.879135E+00  0.111E+00    0.20       1.0  T
   3   -433.4560440 -0.781827E+00  0.447E-01    0.20       1.0  T
   4   -433.4831749 -0.271309E-01  0.450E-01    0.18       1.0  T
   5   -433.5333586 -0.501837E-01  0.182E-01    0.07       1.0  T
   6   -433.1855839  0.347775E+00  0.576E-01    0.06       1.0  T
   7   -433.5442263 -0.358642E+00  0.195E-01    0.13       1.0  T
   8   -433.5492218 -0.499550E-02  0.164E-01    0.12       1.0  T
   9   -433.5611350 -0.119132E-01  0.742E-02    0.09       1.0  T
  10   -433.5622782 -0.114319E-02  0.597E-02    0.09       1.0  T
  11   -433.5626454 -0.367236E-03  0.560E-02    0.09       1.0  T
  12   -433.5633370 -0.691578E-03  0.457E-02    0.09       1.0  T
  13   -433.5646237 -0.128669E-02  0.208E-02    0.08       1.0  T
  14   -433.5647421 -0.118471E-03  0.153E-02    0.07       1.0  T
  15   -433.5648758 -0.133607E-03  0.835E-03    0.08       1.0  T
  16   -433.5649225 -0.467766E-04  0.549E-03    0.08       1.2  T
  17   -433.5649303 -0.775735E-05  0.325E-03    0.08       2.0  T
  18   -433.5649331 -0.277172E-05  0.247E-03    0.08       2.6  T
  19   -433.5649341 -0.103163E-05  0.216E-03    0.08       3.0  T
  20   -433.5649350 -0.876095E-06  0.170E-03    0.08       3.8  T
  21   -433.5649360 -0.100478E-05  0.103E-03    0.08       6.2  T
  22   -433.5649364 -0.457912E-06  0.582E-04    0.08      11.0  T
  23   -433.5649365 -0.768864E-07  0.484E-04    0.08      13.3  T
     SCC iter.                  ...        0 min,  3.899 sec
     gradient                   ...        0 min,  0.383 sec
 * total energy  :  -425.3015384 Eh     change       -0.5360955E-01 Eh
   gradient norm :     0.0684106 Eh/α   predicted    -0.5208943E-01 (  -2.84%)
   displ. norm   :     0.8299158 α      lambda       -0.4641688E-01
   maximum displ.:     0.2724522 α      in ANC's #138, #252, #134, ...

........................................................................
.............................. CYCLE    8 ..............................
........................................................................
   1   -433.5909950 -0.433591E+03  0.253E-01    0.13       0.0  T
   2   -432.6548555  0.936139E+00  0.109E+00    0.17       1.0  T
   3   -433.5685353 -0.913680E+00  0.246E-01    0.20       1.0  T
   4   -433.2025281  0.366007E+00  0.855E-01    0.06       1.0  T
   5   -433.5684375 -0.365909E+00  0.260E-01    0.18       1.0  T
   6   -433.5649546  0.348294E-02  0.273E-01    0.12       1.0  T
   7   -433.5767351 -0.117806E-01  0.179E-01    0.15       1.0  T
   8   -433.5822002 -0.546512E-02  0.158E-01    0.13       1.0  T
   9   -433.5890711 -0.687091E-02  0.110E-01    0.15       1.0  T
  10   -433.5901338 -0.106267E-02  0.102E-01    0.15       1.0  T
  11   -433.5894319  0.701898E-03  0.107E-01    0.15       1.0  T
  12   -433.5928873 -0.345540E-02  0.811E-02    0.13       1.0  T
  13   -433.5959908 -0.310348E-02  0.392E-02    0.09       1.0  T
  14   -433.5977110 -0.172026E-02  0.142E-02    0.09       1.0  T
  15   -433.5975631  0.147986E-03  0.208E-02    0.10       1.0  T
  16   -433.5971812  0.381887E-03  0.286E-02    0.10       1.0  T
  17   -433.5978184 -0.637211E-03  0.606E-03    0.09       1.1  T
  18   -433.5978249 -0.648249E-05  0.380E-03    0.09       1.7  T
  19   -433.5978216  0.328877E-05  0.388E-03    0.09       1.7  T
  20   -433.5978364 -0.147727E-04  0.148E-03    0.09       4.3  T
  21   -433.5978356  0.766328E-06  0.156E-03    0.09       4.1  T
  22   -433.5978374 -0.183467E-05  0.849E-04    0.09       7.6  T
  23   -433.5978381 -0.635633E-06  0.212E-04    0.09      30.3  T
  24   -433.5978381 -0.251654E-07  0.131E-04    0.09      49.1  T
     SCC iter.                  ...        0 min,  4.056 sec
     gradient                   ...        0 min,  0.384 sec
 * total energy  :  -425.3418934 Eh     change       -0.4035499E-01 Eh
   gradient norm :     0.0518907 Eh/α   predicted    -0.3919351E-01 (  -2.88%)
   displ. norm   :     0.8501889 α      lambda       -0.3585770E-01
   maximum displ.:     0.2681347 α      in ANC's #138, #46, #50, ...

........................................................................
.............................. CYCLE    9 ..............................
........................................................................
   1   -433.6085313 -0.433609E+03  0.248E-01    0.14       0.0  T
   2   -432.6602024  0.948329E+00  0.106E+00    0.11       1.0  T
   3   -433.5492980 -0.889096E+00  0.413E-01    0.26       1.0  T
   4   -433.4473209  0.101977E+00  0.611E-01    0.25       1.0  T
   5   -433.5710355 -0.123715E+00  0.300E-01    0.16       1.0  T
   6   -433.5829398 -0.119043E-01  0.272E-01    0.24       1.0  T
   7   -433.5902884 -0.734864E-02  0.217E-01    0.28       1.0  T
   8   -433.5983781 -0.808965E-02  0.174E-01    0.19       1.0  T
   9   -433.6048570 -0.647890E-02  0.127E-01    0.18       1.0  T
  10   -433.6058345 -0.977489E-03  0.117E-01    0.17       1.0  T
  11   -433.6073752 -0.154069E-02  0.107E-01    0.17       1.0  T
  12   -433.6114934 -0.411817E-02  0.717E-02    0.14       1.0  T
  13   -433.6135763 -0.208293E-02  0.405E-02    0.10       1.0  T
  14   -433.6142463 -0.669971E-03  0.317E-02    0.11       1.0  T
  15   -433.6141926  0.536891E-04  0.342E-02    0.11       1.0  T
  16   -433.6144301 -0.237566E-03  0.287E-02    0.11       1.0  T
  17   -433.6147572 -0.327088E-03  0.145E-02    0.11       1.0  T
  18   -433.6148699 -0.112666E-03  0.574E-03    0.10       1.1  T
  19   -433.6148830 -0.130839E-04  0.369E-03    0.10       1.7  T
  20   -433.6148872 -0.426342E-05  0.257E-03    0.10       2.5  T
  21   -433.6148834  0.382475E-05  0.302E-03    0.10       2.1  T
  22   -433.6148914 -0.801696E-05  0.625E-04    0.10      10.3  T
  23   -433.6148918 -0.356759E-06  0.270E-04    0.10      23.8  T
  24   -433.6148918 -0.212187E-07  0.172E-04    0.10      37.4  T
     SCC iter.                  ...        0 min,  4.049 sec
     gradient                   ...        0 min,  0.384 sec
 * total energy  :  -425.3737412 Eh     change       -0.3184774E-01 Eh
   gradient norm :     0.0417582 Eh/α   predicted    -0.3088830E-01 (  -3.01%)
   displ. norm   :     0.8790177 α      lambda       -0.2948569E-01
   maximum displ.:     0.2975473 α      in ANC's #46, #50, #138, ...

........................................................................
.............................. CYCLE   10 ..............................
........................................................................
   1   -433.6135737 -0.433614E+03  0.247E-01    0.17       0.0  T
   2   -432.6335120  0.980062E+00  0.105E+00    0.09       1.0  T
   3   -433.5420421 -0.908530E+00  0.462E-01    0.30       1.0  T
   4   -433.5430447 -0.100256E-02  0.424E-01    0.25       1.0  T
   5   -433.5633728 -0.203281E-01  0.365E-01    0.21       1.0  T
   6   -433.6017568 -0.383839E-01  0.213E-01    0.24       1.0  T
   7   -433.6062125 -0.445570E-02  0.168E-01    0.26       1.0  T
   8   -433.6121122 -0.589975E-02  0.126E-01    0.19       1.0  T
   9   -433.6142377 -0.212546E-02  0.105E-01    0.20       1.0  T
  10   -433.6148358 -0.598145E-03  0.976E-02    0.19       1.0  T
  11   -433.6155183 -0.682474E-03  0.922E-02    0.18       1.0  T
  12   -433.6182222 -0.270393E-02  0.648E-02    0.16       1.0  T
  13   -433.6205363 -0.231412E-02  0.293E-02    0.13       1.0  T
  14   -433.6204156  0.120702E-03  0.310E-02    0.13       1.0  T
  15   -433.6203979  0.177289E-04  0.276E-02    0.12       1.0  T
  16   -433.6205893 -0.191407E-03  0.240E-02    0.13       1.0  T
  17   -433.6209641 -0.374805E-03  0.445E-03    0.12       1.4  T
  18   -433.6209632  0.894284E-06  0.286E-03    0.12       2.2  T
  19   -433.6209701 -0.692714E-05  0.136E-03    0.12       4.7  T
  20   -433.6209701  0.749191E-07  0.119E-03    0.12       5.4  T
  21   -433.6209694  0.618367E-06  0.125E-03    0.12       5.1  T
  22   -433.6209709 -0.146800E-05  0.450E-04    0.12      14.3  T
  23   -433.6209711 -0.166965E-06  0.239E-04    0.12      26.9  T
  24   -433.6209711 -0.250687E-07  0.131E-04    0.12      49.0  T
     SCC iter.                  ...        0 min,  4.055 sec
     gradient                   ...        0 min,  0.384 sec
 * total energy  :  -425.4007302 Eh     change       -0.2698907E-01 Eh
   gradient norm :     0.0358732 Eh/α   predicted    -0.2613424E-01 (  -3.17%)
   displ. norm   :     0.9174362 α      lambda       -0.2637290E-01
   maximum displ.:     0.3333648 α      in ANC's #46, #50, #34, ...

........................................................................
.............................. CYCLE   11 ..............................
........................................................................
   1   -433.6137756 -0.433614E+03  0.245E-01    0.21       0.0  T
   2   -432.7154317  0.898344E+00  0.975E-01    0.07       1.0  T
   3   -433.5596684 -0.844237E+00  0.413E-01    0.36       1.0  T
   4   -433.5716568 -0.119885E-01  0.349E-01    0.29       1.0  T
   5   -433.5752290 -0.357214E-02  0.336E-01    0.28       1.0  T
   6   -433.6091801 -0.339511E-01  0.165E-01    0.30       1.0  T
   7   -433.6130809 -0.390086E-02  0.121E-01    0.30       1.0  T
   8   -433.6159238 -0.284288E-02  0.945E-02    0.24       1.0  T
   9   -433.6171124 -0.118856E-02  0.796E-02    0.24       1.0  T
  10   -433.6172559 -0.143581E-03  0.771E-02    0.23       1.0  T
  11   -433.6178459 -0.589975E-03  0.722E-02    0.22       1.0  T
  12   -433.6197766 -0.193068E-02  0.467E-02    0.19       1.0  T
  13   -433.6210354 -0.125879E-02  0.206E-02    0.16       1.0  T
  14   -433.6208864  0.148975E-03  0.232E-02    0.15       1.0  T
  15   -433.6210634 -0.176939E-03  0.182E-02    0.16       1.0  T
  16   -433.6211910 -0.127653E-03  0.105E-02    0.15       1.0  T
  17   -433.6212424 -0.513443E-04  0.540E-03    0.14       1.2  T
  18   -433.6212543 -0.119543E-04  0.145E-03    0.14       4.4  T
  19   -433.6212540  0.280723E-06  0.132E-03    0.14       4.9  T
  20   -433.6212550 -0.942722E-06  0.772E-04    0.14       8.3  T
  21   -433.6212553 -0.358024E-06  0.394E-04    0.14      16.3  T
     SCC iter.                  ...        0 min,  3.577 sec
     gradient                   ...        0 min,  0.383 sec
 * total energy  :  -425.4259522 Eh     change       -0.2522196E-01 Eh
   gradient norm :     0.0333930 Eh/α   predicted    -0.2428537E-01 (  -3.71%)
   displ. norm   :     0.9628221 α      lambda       -0.2638969E-01
   maximum displ.:     0.3485442 α      in ANC's #46, #50, #35, ...

........................................................................
.............................. CYCLE   12 ..............................
........................................................................
   1   -433.6112000 -0.433611E+03  0.251E-01    0.28       0.0  T
   2   -433.2314527  0.379747E+00  0.652E-01    0.04       1.0  T
   3   -433.5817792 -0.350326E+00  0.298E-01    0.18       1.0  T
   4   -433.5818281 -0.488489E-04  0.302E-01    0.32       1.0  T
   5   -433.5858403 -0.401219E-02  0.294E-01    0.45       1.0  T
   6   -433.6061545 -0.203142E-01  0.152E-01    0.27       1.0  T
   7   -433.6093043 -0.314982E-02  0.130E-01    0.18       1.0  T
   8   -433.6123746 -0.307033E-02  0.102E-01    0.26       1.0  T
   9   -433.6145406 -0.216592E-02  0.725E-02    0.24       1.0  T
  10   -433.6149720 -0.431445E-03  0.657E-02    0.25       1.0  T
  11   -433.6157821 -0.810143E-03  0.534E-02    0.25       1.0  T
  12   -433.6170101 -0.122796E-02  0.279E-02    0.24       1.0  T
  13   -433.6174934 -0.483253E-03  0.955E-03    0.17       1.0  T
  14   -433.6173314  0.161975E-03  0.173E-02    0.21       1.0  T
  15   -433.6175297 -0.198311E-03  0.674E-03    0.17       1.0  T
  16   -433.6175621 -0.324377E-04  0.338E-03    0.18       1.9  T
  17   -433.6175702 -0.808446E-05  0.121E-03    0.18       5.3  T
  18   -433.6175701  0.908951E-07  0.106E-03    0.18       6.1  T
  19   -433.6175707 -0.554780E-06  0.665E-04    0.18       9.7  T
  20   -433.6175710 -0.340205E-06  0.238E-04    0.18      27.0  T
     SCC iter.                  ...        0 min,  3.373 sec
     gradient                   ...        0 min,  0.383 sec
 * total energy  :  -425.4526530 Eh     change       -0.2670080E-01 Eh
   gradient norm :     0.0356528 Eh/α   predicted    -0.2542681E-01 (  -4.77%)
   displ. norm   :     0.9541899 α      lambda       -0.2768387E-01
   maximum displ.:     0.3315316 α      in ANC's #46, #35, #34, ...

........................................................................
.............................. CYCLE   13 ..............................
........................................................................
   1   -433.5964434 -0.433596E+03  0.246E-01    0.37       0.0  T
   2   -433.5672482  0.291952E-01  0.288E-01    0.13       1.0  T
   3   -433.5771638 -0.991555E-02  0.264E-01    0.46       1.0  T
   4   -433.5818164 -0.465269E-02  0.218E-01    0.52       1.0  T
   5   -433.5991196 -0.173031E-01  0.528E-02    0.38       1.0  T
   6   -433.5996051 -0.485508E-03  0.426E-02    0.30       1.0  T
   7   -433.6001088 -0.503680E-03  0.177E-02    0.30       1.0  T
   8   -433.6001592 -0.504158E-04  0.145E-02    0.27       1.0  T
   9   -433.6001902 -0.310134E-04  0.854E-03    0.27       1.0  T
  10   -433.6001972 -0.696920E-05  0.557E-03    0.26       1.2  T
  11   -433.6001990 -0.182929E-05  0.272E-03    0.26       2.4  T
  12   -433.6002018 -0.280653E-05  0.147E-03    0.26       4.4  T
  13   -433.6002022 -0.369986E-06  0.892E-04    0.26       7.2  T
  14   -433.6002024 -0.178257E-06  0.390E-04    0.26      16.5  T
     SCC iter.                  ...        0 min,  2.369 sec
     gradient                   ...        0 min,  0.383 sec
 * total energy  :  -425.4818935 Eh     change       -0.2924049E-01 Eh
   gradient norm :     0.0465663 Eh/α   predicted    -0.2644471E-01 (  -9.56%)
   displ. norm   :     0.9249641 α      lambda       -0.3157503E-01
   maximum displ.:     0.3283275 α      in ANC's #35, #34, #22, ...

........................................................................
.............................. CYCLE   14 ..............................
........................................................................
   1   -433.5813741 -0.433581E+03  0.243E-01    0.53       0.0  T
   2   -433.5719144  0.945973E-02  0.215E-01    0.40       1.0  T
   3   -433.5649698  0.694462E-02  0.251E-01    0.53       1.0  T
   4   -433.5768324 -0.118626E-01  0.139E-01    0.56       1.0  T
   5   -433.5835167 -0.668431E-02  0.361E-02    0.49       1.0  T
   6   -433.5837839 -0.267189E-03  0.140E-02    0.47       1.0  T
   7   -433.5838508 -0.669414E-04  0.566E-03    0.49       1.1  T
   8   -433.5838566 -0.581260E-05  0.288E-03    0.48       2.2  T
   9   -433.5838563  0.329794E-06  0.205E-03    0.49       3.1  T
  10   -433.5838577 -0.141902E-05  0.677E-04    0.48       9.5  T
  11   -433.5838579 -0.126141E-06  0.378E-04    0.48      17.0  T
  12   -433.5838579 -0.286728E-07  0.209E-04    0.48      30.8  T
     SCC iter.                  ...        0 min,  2.032 sec
     gradient                   ...        0 min,  0.384 sec
 * total energy  :  -425.5162169 Eh     change       -0.3432341E-01 Eh
   gradient norm :     0.0607872 Eh/α   predicted    -0.2929465E-01 ( -14.65%)
   displ. norm   :     0.8952120 α      lambda       -0.3807601E-01
   maximum displ.:     0.3262924 α      in ANC's #22, #35, #34, ...

........................................................................
.............................. CYCLE   15 ..............................
........................................................................
   1   -433.5682432 -0.433568E+03  0.233E-01    0.84       0.0  T
   2   -433.5642982  0.394501E-02  0.176E-01    0.78       1.0  T
   3   -433.5573968  0.690138E-02  0.213E-01    0.88       1.0  T
   4   -433.5681879 -0.107910E-01  0.744E-02    0.88       1.0  T
   5   -433.5696853 -0.149740E-02  0.346E-02    0.85       1.0  T
   6   -433.5700390 -0.353765E-03  0.598E-03    0.85       1.1  T
   7   -433.5700448 -0.578436E-05  0.373E-03    0.85       1.7  T
   8   -433.5700469 -0.213422E-05  0.230E-03    0.85       2.8  T
   9   -433.5700479 -0.978405E-06  0.117E-03    0.85       5.5  T
  10   -433.5700483 -0.353137E-06  0.433E-04    0.85      14.9  T
  11   -433.5700483 -0.273598E-07  0.269E-04    0.85      23.9  T
     SCC iter.                  ...        0 min,  1.862 sec
     gradient                   ...        0 min,  0.383 sec
 * total energy  :  -425.5573921 Eh     change       -0.4117522E-01 Eh
   gradient norm :     0.0734684 Eh/α   predicted    -0.3429515E-01 ( -16.71%)
   displ. norm   :     0.8776115 α      lambda       -0.4496069E-01
   maximum displ.:     0.3381123 α      in ANC's #22, #35, #34, ...

........................................................................
.............................. CYCLE   16 ..............................
........................................................................
   1   -433.5603167 -0.433560E+03  0.213E-01    1.01       0.0  T
   2   -433.5584825  0.183423E-02  0.155E-01    1.01       1.0  T
   3   -433.5540961  0.438639E-02  0.170E-01    1.01       1.0  T
   4   -433.5612963 -0.720019E-02  0.344E-02    1.01       1.0  T
   5   -433.5614613 -0.164938E-03  0.233E-02    1.01       1.0  T
   6   -433.5616180 -0.156709E-03  0.495E-03    1.01       1.3  T
   7   -433.5616208 -0.284661E-05  0.341E-03    1.01       1.9  T
   8   -433.5616234 -0.256066E-05  0.189E-03    1.01       3.4  T
   9   -433.5616242 -0.838806E-06  0.786E-04    1.01       8.2  T
  10   -433.5616243 -0.107122E-06  0.361E-04    1.01      17.8  T
     SCC iter.                  ...        0 min,  1.693 sec
     gradient                   ...        0 min,  0.383 sec
 * total energy  :  -425.6048380 Eh     change       -0.4744591E-01 Eh
   gradient norm :     0.0805821 Eh/α   predicted    -0.3979491E-01 ( -16.13%)
   displ. norm   :     0.8706288 α      lambda       -0.4903544E-01
   maximum displ.:     0.3553593 α      in ANC's #22, #35, #34, ...

........................................................................
.............................. CYCLE   17 ..............................
........................................................................
   1   -433.5586952 -0.433559E+03  0.193E-01    1.02       0.0  T
   2   -433.5573770  0.131821E-02  0.147E-01    1.02       1.0  T
   3   -433.5550615  0.231553E-02  0.135E-01    1.02       1.0  T
   4   -433.5595725 -0.451107E-02  0.247E-02    1.02       1.0  T
   5   -433.5596996 -0.127061E-03  0.123E-02    1.02       1.0  T
   6   -433.5597516 -0.520280E-04  0.471E-03    1.02       1.4  T
   7   -433.5597551 -0.349408E-05  0.276E-03    1.02       2.3  T
   8   -433.5597559 -0.807872E-06  0.147E-03    1.02       4.4  T
   9   -433.5597565 -0.553432E-06  0.685E-04    1.02       9.4  T
  10   -433.5597566 -0.121473E-06  0.297E-04    1.02      21.7  T
     SCC iter.                  ...        0 min,  1.694 sec
     gradient                   ...        0 min,  0.383 sec
 * total energy  :  -425.6513684 Eh     change       -0.4653038E-01 Eh
   gradient norm :     0.0759791 Eh/α   predicted    -0.4310209E-01 (  -7.37%)
   displ. norm   :     0.9305096 α      lambda       -0.5497774E-01
   maximum displ.:     0.3916219 α      in ANC's #22, #35, #34, ...

........................................................................
.............................. CYCLE   18 ..............................
........................................................................
   1   -433.6042869 -0.433604E+03  0.221E-01    1.00       0.0  T
   2   -433.6025249  0.176202E-02  0.173E-01    1.00       1.0  T
   3   -433.6001674  0.235749E-02  0.144E-01    1.00       1.0  T
   4   -433.6053566 -0.518925E-02  0.343E-02    1.00       1.0  T
   5   -433.6056604 -0.303807E-03  0.148E-02    1.00       1.0  T
   6   -433.6057479 -0.874951E-04  0.545E-03    1.00       1.2  T
   7   -433.6057519 -0.393122E-05  0.312E-03    1.00       2.1  T
   8   -433.6057531 -0.124815E-05  0.190E-03    1.00       3.4  T
   9   -433.6057540 -0.939403E-06  0.692E-04    1.00       9.3  T
  10   -433.6057542 -0.111185E-06  0.298E-04    1.00      21.6  T
     SCC iter.                  ...        0 min,  1.694 sec
     gradient                   ...        0 min,  0.383 sec
 * total energy  :  -425.6973335 Eh     change       -0.4596509E-01 Eh
   gradient norm :     0.0910610 Eh/α   predicted    -0.5129006E-01 (  11.58%)
   displ. norm   :     0.8144331 α      lambda       -0.4306319E-01
   maximum displ.:     0.3463660 α      in ANC's #22, #35, #34, ...

........................................................................
.............................. CYCLE   19 ..............................
........................................................................
   1   -433.6328983 -0.433633E+03  0.158E-01    0.99       0.0  T
   2   -433.6317848  0.111347E-02  0.132E-01    0.99       1.0  T
   3   -433.6315189  0.265883E-03  0.909E-02    0.99       1.0  T
   4   -433.6333909 -0.187203E-02  0.295E-02    0.99       1.0  T
   5   -433.6336784 -0.287427E-03  0.718E-03    0.99       1.0  T
   6   -433.6336905 -0.121463E-04  0.377E-03    0.99       1.7  T
   7   -433.6336930 -0.246202E-05  0.219E-03    0.99       2.9  T
   8   -433.6336935 -0.472922E-06  0.980E-04    0.99       6.6  T
   9   -433.6336937 -0.282927E-06  0.334E-04    0.99      19.2  T
     SCC iter.                  ...        0 min,  1.557 sec
     gradient                   ...        0 min,  0.385 sec
 * total energy  :  -425.7298610 Eh     change       -0.3252750E-01 Eh
   gradient norm :     0.0851704 Eh/α   predicted    -0.3581352E-01 (  10.10%)
   displ. norm   :     0.7448765 α      lambda       -0.3595679E-01
   maximum displ.:     0.3426601 α      in ANC's #22, #35, #34, ...

........................................................................
.............................. CYCLE   20 ..............................
........................................................................
   1   -433.6907453 -0.433691E+03  0.138E-01    0.99       0.0  T
   2   -433.6906599  0.854007E-04  0.943E-02    0.99       1.0  T
   3   -433.6891447  0.151517E-02  0.778E-02    0.99       1.0  T
   4   -433.6909315 -0.178677E-02  0.218E-02    0.99       1.0  T
   5   -433.6910524 -0.120941E-03  0.542E-03    0.99       1.2  T
   6   -433.6910582 -0.578211E-05  0.275E-03    0.99       2.3  T
   7   -433.6910586 -0.378995E-06  0.190E-03    0.99       3.4  T
   8   -433.6910594 -0.794863E-06  0.624E-04    0.99      10.3  T
   9   -433.6910595 -0.123012E-06  0.294E-04    0.99      21.8  T
     SCC iter.                  ...        0 min,  1.528 sec
     gradient                   ...        0 min,  0.383 sec
 * total energy  :  -425.7583877 Eh     change       -0.2852670E-01 Eh
   gradient norm :     0.0595690 Eh/α   predicted    -0.2795354E-01 (  -2.01%)
   displ. norm   :     0.8775460 α      lambda       -0.3075647E-01
   maximum displ.:     0.4482464 α      in ANC's #22, #34, #35, ...
 * RMSD in coord.:     0.8193535 α      energy gain  -0.2012391E+01 Eh

generating ANC from model Hessian ...
Using Lindh-Hessian (1995)
 Shifting diagonal of input Hessian by    1.0033743702938193E-002
 Lowest  eigenvalues of input Hessian
    0.010000    0.010009    0.010020    0.010021    0.010022    0.010025
    0.010025    0.010028    0.010029    0.010031    0.010031    0.010032
    0.010032    0.010033    0.000000    0.000000    0.000000    0.000000
 Highest eigenvalues
    2.708388    2.712124    2.750139    3.045952    3.050540    3.095211


........................................................................
.............................. CYCLE   21 ..............................
........................................................................
   1   -433.7484069 -0.433748E+03  0.118E-01    0.98       0.0  T
   2   -433.7482595  0.147346E-03  0.786E-02    0.98       1.0  T
   3   -433.7458831  0.237641E-02  0.819E-02    0.98       1.0  T
   4   -433.7484991 -0.261599E-02  0.151E-02    0.98       1.0  T
   5   -433.7485665 -0.674181E-04  0.354E-03    0.98       1.8  T
   6   -433.7485698 -0.324418E-05  0.172E-03    0.98       3.7  T
   7   -433.7485699 -0.138447E-06  0.125E-03    0.98       5.1  T
   8   -433.7485704 -0.444962E-06  0.493E-04    0.98      13.0  T
   9   -433.7485704 -0.565378E-07  0.178E-04    0.98      36.1  T
     SCC iter.                  ...        0 min,  1.530 sec
     gradient                   ...        0 min,  0.384 sec
 * total energy  :  -425.7859354 Eh     change       -0.2754768E-01 Eh
   gradient norm :     0.0486939 Eh/α   predicted     0.0000000E+00 (-100.00%)
   displ. norm   :     0.7771284 α      lambda       -0.2347461E-01
   maximum displ.:     0.5398475 α      in ANC's #48, #53, #49, ...

........................................................................
.............................. CYCLE   22 ..............................
........................................................................
   1   -433.8002450 -0.433800E+03  0.872E-02    0.97       0.0  T
   2   -433.8002059  0.391094E-04  0.540E-02    0.97       1.0  T
   3   -433.7989018  0.130413E-02  0.499E-02    0.97       1.0  T
   4   -433.8002694 -0.136768E-02  0.756E-03    0.97       1.0  T
   5   -433.8002890 -0.196001E-04  0.224E-03    0.97       2.9  T
   6   -433.8002902 -0.118784E-05  0.963E-04    0.97       6.7  T
   7   -433.8002902 -0.239448E-07  0.649E-04    0.97       9.9  T
   8   -433.8002904 -0.107018E-06  0.310E-04    0.97      20.7  T
     SCC iter.                  ...        0 min,  1.359 sec
     gradient                   ...        0 min,  0.384 sec
 * total energy  :  -425.8083072 Eh     change       -0.2237185E-01 Eh
   gradient norm :     0.0363381 Eh/α   predicted    -0.1882611E-01 ( -15.85%)
   displ. norm   :     0.9280702 α      lambda       -0.2560254E-01
   maximum displ.:     0.6346105 α      in ANC's #48, #53, #49, ...

........................................................................
.............................. CYCLE   23 ..............................
........................................................................
   1   -433.8506471 -0.433851E+03  0.103E-01    0.96       0.0  T
   2   -433.8505974  0.496956E-04  0.636E-02    0.96       1.0  T
   3   -433.8488720  0.172547E-02  0.581E-02    0.96       1.0  T
   4   -433.8506810 -0.180903E-02  0.871E-03    0.96       1.0  T
   5   -433.8507070 -0.259794E-04  0.251E-03    0.96       2.6  T
   6   -433.8507084 -0.144403E-05  0.108E-03    0.96       6.0  T
   7   -433.8507085 -0.368850E-07  0.737E-04    0.96       8.7  T
   8   -433.8507086 -0.133362E-06  0.353E-04    0.96      18.2  T
     SCC iter.                  ...        0 min,  1.362 sec
     gradient                   ...        0 min,  0.386 sec
 * total energy  :  -425.8324590 Eh     change       -0.2415183E-01 Eh
   gradient norm :     0.0266645 Eh/α   predicted    -0.2382718E-01 (  -1.34%)
   displ. norm   :     0.9509066 α      lambda       -0.2388193E-01
   maximum displ.:     0.6598818 α      in ANC's #48, #53, #49, ...

........................................................................
.............................. CYCLE   24 ..............................
........................................................................
   1   -433.8912159 -0.433891E+03  0.122E-01    0.94       0.0  T
   2   -433.8911777  0.382236E-04  0.737E-02    0.94       1.0  T
   3   -433.8894066  0.177105E-02  0.582E-02    0.94       1.0  T
   4   -433.8912469 -0.184030E-02  0.763E-03    0.94       1.0  T
   5   -433.8912663 -0.194149E-04  0.240E-03    0.94       2.7  T
   6   -433.8912674 -0.111515E-05  0.125E-03    0.94       5.2  T
   7   -433.8912675 -0.977479E-07  0.770E-04    0.94       8.3  T
   8   -433.8912677 -0.152797E-06  0.339E-04    0.94      19.0  T
     SCC iter.                  ...        0 min,  1.364 sec
     gradient                   ...        0 min,  0.385 sec
 * total energy  :  -425.8543703 Eh     change       -0.2191126E-01 Eh
   gradient norm :     0.0288185 Eh/α   predicted    -0.2273826E-01 (   3.77%)
   displ. norm   :     0.9417708 α      lambda       -0.2238896E-01
   maximum displ.:     0.6631643 α      in ANC's #48, #49, #53, ...

........................................................................
.............................. CYCLE   25 ..............................
........................................................................
   1   -433.9297176 -0.433930E+03  0.119E-01    0.93       0.0  T
   2   -433.9296907  0.269050E-04  0.720E-02    0.93       1.0  T
   3   -433.9282769  0.141377E-02  0.510E-02    0.93       1.0  T
   4   -433.9297433 -0.146643E-02  0.654E-03    0.93       1.0  T
   5   -433.9297571 -0.137563E-04  0.210E-03    0.93       3.1  T
   6   -433.9297577 -0.608806E-06  0.123E-03    0.93       5.2  T
   7   -433.9297578 -0.108714E-06  0.685E-04    0.93       9.4  T
   8   -433.9297579 -0.123190E-06  0.292E-04    0.93      22.0  T
     SCC iter.                  ...        0 min,  1.361 sec
     gradient                   ...        0 min,  0.384 sec
 * total energy  :  -425.8750087 Eh     change       -0.2063835E-01 Eh
   gradient norm :     0.0274340 Eh/α   predicted    -0.2112322E-01 (   2.35%)
   displ. norm   :     0.9322039 α      lambda       -0.1988690E-01
   maximum displ.:     0.6713030 α      in ANC's #48, #53, #49, ...

........................................................................
.............................. CYCLE   26 ..............................
........................................................................
   1   -433.9653486 -0.433965E+03  0.108E-01    0.93       0.0  T
   2   -433.9653193  0.293143E-04  0.651E-02    0.93       1.0  T
   3   -433.9640015  0.131780E-02  0.503E-02    0.93       1.0  T
   4   -433.9653750 -0.137353E-02  0.560E-03    0.93       1.1  T
   5   -433.9653843 -0.929246E-05  0.190E-03    0.93       3.4  T
   6   -433.9653848 -0.488898E-06  0.114E-03    0.93       5.6  T
   7   -433.9653849 -0.124282E-06  0.615E-04    0.93      10.4  T
   8   -433.9653850 -0.107687E-06  0.236E-04    0.93      27.3  T
     SCC iter.                  ...        0 min,  1.363 sec
     gradient                   ...        0 min,  0.385 sec
 * total energy  :  -425.8939313 Eh     change       -0.1892268E-01 Eh
   gradient norm :     0.0242310 Eh/α   predicted    -0.1858437E-01 (  -1.79%)
   displ. norm   :     0.9382447 α      lambda       -0.1884448E-01
   maximum displ.:     0.6805187 α      in ANC's #48, #49, #53, ...

........................................................................
.............................. CYCLE   27 ..............................
........................................................................
   1   -433.9992081 -0.433999E+03  0.122E-01    0.93       0.0  T
   2   -433.9991830  0.250404E-04  0.734E-02    0.93       1.0  T
   3   -433.9979177  0.126529E-02  0.500E-02    0.93       1.0  T
   4   -433.9992332 -0.131544E-02  0.549E-03    0.93       1.2  T
   5   -433.9992418 -0.857427E-05  0.197E-03    0.93       3.3  T
   6   -433.9992421 -0.349735E-06  0.132E-03    0.93       4.9  T
   7   -433.9992423 -0.226993E-06  0.656E-04    0.93       9.8  T
   8   -433.9992425 -0.124668E-06  0.225E-04    0.93      28.6  T
     SCC iter.                  ...        0 min,  1.360 sec
     gradient                   ...        0 min,  0.385 sec
 * total energy  :  -425.9115727 Eh     change       -0.1764141E-01 Eh
   gradient norm :     0.0206728 Eh/α   predicted    -0.1771666E-01 (   0.43%)
   displ. norm   :     0.9314213 α      lambda       -0.1753339E-01
   maximum displ.:     0.6885288 α      in ANC's #48, #49, #53, ...

........................................................................
.............................. CYCLE   28 ..............................
........................................................................
   1   -434.0312569 -0.434031E+03  0.123E-01    0.93       0.0  T
   2   -434.0312402  0.166714E-04  0.733E-02    0.93       1.0  T
   3   -434.0302636  0.976632E-03  0.437E-02    0.93       1.0  T
   4   -434.0312774 -0.101375E-02  0.515E-03    0.93       1.2  T
   5   -434.0312849 -0.755883E-05  0.191E-03    0.93       3.4  T
   6   -434.0312852 -0.268148E-06  0.131E-03    0.93       4.9  T
   7   -434.0312854 -0.234087E-06  0.632E-04    0.93      10.2  T
   8   -434.0312855 -0.113627E-06  0.210E-04    0.93      30.6  T
     SCC iter.                  ...        0 min,  1.360 sec
     gradient                   ...        0 min,  0.386 sec
 * total energy  :  -425.9280735 Eh     change       -0.1650075E-01 Eh
   gradient norm :     0.0191245 Eh/α   predicted    -0.1637222E-01 (  -0.78%)
   displ. norm   :     0.9394103 α      lambda       -0.1633893E-01
   maximum displ.:     0.6913396 α      in ANC's #48, #49, #40, ...

........................................................................
.............................. CYCLE   29 ..............................
........................................................................
   1   -434.0587463 -0.434059E+03  0.131E-01    0.93       0.0  T
   2   -434.0587337  0.125768E-04  0.778E-02    0.93       1.0  T
   3   -434.0578906  0.843146E-03  0.413E-02    0.93       1.0  T
   4   -434.0587656 -0.875031E-03  0.471E-03    0.93       1.4  T
   5   -434.0587717 -0.613137E-05  0.193E-03    0.93       3.3  T
   6   -434.0587720 -0.276487E-06  0.130E-03    0.93       5.0  T
   7   -434.0587722 -0.217607E-06  0.608E-04    0.93      10.6  T
   8   -434.0587723 -0.107230E-06  0.201E-04    0.93      32.0  T
     SCC iter.                  ...        0 min,  1.359 sec
     gradient                   ...        0 min,  0.385 sec
 * total energy  :  -425.9433046 Eh     change       -0.1523110E-01 Eh
   gradient norm :     0.0182923 Eh/α   predicted    -0.1537896E-01 (   0.97%)
   displ. norm   :     0.9292037 α      lambda       -0.1517366E-01
   maximum displ.:     0.7016662 α      in ANC's #48, #49, #40, ...

........................................................................
.............................. CYCLE   30 ..............................
........................................................................
   1   -434.0860496 -0.434086E+03  0.127E-01    0.93       0.0  T
   2   -434.0860418  0.776858E-05  0.752E-02    0.93       1.0  T
   3   -434.0853919  0.649945E-03  0.358E-02    0.93       1.0  T
   4   -434.0860653 -0.673430E-03  0.454E-03    0.93       1.4  T
   5   -434.0860714 -0.608380E-05  0.188E-03    0.93       3.4  T
   6   -434.0860717 -0.374818E-06  0.120E-03    0.93       5.3  T
   7   -434.0860719 -0.181724E-06  0.565E-04    0.93      11.4  T
   8   -434.0860720 -0.980500E-07  0.202E-04    0.93      31.8  T
     SCC iter.                  ...        0 min,  1.361 sec
     gradient                   ...        0 min,  0.385 sec
 * total energy  :  -425.9575083 Eh     change       -0.1420368E-01 Eh
   gradient norm :     0.0161955 Eh/α   predicted    -0.1413746E-01 (  -0.47%)
   displ. norm   :     0.9277823 α      lambda       -0.1370862E-01
   maximum displ.:     0.7051244 α      in ANC's #48, #49, #40, ...

........................................................................
.............................. CYCLE   31 ..............................
........................................................................
   1   -434.1125224 -0.434113E+03  0.117E-01    0.93       0.0  T
   2   -434.1125152  0.718301E-05  0.692E-02    0.93       1.0  T
   3   -434.1119159  0.599264E-03  0.352E-02    0.93       1.0  T
   4   -434.1125375 -0.621567E-03  0.443E-03    0.93       1.5  T
   5   -434.1125435 -0.599215E-05  0.178E-03    0.93       3.6  T
   6   -434.1125439 -0.416296E-06  0.107E-03    0.93       6.0  T
   7   -434.1125440 -0.142573E-06  0.506E-04    0.93      12.7  T
   8   -434.1125441 -0.782946E-07  0.184E-04    0.93      34.9  T
     SCC iter.                  ...        0 min,  1.359 sec
     gradient                   ...        0 min,  0.445 sec
 * total energy  :  -425.9705205 Eh     change       -0.1301222E-01 Eh
   gradient norm :     0.0148350 Eh/α   predicted    -0.1275438E-01 (  -1.98%)
   displ. norm   :     0.9323220 α      lambda       -0.1275467E-01
   maximum displ.:     0.7122037 α      in ANC's #48, #49, #40, ...

........................................................................
.............................. CYCLE   32 ..............................
........................................................................
   1   -434.1386490 -0.434139E+03  0.121E-01    0.93       0.0  T
   2   -434.1386414  0.754583E-05  0.718E-02    0.93       1.0  T
   3   -434.1380196  0.621777E-03  0.370E-02    0.93       1.0  T
   4   -434.1386655 -0.645807E-03  0.437E-03    0.93       1.5  T
   5   -434.1386712 -0.573063E-05  0.180E-03    0.93       3.6  T
   6   -434.1386716 -0.384329E-06  0.112E-03    0.93       5.7  T
   7   -434.1386717 -0.169870E-06  0.492E-04    0.93      13.1  T
   8   -434.1386718 -0.746397E-07  0.181E-04    0.93      35.6  T
     SCC iter.                  ...        0 min,  1.360 sec
     gradient                   ...        0 min,  0.385 sec
 * total energy  :  -425.9824212 Eh     change       -0.1190071E-01 Eh
   gradient norm :     0.0138562 Eh/α   predicted    -0.1192068E-01 (   0.17%)
   displ. norm   :     0.9312268 α      lambda       -0.1193131E-01
   maximum displ.:     0.7134760 α      in ANC's #48, #40, #49, ...

........................................................................
.............................. CYCLE   33 ..............................
........................................................................
   1   -434.1634732 -0.434163E+03  0.125E-01    0.93       0.0  T
   2   -434.1634677  0.546721E-05  0.745E-02    0.93       1.0  T
   3   -434.1629110  0.556688E-03  0.352E-02    0.93       1.0  T
   4   -434.1634887 -0.577678E-03  0.438E-03    0.93       1.5  T
   5   -434.1634944 -0.571019E-05  0.182E-03    0.93       3.5  T
   6   -434.1634947 -0.284533E-06  0.122E-03    0.93       5.3  T
   7   -434.1634949 -0.217151E-06  0.483E-04    0.93      13.3  T
   8   -434.1634950 -0.741387E-07  0.177E-04    0.93      36.4  T
     SCC iter.                  ...        0 min,  1.358 sec
     gradient                   ...        0 min,  0.386 sec
 * total energy  :  -425.9932627 Eh     change       -0.1084152E-01 Eh
   gradient norm :     0.0131948 Eh/α   predicted    -0.1113899E-01 (   2.74%)
   displ. norm   :     0.9238344 α      lambda       -0.1091587E-01
   maximum displ.:     0.7071547 α      in ANC's #48, #40, #49, ...

........................................................................
.............................. CYCLE   34 ..............................
........................................................................
   1   -434.1867393 -0.434187E+03  0.118E-01    0.93       0.0  T
   2   -434.1867362  0.314210E-05  0.701E-02    0.93       1.0  T
   3   -434.1862868  0.449354E-03  0.318E-02    0.93       1.0  T
   4   -434.1867527 -0.465833E-03  0.432E-03    0.93       1.5  T
   5   -434.1867585 -0.583726E-05  0.168E-03    0.93       3.8  T
   6   -434.1867588 -0.283001E-06  0.111E-03    0.93       5.8  T
   7   -434.1867590 -0.190964E-06  0.446E-04    0.93      14.4  T
   8   -434.1867590 -0.569640E-07  0.163E-04    0.93      39.4  T
     SCC iter.                  ...        0 min,  1.359 sec
     gradient                   ...        0 min,  0.385 sec
 * total energy  :  -426.0032827 Eh     change       -0.1001997E-01 Eh
   gradient norm :     0.0117158 Eh/α   predicted    -0.1011614E-01 (   0.96%)
   displ. norm   :     0.9256772 α      lambda       -0.9724849E-02
   maximum displ.:     0.7171603 α      in ANC's #48, #40, #49, ...

........................................................................
.............................. CYCLE   35 ..............................
........................................................................
   1   -434.2082765 -0.434208E+03  0.114E-01    0.93       0.0  T
   2   -434.2082735  0.292239E-05  0.673E-02    0.93       1.0  T
   3   -434.2078635  0.410019E-03  0.310E-02    0.93       1.0  T
   4   -434.2082897 -0.426182E-03  0.395E-03    0.93       1.6  T
   5   -434.2082945 -0.483857E-05  0.153E-03    0.93       4.2  T
   6   -434.2082948 -0.214579E-06  0.102E-03    0.93       6.3  T
   7   -434.2082949 -0.182188E-06  0.378E-04    0.93      17.0  T
   8   -434.2082950 -0.386012E-07  0.141E-04    0.93      45.7  T
     SCC iter.                  ...        0 min,  1.360 sec
     gradient                   ...        0 min,  0.384 sec
 * total energy  :  -426.0123763 Eh     change       -0.9093650E-02 Eh
   gradient norm :     0.0103987 Eh/α   predicted    -0.9028942E-02 (  -0.71%)
   displ. norm   :     0.9415402 α      lambda       -0.8999907E-02
   maximum displ.:     0.7248720 α      in ANC's #48, #40, #49, ...

........................................................................
.............................. CYCLE   36 ..............................
........................................................................
   1   -434.2295735 -0.434230E+03  0.124E-01    0.92       0.0  T
   2   -434.2295725  0.985645E-06  0.729E-02    0.92       1.0  T
   3   -434.2292072  0.365239E-03  0.295E-02    0.92       1.0  T
   4   -434.2295865 -0.379276E-03  0.401E-03    0.92       1.6  T
   5   -434.2295915 -0.495330E-05  0.158E-03    0.92       4.1  T
   6   -434.2295916 -0.951575E-07  0.118E-03    0.92       5.4  T
   7   -434.2295918 -0.268992E-06  0.362E-04    0.92      17.8  T
   8   -434.2295919 -0.350071E-07  0.139E-04    0.92      46.4  T
     SCC iter.                  ...        0 min,  1.359 sec
     gradient                   ...        0 min,  0.385 sec
 * total energy  :  -426.0205513 Eh     change       -0.8174951E-02 Eh
   gradient norm :     0.0107139 Eh/α   predicted    -0.8489180E-02 (   3.84%)
   displ. norm   :     0.9345181 α      lambda       -0.8390509E-02
   maximum displ.:     0.7179977 α      in ANC's #48, #40, #49, ...

........................................................................
.............................. CYCLE   37 ..............................
........................................................................
   1   -434.2514279 -0.434251E+03  0.119E-01    0.92       0.0  T
   2   -434.2514283 -0.432210E-06  0.704E-02    0.92       1.0  T
   3   -434.2511260  0.302331E-03  0.270E-02    0.92       1.0  T
   4   -434.2514397 -0.313722E-03  0.394E-03    0.92       1.6  T
   5   -434.2514446 -0.488644E-05  0.151E-03    0.92       4.3  T
   6   -434.2514446 -0.354103E-07  0.119E-03    0.92       5.4  T
   7   -434.2514449 -0.289678E-06  0.353E-04    0.92      18.2  T
   8   -434.2514449 -0.330758E-07  0.133E-04    0.92      48.4  T
     SCC iter.                  ...        0 min,  1.360 sec
     gradient                   ...        0 min,  0.384 sec
 * total energy  :  -426.0280970 Eh     change       -0.7545693E-02 Eh
   gradient norm :     0.0094699 Eh/α   predicted    -0.7859091E-02 (   4.15%)
   displ. norm   :     0.9301066 α      lambda       -0.7245761E-02
   maximum displ.:     0.7085925 α      in ANC's #48, #40, #49, ...

........................................................................
.............................. CYCLE   38 ..............................
........................................................................
   1   -434.2675775 -0.434268E+03  0.109E-01    0.92       0.0  T
   2   -434.2675782 -0.655504E-06  0.642E-02    0.92       1.0  T
   3   -434.2673222  0.256033E-03  0.253E-02    0.92       1.0  T
   4   -434.2675882 -0.266010E-03  0.365E-03    0.92       1.8  T
   5   -434.2675924 -0.427134E-05  0.135E-03    0.92       4.8  T
   6   -434.2675925 -0.673983E-07  0.102E-03    0.92       6.3  T
   7   -434.2675927 -0.213338E-06  0.334E-04    0.92      19.3  T
   8   -434.2675928 -0.290161E-07  0.117E-04    0.92      55.1  T
     SCC iter.                  ...        0 min,  1.360 sec
     gradient                   ...        0 min,  0.384 sec
 * total energy  :  -426.0347554 Eh     change       -0.6658426E-02 Eh
   gradient norm :     0.0086927 Eh/α   predicted    -0.6757045E-02 (   1.48%)
   displ. norm   :     0.9410832 α      lambda       -0.6790987E-02
   maximum displ.:     0.6967204 α      in ANC's #48, #40, #49, ...

........................................................................
.............................. CYCLE   39 ..............................
........................................................................
   1   -434.2835367 -0.434284E+03  0.123E-01    0.91       0.0  T
   2   -434.2835387 -0.206454E-05  0.723E-02    0.91       1.0  T
   3   -434.2833202  0.218577E-03  0.237E-02    0.91       1.0  T
   4   -434.2835472 -0.227087E-03  0.361E-03    0.91       1.8  T
   5   -434.2835512 -0.397274E-05  0.145E-03    0.91       4.4  T
   6   -434.2835511  0.962932E-07  0.124E-03    0.91       5.2  T
   7   -434.2835515 -0.357908E-06  0.313E-04    0.91      20.5  T
   8   -434.2835515 -0.245948E-07  0.118E-04    0.91      54.3  T
     SCC iter.                  ...        0 min,  1.359 sec
     gradient                   ...        0 min,  0.385 sec
 * total energy  :  -426.0405934 Eh     change       -0.5837993E-02 Eh
   gradient norm :     0.0102523 Eh/α   predicted    -0.6402677E-02 (   9.67%)
   displ. norm   :     0.9017502 α      lambda       -0.6114069E-02
   maximum displ.:     0.6622602 α      in ANC's #48, #40, #44, ...

........................................................................
.............................. CYCLE   40 ..............................
........................................................................
   1   -434.3016156 -0.434302E+03  0.108E-01    0.91       0.0  T
   2   -434.3016185 -0.291917E-05  0.633E-02    0.91       1.0  T
   3   -434.3014574  0.161111E-03  0.205E-02    0.91       1.0  T
   4   -434.3016241 -0.166652E-03  0.361E-03    0.91       1.8  T
   5   -434.3016283 -0.429160E-05  0.123E-03    0.91       5.2  T
   6   -434.3016283  0.762676E-07  0.108E-03    0.91       6.0  T
   7   -434.3016285 -0.276002E-06  0.317E-04    0.91      20.3  T
   8   -434.3016286 -0.243975E-07  0.104E-04    0.91      62.0  T
     SCC iter.                  ...        0 min,  1.360 sec
     gradient                   ...        0 min,  0.384 sec
 * total energy  :  -426.0460025 Eh     change       -0.5409084E-02 Eh
   gradient norm :     0.0083303 Eh/α   predicted    -0.5542880E-02 (   2.47%)
   displ. norm   :     0.9166552 α      lambda       -0.5273934E-02
   maximum displ.:     0.6485313 α      in ANC's #48, #40, #44, ...

........................................................................
.............................. CYCLE   41 ..............................
........................................................................
   1   -434.3155127 -0.434316E+03  0.104E-01    0.91       0.0  T
   2   -434.3155161 -0.340227E-05  0.609E-02    0.91       1.0  T
   3   -434.3153856  0.130461E-03  0.190E-02    0.91       1.0  T
   4   -434.3155210 -0.135318E-03  0.339E-03    0.91       1.9  T
   5   -434.3155247 -0.375352E-05  0.109E-03    0.91       5.9  T
   6   -434.3155246  0.651245E-07  0.933E-04    0.91       6.9  T
   7   -434.3155248 -0.188547E-06  0.341E-04    0.91      18.9  T
     SCC iter.                  ...        0 min,  1.192 sec
     gradient                   ...        0 min,  0.385 sec
 * total energy  :  -426.0507147 Eh     change       -0.4712194E-02 Eh
   gradient norm :     0.0081220 Eh/α   predicted    -0.4852708E-02 (   2.98%)
   displ. norm   :     0.9231046 α      lambda       -0.5049052E-02
   maximum displ.:     0.6261966 α      in ANC's #48, #40, #44, ...

........................................................................
.............................. CYCLE   42 ..............................
........................................................................
   1   -434.3282342 -0.434328E+03  0.113E-01    0.90       0.0  T
   2   -434.3282378 -0.355392E-05  0.668E-02    0.90       1.0  T
   3   -434.3281292  0.108600E-03  0.174E-02    0.90       1.0  T
   4   -434.3282421 -0.112936E-03  0.317E-03    0.90       2.0  T
   5   -434.3282451 -0.298242E-05  0.124E-03    0.90       5.2  T
   6   -434.3282449  0.200250E-06  0.116E-03    0.90       5.6  T
   7   -434.3282453 -0.372946E-06  0.266E-04    0.90      24.2  T
   8   -434.3282453 -0.166135E-07  0.960E-05    0.90      67.0  T
     SCC iter.                  ...        0 min,  1.359 sec
     gradient                   ...        0 min,  0.385 sec
 * total energy  :  -426.0548631 Eh     change       -0.4148474E-02 Eh
   gradient norm :     0.0099758 Eh/α   predicted    -0.4675742E-02 (  12.71%)
   displ. norm   :     0.8737706 α      lambda       -0.4492140E-02
   maximum displ.:     0.5746425 α      in ANC's #48, #40, #44, ...
 * RMSD in coord.:     1.2342495 α      energy gain  -0.2964755E+00 Eh

generating ANC from model Hessian ...
Using Lindh-Hessian (1995)
 Shifting diagonal of input Hessian by    1.0041869981675496E-002
 Lowest  eigenvalues of input Hessian
    0.010000    0.010000    0.010001    0.010007    0.010011    0.010020
    0.010022    0.010024    0.010024    0.010029    0.010030    0.010035
    0.010036    0.010039    0.010039    0.000000    0.000000    0.000000
 Highest eigenvalues
    2.692752    3.017398    3.022090    3.023289    3.030807    3.031082


........................................................................
.............................. CYCLE   43 ..............................
........................................................................
   1   -434.3400008 -0.434340E+03  0.965E-02    0.90       0.0  T
   2   -434.3400054 -0.463832E-05  0.566E-02    0.90       1.0  T
   3   -434.3399391  0.662732E-04  0.140E-02    0.90       1.0  T
   4   -434.3400070 -0.678175E-04  0.346E-03    0.90       1.9  T
   5   -434.3400109 -0.397537E-05  0.101E-03    0.90       6.3  T
   6   -434.3400109  0.974063E-08  0.757E-04    0.90       8.5  T
   7   -434.3400110 -0.815414E-07  0.425E-04    0.90      15.1  T
     SCC iter.                  ...        0 min,  1.192 sec
     gradient                   ...        0 min,  0.385 sec
 * total energy  :  -426.0587597 Eh     change       -0.3896582E-02 Eh
   gradient norm :     0.0091080 Eh/α   predicted     0.0000000E+00 (-100.00%)
   displ. norm   :     0.3280124 α      lambda       -0.1497920E-02
   maximum displ.:     0.2559454 α      in ANC's #39, #33, #35, ...

........................................................................
.............................. CYCLE   44 ..............................
........................................................................
   1   -434.3506877 -0.434351E+03  0.333E-02    0.90       0.0  T
   2   -434.3506885 -0.771770E-06  0.196E-02    0.90       1.0  T
   3   -434.3506791  0.943310E-05  0.544E-03    0.90       1.2  T
   4   -434.3506886 -0.955089E-05  0.148E-03    0.90       4.3  T
   5   -434.3506893 -0.677758E-06  0.368E-04    0.90      17.5  T
   6   -434.3506893 -0.963149E-08  0.241E-04    0.90      26.7  T
     SCC iter.                  ...        0 min,  1.022 sec
     gradient                   ...        0 min,  0.384 sec
 * total energy  :  -426.0601684 Eh     change       -0.1408692E-02 Eh
[...]
 289:  0.00 290:  0.00 291:  0.00 292:  0.00 293:  0.00 294:  0.00 295:  0.00 296:  0.00
 297:  0.00 298:  0.00 299:  0.00 300:  0.00 301:  0.00 302:  0.00 303:  0.00 304:  0.00
 305:  0.00 306:  0.00 307:  0.00 308:  0.00 309:  0.00 310:  0.00 311:  0.00 312:  0.00
 313:  0.00 314:  0.00 315:  0.00 316:  0.00 317:  0.00 318:  0.00 319:  0.00 320:  0.00
 321:  0.00 322:  0.00 323:  0.00 324:  0.00 325:  0.00 326:  0.00 327:  0.00 328:  0.00
 329:  0.00 330:  0.00 331:  0.00 332:  0.00 333:  0.00 334:  0.00 335:  0.00 336:  0.00
 337:  0.00 338:  0.00 339:  0.00 340:  0.00 341:  0.00 342:  0.00 343:  0.00 344:  0.00
 345:  0.00 346:  0.00 347:  0.00 348:  0.00 349:  0.00 350:  0.00 351:  0.00 352:  0.00
 353:  0.00 354:  0.00 355:  0.00 356:  0.00 357:  0.00 358:  0.00 359:  0.00 360:  0.00
 361:  0.00 362:  0.00 363:  0.00 364:  0.00 365:  0.00 366:  0.00 367:  0.00 368:  0.00
 369:  0.00 370:  0.00 371:  0.00 372:  0.00 373:  0.00 374:  0.00 375:  0.00 376:  0.00
 377:  0.00 378:  0.00 379:  0.00 380:  0.00 381:  0.00 382:  0.00 383:  0.00 384:  0.00
 385:  0.00 386:  0.00 387:  0.00 388:  0.00 389:  0.00 390:  0.00 391:  0.00 392:  0.00
 393:  0.00 394:  0.00 395:  0.00 396:  0.00 397:  0.00 398:  0.00 399:  0.00 400:  0.00
 401:  0.00 402:  0.00 403:  0.00 404:  0.00 405:  0.00 406:  0.00 407:  0.00 408:  0.00
 409:  0.00 410:  0.00 411:  0.00 412:  0.00 413:  0.00 414:  0.00 415:  0.00 416:  0.00
 417:  0.00 418:  0.00 419:  0.00 420:  0.00 421:  0.00 422:  0.00 423:  0.00 424:  0.00
 425:  0.00 426:  0.00 427:  0.00 428:  0.00 429:  0.00 430:  0.00 431:  0.00 432:  0.00
 433:  0.00 434:  0.00 435:  0.00 436:  0.00 437:  0.00 438:  0.00 439:  0.00 440:  0.00
 441:  0.00 442:  0.00 443:  0.00 444:  0.00 445:  0.00 446:  0.00 447:  0.00 448:  0.00
 449:  0.00 450:  0.00 451:  0.00 452:  0.00 453:  0.00 454:  0.00 455:  0.00 456:  0.00
 457:  0.00 458:  0.00 459:  0.00 460:  0.00 461:  0.00 462:  0.00 463:  0.00 464:  0.00
 465:  0.00 466:  0.00 467:  0.00 468:  0.00 469:  0.00 470:  0.00 471:  0.00 472:  0.00
 473:  0.00 474:  0.00 475:  0.00 476:  0.00 477:  0.00 478:  0.00 479:  0.00 480:  0.00
 481:  0.00 482:  0.00 483:  0.00 484:  0.00 485:  0.00 486:  0.00 487:  0.00 488:  0.00
 489:  0.00 490:  0.00 491:  0.00 492:  0.00 493:  0.00 494:  0.00 495:  0.00 496:  0.00
 497:  0.00 498:  0.00 499:  0.00 500:  0.00 501:  0.00 502:  0.00 503:  0.00 504:  0.00
 505:  0.00 506:  0.00 507:  0.00 508:  0.00 509:  0.00 510:  0.00 511:  0.00 512:  0.00
 513:  0.00 514:  0.00 515:  0.00 516:  0.00 517:  0.00 518:  0.00 519:  0.00 520:  0.00
 521:  0.00 522:  0.00 523:  0.00 524:  0.00 525:  0.00 526:  0.00 527:  0.00 528:  0.00
 529:  0.00 530:  0.00 531:  0.00 532:  0.00 533:  0.00 534:  0.00 535:  0.00 536:  0.00
 537:  0.00 538:  0.00 539:  0.00 540:  0.00 541:  0.00 542:  0.00 543:  0.00 544:  0.00
 545:  0.00 546:  0.00 547:  0.00 548:  0.00 549:  0.00 550:  0.00 551:  0.00 552:  0.00
 553:  0.00 554:  0.00 555:  0.00 556:  0.00 557:  0.00 558:  0.00 559:  0.00 560:  0.00
 561:  0.00 562:  0.00 563:  0.00 564:  0.00 565:  0.00 566:  0.00 567:  0.00 568:  0.00
 569:  0.00 570:  0.00 571:  0.00 572:  0.00 573:  0.00 574:  0.00 575:  0.00 576:  0.00
 577:  0.00 578:  0.00 579:  0.00 580:  0.00 581:  0.00 582:  0.00 583:  0.00 584:  0.00
 585:  0.00 586:  0.00 587:  0.00 588:  0.00 589:  0.00 590:  0.00 591:  0.00 592:  0.00
 593:  0.00 594:  0.00 595:  0.00 596:  0.00 597:  0.00 598:  0.00 599:  0.00 600:  0.00
 601:  0.00 602:  0.00 603:  0.00 604:  0.00 605:  0.00 606:  0.00 607:  0.00 608:  0.00
 609:  0.00 610:  0.00 611:  0.00 612:  0.00 613:  0.00 614:  0.00 615:  0.00 616:  0.00
 617:  0.00 618:  0.00 619:  0.00 620:  0.00 621:  0.00 622:  0.00 623:  0.00 624:  0.00
 625:  0.00 626:  0.00 627:  0.00 628:  0.00 629:  0.00 630:  0.00 631:  0.00 632:  0.00
 633:  0.00 634:  0.00 635:  0.00 636:  0.00 637:  0.00 638:  0.00 639:  0.00 640:  0.00
 641:  0.00 642:  0.00 643:  0.00 644:  0.00 645:  0.00 646:  0.00 647:  0.00 648:  0.00
 649:  0.00 650:  0.00 651:  0.00 652:  0.00 653:  0.00 654:  0.00 655:  0.00 656:  0.00
 657:  0.00 658:  0.00 659:  0.00 660:  0.00 661:  0.00 662:  0.00 663:  0.00 664:  0.00
 665:  0.00 666:  0.00 667:  0.00 668:  0.00 669:  0.00 670:  0.00 671:  0.00 672:  0.00
 673:  0.00 674:  0.00 675:  0.00 676:  0.00 677:  0.00 678:  0.00 679:  0.00 680:  0.00
 681:  0.00 682:  0.00 683:  0.00 684:  0.00 685:  0.00 686:  0.00 687:  0.00 688:  0.00
 689:  0.00 690:  0.00 691:  0.00 692:  0.00 693:  0.00 694:  0.00 695:  0.00 696:  0.00
 697:  0.00 698:  0.00 699:  0.00 700:  0.00 701:  0.00 702:  0.00 703:  0.00 704:  0.00
 705:  0.00 706:  0.00 707:  0.00 708:  0.00 709:  0.00 710:  0.00 711:  0.00 712:  0.00
 713:  0.00 714:  0.00 715:  0.00 716:  0.00 717:  0.00 718:  0.00 719:  0.00 720:  0.00
 721:  0.00 722:  0.00 723:  0.00 724:  0.00 725:  0.00 726:  0.00
 output can be read by thermo (or use thermo option).
 writing <g98.out> molden fake output.
 recommended (thermochemical) frequency scaling factor: 1.0
           -------------------------------------------------
          |             Thermodynamic Functions             |
           -------------------------------------------------
 symmetry recognition skipped because # atoms >         200
 inverting freq            1   5.1003122625003181     
 inverting freq            2   3.4615405264610875     
 inverting freq            3   2.9161687448174161     
 inverting freq            4   1.6106147956478056     

          ...................................................
          :                      SETUP                      :
          :.................................................:
          :  # frequencies                         720      :
          :  # imaginary freq.                       0      :
          :  linear?                             false      :
          :  only rotor calc.                    false      :
          :  symmetry                               C1      :
          :  rotational number                       1      :
          :  scaling factor                  1.0000000      :
          :  rotor cutoff                   50.0000000 cm⁻¹ :
          :  imag. cutoff                  -20.0000000 cm⁻¹ :
          :.................................................:

    mode    ω/cm⁻¹     T·S(HO)/kcal·mol⁻¹    T·S(FR)/kcal·mol⁻¹   T·S(vib)
   ------------------------------------------------------------------------
       1      5.10    -2.78736 (  0.01%)    -1.73279 ( 99.99%)    -1.73290
       2      3.46    -3.01699 (  0.00%)    -1.84761 (100.00%)    -1.84763
       3      2.92    -3.11857 (  0.00%)    -1.89840 (100.00%)    -1.89841
       4      1.61    -3.47029 (  0.00%)    -2.07426 (100.00%)    -2.07426
       5      1.05    -3.72206 (  0.00%)    -2.20014 (100.00%)    -2.20014
       6      2.54    -3.20097 (  0.00%)    -1.93960 (100.00%)    -1.93961
       7      3.84    -2.95482 (  0.00%)    -1.81652 (100.00%)    -1.81656
       8      4.27    -2.89300 (  0.01%)    -1.78561 ( 99.99%)    -1.78567
       9      5.22    -2.77381 (  0.01%)    -1.72601 ( 99.99%)    -1.72614
      10      6.51    -2.64275 (  0.03%)    -1.66048 ( 99.97%)    -1.66076
      11      6.96    -2.60315 (  0.04%)    -1.64068 ( 99.96%)    -1.64104
      12      7.40    -2.56647 (  0.05%)    -1.62234 ( 99.95%)    -1.62279
      13      7.64    -2.54833 (  0.05%)    -1.61326 ( 99.95%)    -1.61377
      14      7.78    -2.53737 (  0.06%)    -1.60778 ( 99.94%)    -1.60833
      15      8.58    -2.47890 (  0.09%)    -1.57855 ( 99.91%)    -1.57933
      16      9.99    -2.38895 (  0.16%)    -1.53356 ( 99.84%)    -1.53493
      17     13.18    -2.22500 (  0.48%)    -1.45157 ( 99.52%)    -1.45528
      18     14.50    -2.16826 (  0.70%)    -1.42319 ( 99.30%)    -1.42843
      19     16.81    -2.08083 (  1.26%)    -1.37945 ( 98.74%)    -1.38830
      20     18.65    -2.01926 (  1.90%)    -1.34865 ( 98.10%)    -1.36139
      21     20.82    -1.95434 (  2.92%)    -1.31616 ( 97.08%)    -1.33477
      22     22.89    -1.89817 (  4.21%)    -1.28805 ( 95.79%)    -1.31371
      23     23.44    -1.88394 (  4.61%)    -1.28093 ( 95.39%)    -1.30873
      24     24.79    -1.85086 (  5.70%)    -1.26437 ( 94.30%)    -1.29780
      25     26.76    -1.80555 (  7.59%)    -1.24169 ( 92.41%)    -1.28447
      26     29.36    -1.75083 ( 10.62%)    -1.21429 ( 89.38%)    -1.27128
      27     33.15    -1.67904 ( 16.19%)    -1.17832 ( 83.81%)    -1.25938
      28     37.45    -1.60692 ( 23.94%)    -1.14217 ( 76.06%)    -1.25342
      29     39.55    -1.57464 ( 28.14%)    -1.12599 ( 71.86%)    -1.25223
      30     39.71    -1.57236 ( 28.45%)    -1.12484 ( 71.55%)    -1.25217
      31     39.91    -1.56934 ( 28.87%)    -1.12333 ( 71.13%)    -1.25209
      32     40.08    -1.56688 ( 29.21%)    -1.12209 ( 70.79%)    -1.25203
      33     41.05    -1.55264 ( 31.25%)    -1.11495 ( 68.75%)    -1.25172
      34     41.32    -1.54886 ( 31.80%)    -1.11306 ( 68.20%)    -1.25164
      35     42.67    -1.52985 ( 34.66%)    -1.10352 ( 65.34%)    -1.25127
      36     46.76    -1.47576 ( 43.35%)    -1.07637 ( 56.65%)    -1.24950
      37     48.41    -1.45541 ( 46.76%)    -1.06615 ( 53.24%)    -1.24818
      38     54.41    -1.38648 ( 58.37%)    -1.03151 ( 41.63%)    -1.23872
      39     61.94    -1.31017 ( 70.20%)    -0.99310 ( 29.80%)    -1.21568
      40     66.45    -1.26891 ( 75.72%)    -0.97231 ( 24.28%)    -1.19690
      41     69.56    -1.24204 ( 78.93%)    -0.95875 ( 21.07%)    -1.18234
      42     70.06    -1.23783 ( 79.40%)    -0.95662 ( 20.60%)    -1.17990
      43     71.26    -1.22783 ( 80.49%)    -0.95158 ( 19.51%)    -1.17394
      44     71.60    -1.22509 ( 80.79%)    -0.95019 ( 19.21%)    -1.17227
      45     71.70    -1.22426 ( 80.87%)    -0.94977 ( 19.13%)    -1.17176
      46     75.04    -1.19757 ( 83.53%)    -0.93629 ( 16.47%)    -1.15454
      47     75.44    -1.19441 ( 83.83%)    -0.93469 ( 16.17%)    -1.15240
      48     79.39    -1.16454 ( 86.41%)    -0.91958 ( 13.59%)    -1.13124
      49     85.69    -1.11989 ( 89.61%)    -0.89696 ( 10.39%)    -1.09673
      50     86.07    -1.11733 ( 89.77%)    -0.89566 ( 10.23%)    -1.09466
      51     88.20    -1.10303 ( 90.64%)    -0.88840 (  9.36%)    -1.08294
      52     90.80    -1.08611 ( 91.58%)    -0.87982 (  8.42%)    -1.06874
      53     91.33    -1.08266 ( 91.76%)    -0.87806 (  8.24%)    -1.06580
      54     92.81    -1.07332 ( 92.23%)    -0.87331 (  7.77%)    -1.05778
      55     94.08    -1.06542 ( 92.61%)    -0.86930 (  7.39%)    -1.05093
      56     95.88    -1.05438 ( 93.11%)    -0.86368 (  6.89%)    -1.04125
      57    100.20    -1.02876 ( 94.16%)    -0.85063 (  5.84%)    -1.01836
      58    109.37    -0.97793 ( 95.82%)    -0.82467 (  4.18%)    -0.97152
      59    111.02    -0.96927 ( 96.05%)    -0.82023 (  3.95%)    -0.96338
      60    117.51    -0.93647 ( 96.83%)    -0.80341 (  3.17%)    -0.93225
      61    124.37    -0.90381 ( 97.45%)    -0.78662 (  2.55%)    -0.90082
      62    124.65    -0.90250 ( 97.48%)    -0.78594 (  2.52%)    -0.89955
      63    124.71    -0.90223 ( 97.48%)    -0.78580 (  2.52%)    -0.89930
      64    124.76    -0.90196 ( 97.49%)    -0.78566 (  2.51%)    -0.89904
      65    124.83    -0.90168 ( 97.49%)    -0.78552 (  2.51%)    -0.89877
      66    127.46    -0.88970 ( 97.69%)    -0.77934 (  2.31%)    -0.88715
      67    127.84    -0.88796 ( 97.71%)    -0.77844 (  2.29%)    -0.88546
      68    130.50    -0.87615 ( 97.89%)    -0.77234 (  2.11%)    -0.87396
      69    135.24    -0.85573 ( 98.17%)    -0.76178 (  1.83%)    -0.85401
      70    137.66    -0.84560 ( 98.29%)    -0.75653 (  1.71%)    -0.84408
      71    158.49    -0.76556 ( 99.02%)    -0.71478 (  0.98%)    -0.76506
      72    160.45    -0.75864 ( 99.07%)    -0.71115 (  0.93%)    -0.75820
      73    161.32    -0.75559 ( 99.09%)    -0.70954 (  0.91%)    -0.75516
      74    162.53    -0.75138 ( 99.11%)    -0.70733 (  0.89%)    -0.75099
      75    164.45    -0.74478 ( 99.15%)    -0.70385 (  0.85%)    -0.74443
      76    166.03    -0.73939 ( 99.18%)    -0.70101 (  0.82%)    -0.73907
      77    166.68    -0.73719 ( 99.20%)    -0.69985 (  0.80%)    -0.73689
      78    170.19    -0.72551 ( 99.26%)    -0.69369 (  0.74%)    -0.72528
      79    171.50    -0.72123 ( 99.28%)    -0.69142 (  0.72%)    -0.72101
      80    172.11    -0.71922 ( 99.29%)    -0.69036 (  0.71%)    -0.71902
      81    172.84    -0.71685 ( 99.30%)    -0.68910 (  0.70%)    -0.71666
      82    174.18    -0.71254 ( 99.33%)    -0.68682 (  0.67%)    -0.71237
      83    175.14    -0.70948 ( 99.34%)    -0.68519 (  0.66%)    -0.70932
      84    175.71    -0.70766 ( 99.35%)    -0.68423 (  0.65%)    -0.70751
      85    177.50    -0.70201 ( 99.37%)    -0.68123 (  0.63%)    -0.70188
      86    179.57    -0.69554 ( 99.40%)    -0.67779 (  0.60%)    -0.69544
      87    180.61    -0.69233 ( 99.42%)    -0.67608 (  0.58%)    -0.69224
      88    180.85    -0.69158 ( 99.42%)    -0.67568 (  0.58%)    -0.69149
      89    181.92    -0.68830 ( 99.43%)    -0.67393 (  0.57%)    -0.68822
      90    181.97    -0.68816 ( 99.43%)    -0.67386 (  0.57%)    -0.68808
      91    182.11    -0.68773 ( 99.43%)    -0.67363 (  0.57%)    -0.68765
      92    182.86    -0.68544 ( 99.44%)    -0.67241 (  0.56%)    -0.68537
      93    183.60    -0.68320 ( 99.45%)    -0.67121 (  0.55%)    -0.68313
      94    185.12    -0.67863 ( 99.47%)    -0.66877 (  0.53%)    -0.67857
      95    188.05    -0.66994 ( 99.50%)    -0.66413 (  0.50%)    -0.66991
      96    189.95    -0.66437 ( 99.52%)    -0.66115 (  0.48%)    -0.66436
      97    192.13    -0.65808 ( 99.54%)    -0.65777 (  0.46%)    -0.65808
      98    195.83    -0.64755 ( 99.58%)    -0.65211 (  0.42%)    -0.64756
      99    196.00    -0.64708 ( 99.58%)    -0.65186 (  0.42%)    -0.64710
     100    196.19    -0.64656 ( 99.58%)    -0.65157 (  0.42%)    -0.64658
     101    196.33    -0.64616 ( 99.58%)    -0.65136 (  0.42%)    -0.64618
     102    196.36    -0.64607 ( 99.58%)    -0.65131 (  0.42%)    -0.64609
     103    196.83    -0.64475 ( 99.59%)    -0.65060 (  0.41%)    -0.64477
     104    197.75    -0.64218 ( 99.59%)    -0.64922 (  0.41%)    -0.64221
     105    198.00    -0.64150 ( 99.59%)    -0.64885 (  0.41%)    -0.64153
     106    198.36    -0.64049 ( 99.60%)    -0.64831 (  0.40%)    -0.64052
     107    198.87    -0.63908 ( 99.60%)    -0.64755 (  0.40%)    -0.63912
     108    199.72    -0.63675 ( 99.61%)    -0.64629 (  0.39%)    -0.63679
     109    200.56    -0.63446 ( 99.62%)    -0.64505 (  0.38%)    -0.63450
     110    201.74    -0.63123 ( 99.62%)    -0.64331 (  0.38%)    -0.63128
     111    202.55    -0.62904 ( 99.63%)    -0.64212 (  0.37%)    -0.62909
     112    202.62    -0.62885 ( 99.63%)    -0.64202 (  0.37%)    -0.62890
     113    202.73    -0.62856 ( 99.63%)    -0.64186 (  0.37%)    -0.62861
     114    203.11    -0.62752 ( 99.63%)    -0.64130 (  0.37%)    -0.62758
     115    203.29    -0.62706 ( 99.64%)    -0.64105 (  0.36%)    -0.62711
     116    203.49    -0.62649 ( 99.64%)    -0.64074 (  0.36%)    -0.62655
     117    203.65    -0.62607 ( 99.64%)    -0.64051 (  0.36%)    -0.62612
     118    209.64    -0.61025 ( 99.68%)    -0.63192 (  0.32%)    -0.61032
     119    209.83    -0.60976 ( 99.68%)    -0.63166 (  0.32%)    -0.60983
     120    210.50    -0.60802 ( 99.68%)    -0.63071 (  0.32%)    -0.60809
     121    215.08    -0.59634 ( 99.71%)    -0.62434 (  0.29%)    -0.59642
     122    215.82    -0.59448 ( 99.71%)    -0.62332 (  0.29%)    -0.59457
     123    220.41    -0.58311 ( 99.74%)    -0.61709 (  0.26%)    -0.58320
     124    226.19    -0.56915 ( 99.76%)    -0.60941 (  0.24%)    -0.56925
     125    228.49    -0.56374 ( 99.77%)    -0.60642 (  0.23%)    -0.56384
     126    230.94    -0.55802 ( 99.78%)    -0.60326 (  0.22%)    -0.55812
     127    245.07    -0.52645 ( 99.83%)    -0.58566 (  0.17%)    -0.52656
     128    261.79    -0.49189 ( 99.87%)    -0.56611 (  0.13%)    -0.49198
     129    262.12    -0.49122 ( 99.87%)    -0.56574 (  0.13%)    -0.49132
     130    262.23    -0.49102 ( 99.87%)    -0.56562 (  0.13%)    -0.49112
     131    262.35    -0.49078 ( 99.87%)    -0.56548 (  0.13%)    -0.49088
     132    262.41    -0.49065 ( 99.87%)    -0.56541 (  0.13%)    -0.49075
     133    262.84    -0.48981 ( 99.87%)    -0.56493 (  0.13%)    -0.48991
     134    263.36    -0.48879 ( 99.87%)    -0.56435 (  0.13%)    -0.48889
     135    268.56    -0.47867 ( 99.88%)    -0.55855 (  0.12%)    -0.47876
     136    273.42    -0.46944 ( 99.89%)    -0.55324 (  0.11%)    -0.46953
     137    280.17    -0.45696 ( 99.90%)    -0.54602 (  0.10%)    -0.45705
     138    287.60    -0.44366 ( 99.91%)    -0.53826 (  0.09%)    -0.44374
     139    287.72    -0.44345 ( 99.91%)    -0.53814 (  0.09%)    -0.44353
     140    295.05    -0.43077 ( 99.92%)    -0.53068 (  0.08%)    -0.43085
     141    298.85    -0.42436 ( 99.92%)    -0.52689 (  0.08%)    -0.42444
   ------------------------------------------------------------------------

   temp. (K)  partition function   enthalpy   heat capacity  entropy
                                   cal/mol     cal/K/mol   cal/K/mol   J/K/mol
 298.15  VIB  0.107E+85            93332.613    581.198    604.045
         ROT  0.151E+11              888.752      2.981     49.563
         INT  0.162E+95            94221.365    584.179    653.609
         TR   0.128E+30             1481.254      4.968     49.399
         TOT                       95702.6191   589.1470   703.0074  2941.3830

       T/K    H(0)-H(T)+PV         H(T)/Eh          T*S/Eh         G(T)/Eh
   ------------------------------------------------------------------------
    298.15    0.152512E+00    0.177992E+01    0.334022E+00    0.144589E+01
   ------------------------------------------------------------------------

         :::::::::::::::::::::::::::::::::::::::::::::::::::::
         ::                  THERMODYNAMIC                  ::
         :::::::::::::::::::::::::::::::::::::::::::::::::::::
         :: total free energy        -424.633458831899 Eh   ::
         ::.................................................::
         :: total energy             -426.079352472509 Eh   ::
         :: zero point energy           1.627403311989 Eh   ::
         :: G(RRHO) w/o ZPVE           -0.181509671379 Eh   ::
         :: G(RRHO) contrib.            1.445893640610 Eh   ::
         :::::::::::::::::::::::::::::::::::::::::::::::::::::
imag cut-off (cm-1) :    5.00
 found            1  significant imaginary frequency
 writing imag mode distorted coords to xtbhess.xyz
 for further optimization.

optimized geometry written to: xtbopt.xyz


           -------------------------------------------------
          | TOTAL ENERGY             -426.079352472509 Eh   |
          | TOTAL ENTHALPY           -424.299437329140 Eh   |
          | TOTAL FREE ENERGY        -424.633458831899 Eh   |
          | GRADIENT NORM               0.000616201582 Eh/α |
          | HOMO-LUMO GAP               0.881450914115 eV   |
           -------------------------------------------------

------------------------------------------------------------------------
 * finished run on 2021/11/18 at 21:46:41.137     
------------------------------------------------------------------------
 total:
 * wall-time:     0 d,  0 h, 33 min, 47.504 sec
 *  cpu-time:     0 d,  0 h, 33 min, 47.526 sec
 * ratio c/w:     1.000 speedup
 SCF:
 * wall-time:     0 d,  0 h,  0 min,  9.405 sec
 *  cpu-time:     0 d,  0 h,  0 min,  9.405 sec
 * ratio c/w:     1.000 speedup
 ANC optimizer:
 * wall-time:     0 d,  0 h,  2 min, 37.300 sec
 *  cpu-time:     0 d,  0 h,  2 min, 37.300 sec
 * ratio c/w:     1.000 speedup
 analytical hessian:
 * wall-time:     0 d,  0 h, 31 min,  0.461 sec
 *  cpu-time:     0 d,  0 h, 31 min,  0.483 sec
 * ratio c/w:     1.000 speedup

