242
 energy: -423.745996208949 gnorm: 2.002767556404 xtb: 6.4.1 (bd6e46d)
Zn       28.97656200000000    0.03786500000000   -0.01212500000000
C        31.30555300000000   -3.10892900000000    1.31056400000000
C        32.22166000000000   -2.16472100000000    1.26028200000000
C        31.81048100000000   -1.11081700000000    0.33899000000000
C        32.42935200000000    0.01352900000000   -0.00742000000000
C        31.72530900000000    1.23347700000000   -0.37152500000000
C        32.05342000000000    2.19353200000000   -1.21899900000000
C        31.01864000000000    3.20981800000000   -1.23589600000000
C        30.08237200000000    2.83335600000000   -0.38900500000000
N        30.48436200000000    1.60034500000000    0.17481200000000
C        28.82129800000000    3.47835500000000   -0.00985300000000
C        27.72608000000000    2.84357200000000    0.34090700000000
C        26.65245500000000    3.16152800000000    1.30993500000000
C        25.81489200000000    2.16477500000000    1.23276900000000
C        26.25319000000000    1.16109100000000    0.25231700000000
N        27.35812800000000    1.59994400000000   -0.23197500000000
C        25.64235500000000   -0.09218000000000   -0.16123100000000
C        26.30651500000000   -1.19668600000000   -0.41565600000000
C        25.93266700000000   -2.25962800000000   -1.37318300000000
C        26.88141400000000   -3.15338300000000   -1.28416400000000
C        27.86713800000000   -2.71593300000000   -0.30128600000000
N        27.51409200000000   -1.57012800000000    0.19551100000000
C        29.09802600000000   -3.37200400000000    0.14443500000000
C        30.22106700000001   -2.72614300000000    0.41155600000000
N        30.54966700000000   -1.47870100000000   -0.18684700000000
H        31.36581500000000   -4.01870900000000    1.92811100000000
H        33.13798800000000   -2.20467000000000    1.83833000000000
H        32.98078500000000    2.21032800000000   -1.82014200000000
H        31.03553900000000    4.11450600000000   -1.84851800000000
H        28.77357500000000    4.57315800000000   -0.01363000000000
H        26.59963300000000    4.04025300000000    1.93492800000000
H        24.90326200000001    2.12910500000000    1.85009300000000
H        24.54410400000000   -0.08926900000000   -0.26050200000000
H        25.06381100000000   -2.31209300000000   -2.02213300000000
H        26.87856800000000   -4.06969200000000   -1.88292300000000
H        29.06254300000000   -4.46780500000000    0.25636000000000
Zn      110.60605400000000   -0.00951100000000   -0.01655800000000
C       108.27706300000000    2.83728100000000    1.86694700000000
C       107.36095600000000    1.91879100000000    1.64237300000000
C       107.77213500000001    1.05409400000000    0.54155900000000
C       107.15326500000002    0.01352900000000   -0.00742000000000
C       107.85730700000002   -1.11769600000000   -0.59152300000000
C       107.52919600000000   -1.90386700000000   -1.60238900000000
C       108.56397600000000   -2.89937700000000   -1.80753000000000
C       109.50024400000000   -2.68656000000000   -0.90549900000000
N       109.09825400000000   -1.57954900000000   -0.12272800000000
C       110.76131800000000   -3.39070100000000   -0.65258600000000
C       111.85653600000001   -2.83200900000000   -0.19015300000000
C       112.93016100000000   -3.32421400000000    0.70306900000000
C       113.76772400000002   -2.33044700000000    0.81215400000000
C       113.32942700000001   -1.16229800000000    0.03491900000000
N       112.22448900000001   -1.50369000000000   -0.52238000000000
C       113.94026100000001    0.14593700000000   -0.13895100000000
C       113.27610100000001    1.27847000000000   -0.18405700000000
C       113.64995000000000    2.50059600000000   -0.92777200000000
C       112.70120199999999    3.36232300000000   -0.67449300000000
C       111.71547800000000    2.75012900000000    0.21017000000000
N       112.06852400000000    1.53205000000000    0.48578000000000
C       110.48459099999999    3.31212300000000    0.76986500000000
C       109.36154900000000    2.62791800000000    0.91253200000000
N       109.03294900000000    1.51314300000000    0.09309800000000
H       108.21680100000000    3.61670500000000    2.64255100000000
H       106.44462799999999    1.85081100000000    2.21779900000000
H       106.60183100000000   -1.80885100000000   -2.19621400000000
H       108.54707700000000   -3.67471100000000   -2.57735000000000
H       110.80904099999999   -4.46579900000000   -0.85940000000000
H       112.98298300000000   -4.30363100000000    1.15419600000000
H       114.67935400000002   -2.40991900000000    1.42538000000000
H       115.03851200000000    0.16149300000000   -0.23703800000000
H       114.51880500000000    2.67254000000000   -1.55572400000000
H       112.70404800000000    4.37380400000000   -1.09287100000000
H       110.52007300000000    4.36813900000000    1.08313400000000
C        35.40136300000000    0.02466000000000   -0.00337800000000
C        36.61689600000000   -0.00068300000000   -0.01385800000000
C        38.03841300000000   -0.02210700000000   -0.01803400000000
C        39.24697500000001   -0.02431800000000   -0.01792900000000
C        40.66805000000000   -0.00535800000000   -0.01855600000000
C        41.87919200000000    0.02466000000000   -0.00337800000000
C        50.97653900000000    0.02466000000000   -0.00337800000000
C        52.19207200000000   -0.00068300000000   -0.01385800000000
C        53.61358900000000   -0.02210700000000   -0.01803400000000
C        54.82215000000000   -0.02431800000000   -0.01792900000000
C        56.24322500000001   -0.00535800000000   -0.01855600000000
C        57.45436800000000    0.02466000000000   -0.00337800000000
C        66.55171400000000    0.02466000000000   -0.00337800000000
C        67.76724700000000   -0.00068300000000   -0.01385800000000
C        69.18876400000001   -0.02210700000000   -0.01803400000000
C        70.39732600000001   -0.02431800000000   -0.01792900000000
C        71.81840099999999   -0.00535800000000   -0.01855600000000
C        73.02954300000000    0.02466000000000   -0.00337800000000
C        82.12689000000000    0.02466000000000   -0.00337800000000
C        83.34242300000000   -0.00068300000000   -0.01385800000000
C        84.76394000000001   -0.02210700000000   -0.01803400000000
C        85.97250099999999   -0.02431800000000   -0.01792900000000
C        87.39357699999999   -0.00535800000000   -0.01855600000000
C        88.60471900000000    0.02466000000000   -0.00337800000000
C        97.70206500000000    0.02466000000000   -0.00337800000000
C        98.91759800000000   -0.00068300000000   -0.01385800000000
C       100.33911500000001   -0.02210700000000   -0.01803400000000
C       101.54767699999999   -0.02431800000000   -0.01792900000000
C       102.96875200000001   -0.00535800000000   -0.01855600000000
C       104.17989400000000    0.02466000000000   -0.00337800000000
Zn       46.46778200000001    0.03627700000000    0.00145000000000
C        44.18797200000000   -3.22517000000000   -0.90821600000000
C        43.23176200000001   -2.32582000000000   -1.01024200000000
C        43.62413600000001   -1.16351500000000   -0.20772600000000
C        42.98902000000000   -0.01224200000000    0.00454000000000
C        43.67447700000001    1.26235700000000    0.23076900000000
C        43.33918700000000    2.34095700000000    0.93500900000000
C        44.36372800000000    3.36027400000000    0.84442800000000
C        45.31432500000000    2.86334900000000    0.07106300000000
N        44.93733100000000    1.54674400000000   -0.34508000000000
C        46.56146500000000    3.47505100000000   -0.34580200000000
C        47.66301700000000    2.80779400000000   -0.67757400000000
C        48.65656300000000    3.05977800000000   -1.71174400000000
C        49.55044600000001    2.09891900000000   -1.61026000000000
C        49.17074800000000    1.18703500000000   -0.50628300000000
N        48.07583300000000    1.63635400000000    0.00108400000000
C        49.82795500000000   -0.01224200000000    0.00454000000000
C        49.20454400000000   -1.08142400000000    0.46605700000000
C        49.58325600000000   -2.01354000000000    1.54153200000000
C        48.64258700000000   -2.92768600000000    1.62739800000000
C        47.63428600000000   -2.63190700000000    0.62997100000000
N        47.97206100000000   -1.57852900000000   -0.01932400000000
C        46.38189300000000   -3.33891400000000    0.29877800000000
C        45.26801600000000   -2.74221700000000   -0.04856400000000
N        44.88590400000000   -1.45946000000000    0.36911900000000
H        44.18831600000000   -4.21624400000000   -1.39945000000000
H        42.32322800000000   -2.44751400000000   -1.59139000000000
H        42.41433500000000    2.45930900000000    1.51193500000000
H        44.39102300000000    4.34943800000000    1.30107800000000
H        46.64740500000000    4.57242900000000   -0.40782500000000
H        48.68923500000000    3.86599400000000   -2.43856800000000
H        50.44350800000000    1.98595100000000   -2.24403400000000
H        50.49800600000000   -1.93913300000000    2.15170200000000
H        48.66163400000001   -3.74129400000000    2.33566600000000
H        46.42037700000000   -4.43887300000000    0.35781400000000
Zn       62.04295800000001    0.03627700000000    0.00145000000000
C        59.76314700000000   -3.22517000000000   -0.90821600000000
C        58.80693800000001   -2.32582000000000   -1.01024200000000
C        59.19931200000001   -1.16351500000000   -0.20772600000000
C        58.56419500000000   -0.01224200000000    0.00454000000000
C        59.24965200000000    1.26235700000000    0.23076900000000
C        58.91436200000000    2.34095700000000    0.93500900000000
C        59.93890300000000    3.36027400000000    0.84442800000000
C        60.88950100000000    2.86334900000000    0.07106300000000
N        60.51250700000000    1.54674400000000   -0.34508000000000
C        62.13664000000000    3.47505100000000   -0.34580200000000
C        63.23819200000000    2.80779400000000   -0.67757400000000
C        64.23173900000000    3.05977800000000   -1.71174400000000
C        65.12562200000001    2.09891900000000   -1.61026000000000
C        64.74592400000000    1.18703500000000   -0.50628300000000
N        63.65100800000000    1.63635400000000    0.00108400000000
C        65.40313100000000   -0.01224200000000    0.00454000000000
C        64.77971900000000   -1.08142400000000    0.46605700000000
C        65.15843200000000   -2.01354000000000    1.54153200000000
C        64.21776300000001   -2.92768600000000    1.62739800000000
C        63.20946200000000   -2.63190700000000    0.62997100000000
N        63.54723700000001   -1.57852900000000   -0.01932400000000
C        61.95706800000000   -3.33891400000000    0.29877800000000
C        60.84319200000000   -2.74221700000000   -0.04856400000000
N        60.46108000000000   -1.45946000000000    0.36911900000000
H        59.76349200000000   -4.21624400000000   -1.39945000000000
H        57.89840300000000   -2.44751400000000   -1.59139000000000
H        57.98951000000000    2.45930900000000    1.51193500000000
H        59.96619800000000    4.34943800000000    1.30107800000000
H        62.22258000000000    4.57242900000000   -0.40782500000000
H        64.26441100000000    3.86599400000000   -2.43856800000000
H        66.01868300000000    1.98595100000000   -2.24403400000000
H        66.07318200000000   -1.93913300000000    2.15170200000000
H        64.23681000000001   -3.74129400000000    2.33566600000000
H        61.99555300000000   -4.43887300000000    0.35781400000000
Zn       77.61813300000001    0.03627700000000    0.00145000000000
C        75.33832300000000   -3.22517000000000   -0.90821600000000
C        74.38211300000002   -2.32582000000000   -1.01024200000000
C        74.77448700000001   -1.16351500000000   -0.20772600000000
C        74.13937100000000   -0.01224200000000    0.00454000000000
C        74.82482800000000    1.26235700000000    0.23076900000000
C        74.48953800000000    2.34095700000000    0.93500900000000
C        75.51407900000001    3.36027400000000    0.84442800000000
C        76.46467600000000    2.86334900000000    0.07106300000000
N        76.08768200000000    1.54674400000000   -0.34508000000000
C        77.71181600000000    3.47505100000000   -0.34580200000000
C        78.81336800000000    2.80779400000000   -0.67757400000000
C        79.80691400000001    3.05977800000000   -1.71174400000000
C        80.70079700000001    2.09891900000000   -1.61026000000000
C        80.32109900000000    1.18703500000000   -0.50628300000000
N        79.22618400000000    1.63635400000000    0.00108400000000
C        80.97830600000000   -0.01224200000000    0.00454000000000
C        80.35489500000000   -1.08142400000000    0.46605700000000
C        80.73360700000001   -2.01354000000000    1.54153200000000
C        79.79293900000000   -2.92768600000000    1.62739800000000
C        78.78463700000000   -2.63190700000000    0.62997100000000
N        79.12241200000000   -1.57852900000000   -0.01932400000000
C        77.53224400000001   -3.33891400000000    0.29877800000000
C        76.41836700000000   -2.74221700000000   -0.04856400000000
N        76.03625500000000   -1.45946000000000    0.36911900000000
H        75.33866700000000   -4.21624400000000   -1.39945000000000
H        73.47357900000000   -2.44751400000000   -1.59139000000000
H        73.56468599999999    2.45930900000000    1.51193500000000
H        75.54137400000000    4.34943800000000    1.30107800000000
H        77.79775600000001    4.57242900000000   -0.40782500000000
H        79.83958600000000    3.86599400000000   -2.43856800000000
H        81.59385899999999    1.98595100000000   -2.24403400000000
H        81.64835700000000   -1.93913300000000    2.15170200000000
H        79.81198500000001   -3.74129400000000    2.33566600000000
H        77.57072800000000   -4.43887300000000    0.35781400000000
Zn       93.19330900000000    0.03627700000000    0.00145000000000
C        90.91349800000002   -3.22517000000000   -0.90821600000000
C        89.95728900000000   -2.32582000000000   -1.01024200000000
C        90.34966300000001   -1.16351500000000   -0.20772600000000
C        89.71454600000000   -0.01224200000000    0.00454000000000
C        90.40000400000001    1.26235700000000    0.23076900000000
C        90.06471300000000    2.34095700000000    0.93500900000000
C        91.08925499999999    3.36027400000000    0.84442800000000
C        92.03985200000000    2.86334900000000    0.07106300000000
N        91.66285800000000    1.54674400000000   -0.34508000000000
C        93.28699100000000    3.47505100000000   -0.34580200000000
C        94.38854300000000    2.80779400000000   -0.67757400000000
C        95.38209000000001    3.05977800000000   -1.71174400000000
C        96.27597299999999    2.09891900000000   -1.61026000000000
C        95.89627500000000    1.18703500000000   -0.50628300000000
N        94.80135900000001    1.63635400000000    0.00108400000000
C        96.55348200000002   -0.01224200000000    0.00454000000000
C        95.93007000000000   -1.08142400000000    0.46605700000000
C        96.30878300000001   -2.01354000000000    1.54153200000000
C        95.36811400000001   -2.92768600000000    1.62739800000000
C        94.35981300000002   -2.63190700000000    0.62997100000000
N        94.69758800000001   -1.57852900000000   -0.01932400000000
C        93.10742000000000   -3.33891400000000    0.29877800000000
C        91.99354300000000   -2.74221700000000   -0.04856400000000
N        91.61143100000000   -1.45946000000000    0.36911900000000
H        90.91384300000001   -4.21624400000000   -1.39945000000000
H        89.04875400000000   -2.44751400000000   -1.59139000000000
H        89.13986100000000    2.45930900000000    1.51193500000000
H        91.11654900000001    4.34943800000000    1.30107800000000
H        93.37293099999999    4.57242900000000   -0.40782500000000
H        95.41476200000000    3.86599400000000   -2.43856800000000
H        97.16903400000000    1.98595100000000   -2.24403400000000
H        97.22353300000000   -1.93913300000000    2.15170200000000
H        95.38716100000002   -3.74129400000000    2.33566600000000
H        93.14590400000000   -4.43887300000000    0.35781400000000
242
 energy: -424.564191291044 gnorm: 0.841113754243 xtb: 6.4.1 (bd6e46d)
Zn       28.98117231654892    0.03832313051431   -0.01163503291418
C        31.30351048293055   -3.11479130009275    1.30752531482692
C        32.22957089331996   -2.16299030374327    1.25940085438955
C        31.80741232066266   -1.11405291010517    0.34226057153957
C        32.41903236844561    0.02441068789488   -0.00993881318198
C        31.71933238283146    1.22725108473724   -0.36439015639747
C        32.05992082222451    2.21050533458430   -1.23126987829605
C        31.03674110997460    3.21146396943657   -1.24558715706093
C        30.07590084117445    2.82134655891198   -0.38194345643641
N        30.47370408187129    1.59297956848762    0.17718584070480
C        28.83280004612243    3.48033663423077   -0.01161635864084
C        27.71663409069296    2.83437718363625    0.34253695107595
C        26.65707767110514    3.16696802187220    1.30223697942338
C        25.79995099368334    2.15828809172863    1.23512669330073
C        26.24705302852756    1.16158184235771    0.26073117587737
N        27.37523202741987    1.59380343543835   -0.22785580781188
C        25.63511441388411   -0.07823872925946   -0.15714978603914
C        26.31004538033316   -1.20262084529595   -0.41894980950022
C        25.92736446369881   -2.25602356857017   -1.36735482140744
C        26.88714253124482   -3.16581862363835   -1.28329279493650
C        27.87355122688449   -2.72410496347574   -0.30479944293281
N        27.51573220355715   -1.55815814024891    0.18663964515964
C        29.08494302946911   -3.37669522081482    0.13978972349860
C        30.22777377877899   -2.71592155586113    0.41193850258074
N        30.54827023017981   -1.48032575810193   -0.17511136877176
H        31.36265827387343   -4.01568019549911    1.92458703167614
H        33.13903831920715   -2.20104416870127    1.83694457612968
H        32.97824206245933    2.21298764167892   -1.81960570260279
H        31.03747109706094    4.11258572350351   -1.84822048612500
H        28.77882316019714    4.57168101313073   -0.01135972333867
H        26.60207909445634    4.03944850536387    1.93302286960579
H        24.90314887060657    2.12560650239502    1.84863423248441
H        24.54593845562782   -0.08688504409911   -0.26224785702003
H        25.06495957668424   -2.30844721770527   -2.01932660238278
H        26.88264395071062   -4.06996684221419   -1.88091515560096
H        29.06104841080994   -4.46520442691800    0.25656172399175
Zn      110.60144777299914   -0.01004814279339   -0.01616415766754
C       108.27911282273979    2.84360130784504    1.86504828278507
C       107.35305016991470    1.91725111320070    1.64117062038520
C       107.77523922831310    1.05668080746521    0.54536627635982
C       107.16356329553098    0.00335663436422   -0.01190458000417
C       107.86329740686125   -1.11288133906609   -0.58336514186402
C       107.52270327396668   -1.91826416310462   -1.61758096323041
C       108.54588048812344   -2.89919891437580   -1.81735026935583
C       109.50671890672139   -2.67607929785020   -0.89632962691931
N       109.10890234326725   -1.57275466587247   -0.11903972166126
C       110.74980936653611   -3.39232688995558   -0.65468913926235
C       111.86598397245635   -2.82326979638128   -0.18683988454022
C       112.92553275122408   -3.32812805358546    0.69449440796846
C       113.78266782882508   -2.32450480236467    0.81566824405808
C       113.33557418238580   -1.16433646603652    0.04309753106707
N       112.20737672723709   -1.49842865872360   -0.51719460339499
C       113.94750307324554    0.13147167813736   -0.13752306263593
C       113.27256612436071    1.28491761963388   -0.18619592629895
C       113.65524913533811    2.49596620319404   -0.92271393186639
C       112.69546877851083    3.37438184212878   -0.67132450420178
C       111.70906447453513    2.75881635401442    0.20823173978414
N       112.06688996489216    1.52193026690238    0.47484109170113
C       110.49767564086456    3.31760302542973    0.76616846360742
C       109.35484574411238    2.61780587969747    0.91101417936330
N       109.03437068376225    1.51256800590587    0.10494707412939
H       108.21995916416257    3.61438364117567    2.63852764356974
H       106.44357836835458    1.84750485996164    2.21576261225251
H       106.60437566824382   -1.81156032475032   -2.19618552749801
H       108.54514667871450   -3.67288055348390   -2.57670419975443
H       110.80379552653145   -4.46477082894582   -0.85690293236207
H       112.98053664389190   -4.30248753326741    1.15247281383185
H       114.67946832192109   -2.40621054017084    1.42459529606295
H       115.03667871283179    0.15947399276200   -0.23919116148518
H       114.51765651502504    2.66843628529318   -1.55364217449261
H       112.69997175392656    4.37370290193538   -1.09084609694616
H       110.52156866703660    4.36555067591145    1.08284958135712
C        35.40050518290899    0.02452930652469   -0.00318854377662
C        36.62479186960292   -0.00094725388180   -0.01371512786016
C        38.02651549685579   -0.02169270015277   -0.01805232112393
C        39.25140882378599   -0.02384556128494   -0.01792163297704
C        40.62025684919566   -0.00567514056810   -0.01847007812777
C        41.80975778482875    0.03207626441842   -0.00485405896867
C        51.03645108962413    0.03038373273717   -0.00331786290632
C        52.23324926181849   -0.00118549076368   -0.01345955316133
C        53.60440782980136   -0.02157242547829   -0.01846428483054
C        54.82930879203243   -0.02380143812528   -0.01794363499014
C        56.19512932795651   -0.00568493052456   -0.01845388534188
C        57.38512092877677    0.03203477071588   -0.00503055441421
C        66.61159352828102    0.03038630360678   -0.00323142996991
C        67.80847051337601   -0.00117097347519   -0.01343580749673
C        69.17955742125409   -0.02158107453285   -0.01848032784249
C        70.40450593168852   -0.02379981217922   -0.01793991335958
C        71.77031636125567   -0.00567570648237   -0.01845539782373
C        72.96025266348767    0.03202350212506   -0.00506644723609
C        82.18675491741884    0.03038452836237   -0.00319104187521
C        83.38367834674186   -0.00116664462898   -0.01342261114928
C        84.75471584041318   -0.02158591405947   -0.01848875922513
C        85.97969076200452   -0.02379827141196   -0.01793600669660
C        87.34552568778956   -0.00566847380662   -0.01845555691449
C        88.53535446532150    0.03201634953498   -0.00509449492211
C        97.76245501048010    0.03050271694864   -0.00294568407435
C        98.95835847540059   -0.00099746129585   -0.01331564221739
C       100.33331503437465   -0.02157373334288   -0.01853278962948
C       101.55832874907058   -0.02389220165850   -0.01813999955891
C       102.95981496954145   -0.00573077319094   -0.01831936807402
C       104.18213955058098    0.02432066193428   -0.00315178928973
Zn       46.46400614066157    0.03744576366544    0.00092892881464
C        44.19138709858561   -3.23649574732599   -0.90605166925792
C        43.22806347189103   -2.32235581899235   -1.00668164782516
C        43.65564766102778   -1.18271623769673   -0.21019920582020
C        43.05326388553043   -0.00221010905074    0.00552990879250
C        43.70224839414945    1.26710059229105    0.22796278785320
C        43.33449917956118    2.35650544820415    0.94294215644997
C        44.34914949075115    3.36189395716413    0.85019854767477
C        45.32258285243388    2.85278369487881    0.06555792430109
N        44.94889712576246    1.54409195514165   -0.34136481833058
C        46.55262133745915    3.47741187716198   -0.34516474188500
C        47.66992984531645    2.80155663872890   -0.67867382277269
C        48.65642630014950    3.06530762405772   -1.70658186034048
C        49.56171078287262    2.09021518696751   -1.60956234713421
C        49.16371561074398    1.19194154325431   -0.51689027544642
N        48.05701099341471    1.63363504023393   -0.00330492153715
C        49.78347313814181   -0.00160430120066   -0.00133834992444
C        49.17965205415131   -1.09909004794145    0.47493680556818
C        49.59039953490151   -2.00810913298826    1.53686983044965
C        48.63783581816097   -2.93796758728474    1.62723208950230
C        47.62705841812452   -2.64183871579340    0.63607722527785
N        47.96684733960664   -1.56237687586182   -0.01775377715979
C        46.39677144835483   -3.34453037701234    0.30505288016112
C        45.25716738683583   -2.73452456298055   -0.05300155695462
N        44.89128927308387   -1.45838085152145    0.35725407278866
H        44.19011638992733   -4.21345162826964   -1.39737662909828
H        42.32396406585941   -2.44329760644333   -1.58942105613718
H        42.41524452229650    2.45993013640353    1.51145163223365
H        44.38739455510746    4.34659786151485    1.30149195369940
H        46.64142096558307    4.56990624178323   -0.40976692232610
H        48.68632242433597    3.86513536287819   -2.43559211441917
H        50.44207621634544    1.98362007451790   -2.24177318676807
H        50.49474683593355   -1.93692256782215    2.14792582950034
H        48.65877234274691   -3.74322475982592    2.33555528934033
H        46.42215839152318   -4.43699811134953    0.35676206676142
Zn       62.03905701981802    0.03738955092636    0.00094860065547
C        59.76622173723065   -3.23658935181198   -0.90600629986309
C        58.80336746984678   -2.32263746784901   -1.00676020915611
C        59.23091920853084   -1.18261254552253   -0.20943330600881
C        58.62833631714680   -0.00242606250239    0.00547873289414
C        59.27751705832855    1.26734505662550    0.22759105979641
C        58.90977635134282    2.35645636184774    0.94296934392524
C        59.92431867126711    3.36197955823489    0.85014023002510
C        60.89788453575692    2.85293067419279    0.06555102506069
N        60.52386145560376    1.54402115384184   -0.34138715977154
C        62.12766694678664    3.47737143280794   -0.34504498668740
C        63.24518171234431    2.80152345795055   -0.67868119080852
C        64.23154471305449    3.06530150684633   -1.70659401249890
C        65.13688715704190    2.09017681541260   -1.60957574798380
C        64.73880015954182    1.19200186716203   -0.51699303435419
N        63.63224504122014    1.63367019462499   -0.00330999913482
C        65.35865900077113   -0.00169699282783   -0.00126156041920
C        64.75503274372124   -1.09903891484695    0.47501082951879
C        65.16572377863079   -2.00809379146036    1.53676691797864
C        64.21288795332825   -2.93779787440532    1.62736102293197
C        63.20252924529386   -2.64149233825470    0.63622567235110
N        63.54186990656861   -1.56271090852185   -0.01777645787966
C        61.97139264836522   -3.34454542662569    0.30469923128053
C        60.83278513567344   -2.73481455889261   -0.05284096984446
N        60.46634542899352   -1.45804238084434    0.35724736029256
H        59.76526358126443   -4.21346863077983   -1.39740044502507
H        57.89916146126816   -2.44330532680746   -1.58945089051504
H        57.99041441271486    2.45992562293424    1.51143232877331
H        59.96256938660630    4.34661891171744    1.30149922149632
H        62.21659586745363    4.56989851648999   -0.40972904115126
H        64.26149748988286    3.86513582433580   -2.43558872803679
H        66.01725318316359    1.98362127154736   -2.24176606885495
H        66.06994757276306   -1.93692987465205    2.14791414114717
H        64.23394136419157   -3.74321138795350    2.33554260250266
H        61.99734631318429   -4.43699869412739    0.35651697668583
Zn       77.61419029414782    0.03736025147288    0.00095483788717
C        75.34129869547320   -3.23660880513880   -0.90599365792126
C        74.37857451603767   -2.32272255795262   -1.00678227476318
C        74.80611173878827   -1.18252299544858   -0.20935634473933
C        74.20353125239161   -0.00248163415374    0.00545701461197
C        74.85273501533439    1.26735627268127    0.22758283588039
C        74.48498851968715    2.35646464877965    0.94299094882124
C        75.49947607471272    3.36200219842272    0.85012463363146
C        76.47309967147586    2.85297033987101    0.06553291460362
N        76.09899075100918    1.54399090157069   -0.34137183498245
C        77.70278902259361    3.47736017780478   -0.34500752091269
C        78.82038847399957    2.80151152559492   -0.67868483194205
C        79.80669452168982    3.06530048749912   -1.70659565310996
C        80.71206098272610    2.09015542290781   -1.60957942157166
C        80.31393254736831    1.19202650415372   -0.51704231076644
N        79.20744706984728    1.63369038146391   -0.00330819779841
C        80.93383941011790   -0.00174046422151   -0.00122550786714
C        80.33029295873773   -1.09900810883204    0.47503459765259
C        80.74095537166386   -2.00809256366079    1.53672177315198
C        79.78802367150767   -2.93773308651299    1.62740336340344
C        78.77780863347078   -2.64136639124292    0.63626254812180
N        79.11698615088056   -1.56283892545546   -0.01778204856808
C        77.54639080231132   -3.34456796945358    0.30459859423493
C        76.40807398623261   -2.73489247070451   -0.05277241819335
N        76.04151766922301   -1.45794059850831    0.35723657500870
H        75.34043155116598   -4.21347211699142   -1.39740804507856
H        73.47434209811910   -2.44331107946944   -1.58946009017824
H        73.56559171780184    2.45992945197062    1.51142995894072
H        75.53774316173782    4.34662585468446    1.30150132413079
H        77.79177108682633    4.56989771962286   -0.40971648959609
H        79.83667149734613    3.86513628453353   -2.43558748386453