      -----------------------------------------------------------      
     |                   =====================                   |     
     |                           x T B                           |     
     |                   =====================                   |     
     |                         S. Grimme                         |     
     |          Mulliken Center for Theoretical Chemistry        |     
     |                    University of Bonn                     |     
      -----------------------------------------------------------      

   * xtb version 6.4.1 (bd6e46d) compiled by 'conda@4901f00b25ba' on 2021-06-10

   xtb is free software: you can redistribute it and/or modify it under
   the terms of the GNU Lesser General Public License as published by
   the Free Software Foundation, either version 3 of the License, or
   (at your option) any later version.
   
   xtb is distributed in the hope that it will be useful,
   but WITHOUT ANY WARRANTY; without even the implied warranty of
   MERCHANTABILITY or FITNESS FOR A PARTICULAR PURPOSE.  See the
   GNU Lesser General Public License for more details.
   
   Cite this work as:
   * C. Bannwarth, E. Caldeweyher, S. Ehlert, A. Hansen, P. Pracht,
     J. Seibert, S. Spicher, S. Grimme, WIREs Comput. Mol. Sci., 2020, 11,
     e01493. DOI: 10.1002/wcms.1493
   
   for GFN2-xTB:
   * C. Bannwarth, S. Ehlert and S. Grimme., J. Chem. Theory Comput., 2019,
     15, 1652-1671. DOI: 10.1021/acs.jctc.8b01176
   for GFN1-xTB:
   * S. Grimme, C. Bannwarth, P. Shushkov, J. Chem. Theory Comput., 2017,
     13, 1989-2009. DOI: 10.1021/acs.jctc.7b00118
   for GFN0-xTB:
   * P. Pracht, E. Caldeweyher, S. Ehlert, S. Grimme, ChemRxiv, 2019, preprint.
     DOI: 10.26434/chemrxiv.8326202.v1
   for GFN-FF:
   * S. Spicher and S. Grimme, Angew. Chem. Int. Ed., 2020, 59, 15665-15673.
     DOI: 10.1002/anie.202004239
   
   for DFT-D4:
   * E. Caldeweyher, C. Bannwarth and S. Grimme, J. Chem. Phys., 2017,
     147, 034112. DOI: 10.1063/1.4993215
   * E. Caldeweyher, S. Ehlert, A. Hansen, H. Neugebauer, S. Spicher,
     C. Bannwarth and S. Grimme, J. Chem. Phys., 2019, 150, 154122.
     DOI: 10.1063/1.5090222
   * E. Caldeweyher, J.-M. Mewes, S. Ehlert and S. Grimme, Phys. Chem. Chem. Phys.
     2020, 22, 8499-8512. DOI: 10.1039/D0CP00502A
   
   for sTDA-xTB:
   * S. Grimme and C. Bannwarth, J. Chem. Phys., 2016, 145, 054103.
     DOI: 10.1063/1.4959605
   
   in the mass-spec context:
   * V. Asgeirsson, C. Bauer and S. Grimme, Chem. Sci., 2017, 8, 4879.
     DOI: 10.1039/c7sc00601b
   * J. Koopman and S. Grimme, ACS Omega 2019, 4, 12, 15120-15133.
     DOI: 10.1021/acsomega.9b02011
   
   for metadynamics refer to:
   * S. Grimme, J. Chem. Theory Comput., 2019, 155, 2847-2862
     DOI: 10.1021/acs.jctc.9b00143
   
   for SPH calculations refer to:
   * S. Spicher and S. Grimme, J. Chem. Theory Comput., 2021, 17, 1701-1714
     DOI: 10.1021/acs.jctc.0c01306
   
   with help from (in alphabetical order)
   P. Atkinson, C. Bannwarth, F. Bohle, G. Brandenburg, E. Caldeweyher
   M. Checinski, S. Dohm, S. Ehlert, S. Ehrlich, I. Gerasimov, J. Koopman
   C. Lavigne, S. Lehtola, F. März, M. Müller, F. Musil, H. Neugebauer
   J. Pisarek, C. Plett, P. Pracht, J. Seibert, P. Shushkov, S. Spicher
   M. Stahn, M. Steiner, T. Strunk, J. Stückrath, T. Rose, and J. Unsleber
   
 * started run on 2021/11/19 at 15:35:49.537     

           -------------------------------------------------
          |                Calculation Setup                |
           -------------------------------------------------

          program call               : /home/jeff/miniconda3/bin/xtb input_structure_1.xyz --gfn 2 --ohess normal --parallel 1 --etemp 300 --chrg 0 --uhf 0 -I det_control.in
          hostname                   : jelfscompute1
          coordinate file            : input_structure_1.xyz
          omp threads                :                     1
          number of atoms            :                   158
          number of electrons        :                   498
          charge                     :                     0
          spin                       :                   0.0
          first test random number   :      0.66518687436157

   ID    Z sym.   atoms
    1    6 C      1-8, 10-14, 16-20, 22, 23, 38-45, 47-51, 53-57, 59, 60,
                  75-94, 96-100, 102-106, 108, 109, 123-130, 132-136,
                  138-142, 144, 145
    2    7 N      9, 15, 21, 24, 46, 52, 58, 61, 95, 101, 107, 110, 131, 137,
                  143, 146
    3    1 H      25-37, 62-74, 111-122, 147-158

molecular fragmentation (1/2 indicates fragments):
111111111111111111111111111111111111122222222222222222222222222222222222
222222222222222222222222222222222222222222222222222222222222222222222222
22222222222222
# atoms in fragment 1/2:    37   121
 fragment masses (1/2) :      309.34     1070.15
CMA distance (Bohr)    :  49.557
constraining FC (au)   :  0.0500

           -------------------------------------------------
          |                 G F N 2 - x T B                 |
           -------------------------------------------------

        Reference                      10.1021/acs.jctc.8b01176
      * Hamiltonian:
        H0-scaling (s, p, d)           1.850000    2.230000    2.230000
        zeta-weighting                 0.500000
      * Dispersion:
        s8                             2.700000
        a1                             0.520000
        a2                             5.000000
        s9                             5.000000
      * Repulsion:
        kExp                           1.500000    1.000000
        rExp                           1.000000
      * Coulomb:
        alpha                          2.000000
        third order                    shell-resolved
        anisotropic                    true
        a3                             3.000000
        a5                             4.000000
        cn-shift                       1.200000
        cn-exp                         4.000000
        max-rad                        5.000000


          ...................................................
          :                      SETUP                      :
          :.................................................:
          :  # basis functions                 482          :
          :  # atomic orbitals                 482          :
          :  # shells                          266          :
          :  # electrons                       498          :
          :  max. iterations                   250          :
          :  Hamiltonian                  GFN2-xTB          :
          :  restarted?                      false          :
          :  GBSA solvation                  false          :
          :  PC potential                    false          :
          :  electronic temp.          300.0000000     K    :
          :  accuracy                    1.0000000          :
          :  -> integral cutoff          0.2500000E+02      :
          :  -> integral neglect         0.1000000E-07      :
          :  -> SCF convergence          0.1000000E-05 Eh   :
          :  -> wf. convergence          0.1000000E-03 e    :
          :  Broyden damping             0.4000000          :
          ...................................................

 iter      E             dE          RMSdq      gap      omega  full diag
   1   -272.6309061 -0.272631E+03  0.526E+00    0.17       0.0  T
   2   -272.4459455  0.184961E+00  0.365E+00    0.08       1.0  T
   3   -261.9655915  0.104804E+02  0.446E+00    0.12       1.0  T
   4   -246.6307893  0.153348E+02  0.501E+00    0.04       1.0  T
   5   -262.4067460 -0.157760E+02  0.364E+00    0.09       1.0  T
   6   -265.2067003 -0.279995E+01  0.321E+00    0.09       1.0  T
   7   -270.3432796 -0.513658E+01  0.231E+00    0.06       1.0  T
   8   -272.7608622 -0.241758E+01  0.139E+00    0.33       1.0  T
   9   -273.0776951 -0.316833E+00  0.777E-01    0.31       1.0  T
  10   -273.0000447  0.776504E-01  0.806E-01    0.10       1.0  T
  11   -272.7670524  0.232992E+00  0.103E+00    0.19       1.0  T
  12   -273.0709577 -0.303905E+00  0.619E-01    0.10       1.0  T
  13   -272.9477936  0.123164E+00  0.695E-01    0.05       1.0  T
  14   -273.1522132 -0.204420E+00  0.407E-01    0.08       1.0  T
  15   -273.1708733 -0.186601E-01  0.334E-01    0.13       1.0  T
  16   -273.1866786 -0.158053E-01  0.267E-01    0.14       1.0  T
  17   -273.1905805 -0.390184E-02  0.205E-01    0.16       1.0  T
  18   -273.1969893 -0.640883E-02  0.170E-01    0.20       1.0  T
  19   -273.1993161 -0.232684E-02  0.124E-01    0.19       1.0  T
  20   -273.1952376  0.407856E-02  0.140E-01    0.15       1.0  T
  21   -273.1989646 -0.372702E-02  0.917E-02    0.16       1.0  T
  22   -273.1999772 -0.101258E-02  0.773E-02    0.14       1.0  T
  23   -273.2009586 -0.981409E-03  0.406E-02    0.17       1.0  T
  24   -273.2008974  0.611437E-04  0.440E-02    0.16       1.0  T
  25   -273.2009958 -0.983553E-04  0.306E-02    0.18       1.0  T
  26   -273.2009779  0.179434E-04  0.279E-02    0.18       1.0  T
  27   -273.2010349 -0.570633E-04  0.233E-02    0.18       1.0  T
  28   -273.2010786 -0.436850E-04  0.202E-02    0.18       1.0  T
  29   -273.2011204 -0.417696E-04  0.177E-02    0.17       1.0  T
  30   -273.2011538 -0.334204E-04  0.152E-02    0.17       1.0  T
  31   -273.2011883 -0.345187E-04  0.113E-02    0.17       1.0  T
  32   -273.2012145 -0.261698E-04  0.824E-03    0.17       1.0  T
  33   -273.2012274 -0.129592E-04  0.610E-03    0.17       1.3  T
  34   -273.2012350 -0.757664E-05  0.427E-03    0.17       1.9  T
  35   -273.2012379 -0.284421E-05  0.310E-03    0.17       2.6  T
  36   -273.2012393 -0.140908E-05  0.222E-03    0.17       3.6  T
  37   -273.2012403 -0.987077E-06  0.144E-03    0.16       5.5  T
  38   -273.2012407 -0.442944E-06  0.685E-04    0.16      11.6  T
  39   -273.2012408 -0.131758E-06  0.209E-04    0.16      38.0  T

   *** convergence criteria satisfied after 39 iterations ***

         #    Occupation            Energy/Eh            Energy/eV
      -------------------------------------------------------------
         1        2.0000           -0.6942199             -18.8907
       ...           ...                  ...                  ...
       243        2.0000           -0.3578467              -9.7375
       244        2.0000           -0.3568677              -9.7109
       245        2.0000           -0.3479947              -9.4694
       246        2.0000           -0.3477757              -9.4635
       247        2.0000           -0.3461362              -9.4188
       248        2.0000           -0.3453861              -9.3984
       249        1.8966           -0.3217730              -8.7559 (HOMO)
       250        0.0613           -0.3157283              -8.5914 (LUMO)
       251        0.0375           -0.3152501              -8.5784
       252        0.0045           -0.3132269              -8.5233
       253        0.0000           -0.3066982              -8.3457
       254        0.0000           -0.3066563              -8.3445
       ...           ...                  ...                  ...
       482                          3.8767126             105.4907
      -------------------------------------------------------------
                  HL-Gap            0.0060448 Eh            0.1645 eV
             Fermi-level           -0.3190092 Eh           -8.6807 eV

 SCC (total)                   0 d,  0 h,  0 min,  2.554 sec
 SCC setup                      ...        0 min,  0.006 sec (  0.241%)
 Dispersion                     ...        0 min,  0.009 sec (  0.361%)
 classical contributions        ...        0 min,  0.001 sec (  0.045%)
 integral evaluation            ...        0 min,  0.077 sec (  2.999%)
 iterations                     ...        0 min,  2.210 sec ( 86.533%)
 molecular gradient             ...        0 min,  0.244 sec (  9.555%)
 printout                       ...        0 min,  0.007 sec (  0.266%)

         :::::::::::::::::::::::::::::::::::::::::::::::::::::
         ::                     SUMMARY                     ::
         :::::::::::::::::::::::::::::::::::::::::::::::::::::
         :: total energy            -266.867569823780 Eh    ::
         :: gradient norm              3.172709101742 Eh/a0 ::
         :: HOMO-LUMO gap              0.164486413669 eV    ::
         ::.................................................::
         :: SCC energy              -273.201240838224 Eh    ::
         :: -> isotropic ES            0.160061364019 Eh    ::
         :: -> anisotropic ES         -0.007733356481 Eh    ::
         :: -> anisotropic XC          0.195621949051 Eh    ::
         :: -> dispersion             -0.215970764059 Eh    ::
         :: repulsion energy           6.335117313564 Eh    ::
         :: add. restraining           0.000000000000 Eh    ::
         :: total charge              -0.000000000001 e     ::
         :::::::::::::::::::::::::::::::::::::::::::::::::::::

      ----------------------------------------------------------- 
     |                   =====================                   |
     |                        A N C O P T                        |
     |                   =====================                   |
     |               Approximate Normal Coordinate               |
     |                Rational Function Optimizer                |
      ----------------------------------------------------------- 

          ...................................................
          :                      SETUP                      :
          :.................................................:
          :   optimization level            normal          :
          :   max. optcycles                   474          :
          :   ANC micro-cycles                  20          :
          :   degrees of freedom               468          :
          :.................................................:
          :   RF solver                   davidson          :
          :   write xtbopt.log                true          :
          :   linear?                        false          :
          :   energy convergence         0.5000000E-05 Eh   :
          :   grad. convergence          0.1000000E-02 Eh/α :
          :   maximium RF displ.         1.0000000          :
          :   Hlow (freq-cutoff)         0.1000000E-01      :
          :   Hmax (freq-cutoff)         5.0000000          :
          :   S6 in model hess.         20.0000000          :
          ...................................................

generating ANC from model Hessian ...
Using Lindh-Hessian (1995)
 Shifting diagonal of input Hessian by    1.0029410204926979E-002
 Lowest  eigenvalues of input Hessian
    0.010000    0.010017    0.010019    0.010026    0.010029    0.000000
    0.000000    0.000000    0.000000    0.000000    0.000000    0.010030
    0.010031    0.010037    0.010043    0.010054    0.010057    0.010103
 Highest eigenvalues
    3.223434    3.223454    4.044950    4.058992    4.150198    4.161505


........................................................................
.............................. CYCLE    1 ..............................
........................................................................
   1   -273.2012408 -0.273201E+03  0.694E-05    0.16       0.0  T
   2   -273.2012407  0.103788E-06  0.516E-04    0.16      15.4  T
   3   -273.2012408 -0.835289E-07  0.245E-04    0.16      32.4  T
     SCC iter.                  ...        0 min,  0.174 sec
     gradient                   ...        0 min,  0.244 sec
 * total energy  :  -266.8675698 Eh     change        0.1039945E-07 Eh
   gradient norm :     3.1726985 Eh/α   predicted     0.0000000E+00 (-100.00%)
   displ. norm   :     0.6268452 α      lambda       -0.1911505E+01
   maximum displ.:     0.2947166 α      in ANC's #468, #467, #466, ...

........................................................................
.............................. CYCLE    2 ..............................
........................................................................
   1   -273.3394425 -0.273339E+03  0.554E-01    0.43       0.0  T
   2   -273.3346832  0.475928E-02  0.518E-01    0.20       1.0  T
   3   -273.3640439 -0.293607E-01  0.270E-01    0.29       1.0  T
   4   -273.3390911  0.249528E-01  0.374E-01    0.26       1.0  T
   5   -273.3629405 -0.238494E-01  0.170E-01    0.23       1.0  T
   6   -273.3701733 -0.723283E-02  0.597E-02    0.28       1.0  T
   7   -273.3709201 -0.746787E-03  0.201E-02    0.27       1.0  T
   8   -273.3709807 -0.605684E-04  0.130E-02    0.28       1.0  T
   9   -273.3710025 -0.218405E-04  0.844E-03    0.28       1.0  T
  10   -273.3710101 -0.757879E-05  0.554E-03    0.28       1.4  T
  11   -273.3710148 -0.474443E-05  0.265E-03    0.28       3.0  T
  12   -273.3710152 -0.406253E-06  0.220E-03    0.28       3.6  T
  13   -273.3710164 -0.110610E-05  0.717E-04    0.28      11.1  T
  14   -273.3710164 -0.696248E-07  0.393E-04    0.28      20.3  T
  15   -273.3710164 -0.259651E-07  0.223E-04    0.28      35.6  T
     SCC iter.                  ...        0 min,  0.843 sec
     gradient                   ...        0 min,  0.248 sec
 * total energy  :  -267.8915976 Eh     change       -0.1024028E+01 Eh
   gradient norm :     0.7009309 Eh/α   predicted    -0.1331301E+01 (  30.01%)
   displ. norm   :     0.6101487 α      lambda       -0.3112704E+00
   maximum displ.:     0.1289876 α      in ANC's #102, #136, #232, ...

........................................................................
.............................. CYCLE    3 ..............................
........................................................................
   1   -273.4161776 -0.273416E+03  0.334E-01    0.33       0.0  T
   2   -273.4030105  0.131671E-01  0.355E-01    0.35       1.0  T
   3   -273.4154930 -0.124825E-01  0.231E-01    0.35       1.0  T
   4   -273.4158139 -0.320873E-03  0.171E-01    0.38       1.0  T
   5   -273.4207479 -0.493397E-02  0.882E-02    0.35       1.0  T
   6   -273.4224691 -0.172125E-02  0.297E-02    0.36       1.0  T
   7   -273.4226509 -0.181740E-03  0.948E-03    0.36       1.0  T
   8   -273.4226602 -0.930307E-05  0.714E-03    0.36       1.1  T
   9   -273.4226645 -0.429814E-05  0.556E-03    0.36       1.4  T
  10   -273.4226700 -0.550766E-05  0.277E-03    0.36       2.9  T
  11   -273.4226718 -0.180248E-05  0.823E-04    0.36       9.7  T
  12   -273.4226719 -0.119542E-06  0.416E-04    0.36      19.1  T
  13   -273.4226719 -0.686668E-08  0.309E-04    0.36      25.7  T
     SCC iter.                  ...        0 min,  0.736 sec
     gradient                   ...        0 min,  0.244 sec
 * total energy  :  -268.1323945 Eh     change       -0.2407968E+00 Eh
   gradient norm :     0.4184251 Eh/α   predicted    -0.2135757E+00 ( -11.30%)
   displ. norm   :     0.7235718 α      lambda       -0.2083721E+00
   maximum displ.:     0.1833290 α      in ANC's #102, #136, #144, ...

........................................................................
.............................. CYCLE    4 ..............................
........................................................................
   1   -273.4971082 -0.273497E+03  0.353E-01    0.44       0.0  T
   2   -273.4861276  0.109806E-01  0.344E-01    0.47       1.0  T
   3   -273.4978989 -0.117713E-01  0.219E-01    0.48       1.0  T
   4   -273.5009628 -0.306393E-02  0.113E-01    0.49       1.0  T
   5   -273.5027583 -0.179543E-02  0.584E-02    0.49       1.0  T
   6   -273.5033840 -0.625756E-03  0.263E-02    0.49       1.0  T
   7   -273.5035494 -0.165400E-03  0.741E-03    0.48       1.1  T
   8   -273.5035539 -0.448000E-05  0.472E-03    0.48       1.7  T
   9   -273.5035552 -0.128254E-05  0.379E-03    0.48       2.1  T
  10   -273.5035578 -0.263281E-05  0.173E-03    0.48       4.6  T
  11   -273.5035584 -0.565761E-06  0.803E-04    0.48       9.9  T
  12   -273.5035585 -0.136709E-06  0.346E-04    0.48      23.0  T
     SCC iter.                  ...        0 min,  0.676 sec
     gradient                   ...        0 min,  0.245 sec
 * total energy  :  -268.3002055 Eh     change       -0.1678111E+00 Eh
   gradient norm :     0.2222654 Eh/α   predicted    -0.1587341E+00 (  -5.41%)
   displ. norm   :     0.8319508 α      lambda       -0.1464722E+00
   maximum displ.:     0.2272489 α      in ANC's #102, #136, #46, ...

........................................................................
.............................. CYCLE    5 ..............................
........................................................................
   1   -273.5265512 -0.273527E+03  0.330E-01    0.53       0.0  T
   2   -273.5201784  0.637285E-02  0.301E-01    0.54       1.0  T
   3   -273.5267743 -0.659594E-02  0.189E-01    0.54       1.0  T
   4   -273.5301104 -0.333606E-02  0.618E-02    0.54       1.0  T
   5   -273.5305167 -0.406373E-03  0.397E-02    0.54       1.0  T
   6   -273.5308850 -0.368257E-03  0.154E-02    0.54       1.0  T
   7   -273.5309235 -0.384699E-04  0.598E-03    0.54       1.3  T
   8   -273.5309262 -0.277494E-05  0.376E-03    0.54       2.1  T
   9   -273.5309271 -0.841580E-06  0.232E-03    0.54       3.4  T
  10   -273.5309283 -0.126457E-05  0.958E-04    0.54       8.3  T
  11   -273.5309285 -0.144172E-06  0.393E-04    0.54      20.3  T
  12   -273.5309285 -0.166279E-07  0.251E-04    0.54      31.7  T
     SCC iter.                  ...        0 min,  0.676 sec
     gradient                   ...        0 min,  0.244 sec
 * total energy  :  -268.4318209 Eh     change       -0.1316154E+00 Eh
   gradient norm :     0.1707990 Eh/α   predicted    -0.1239260E+00 (  -5.84%)
   displ. norm   :     0.9038403 α      lambda       -0.1317277E+00
   maximum displ.:     0.2644812 α      in ANC's #46, #136, #102, ...

........................................................................
.............................. CYCLE    6 ..............................
........................................................................
   1   -273.5395741 -0.273540E+03  0.289E-01    0.56       0.0  T
   2   -273.5351844  0.438973E-02  0.276E-01    0.56       1.0  T
   3   -273.5404720 -0.528759E-02  0.148E-01    0.56       1.0  T
   4   -273.5409653 -0.493300E-03  0.809E-02    0.56       1.0  T
   5   -273.5424552 -0.148989E-02  0.370E-02    0.56       1.0  T
   6   -273.5427313 -0.276164E-03  0.108E-02    0.56       1.0  T
   7   -273.5427421 -0.107796E-04  0.622E-03    0.56       1.3  T
   8   -273.5427458 -0.370127E-05  0.382E-03    0.56       2.1  T
   9   -273.5427475 -0.166995E-05  0.191E-03    0.56       4.2  T
  10   -273.5427484 -0.916414E-06  0.639E-04    0.56      12.5  T
  11   -273.5427485 -0.761963E-07  0.244E-04    0.56      32.6  T
     SCC iter.                  ...        0 min,  0.625 sec
     gradient                   ...        0 min,  0.244 sec
 * total energy  :  -268.5481685 Eh     change       -0.1163475E+00 Eh
   gradient norm :     0.1250538 Eh/α   predicted    -0.1196699E+00 (   2.86%)
   displ. norm   :     0.8664223 α      lambda       -0.9242456E-01
   maximum displ.:     0.3085591 α      in ANC's #46, #32, #28, ...

........................................................................
.............................. CYCLE    7 ..............................
........................................................................
   1   -273.5635069 -0.273564E+03  0.227E-01    0.54       0.0  T
   2   -273.5597855  0.372149E-02  0.242E-01    0.54       1.0  T
   3   -273.5654277 -0.564228E-02  0.111E-01    0.54       1.0  T
   4   -273.5643037  0.112408E-02  0.748E-02    0.54       1.0  T
   5   -273.5656865 -0.138287E-02  0.259E-02    0.54       1.0  T
   6   -273.5658118 -0.125305E-03  0.662E-03    0.54       1.2  T
   7   -273.5658131 -0.125895E-05  0.454E-03    0.54       1.8  T
   8   -273.5658146 -0.151491E-05  0.285E-03    0.54       2.8  T
   9   -273.5658164 -0.179820E-05  0.103E-03    0.54       7.7  T
  10   -273.5658167 -0.251789E-06  0.332E-04    0.54      24.0  T
  11   -273.5658167 -0.121326E-07  0.185E-04    0.54      42.9  T
     SCC iter.                  ...        0 min,  0.620 sec
     gradient                   ...        0 min,  0.245 sec
 * total energy  :  -268.6157506 Eh     change       -0.6758210E-01 Eh
   gradient norm :     0.1021532 Eh/α   predicted    -0.8090331E-01 (  19.71%)
   displ. norm   :     0.7547785 α      lambda       -0.5238126E-01
   maximum displ.:     0.2325392 α      in ANC's #32, #28, #46, ...

........................................................................
.............................. CYCLE    8 ..............................
........................................................................
   1   -273.6132886 -0.273613E+03  0.169E-01    0.56       0.0  T
   2   -273.6131970  0.915742E-04  0.116E-01    0.56       1.0  T
   3   -273.6102584  0.293859E-02  0.109E-01    0.56       1.0  T
   4   -273.6132584 -0.299991E-02  0.433E-02    0.56       1.0  T
   5   -273.6136356 -0.377257E-03  0.115E-02    0.56       1.0  T
   6   -273.6136567 -0.210884E-04  0.421E-03    0.56       1.9  T
   7   -273.6136594 -0.272800E-05  0.200E-03    0.56       4.0  T
   8   -273.6136595 -0.405203E-07  0.144E-03    0.56       5.5  T
   9   -273.6136598 -0.303633E-06  0.521E-04    0.56      15.3  T
  10   -273.6136598 -0.520483E-07  0.249E-04    0.56      32.0  T
     SCC iter.                  ...        0 min,  0.575 sec
     gradient                   ...        0 min,  0.243 sec
 * total energy  :  -268.6613181 Eh     change       -0.4556753E-01 Eh
   gradient norm :     0.0654657 Eh/α   predicted    -0.4111122E-01 (  -9.78%)
   displ. norm   :     0.8659613 α      lambda       -0.4553402E-01
   maximum displ.:     0.2785947 α      in ANC's #46, #28, #37, ...

........................................................................
.............................. CYCLE    9 ..............................
........................................................................
   1   -273.6848904 -0.273685E+03  0.167E-01    0.58       0.0  T
   2   -273.6847068  0.183647E-03  0.115E-01    0.57       1.0  T
   3   -273.6815555  0.315128E-02  0.113E-01    0.58       1.0  T
   4   -273.6850071 -0.345166E-02  0.333E-02    0.58       1.0  T
   5   -273.6852235 -0.216399E-03  0.962E-03    0.58       1.0  T
   6   -273.6852382 -0.146055E-04  0.414E-03    0.58       1.9  T
   7   -273.6852407 -0.254112E-05  0.190E-03    0.58       4.2  T
   8   -273.6852407 -0.384243E-07  0.130E-03    0.58       6.1  T
   9   -273.6852410 -0.246181E-06  0.416E-04    0.58      19.1  T
  10   -273.6852410 -0.262662E-07  0.216E-04    0.58      36.9  T
     SCC iter.                  ...        0 min,  0.569 sec
     gradient                   ...        0 min,  0.243 sec
 * total energy  :  -268.7009899 Eh     change       -0.3967179E-01 Eh
   gradient norm :     0.0479330 Eh/α   predicted    -0.3983977E-01 (   0.42%)
   displ. norm   :     0.9062850 α      lambda       -0.3718460E-01
   maximum displ.:     0.3077523 α      in ANC's #32, #28, #37, ...

........................................................................
.............................. CYCLE   10 ..............................
........................................................................
   1   -273.7356596 -0.273736E+03  0.182E-01    0.60       0.0  T
   2   -273.7356349  0.247041E-04  0.112E-01    0.59       1.0  T
   3   -273.7330447  0.259017E-02  0.926E-02    0.60       1.0  T
   4   -273.7356803 -0.263560E-02  0.209E-02    0.60       1.0  T
   5   -273.7357831 -0.102795E-03  0.520E-03    0.60       1.5  T
   6   -273.7357867 -0.361980E-05  0.264E-03    0.60       3.0  T
   7   -273.7357874 -0.680245E-06  0.138E-03    0.60       5.8  T
   8   -273.7357874 -0.116671E-08  0.910E-04    0.60       8.7  T
   9   -273.7357876 -0.182351E-06  0.298E-04    0.60      26.7  T
     SCC iter.                  ...        0 min,  0.510 sec
     gradient                   ...        0 min,  0.244 sec
 * total energy  :  -268.7329982 Eh     change       -0.3200835E-01 Eh
   gradient norm :     0.0462469 Eh/α   predicted    -0.3386314E-01 (   5.79%)
   displ. norm   :     0.9283847 α      lambda       -0.3350911E-01
   maximum displ.:     0.3620574 α      in ANC's #37, #28, #34, ...

........................................................................
.............................. CYCLE   11 ..............................
........................................................................
   1   -273.7881735 -0.273788E+03  0.182E-01    0.62       0.0  T
   2   -273.7880585  0.115046E-03  0.114E-01    0.62       1.0  T
   3   -273.7850171  0.304139E-02  0.114E-01    0.62       1.0  T
   4   -273.7882602 -0.324309E-02  0.195E-02    0.62       1.0  T
   5   -273.7883538 -0.936313E-04  0.541E-03    0.62       1.5  T
   6   -273.7883581 -0.429661E-05  0.290E-03    0.62       2.7  T
   7   -273.7883589 -0.820950E-06  0.139E-03    0.62       5.7  T
   8   -273.7883589 -0.193673E-07  0.846E-04    0.62       9.4  T
   9   -273.7883591 -0.144469E-06  0.295E-04    0.62      27.0  T
     SCC iter.                  ...        0 min,  0.519 sec
     gradient                   ...        0 min,  0.245 sec
 * total energy  :  -268.7613425 Eh     change       -0.2834429E-01 Eh
   gradient norm :     0.0411268 Eh/α   predicted    -0.3119529E-01 (  10.06%)
   displ. norm   :     0.8957295 α      lambda       -0.2741794E-01
   maximum displ.:     0.3448669 α      in ANC's #37, #34, #33, ...

........................................................................
.............................. CYCLE   12 ..............................
........................................................................
   1   -273.8383037 -0.273838E+03  0.147E-01    0.65       0.0  T
   2   -273.8382112  0.924681E-04  0.918E-02    0.65       1.0  T
   3   -273.8357483  0.246291E-02  0.949E-02    0.66       1.0  T
   4   -273.8383571 -0.260882E-02  0.152E-02    0.65       1.0  T
   5   -273.8384143 -0.571634E-04  0.392E-03    0.65       2.0  T
   6   -273.8384164 -0.213593E-05  0.206E-03    0.65       3.9  T
   7   -273.8384169 -0.452832E-06  0.105E-03    0.65       7.6  T
   8   -273.8384169 -0.844485E-07  0.561E-04    0.65      14.2  T
   9   -273.8384170 -0.631559E-07  0.194E-04    0.65      40.9  T
     SCC iter.                  ...        0 min,  0.509 sec
     gradient                   ...        0 min,  0.255 sec
 * total energy  :  -268.7860691 Eh     change       -0.2472660E-01 Eh
   gradient norm :     0.0383085 Eh/α   predicted    -0.2470810E-01 (  -0.07%)
   displ. norm   :     0.9265996 α      lambda       -0.2534210E-01
   maximum displ.:     0.3965586 α      in ANC's #37, #34, #33, ...

........................................................................
.............................. CYCLE   13 ..............................
........................................................................
   1   -273.8778137 -0.273878E+03  0.162E-01    0.68       0.0  T
   2   -273.8776288  0.184902E-03  0.104E-01    0.68       1.0  T
   3   -273.8750134  0.261543E-02  0.109E-01    0.68       1.0  T
   4   -273.8779126 -0.289923E-02  0.177E-02    0.68       1.0  T
   5   -273.8779903 -0.777037E-04  0.470E-03    0.68       1.7  T
   6   -273.8779943 -0.396347E-05  0.210E-03    0.68       3.8  T
   7   -273.8779946 -0.304805E-06  0.124E-03    0.68       6.4  T
   8   -273.8779947 -0.153793E-06  0.668E-04    0.68      11.9  T
   9   -273.8779948 -0.953414E-07  0.219E-04    0.68      36.4  T
     SCC iter.                  ...        0 min,  0.507 sec
     gradient                   ...        0 min,  0.245 sec
 * total energy  :  -268.8076889 Eh     change       -0.2161973E-01 Eh
   gradient norm :     0.0362086 Eh/α   predicted    -0.2355030E-01 (   8.93%)
   displ. norm   :     0.9066005 α      lambda       -0.2267486E-01
   maximum displ.:     0.4076351 α      in ANC's #37, #34, #33, ...

........................................................................
.............................. CYCLE   14 ..............................
........................................................................
   1   -273.9072509 -0.273907E+03  0.143E-01    0.70       0.0  T
   2   -273.9070320  0.218922E-03  0.979E-02    0.69       1.0  T
   3   -273.9056174  0.141463E-02  0.913E-02    0.70       1.0  T
   4   -273.9073848 -0.176746E-02  0.188E-02    0.70       1.0  T
   5   -273.9074723 -0.874594E-04  0.459E-03    0.70       1.7  T
   6   -273.9074763 -0.398987E-05  0.187E-03    0.70       4.2  T
   7   -273.9074764 -0.131871E-06  0.117E-03    0.70       6.8  T
   8   -273.9074765 -0.136542E-06  0.642E-04    0.70      12.4  T
   9   -273.9074766 -0.877434E-07  0.170E-04    0.70      46.8  T
     SCC iter.                  ...        0 min,  0.510 sec
     gradient                   ...        0 min,  0.243 sec
 * total energy  :  -268.8267904 Eh     change       -0.1910152E-01 Eh
   gradient norm :     0.0424977 Eh/α   predicted    -0.2065596E-01 (   8.14%)
   displ. norm   :     0.8959268 α      lambda       -0.2036915E-01
   maximum displ.:     0.4244468 α      in ANC's #37, #34, #33, ...

........................................................................
.............................. CYCLE   15 ..............................
........................................................................
   1   -273.9284903 -0.273928E+03  0.150E-01    0.72       0.0  T
   2   -273.9283124  0.177851E-03  0.101E-01    0.72       1.0  T
   3   -273.9264935  0.181894E-02  0.967E-02    0.72       1.0  T
   4   -273.9286027 -0.210920E-02  0.186E-02    0.72       1.0  T
   5   -273.9286884 -0.856941E-04  0.443E-03    0.72       1.8  T
   6   -273.9286920 -0.365086E-05  0.190E-03    0.72       4.2  T
   7   -273.9286922 -0.160807E-06  0.109E-03    0.72       7.3  T
   8   -273.9286923 -0.854096E-07  0.635E-04    0.72      12.5  T
   9   -273.9286924 -0.877189E-07  0.183E-04    0.72      43.5  T
     SCC iter.                  ...        0 min,  0.514 sec
     gradient                   ...        0 min,  0.246 sec
 * total energy  :  -268.8425571 Eh     change       -0.1576671E-01 Eh
   gradient norm :     0.0434068 Eh/α   predicted    -0.1835958E-01 (  16.45%)
   displ. norm   :     0.8624926 α      lambda       -0.1761599E-01
   maximum displ.:     0.4334049 α      in ANC's #37, #34, #33, ...

........................................................................
.............................. CYCLE   16 ..............................
........................................................................
   1   -273.9495804 -0.273950E+03  0.148E-01    0.74       0.0  T
   2   -273.9495244  0.559882E-04  0.907E-02    0.74       1.0  T
   3   -273.9477060  0.181838E-02  0.830E-02    0.74       1.0  T
   4   -273.9496308 -0.192476E-02  0.124E-02    0.74       1.0  T
   5   -273.9496687 -0.379302E-04  0.336E-03    0.74       2.4  T
   6   -273.9496707 -0.196582E-05  0.166E-03    0.74       4.8  T
   7   -273.9496708 -0.168217E-06  0.874E-04    0.74       9.1  T
   8   -273.9496709 -0.756648E-07  0.451E-04    0.74      17.6  T
     SCC iter.                  ...        0 min,  0.453 sec
     gradient                   ...        0 min,  0.244 sec
 * total energy  :  -268.8573561 Eh     change       -0.1479903E-01 Eh
   gradient norm :     0.0360505 Eh/α   predicted    -0.1536021E-01 (   3.79%)
   displ. norm   :     0.8649880 α      lambda       -0.1539831E-01
   maximum displ.:     0.4150609 α      in ANC's #37, #34, #33, ...

........................................................................
.............................. CYCLE   17 ..............................
........................................................................
   1   -273.9663510 -0.273966E+03  0.137E-01    0.74       0.0  T
   2   -273.9662089  0.142121E-03  0.904E-02    0.74       1.0  T
   3   -273.9646968  0.151212E-02  0.880E-02    0.74       1.0  T
   4   -273.9664696 -0.177278E-02  0.131E-02    0.74       1.0  T
   5   -273.9665069 -0.373491E-04  0.345E-03    0.74       2.3  T
   6   -273.9665090 -0.206919E-05  0.154E-03    0.74       5.2  T
   7   -273.9665091 -0.106348E-06  0.873E-04    0.74       9.1  T
   8   -273.9665091 -0.561749E-07  0.541E-04    0.74      14.7  T
     SCC iter.                  ...        0 min,  0.452 sec
     gradient                   ...        0 min,  0.247 sec
 * total energy  :  -268.8698606 Eh     change       -0.1250447E-01 Eh
   gradient norm :     0.0387856 Eh/α   predicted    -0.1345970E-01 (   7.64%)
   displ. norm   :     0.8577752 α      lambda       -0.1298542E-01
   maximum displ.:     0.4410691 α      in ANC's #37, #34, #33, ...

........................................................................
.............................. CYCLE   18 ..............................
........................................................................
   1   -273.9765154 -0.273977E+03  0.134E-01    0.76       0.0  T
   2   -273.9764804  0.350576E-04  0.806E-02    0.76       1.0  T
   3   -273.9750500  0.143037E-02  0.709E-02    0.76       1.0  T
   4   -273.9765562 -0.150619E-02  0.107E-02    0.76       1.0  T
   5   -273.9765826 -0.264129E-04  0.279E-03    0.76       2.9  T
   6   -273.9765839 -0.126714E-05  0.151E-03    0.76       5.3  T
   7   -273.9765841 -0.196602E-06  0.763E-04    0.76      10.4  T
   8   -273.9765841 -0.454248E-07  0.315E-04    0.76      25.2  T
     SCC iter.                  ...        0 min,  0.465 sec
     gradient                   ...        0 min,  0.249 sec
 * total energy  :  -268.8812542 Eh     change       -0.1139360E-01 Eh
   gradient norm :     0.0225120 Eh/α   predicted    -0.1126990E-01 (  -1.09%)
   displ. norm   :     0.8681926 α      lambda       -0.1082806E-01
   maximum displ.:     0.4410033 α      in ANC's #37, #34, #33, ...

........................................................................
.............................. CYCLE   19 ..............................
........................................................................
   1   -273.9954216 -0.273995E+03  0.145E-01    0.77       0.0  T
   2   -273.9954044  0.171086E-04  0.854E-02    0.77       1.0  T
   3   -273.9943219  0.108250E-02  0.579E-02    0.77       1.0  T
   4   -273.9954554 -0.113348E-02  0.786E-03    0.77       1.0  T
   5   -273.9954689 -0.135009E-04  0.253E-03    0.77       3.1  T
   6   -273.9954699 -0.990280E-06  0.147E-03    0.77       5.4  T
   7   -273.9954701 -0.191631E-06  0.778E-04    0.77      10.2  T
   8   -273.9954702 -0.883553E-07  0.321E-04    0.77      24.8  T
     SCC iter.                  ...        0 min,  0.469 sec
     gradient                   ...        0 min,  0.246 sec
 * total energy  :  -268.8908123 Eh     change       -0.9558161E-02 Eh
   gradient norm :     0.0208619 Eh/α   predicted    -0.9494910E-02 (  -0.66%)
   displ. norm   :     0.8878942 α      lambda       -0.9642014E-02
   maximum displ.:     0.4463224 α      in ANC's #37, #34, #33, ...

........................................................................
.............................. CYCLE   20 ..............................
........................................................................
   1   -274.0016180 -0.274002E+03  0.160E-01    0.79       0.0  T
   2   -274.0016208 -0.272195E-05  0.941E-02    0.78       1.0  T
   3   -274.0009877  0.633067E-03  0.472E-02    0.79       1.0  T
   4   -274.0016454 -0.657679E-03  0.782E-03    0.79       1.0  T
   5   -274.0016588 -0.134150E-04  0.268E-03    0.78       3.0  T
   6   -274.0016596 -0.799454E-06  0.160E-03    0.78       5.0  T
   7   -274.0016599 -0.273305E-06  0.763E-04    0.78      10.4  T
   8   -274.0016600 -0.962262E-07  0.275E-04    0.78      28.9  T
     SCC iter.                  ...        0 min,  0.456 sec
     gradient                   ...        0 min,  0.245 sec
 * total energy  :  -268.8984661 Eh     change       -0.7653705E-02 Eh
   gradient norm :     0.0252091 Eh/α   predicted    -0.8621682E-02 (  12.65%)
   displ. norm   :     0.8438192 α      lambda       -0.8432402E-02
   maximum displ.:     0.4156790 α      in ANC's #37, #34, #33, ...
 * RMSD in coord.:     1.0460422 α      energy gain  -0.2030896E+01 Eh

generating ANC from model Hessian ...
Using Lindh-Hessian (1995)
 Shifting diagonal of input Hessian by    1.0006193729488343E-002
 Lowest  eigenvalues of input Hessian
    0.010000    0.000000    0.000000    0.000000    0.000000    0.000000
    0.000000    0.010008    0.010010    0.010012    0.010016    0.010020
    0.010024    0.010030    0.010032    0.010113    0.010173    0.010234
 Highest eigenvalues
    2.394019    2.401822    2.409187    2.915227    2.926128    2.941307


........................................................................
.............................. CYCLE   21 ..............................
........................................................................
   1   -273.9982397 -0.273998E+03  0.172E-01    0.79       0.0  T
   2   -273.9982392  0.430233E-06  0.101E-01    0.79       1.0  T
   3   -273.9975898  0.649432E-03  0.463E-02    0.79       1.0  T
   4   -273.9982626 -0.672807E-03  0.722E-03    0.79       1.1  T
   5   -273.9982748 -0.122047E-04  0.245E-03    0.79       3.2  T
   6   -273.9982752 -0.382209E-06  0.147E-03    0.79       5.4  T
   7   -273.9982753 -0.110978E-06  0.765E-04    0.79      10.4  T
   8   -273.9982754 -0.136894E-06  0.236E-04    0.79      33.7  T
     SCC iter.                  ...        0 min,  0.449 sec
     gradient                   ...        0 min,  0.249 sec
 * total energy  :  -268.9048229 Eh     change       -0.6356885E-02 Eh
   gradient norm :     0.0241786 Eh/α   predicted     0.0000000E+00 (-100.00%)
   displ. norm   :     0.4168429 α      lambda       -0.3913609E-02
   maximum displ.:     0.3036620 α      in ANC's #33, #31, #32, ...

........................................................................
.............................. CYCLE   22 ..............................
........................................................................
   1   -274.0158199 -0.274016E+03  0.940E-02    0.80       0.0  T
   2   -274.0158227 -0.279882E-05  0.555E-02    0.80       1.0  T
   3   -274.0157850  0.376946E-04  0.134E-02    0.80       1.0  T
   4   -274.0158230 -0.379700E-04  0.351E-03    0.80       2.3  T
   5   -274.0158255 -0.255538E-05  0.128E-03    0.80       6.2  T
   6   -274.0158256 -0.923492E-07  0.757E-04    0.80      10.5  T
   7   -274.0158257 -0.420450E-07  0.329E-04    0.80      24.2  T
     SCC iter.                  ...        0 min,  0.399 sec
     gradient                   ...        0 min,  0.245 sec
 * total energy  :  -268.9080528 Eh     change       -0.3229841E-02 Eh
   gradient norm :     0.0114457 Eh/α   predicted    -0.2296970E-02 ( -28.88%)
   displ. norm   :     0.7182663 α      lambda       -0.4872845E-02
   maximum displ.:     0.5147957 α      in ANC's #33, #35, #32, ...

........................................................................
.............................. CYCLE   23 ..............................
........................................................................
   1   -274.0336293 -0.274034E+03  0.129E-01    0.80       0.0  T
   2   -274.0336372 -0.785835E-05  0.757E-02    0.80       1.0  T
   3   -274.0335879  0.492794E-04  0.154E-02    0.81       1.0  T
   4   -274.0336398 -0.519449E-04  0.418E-03    0.80       1.9  T
   5   -274.0336429 -0.302609E-05  0.179E-03    0.80       4.4  T
   6   -274.0336430 -0.139575E-06  0.120E-03    0.80       6.6  T
   7   -274.0336432 -0.184559E-06  0.486E-04    0.80      16.4  T
   8   -274.0336432 -0.373017E-07  0.148E-04    0.80      53.9  T
     SCC iter.                  ...        0 min,  0.453 sec
     gradient                   ...        0 min,  0.246 sec
 * total energy  :  -268.9119204 Eh     change       -0.3867590E-02 Eh
   gradient norm :     0.0148584 Eh/α   predicted    -0.3693404E-02 (  -4.50%)
   displ. norm   :     0.7628183 α      lambda       -0.4280751E-02
   maximum displ.:     0.5091838 α      in ANC's #33, #32, #31, ...

........................................................................
.............................. CYCLE   24 ..............................
........................................................................
   1   -274.0308139 -0.274031E+03  0.153E-01    0.81       0.0  T
   2   -274.0308210 -0.716208E-05  0.901E-02    0.81       1.0  T
   3   -274.0307163  0.104716E-03  0.222E-02    0.81       1.0  T
   4   -274.0308270 -0.110671E-03  0.449E-03    0.81       1.8  T
   5   -274.0308297 -0.273024E-05  0.240E-03    0.81       3.3  T
   6   -274.0308299 -0.175148E-06  0.159E-03    0.81       5.0  T
   7   -274.0308303 -0.440433E-06  0.493E-04    0.81      16.1  T
   8   -274.0308304 -0.458624E-07  0.149E-04    0.81      53.4  T
     SCC iter.                  ...        0 min,  0.462 sec
     gradient                   ...        0 min,  0.251 sec
 * total energy  :  -268.9146221 Eh     change       -0.2701779E-02 Eh
   gradient norm :     0.0191461 Eh/α   predicted    -0.3385844E-02 (  25.32%)
   displ. norm   :     0.6302951 α      lambda       -0.3328665E-02
   maximum displ.:     0.4290176 α      in ANC's #33, #31, #32, ...

........................................................................
.............................. CYCLE   25 ..............................
........................................................................
   1   -274.0229925 -0.274023E+03  0.123E-01    0.81       0.0  T
   2   -274.0229953 -0.277048E-05  0.729E-02    0.81       1.0  T
   3   -274.0228363  0.158966E-03  0.276E-02    0.81       1.0  T
   4   -274.0230026 -0.166265E-03  0.412E-03    0.81       1.9  T
   5   -274.0230051 -0.252578E-05  0.206E-03    0.81       3.9  T
   6   -274.0230055 -0.359279E-06  0.116E-03    0.81       6.9  T
   7   -274.0230056 -0.137153E-06  0.381E-04    0.81      20.9  T
   8   -274.0230057 -0.280627E-07  0.135E-04    0.81      59.0  T
     SCC iter.                  ...        0 min,  0.456 sec
     gradient                   ...        0 min,  0.246 sec
 * total energy  :  -268.9169555 Eh     change       -0.2333340E-02 Eh
   gradient norm :     0.0135017 Eh/α   predicted    -0.2325527E-02 (  -0.33%)
   displ. norm   :     0.5995076 α      lambda       -0.1814208E-02
   maximum displ.:     0.3950179 α      in ANC's #33, #31, #32, ...

........................................................................
.............................. CYCLE   26 ..............................
........................................................................
   1   -274.0246034 -0.274025E+03  0.978E-02    0.82       0.0  T
   2   -274.0246037 -0.357196E-06  0.575E-02    0.82       1.0  T
   3   -274.0244594  0.144355E-03  0.255E-02    0.82       1.0  T
   4   -274.0246100 -0.150597E-03  0.276E-03    0.82       2.9  T
   5   -274.0246112 -0.125146E-05  0.138E-03    0.82       5.8  T
   6   -274.0246114 -0.164087E-06  0.793E-04    0.82      10.0  T
   7   -274.0246114 -0.793920E-07  0.242E-04    0.82      32.9  T
     SCC iter.                  ...        0 min,  0.396 sec
     gradient                   ...        0 min,  0.247 sec
 * total energy  :  -268.9183162 Eh     change       -0.1360714E-02 Eh
   gradient norm :     0.0094562 Eh/α   predicted    -0.1233127E-02 (  -9.38%)
   displ. norm   :     0.5456297 α      lambda       -0.1133470E-02
   maximum displ.:     0.3317752 α      in ANC's #33, #31, #32, ...

........................................................................
.............................. CYCLE   27 ..............................
........................................................................
   1   -274.0306339 -0.274031E+03  0.832E-02    0.82       0.0  T
   2   -274.0306350 -0.101459E-05  0.489E-02    0.82       1.0  T
   3   -274.0305664  0.685967E-04  0.183E-02    0.82       1.0  T
   4   -274.0306383 -0.719311E-04  0.225E-03    0.82       3.5  T
   5   -274.0306391 -0.813170E-06  0.112E-03    0.82       7.1  T
   6   -274.0306392 -0.118250E-06  0.654E-04    0.82      12.2  T
   7   -274.0306393 -0.569211E-07  0.200E-04    0.82      39.8  T
     SCC iter.                  ...        0 min,  0.397 sec
     gradient                   ...        0 min,  0.246 sec
 * total energy  :  -268.9191576 Eh     change       -0.8414245E-03 Eh
   gradient norm :     0.0073764 Eh/α   predicted    -0.7354597E-03 ( -12.59%)
   displ. norm   :     0.4660364 α      lambda       -0.6569099E-03
   maximum displ.:     0.2345343 α      in ANC's #33, #12, #31, ...

........................................................................
.............................. CYCLE   28 ..............................
........................................................................
   1   -274.0391646 -0.274039E+03  0.648E-02    0.82       0.0  T
   2   -274.0391655 -0.933679E-06  0.381E-02    0.82       1.0  T
   3   -274.0391277  0.378186E-04  0.134E-02    0.82       1.0  T
   4   -274.0391676 -0.399472E-04  0.189E-03    0.82       4.2  T
   5   -274.0391681 -0.488136E-06  0.864E-04    0.82       9.2  T
   6   -274.0391682 -0.463152E-07  0.573E-04    0.82      13.9  T
     SCC iter.                  ...        0 min,  0.341 sec
     gradient                   ...        0 min,  0.243 sec
 * total energy  :  -268.9196398 Eh     change       -0.4822217E-03 Eh
   gradient norm :     0.0054742 Eh/α   predicted    -0.3997980E-03 ( -17.09%)
   displ. norm   :     0.4246047 α      lambda       -0.4242741E-03
   maximum displ.:     0.1680724 α      in ANC's #12, #33, #14, ...

........................................................................
.............................. CYCLE   29 ..............................
........................................................................
   1   -274.0435972 -0.274044E+03  0.550E-02    0.82       0.0  T
   2   -274.0435973 -0.147797E-06  0.324E-02    0.82       1.0  T
   3   -274.0435462  0.511082E-04  0.137E-02    0.82       1.0  T
   4   -274.0435999 -0.536407E-04  0.178E-03    0.82       4.5  T
   5   -274.0436004 -0.582174E-06  0.763E-04    0.82      10.4  T
   6   -274.0436005 -0.564543E-07  0.459E-04    0.82      17.3  T
     SCC iter.                  ...        0 min,  0.342 sec
     gradient                   ...        0 min,  0.242 sec
 * total energy  :  -268.9199648 Eh     change       -0.3249196E-03 Eh
   gradient norm :     0.0042306 Eh/α   predicted    -0.2503840E-03 ( -22.94%)
   displ. norm   :     0.4399975 α      lambda       -0.3943807E-03
   maximum displ.:     0.2050952 α      in ANC's #12, #14, #23, ...

........................................................................
.............................. CYCLE   30 ..............................
........................................................................
   1   -274.0482343 -0.274048E+03  0.521E-02    0.82       0.0  T
   2   -274.0482336  0.742301E-06  0.308E-02    0.82       1.0  T
   3   -274.0481513  0.822596E-04  0.167E-02    0.82       1.0  T
   4   -274.0482376 -0.862887E-04  0.194E-03    0.82       4.1  T
   5   -274.0482384 -0.777337E-06  0.831E-04    0.82       9.6  T
   6   -274.0482385 -0.910678E-07  0.470E-04    0.82      16.9  T
     SCC iter.                  ...        0 min,  0.342 sec
     gradient                   ...        0 min,  0.233 sec
 * total energy  :  -268.9202859 Eh     change       -0.3211764E-03 Eh
   gradient norm :     0.0055444 Eh/α   predicted    -0.2353707E-03 ( -26.72%)
   displ. norm   :     0.5069646 α      lambda       -0.4520015E-03
   maximum displ.:     0.2502192 α      in ANC's #12, #14, #16, ...

........................................................................
.............................. CYCLE   31 ..............................
........................................................................
   1   -274.0484065 -0.274048E+03  0.597E-02    0.82       0.0  T
   2   -274.0484050  0.150065E-05  0.353E-02    0.82       1.0  T
   3   -274.0482845  0.120447E-03  0.197E-02    0.82       1.0  T
   4   -274.0484108 -0.126299E-03  0.200E-03    0.82       4.0  T
   5   -274.0484116 -0.816632E-06  0.961E-04    0.82       8.3  T
   6   -274.0484118 -0.118077E-06  0.519E-04    0.82      15.3  T
     SCC iter.                  ...        0 min,  0.326 sec
     gradient                   ...        0 min,  0.233 sec
 * total energy  :  -268.9206667 Eh     change       -0.3808035E-03 Eh
   gradient norm :     0.0066307 Eh/α   predicted    -0.2840895E-03 ( -25.40%)
   displ. norm   :     0.5590603 α      lambda       -0.4942389E-03
   maximum displ.:     0.2825697 α      in ANC's #12, #14, #16, ...

........................................................................
.............................. CYCLE   32 ..............................
........................................................................
   1   -274.0459097 -0.274046E+03  0.692E-02    0.82       0.0  T
   2   -274.0459093  0.424003E-06  0.407E-02    0.82       1.0  T
   3   -274.0458045  0.104825E-03  0.190E-02    0.82       1.0  T
   4   -274.0459144 -0.109968E-03  0.202E-03    0.82       3.9  T
   5   -274.0459151 -0.720758E-06  0.102E-03    0.82       7.8  T
   6   -274.0459152 -0.102554E-06  0.573E-04    0.82      13.9  T
   7   -274.0459153 -0.406901E-07  0.246E-04    0.82      32.3  T
     SCC iter.                  ...        0 min,  0.376 sec
     gradient                   ...        0 min,  0.233 sec
 * total energy  :  -268.9210723 Eh     change       -0.4055902E-03 Eh
   gradient norm :     0.0065654 Eh/α   predicted    -0.3243615E-03 ( -20.03%)
   displ. norm   :     0.5510685 α      lambda       -0.4165074E-03
   maximum displ.:     0.2842987 α      in ANC's #12, #14, #16, ...

........................................................................
.............................. CYCLE   33 ..............................
........................................................................
   1   -274.0409227 -0.274041E+03  0.689E-02    0.82       0.0  T
   2   -274.0409236 -0.884565E-06  0.405E-02    0.82       1.0  T
   3   -274.0408646  0.590103E-04  0.164E-02    0.82       1.0  T
   4   -274.0409265 -0.619845E-04  0.201E-03    0.82       4.0  T
   5   -274.0409272 -0.618975E-06  0.929E-04    0.82       8.6  T
   6   -274.0409272 -0.497666E-07  0.561E-04    0.82      14.2  T
     SCC iter.                  ...        0 min,  0.325 sec
     gradient                   ...        0 min,  0.232 sec
 * total energy  :  -268.9213989 Eh     change       -0.3265457E-03 Eh
   gradient norm :     0.0050439 Eh/α   predicted    -0.2714960E-03 ( -16.86%)
   displ. norm   :     0.4816163 α      lambda       -0.2878473E-03
   maximum displ.:     0.2526913 α      in ANC's #12, #14, #16, ...

........................................................................
.............................. CYCLE   34 ..............................
........................................................................
   1   -274.0387548 -0.274039E+03  0.575E-02    0.82       0.0  T
   2   -274.0387554 -0.587698E-06  0.338E-02    0.82       1.0  T
   3   -274.0387143  0.410619E-04  0.140E-02    0.82       1.0  T
   4   -274.0387572 -0.428834E-04  0.179E-03    0.82       4.4  T
   5   -274.0387577 -0.519771E-06  0.800E-04    0.82       9.9  T
   6   -274.0387578 -0.488045E-07  0.473E-04    0.82      16.8  T
     SCC iter.                  ...        0 min,  0.336 sec
     gradient                   ...        0 min,  0.232 sec
 * total energy  :  -268.9216220 Eh     change       -0.2231193E-03 Eh
   gradient norm :     0.0040087 Eh/α   predicted    -0.1773079E-03 ( -20.53%)
   displ. norm   :     0.4232147 α      lambda       -0.2158575E-03
   maximum displ.:     0.2294601 α      in ANC's #12, #14, #16, ...

........................................................................
.............................. CYCLE   35 ..............................
........................................................................
   1   -274.0374231 -0.274037E+03  0.460E-02    0.82       0.0  T
   2   -274.0374228  0.304947E-06  0.271E-02    0.82       1.0  T
   3   -274.0373711  0.517125E-04  0.142E-02    0.82       1.0  T
   4   -274.0374250 -0.539237E-04  0.162E-03    0.82       4.9  T
   5   -274.0374255 -0.492045E-06  0.689E-04    0.82      11.5  T
   6   -274.0374255 -0.529477E-07  0.388E-04    0.82      20.5  T
     SCC iter.                  ...        0 min,  0.341 sec
     gradient                   ...        0 min,  0.239 sec
 * total energy  :  -268.9217916 Eh     change       -0.1696395E-03 Eh
   gradient norm :     0.0038590 Eh/α   predicted    -0.1272616E-03 ( -24.98%)
   displ. norm   :     0.4053100 α      lambda       -0.1921573E-03
   maximum displ.:     0.2211064 α      in ANC's #12, #14, #16, ...

........................................................................
.............................. CYCLE   36 ..............................
........................................................................
   1   -274.0392909 -0.274039E+03  0.409E-02    0.82       0.0  T
   2   -274.0392902  0.737971E-06  0.241E-02    0.82       1.0  T
   3   -274.0392321  0.580709E-04  0.140E-02    0.82       1.0  T
   4   -274.0392928 -0.606721E-04  0.147E-03    0.82       5.4  T
   5   -274.0392932 -0.398412E-06  0.660E-04    0.82      12.1  T
   6   -274.0392932 -0.522743E-07  0.361E-04    0.82      22.1  T
     SCC iter.                  ...        0 min,  0.335 sec
     gradient                   ...        0 min,  0.236 sec
 * total energy  :  -268.9219425 Eh     change       -0.1508976E-03 Eh
   gradient norm :     0.0039138 Eh/α   predicted    -0.1118628E-03 ( -25.87%)
   displ. norm   :     0.4153467 α      lambda       -0.1820855E-03
   maximum displ.:     0.2257448 α      in ANC's #12, #14, #11, ...

........................................................................
.............................. CYCLE   37 ..............................
........................................................................
   1   -274.0392309 -0.274039E+03  0.394E-02    0.82       0.0  T
   2   -274.0392302  0.636075E-06  0.233E-02    0.82       1.0  T
   3   -274.0391752  0.549943E-04  0.131E-02    0.82       1.0  T
   4   -274.0392327 -0.574750E-04  0.150E-03    0.82       5.3  T
   5   -274.0392331 -0.428348E-06  0.684E-04    0.82      11.6  T
   6   -274.0392332 -0.666415E-07  0.350E-04    0.82      22.7  T
     SCC iter.                  ...        0 min,  0.338 sec
     gradient                   ...        0 min,  0.233 sec
 * total energy  :  -268.9220863 Eh     change       -0.1437386E-03 Eh
   gradient norm :     0.0042950 Eh/α   predicted    -0.1067501E-03 ( -25.73%)
   displ. norm   :     0.4281470 α      lambda       -0.1875771E-03
   maximum displ.:     0.2309416 α      in ANC's #12, #14, #11, ...

........................................................................
.............................. CYCLE   38 ..............................
........................................................................
   1   -274.0413950 -0.274041E+03  0.401E-02    0.82       0.0  T
   2   -274.0413948  0.213646E-06  0.236E-02    0.82       1.0  T
   3   -274.0413500  0.447517E-04  0.117E-02    0.82       1.0  T
   4   -274.0413967 -0.466996E-04  0.151E-03    0.82       5.3  T
   5   -274.0413972 -0.432237E-06  0.700E-04    0.82      11.4  T
   6   -274.0413972 -0.619366E-07  0.361E-04    0.82      22.0  T
     SCC iter.                  ...        0 min,  0.339 sec
     gradient                   ...        0 min,  0.235 sec
 * total energy  :  -268.9222352 Eh     change       -0.1489529E-03 Eh
   gradient norm :     0.0037099 Eh/α   predicted    -0.1109858E-03 ( -25.49%)
   displ. norm   :     0.4731510 α      lambda       -0.2081931E-03
   maximum displ.:     0.2453089 α      in ANC's #12, #14, #11, ...

........................................................................
.............................. CYCLE   39 ..............................
........................................................................
   1   -274.0394983 -0.274039E+03  0.463E-02    0.82       0.0  T
   2   -274.0394988 -0.548918E-06  0.272E-02    0.82       1.0  T
   3   -274.0394757  0.231287E-04  0.912E-03    0.82       1.0  T
   4   -274.0394997 -0.240632E-04  0.158E-03    0.82       5.0  T
   5   -274.0395003 -0.518728E-06  0.679E-04    0.82      11.7  T
   6   -274.0395003 -0.474100E-07  0.354E-04    0.82      22.5  T
     SCC iter.                  ...        0 min,  0.337 sec
     gradient                   ...        0 min,  0.238 sec
 * total energy  :  -268.9223982 Eh     change       -0.1630167E-03 Eh
   gradient norm :     0.0043118 Eh/α   predicted    -0.1274041E-03 ( -21.85%)
   displ. norm   :     0.4780653 α      lambda       -0.2131608E-03
   maximum displ.:     0.2398786 α      in ANC's #12, #14, #11, ...

........................................................................
.............................. CYCLE   40 ..............................
........................................................................
   1   -274.0395243 -0.274040E+03  0.477E-02    0.82       0.0  T
   2   -274.0395249 -0.620085E-06  0.279E-02    0.82       1.0  T
   3   -274.0395031  0.217964E-04  0.996E-03    0.82       1.0  T
   4   -274.0395259 -0.228223E-04  0.168E-03    0.82       4.7  T
   5   -274.0395264 -0.468734E-06  0.763E-04    0.82      10.4  T
   6   -274.0395265 -0.673473E-07  0.392E-04    0.82      20.3  T
     SCC iter.                  ...        0 min,  0.334 sec
     gradient                   ...        0 min,  0.235 sec
 * total energy  :  -268.9225592 Eh     change       -0.1609881E-03 Eh
   gradient norm :     0.0049657 Eh/α   predicted    -0.1309429E-03 ( -18.66%)
   displ. norm   :     0.4316425 α      lambda       -0.1697688E-03
   maximum displ.:     0.2117925 α      in ANC's #12, #14, #11, ...

........................................................................
.............................. CYCLE   41 ..............................
........................................................................
   1   -274.0361174 -0.274036E+03  0.437E-02    0.82       0.0  T
   2   -274.0361173  0.811340E-07  0.257E-02    0.82       1.0  T
   3   -274.0360786  0.386979E-04  0.120E-02    0.82       1.0  T
   4   -274.0361189 -0.402571E-04  0.171E-03    0.82       4.7  T
   5   -274.0361195 -0.620959E-06  0.658E-04    0.82      12.1  T
   6   -274.0361196 -0.433541E-07  0.359E-04    0.82      22.2  T
     SCC iter.                  ...        0 min,  0.337 sec
     gradient                   ...        0 min,  0.235 sec
 * total energy  :  -268.9226814 Eh     change       -0.1221263E-03 Eh
   gradient norm :     0.0045540 Eh/α   predicted    -0.1007003E-03 ( -17.54%)
   displ. norm   :     0.3357207 α      lambda       -0.1056985E-03
   maximum displ.:     0.1658766 α      in ANC's #12, #14, #11, ...

........................................................................
.............................. CYCLE   42 ..............................
........................................................................
   1   -274.0355723 -0.274036E+03  0.335E-02    0.82       0.0  T
   2   -274.0355722  0.943247E-07  0.196E-02    0.82       1.0  T
   3   -274.0355426  0.296712E-04  0.994E-03    0.82       1.0  T
   4   -274.0355734 -0.308968E-04  0.151E-03    0.82       5.3  T
   5   -274.0355739 -0.497723E-06  0.589E-04    0.82      13.5  T
   6   -274.0355740 -0.441233E-07  0.310E-04    0.82      25.7  T
     SCC iter.                  ...        0 min,  0.337 sec
     gradient                   ...        0 min,  0.232 sec
 * total energy  :  -268.9227535 Eh     change       -0.7214897E-04 Eh
   gradient norm :     0.0033931 Eh/α   predicted    -0.5880821E-04 ( -18.49%)
   displ. norm   :     0.2451438 α      lambda       -0.6279042E-04
   maximum displ.:     0.1272879 α      in ANC's #12, #14, #10, ...
 * RMSD in coord.:     0.6349827 α      energy gain  -0.2428746E-01 Eh

generating ANC from model Hessian ...
Using Lindh-Hessian (1995)
 Shifting diagonal of input Hessian by    9.9990751779615566E-003
 Lowest  eigenvalues of input Hessian
    0.000000    0.000000    0.000000    0.000000    0.000000    0.000000
    0.010000    0.010003    0.010005    0.010007    0.010010    0.010011
    0.010014    0.010015    0.010021    0.010071    0.010112    0.010117
 Highest eigenvalues
    2.405619    2.406042    2.406992    2.930632    2.931670    2.931883


........................................................................
.............................. CYCLE   43 ..............................
........................................................................
   1   -274.0345619 -0.274035E+03  0.236E-02    0.82       0.0  T
   2   -274.0345620 -0.213805E-07  0.138E-02    0.82       1.0  T
   3   -274.0345455  0.164431E-04  0.722E-03    0.82       1.1  T
   4   -274.0345625 -0.170322E-04  0.127E-03    0.82       6.2  T
   5   -274.0345629 -0.373857E-06  0.464E-04    0.82      17.2  T
   6   -274.0345629 -0.271969E-07  0.245E-04    0.82      32.5  T
     SCC iter.                  ...        0 min,  0.337 sec
     gradient                   ...        0 min,  0.234 sec
 * total energy  :  -268.9227945 Eh     change       -0.4096447E-04 Eh
   gradient norm :     0.0028675 Eh/α   predicted     0.0000000E+00 (-100.00%)
   displ. norm   :     0.0331222 α      lambda       -0.1444872E-04
   maximum displ.:     0.0114362 α      in ANC's #35, #16, #15, ...

........................................................................
.............................. CYCLE   44 ..............................
........................................................................
   1   -274.0357941 -0.274036E+03  0.698E-03    0.82       0.0  T
   2   -274.0357941 -0.746326E-08  0.418E-03    0.82       1.9  T
   3   -274.0357927  0.142722E-05  0.244E-03    0.82       3.3  T
   4   -274.0357942 -0.147331E-05  0.421E-04    0.82      18.9  T
   5   -274.0357942 -0.330577E-07  0.133E-04    0.82      59.8  T
   6   -274.0357942 -0.145508E-08  0.768E-05    0.82     103.6  T
     SCC iter.                  ...        0 min,  0.336 sec
     gradient                   ...        0 min,  0.236 sec
 * total energy  :  -268.9228127 Eh     change       -0.1820745E-04 Eh
   gradient norm :     0.0012960 Eh/α   predicted    -0.1230244E-04 ( -32.43%)
   displ. norm   :     0.1542083 α      lambda       -0.4937132E-04
   maximum displ.:     0.0532079 α      in ANC's #35, #16, #28, ...

........................................................................
.............................. CYCLE   45 ..............................
........................................................................
   1   -274.0392765 -0.274039E+03  0.289E-02    0.82       0.0  T
   2   -274.0392769 -0.440634E-06  0.171E-02    0.82       1.0  T
   3   -274.0392671  0.985419E-05  0.645E-03    0.82       1.2  T
   4   -274.0392770 -0.992318E-05  0.165E-03    0.82       4.8  T
   5   -274.0392776 -0.589447E-06  0.466E-04    0.82      17.1  T
   6   -274.0392776 -0.122770E-07  0.287E-04    0.82      27.7  T
     SCC iter.                  ...        0 min,  0.335 sec
     gradient                   ...        0 min,  0.236 sec
 * total energy  :  -268.9228215 Eh     change       -0.8820135E-05 Eh
   gradient norm :     0.0054669 Eh/α   predicted    -0.2496090E-04 ( 183.00%)
   displ. norm   :     0.0313652 α      lambda       -0.3946534E-04
   maximum displ.:     0.0115542 α      in ANC's #16, #40, #14, ...

........................................................................
.............................. CYCLE   46 ..............................
........................................................................
   1   -274.0380640 -0.274038E+03  0.102E-02    0.82       0.0  T
   2   -274.0380640 -0.159536E-07  0.611E-03    0.82       1.3  T
   3   -274.0380627  0.130935E-05  0.230E-03    0.82       3.5  T
   4   -274.0380640 -0.135220E-05  0.380E-04    0.82      20.9  T
   5   -274.0380640 -0.277086E-07  0.152E-04    0.82      52.4  T
   6   -274.0380640 -0.251089E-08  0.868E-05    0.82      91.7  T
     SCC iter.                  ...        0 min,  0.336 sec
     gradient                   ...        0 min,  0.233 sec
 * total energy  :  -268.9228470 Eh     change       -0.2549189E-04 Eh
   gradient norm :     0.0027287 Eh/α   predicted    -0.1975261E-04 ( -22.51%)
   displ. norm   :     0.0317646 α      lambda        0.4995790E-05
   maximum displ.:     0.0117608 α      in ANC's #16, #40, #14, ...

........................................................................
.............................. CYCLE   47 ..............................
........................................................................
   1   -274.0367361 -0.274037E+03  0.103E-02    0.82       0.0  T
   2   -274.0367362 -0.217420E-07  0.617E-03    0.82       1.3  T
   3   -274.0367350  0.116702E-05  0.227E-03    0.82       3.5  T
   4   -274.0367362 -0.118864E-05  0.436E-04    0.82      18.3  T
   5   -274.0367362 -0.404945E-07  0.144E-04    0.82      55.3  T
   6   -274.0367362 -0.206302E-08  0.824E-05    0.82      96.6  T
     SCC iter.                  ...        0 min,  0.341 sec
     gradient                   ...        0 min,  0.231 sec
 * total energy  :  -268.9228445 Eh     change        0.2503714E-05 Eh
   gradient norm :     0.0025612 Eh/α   predicted     0.2498948E-05 (  -0.19%)
   displ. norm   :     0.0232367 α      lambda       -0.2405932E-04
   maximum displ.:     0.0101157 α      in ANC's #40, #80, #12, ...

........................................................................
.............................. CYCLE   48 ..............................
........................................................................
   1   -274.0361571 -0.274036E+03  0.896E-03    0.82       0.0  T
   2   -274.0361572 -0.282692E-07  0.534E-03    0.82       1.5  T
   3   -274.0361567  0.414064E-06  0.138E-03    0.82       5.8  T
   4   -274.0361572 -0.419939E-06  0.349E-04    0.82      22.8  T
   5   -274.0361572 -0.245912E-07  0.116E-04    0.82      68.7  T
     SCC iter.                  ...        0 min,  0.284 sec
     gradient                   ...        0 min,  0.237 sec
 * total energy  :  -268.9228594 Eh     change       -0.1489251E-04 Eh
   gradient norm :     0.0008967 Eh/α   predicted    -0.1203647E-04 ( -19.18%)
   displ. norm   :     0.0581180 α      lambda       -0.1007295E-04
   maximum displ.:     0.0265943 α      in ANC's #16, #13, #14, ...

........................................................................
.............................. CYCLE   49 ..............................
........................................................................
   1   -274.0355573 -0.274036E+03  0.992E-03    0.82       0.0  T
   2   -274.0355574 -0.262120E-07  0.588E-03    0.82       1.4  T
   3   -274.0355567  0.646812E-06  0.171E-03    0.82       4.6  T
   4   -274.0355574 -0.671992E-06  0.341E-04    0.82      23.4  T
   5   -274.0355574 -0.200442E-07  0.131E-04    0.82      60.8  T
     SCC iter.                  ...        0 min,  0.278 sec
     gradient                   ...        0 min,  0.234 sec
 * total energy  :  -268.9228675 Eh     change       -0.8117990E-05 Eh
   gradient norm :     0.0010364 Eh/α   predicted    -0.5079099E-05 ( -37.43%)
   displ. norm   :     0.1452714 α      lambda       -0.1839105E-04
   maximum displ.:     0.0675662 α      in ANC's #16, #15, #14, ...

........................................................................
.............................. CYCLE   50 ..............................
........................................................................
   1   -274.0345934 -0.274035E+03  0.183E-02    0.82       0.0  T
   2   -274.0345935 -0.110565E-06  0.108E-02    0.82       1.0  T
   3   -274.0345920  0.150305E-05  0.267E-03    0.82       3.0  T
   4   -274.0345935 -0.158423E-05  0.554E-04    0.82      14.4  T
   5   -274.0345936 -0.466243E-07  0.255E-04    0.82      31.2  T
   6   -274.0345936 -0.141586E-08  0.162E-04    0.82      49.2  T
     SCC iter.                  ...        0 min,  0.337 sec
     gradient                   ...        0 min,  0.232 sec
 * total energy  :  -268.9228780 Eh     change       -0.1047553E-04 Eh
   gradient norm :     0.0019277 Eh/α   predicted    -0.9284292E-05 ( -11.37%)
   displ. norm   :     0.1253890 α      lambda       -0.1857150E-04
   maximum displ.:     0.0577925 α      in ANC's #16, #13, #14, ...

........................................................................
.............................. CYCLE   51 ..............................
........................................................................
   1   -274.0347222 -0.274035E+03  0.161E-02    0.82       0.0  T
   2   -274.0347223 -0.828387E-07  0.950E-03    0.82       1.0  T
   3   -274.0347217  0.565390E-06  0.164E-03    0.82       4.9  T
   4   -274.0347223 -0.606187E-06  0.405E-04    0.82      19.7  T
   5   -274.0347223 -0.201133E-07  0.222E-04    0.82      35.9  T
     SCC iter.                  ...        0 min,  0.282 sec
     gradient                   ...        0 min,  0.234 sec
 * total energy  :  -268.9228942 Eh     change       -0.1625514E-04 Eh
   gradient norm :     0.0012311 Eh/α   predicted    -0.9352451E-05 ( -42.46%)
   displ. norm   :     0.1274713 α      lambda       -0.1672072E-04
   maximum displ.:     0.0600980 α      in ANC's #16, #13, #14, ...

........................................................................
.............................. CYCLE   52 ..............................
........................................................................
   1   -274.0355822 -0.274036E+03  0.161E-02    0.82       0.0  T
   2   -274.0355823 -0.662149E-07  0.950E-03    0.82       1.0  T
   3   -274.0355810  0.127332E-05  0.227E-03    0.82       3.5  T
   4   -274.0355824 -0.132970E-05  0.437E-04    0.82      18.2  T
   5   -274.0355824 -0.338725E-07  0.210E-04    0.82      37.9  T
   6   -274.0355824 -0.208922E-08  0.135E-04    0.82      58.8  T
     SCC iter.                  ...        0 min,  0.337 sec
     gradient                   ...        0 min,  0.237 sec
 * total energy  :  -268.9229045 Eh     change       -0.1023211E-04 Eh
   gradient norm :     0.0011766 Eh/α   predicted    -0.8424073E-05 ( -17.67%)
   displ. norm   :     0.0949482 α      lambda       -0.1084125E-04
   maximum displ.:     0.0447525 α      in ANC's #16, #13, #9, ...

........................................................................
.............................. CYCLE   53 ..............................
........................................................................
   1   -274.0355172 -0.274036E+03  0.987E-03    0.82       0.0  T
   2   -274.0355173 -0.250001E-07  0.581E-03    0.82       1.4  T
   3   -274.0355167  0.532854E-06  0.148E-03    0.82       5.4  T
   4   -274.0355173 -0.563756E-06  0.234E-04    0.82      34.0  T
   5   -274.0355173 -0.773554E-08  0.131E-04    0.82      60.9  T
     SCC iter.                  ...        0 min,  0.279 sec
     gradient                   ...        0 min,  0.234 sec
 * total energy  :  -268.9229179 Eh     change       -0.1340960E-04 Eh
   gradient norm :     0.0007583 Eh/α   predicted    -0.5442870E-05 ( -59.41%)
   displ. norm   :     0.2358447 α      lambda       -0.2055726E-04
   maximum displ.:     0.1084133 α      in ANC's #16, #13, #9, ...

........................................................................
.............................. CYCLE   54 ..............................
........................................................................
   1   -274.0347294 -0.274035E+03  0.221E-02    0.82       0.0  T
   2   -274.0347295 -0.109732E-06  0.130E-02    0.82       1.0  T
   3   -274.0347260  0.345802E-05  0.376E-03    0.82       2.1  T
   4   -274.0347297 -0.367400E-05  0.476E-04    0.82      16.7  T
   5   -274.0347297 -0.227256E-07  0.297E-04    0.82      26.8  T
   6   -274.0347297 -0.699089E-08  0.173E-04    0.82      45.9  T
     SCC iter.                  ...        0 min,  0.337 sec
     gradient                   ...        0 min,  0.227 sec
 * total energy  :  -268.9229385 Eh     change       -0.2058244E-04 Eh
   gradient norm :     0.0006840 Eh/α   predicted    -0.1053396E-04 ( -48.82%)
   displ. norm   :     0.1945611 α      lambda       -0.1004757E-04
   maximum displ.:     0.0889633 α      in ANC's #16, #9, #13, ...

........................................................................
.............................. CYCLE   55 ..............................
........................................................................
   1   -274.0342368 -0.274034E+03  0.167E-02    0.82       0.0  T
   2   -274.0342369 -0.851103E-07  0.982E-03    0.82       1.0  T
   3   -274.0342353  0.159187E-05  0.264E-03    0.82       3.0  T
   4   -274.0342370 -0.168593E-05  0.430E-04    0.82      18.5  T
   5   -274.0342370 -0.263953E-07  0.235E-04    0.82      33.9  T
   6   -274.0342370 -0.413013E-08  0.142E-04    0.82      55.9  T
     SCC iter.                  ...        0 min,  0.312 sec
     gradient                   ...        0 min,  0.217 sec
 * total energy  :  -268.9229492 Eh     change       -0.1074747E-04 Eh
   gradient norm :     0.0009923 Eh/α   predicted    -0.5111434E-05 ( -52.44%)
   displ. norm   :     0.1929913 α      lambda       -0.9507396E-05
   maximum displ.:     0.0860616 α      in ANC's #16, #9, #13, ...

........................................................................
.............................. CYCLE   56 ..............................
........................................................................
   1   -274.0336946 -0.274034E+03  0.159E-02    0.82       0.0  T
   2   -274.0336947 -0.917324E-07  0.934E-03    0.82       1.0  T
   3   -274.0336938  0.962270E-06  0.213E-03    0.82       3.7  T
   4   -274.0336948 -0.103500E-05  0.384E-04    0.82      20.7  T
   5   -274.0336948 -0.147851E-07  0.239E-04    0.82      33.3  T
   6   -274.0336948 -0.601887E-08  0.134E-04    0.82      59.4  T
     SCC iter.                  ...        0 min,  0.310 sec
     gradient                   ...        0 min,  0.219 sec
 * total energy  :  -268.9229594 Eh     change       -0.1022414E-04 Eh
   gradient norm :     0.0007649 Eh/α   predicted    -0.4835034E-05 ( -52.71%)
   displ. norm   :     0.1827734 α      lambda       -0.9712530E-05
   maximum displ.:     0.0749569 α      in ANC's #16, #9, #13, ...

........................................................................
.............................. CYCLE   57 ..............................
........................................................................
   1   -274.0333687 -0.274033E+03  0.155E-02    0.82       0.0  T
   2   -274.0333688 -0.102745E-06  0.905E-03    0.82       1.0  T
   3   -274.0333679  0.818378E-06  0.200E-03    0.82       4.0  T
   4   -274.0333688 -0.883460E-06  0.405E-04    0.82      19.6  T
   5   -274.0333688 -0.177623E-07  0.245E-04    0.82      32.4  T
     SCC iter.                  ...        0 min,  0.258 sec
     gradient                   ...        0 min,  0.217 sec
 * total energy  :  -268.9229700 Eh     change       -0.1059250E-04 Eh
   gradient norm :     0.0007417 Eh/α   predicted    -0.4930289E-05 ( -53.45%)
   displ. norm   :     0.1515910 α      lambda       -0.8295264E-05
   maximum displ.:     0.0631712 α      in ANC's #9, #13, #16, ...

........................................................................
.............................. CYCLE   58 ..............................
[...]
  81: 18.26  82:  0.90  83:  0.04  84:  0.47  85:  0.21  86:  2.80  87:  9.98  88:  0.53
  89:  0.05  90:  5.25  91:  0.01  92:  0.39  93:  0.00  94:  0.79  95:  0.00  96:  2.58
  97: 17.39  98:  2.44  99:  1.83 100:  2.67 101: 39.03 102:  0.06 103:  9.72 104:  3.86
 105: 14.36 106:  0.43 107:  0.04 108:  0.04 109:  0.16 110:  0.05 111:  0.14 112:  0.07
 113:  0.00 114:  0.05 115:  0.20 116:  0.27 117:  0.14 118:  8.45 119:  1.41 120:  0.04
 121:  4.20 122:  0.02 123:  0.40 124:  0.87 125:  2.11 126: 12.88 127:  1.75 128:  3.26
 129:  0.01 130:  0.01 131: 15.28 132:  2.94 133:  2.84 134:  0.98 135:  2.20 136:  0.84
 137:  0.76 138:  0.03 139:  7.69 140:  4.70 141:  4.74 142:  2.52 143: 16.89 144:  1.23
 145:  0.44 146:  0.02 147:  0.09 148:  0.04 149:  0.02 150:  0.12 151:  0.50 152: 11.36
 153: 10.12 154:  1.59 155: 28.50 156:  0.62 157:  2.15 158:  3.91 159: 36.06 160:  0.04
 161:  0.06 162:  2.22 163:  4.37 164:  7.97 165: 12.39 166:  2.67 167:  1.83 168:  9.53
 169:  0.13 170:  1.18 171:  0.05 172:  2.09 173:  1.44 174:  0.04 175:  0.01 176: 43.63
 177:  7.86 178: 21.75 179: 26.96 180:356.29 181:269.10 182:176.58 183:595.96 184:  0.10
 185:  0.58 186: 46.77 187:  1.33 188:  3.22 189:  7.35 190:  1.02 191:  1.32 192:  0.13
 193:  0.02 194:  0.14 195:  4.72 196:  5.85 197: 15.60 198: 14.16 199: 11.78 200: 19.48
 201:  0.04 202:  0.53 203: 11.41 204:  0.04 205:  0.85 206: 11.82 207: 33.69 208:  0.73
 209: 95.14 210:  2.35 211:  1.47 212:  0.21 213:  0.01 214:  8.02 215: 13.81 216:  0.03
 217: 12.29 218:  0.13 219:  0.15 220:  0.03 221: 12.23 222:  1.47 223:  0.21 224:  3.71
 225: 14.94 226:  4.64 227:  9.95 228:  9.19 229:  0.89 230: 17.23 231: 82.79 232:  0.84
 233: 74.14 234: 57.50 235: 46.05 236: 35.51 237:  2.28 238:  1.66 239:152.93 240:  0.93
 241:  0.11 242:  0.04 243:  2.88 244:  8.66 245:  0.13 246:  0.11 247:  0.31 248: 18.46
 249:  7.88 250:  1.17 251: 44.19 252:  0.02 253:  0.01 254:  0.48 255:  0.03 256: 40.07
 257: 17.84 258:  6.79 259: 77.90 260: 51.48 261: 65.70 262: 57.14 263: 79.08 264:  0.02
 265:  4.53 266:  0.02 267: 38.37 268: 21.40 269:392.70 270:  0.85 271: 31.07 272:  0.04
 273: 22.40 274:  0.01 275: 67.21 276:  0.11 277: 17.53 278:  0.70 279:  0.21 280:  0.31
 281:  0.01 282:  0.01 283:183.85 284:  4.14 285:  7.26 286:  0.22 287:  7.97 288:  4.76
 289:  0.15 290:  0.41 291:436.73 292: 10.52 293: 22.98 294:  0.04 295: 10.22 296:  0.04
 297: 21.70 298:  4.03 299:  1.73 300:  0.00 301:  4.05 302:  0.01 303:216.07 304:  0.68
 305:  9.76 306:  0.84 307:200.07 308:  0.14 309: 10.53 310:  0.01 311: 37.00 312:  0.10
 313: 37.15 314:  0.08 315: 13.10 316:  0.10 317:104.08 318:  0.05 319: 88.71 320:  2.82
 321:****** 322:  0.04 323: 34.10 324:  0.04 325:616.18 326:  0.08 327: 46.52 328:  5.40
 329:220.57 330:  0.27 331: 74.69 332:  0.01 333: 34.15 334:  0.10 335: 43.40 336:  0.00
 337:  0.02 338: 21.08 339: 13.19 340:  0.00 341:  0.36 342: 19.59 343: 22.49 344:414.99
 345:  1.38 346:  0.11 347: 90.13 348:  0.01 349: 32.90 350: 15.39 351: 20.09 352:  0.58
 353: 37.13 354:  0.34 355: 97.47 356:  0.56 357:793.61 358: 59.53 359: 25.05 360:  3.57
 361:263.01 362: 33.72 363: 16.41 364:  0.03 365:  3.96 366:  0.04 367: 82.63 368:  0.10
 369: 11.34 370:  0.03 371: 10.40 372:  0.02 373: 22.45 374:  0.04 375:  0.00 376:  0.14
 377:  3.60 378:  0.08 379:  3.54 380:  0.01 381: 21.31 382:  0.02 383:115.06 384:  1.16
 385:  0.42 386:  0.35 387:  0.17 388:  5.59 389:  0.06 390: 70.49 391: 81.27 392:  4.95
 393: 76.62 394:  0.20 395: 38.39 396:  3.58 397: 48.62 398:  0.37 399:  0.07 400:  0.69
 401:251.43 402:  0.11 403: 73.25 404:  8.36 405:  0.07 406: 38.11 407:  0.13 408: 18.48
 409: 29.60 410: 25.26 411:875.70 412:  1.08 413: 58.02 414: 34.07 415:  0.20 416:  0.00
 417:139.47 418:  2.34 419:  0.00 420: 50.86 421:  0.25 422:  0.20 423:  0.41 424:  0.25
 425:  0.99 426:  0.08 427: 20.54 428: 97.97 429: 28.48 430: 42.50 431:  1.99 432:  2.46
 433: 16.51 434: 14.52 435: 11.51 436: 19.01 437: 15.57 438: 79.20 439: 13.96 440:  1.87
 441: 58.86 442:  4.82 443:378.83 444:281.04 445: 32.86 446: 35.06 447:  9.61 448: 42.64
 449:  5.89 450: 27.91 451: 11.75 452: 27.23 453: 87.14 454:  2.43 455:  3.37 456: 46.69
 457:  0.71 458:173.31 459:186.86 460:216.06 461: 17.90 462:  4.29 463:  8.21 464:  8.25
 465: 75.03 466: 75.80 467: 11.24 468:  8.76 469:  0.62 470:  0.54 471: 13.20 472: 13.52
 473:  8.88 474:  8.17
 Raman intensities (amu)
   1:  0.00   2:  0.00   3:  0.00   4:  0.00   5:  0.00   6:  0.00   7:  0.00   8:  0.00
   9:  0.00  10:  0.00  11:  0.00  12:  0.00  13:  0.00  14:  0.00  15:  0.00  16:  0.00
  17:  0.00  18:  0.00  19:  0.00  20:  0.00  21:  0.00  22:  0.00  23:  0.00  24:  0.00
  25:  0.00  26:  0.00  27:  0.00  28:  0.00  29:  0.00  30:  0.00  31:  0.00  32:  0.00
  33:  0.00  34:  0.00  35:  0.00  36:  0.00  37:  0.00  38:  0.00  39:  0.00  40:  0.00
  41:  0.00  42:  0.00  43:  0.00  44:  0.00  45:  0.00  46:  0.00  47:  0.00  48:  0.00
  49:  0.00  50:  0.00  51:  0.00  52:  0.00  53:  0.00  54:  0.00  55:  0.00  56:  0.00
  57:  0.00  58:  0.00  59:  0.00  60:  0.00  61:  0.00  62:  0.00  63:  0.00  64:  0.00
  65:  0.00  66:  0.00  67:  0.00  68:  0.00  69:  0.00  70:  0.00  71:  0.00  72:  0.00
  73:  0.00  74:  0.00  75:  0.00  76:  0.00  77:  0.00  78:  0.00  79:  0.00  80:  0.00
  81:  0.00  82:  0.00  83:  0.00  84:  0.00  85:  0.00  86:  0.00  87:  0.00  88:  0.00
  89:  0.00  90:  0.00  91:  0.00  92:  0.00  93:  0.00  94:  0.00  95:  0.00  96:  0.00
  97:  0.00  98:  0.00  99:  0.00 100:  0.00 101:  0.00 102:  0.00 103:  0.00 104:  0.00
 105:  0.00 106:  0.00 107:  0.00 108:  0.00 109:  0.00 110:  0.00 111:  0.00 112:  0.00
 113:  0.00 114:  0.00 115:  0.00 116:  0.00 117:  0.00 118:  0.00 119:  0.00 120:  0.00
 121:  0.00 122:  0.00 123:  0.00 124:  0.00 125:  0.00 126:  0.00 127:  0.00 128:  0.00
 129:  0.00 130:  0.00 131:  0.00 132:  0.00 133:  0.00 134:  0.00 135:  0.00 136:  0.00
 137:  0.00 138:  0.00 139:  0.00 140:  0.00 141:  0.00 142:  0.00 143:  0.00 144:  0.00
Refinement of some symmetry elements was terminated before convergence was reached.
Some symmetry elements may remain unidentified.
Molecule has no symmetry elements
It seems to be the C1 point group
 145:  0.00 146:  0.00 147:  0.00 148:  0.00 149:  0.00 150:  0.00 151:  0.00 152:  0.00
 153:  0.00 154:  0.00 155:  0.00 156:  0.00 157:  0.00 158:  0.00 159:  0.00 160:  0.00
 161:  0.00 162:  0.00 163:  0.00 164:  0.00 165:  0.00 166:  0.00 167:  0.00 168:  0.00
 169:  0.00 170:  0.00 171:  0.00 172:  0.00 173:  0.00 174:  0.00 175:  0.00 176:  0.00
 177:  0.00 178:  0.00 179:  0.00 180:  0.00 181:  0.00 182:  0.00 183:  0.00 184:  0.00
 185:  0.00 186:  0.00 187:  0.00 188:  0.00 189:  0.00 190:  0.00 191:  0.00 192:  0.00
 193:  0.00 194:  0.00 195:  0.00 196:  0.00 197:  0.00 198:  0.00 199:  0.00 200:  0.00
 201:  0.00 202:  0.00 203:  0.00 204:  0.00 205:  0.00 206:  0.00 207:  0.00 208:  0.00
 209:  0.00 210:  0.00 211:  0.00 212:  0.00 213:  0.00 214:  0.00 215:  0.00 216:  0.00
 217:  0.00 218:  0.00 219:  0.00 220:  0.00 221:  0.00 222:  0.00 223:  0.00 224:  0.00
 225:  0.00 226:  0.00 227:  0.00 228:  0.00 229:  0.00 230:  0.00 231:  0.00 232:  0.00
 233:  0.00 234:  0.00 235:  0.00 236:  0.00 237:  0.00 238:  0.00 239:  0.00 240:  0.00
 241:  0.00 242:  0.00 243:  0.00 244:  0.00 245:  0.00 246:  0.00 247:  0.00 248:  0.00
 249:  0.00 250:  0.00 251:  0.00 252:  0.00 253:  0.00 254:  0.00 255:  0.00 256:  0.00
 257:  0.00 258:  0.00 259:  0.00 260:  0.00 261:  0.00 262:  0.00 263:  0.00 264:  0.00
 265:  0.00 266:  0.00 267:  0.00 268:  0.00 269:  0.00 270:  0.00 271:  0.00 272:  0.00
 273:  0.00 274:  0.00 275:  0.00 276:  0.00 277:  0.00 278:  0.00 279:  0.00 280:  0.00
 281:  0.00 282:  0.00 283:  0.00 284:  0.00 285:  0.00 286:  0.00 287:  0.00 288:  0.00
 289:  0.00 290:  0.00 291:  0.00 292:  0.00 293:  0.00 294:  0.00 295:  0.00 296:  0.00
 297:  0.00 298:  0.00 299:  0.00 300:  0.00 301:  0.00 302:  0.00 303:  0.00 304:  0.00
 305:  0.00 306:  0.00 307:  0.00 308:  0.00 309:  0.00 310:  0.00 311:  0.00 312:  0.00
 313:  0.00 314:  0.00 315:  0.00 316:  0.00 317:  0.00 318:  0.00 319:  0.00 320:  0.00
 321:  0.00 322:  0.00 323:  0.00 324:  0.00 325:  0.00 326:  0.00 327:  0.00 328:  0.00
 329:  0.00 330:  0.00 331:  0.00 332:  0.00 333:  0.00 334:  0.00 335:  0.00 336:  0.00
 337:  0.00 338:  0.00 339:  0.00 340:  0.00 341:  0.00 342:  0.00 343:  0.00 344:  0.00
 345:  0.00 346:  0.00 347:  0.00 348:  0.00 349:  0.00 350:  0.00 351:  0.00 352:  0.00
 353:  0.00 354:  0.00 355:  0.00 356:  0.00 357:  0.00 358:  0.00 359:  0.00 360:  0.00
 361:  0.00 362:  0.00 363:  0.00 364:  0.00 365:  0.00 366:  0.00 367:  0.00 368:  0.00
 369:  0.00 370:  0.00 371:  0.00 372:  0.00 373:  0.00 374:  0.00 375:  0.00 376:  0.00
 377:  0.00 378:  0.00 379:  0.00 380:  0.00 381:  0.00 382:  0.00 383:  0.00 384:  0.00
 385:  0.00 386:  0.00 387:  0.00 388:  0.00 389:  0.00 390:  0.00 391:  0.00 392:  0.00
 393:  0.00 394:  0.00 395:  0.00 396:  0.00 397:  0.00 398:  0.00 399:  0.00 400:  0.00
 401:  0.00 402:  0.00 403:  0.00 404:  0.00 405:  0.00 406:  0.00 407:  0.00 408:  0.00
 409:  0.00 410:  0.00 411:  0.00 412:  0.00 413:  0.00 414:  0.00 415:  0.00 416:  0.00
 417:  0.00 418:  0.00 419:  0.00 420:  0.00 421:  0.00 422:  0.00 423:  0.00 424:  0.00
 425:  0.00 426:  0.00 427:  0.00 428:  0.00 429:  0.00 430:  0.00 431:  0.00 432:  0.00
 433:  0.00 434:  0.00 435:  0.00 436:  0.00 437:  0.00 438:  0.00 439:  0.00 440:  0.00
 441:  0.00 442:  0.00 443:  0.00 444:  0.00 445:  0.00 446:  0.00 447:  0.00 448:  0.00
 449:  0.00 450:  0.00 451:  0.00 452:  0.00 453:  0.00 454:  0.00 455:  0.00 456:  0.00
 457:  0.00 458:  0.00 459:  0.00 460:  0.00 461:  0.00 462:  0.00 463:  0.00 464:  0.00
 465:  0.00 466:  0.00 467:  0.00 468:  0.00 469:  0.00 470:  0.00 471:  0.00 472:  0.00
 473:  0.00 474:  0.00
 output can be read by thermo (or use thermo option).
 writing <g98.out> molden fake output.
 recommended (thermochemical) frequency scaling factor: 1.0
           -------------------------------------------------
          |             Thermodynamic Functions             |
           -------------------------------------------------

c1  symmetry found (for desy threshold:  0.10E+00) used in thermo

          ...................................................
          :                      SETUP                      :
          :.................................................:
          :  # frequencies                         467      :
          :  # imaginary freq.                       0      :
          :  linear?                             false      :
          :  only rotor calc.                    false      :
          :  symmetry                               c1      :
          :  rotational number                       1      :
          :  scaling factor                  1.0000000      :
          :  rotor cutoff                   50.0000000 cm⁻¹ :
          :  imag. cutoff                  -20.0000000 cm⁻¹ :
          :.................................................:

    mode    ω/cm⁻¹     T·S(HO)/kcal·mol⁻¹    T·S(FR)/kcal·mol⁻¹   T·S(vib)
   ------------------------------------------------------------------------
       1      2.06    -3.32573 (  0.00%)    -2.00197 (100.00%)    -2.00197
       2      4.39    -2.87615 (  0.01%)    -1.77718 ( 99.99%)    -1.77725
       3      4.77    -2.82764 (  0.01%)    -1.75293 ( 99.99%)    -1.75302
       4      5.58    -2.73377 (  0.02%)    -1.70599 ( 99.98%)    -1.70615
       5      6.33    -2.65950 (  0.03%)    -1.66885 ( 99.97%)    -1.66910
       6      7.62    -2.54925 (  0.05%)    -1.61372 ( 99.95%)    -1.61423
       7      9.37    -2.42727 (  0.12%)    -1.55272 ( 99.88%)    -1.55380
       8     10.89    -2.33796 (  0.22%)    -1.50806 ( 99.78%)    -1.50993
       9     14.23    -2.17955 (  0.65%)    -1.42883 ( 99.35%)    -1.43372
      10     21.07    -1.94709 (  3.06%)    -1.31253 ( 96.94%)    -1.33194
      11     22.62    -1.90509 (  4.02%)    -1.29152 ( 95.98%)    -1.31619
      12     26.04    -1.82187 (  6.85%)    -1.24985 ( 93.15%)    -1.28903
      13     28.72    -1.76391 (  9.81%)    -1.22084 ( 90.19%)    -1.27412
      14     33.71    -1.66913 ( 17.12%)    -1.17335 ( 82.88%)    -1.25823
      15     39.64    -1.57335 ( 28.32%)    -1.12534 ( 71.68%)    -1.25220
      16     41.83    -1.54152 ( 32.89%)    -1.10937 ( 67.11%)    -1.25150
      17     42.06    -1.53840 ( 33.36%)    -1.10781 ( 66.64%)    -1.25144
      18     42.64    -1.53021 ( 34.60%)    -1.10370 ( 65.40%)    -1.25128
      19     42.84    -1.52744 ( 35.03%)    -1.10231 ( 64.97%)    -1.25122
      20     42.95    -1.52592 ( 35.26%)    -1.10155 ( 64.74%)    -1.25119
      21     44.31    -1.50764 ( 38.14%)    -1.09237 ( 61.86%)    -1.25075
      22     51.57    -1.41808 ( 53.09%)    -1.04739 ( 46.91%)    -1.24418
      23     59.67    -1.33219 ( 66.97%)    -1.00419 ( 33.03%)    -1.22386
      24     61.90    -1.31053 ( 70.15%)    -0.99328 ( 29.85%)    -1.21582
      25     70.18    -1.23679 ( 79.52%)    -0.95610 ( 20.48%)    -1.17930
      26     71.26    -1.22784 ( 80.49%)    -0.95158 ( 19.51%)    -1.17395
      27     87.10    -1.11036 ( 90.20%)    -0.89213 (  9.80%)    -1.08898
      28     91.14    -1.08391 ( 91.69%)    -0.87870 (  8.31%)    -1.06686
      29     92.26    -1.07676 ( 92.06%)    -0.87506 (  7.94%)    -1.06075
      30     94.38    -1.06355 ( 92.70%)    -0.86835 (  7.30%)    -1.04930
      31     94.80    -1.06097 ( 92.82%)    -0.86703 (  7.18%)    -1.04704
      32    103.52    -1.00979 ( 94.84%)    -0.84095 (  5.16%)    -1.00108
      33    110.34    -0.97283 ( 95.95%)    -0.82206 (  4.05%)    -0.96673
      34    111.35    -0.96759 ( 96.09%)    -0.81937 (  3.91%)    -0.96180
      35    113.96    -0.95418 ( 96.43%)    -0.81250 (  3.57%)    -0.94911
      36    114.73    -0.95028 ( 96.52%)    -0.81050 (  3.48%)    -0.94541
      37    116.08    -0.94353 ( 96.67%)    -0.80704 (  3.33%)    -0.93899
      38    116.70    -0.94047 ( 96.74%)    -0.80547 (  3.26%)    -0.93607
      39    130.58    -0.87582 ( 97.90%)    -0.77217 (  2.10%)    -0.87364
      40    131.60    -0.87133 ( 97.96%)    -0.76985 (  2.04%)    -0.86926
      41    133.55    -0.86292 ( 98.07%)    -0.76550 (  1.93%)    -0.86104
      42    139.33    -0.83870 ( 98.37%)    -0.75295 (  1.63%)    -0.83730
      43    139.68    -0.83730 ( 98.38%)    -0.75222 (  1.62%)    -0.83592
      44    140.35    -0.83455 ( 98.41%)    -0.75080 (  1.59%)    -0.83323
      45    142.58    -0.82556 ( 98.51%)    -0.74612 (  1.49%)    -0.82438
      46    145.56    -0.81380 ( 98.63%)    -0.74000 (  1.37%)    -0.81278
      47    150.37    -0.79531 ( 98.79%)    -0.73036 (  1.21%)    -0.79453
      48    151.62    -0.79063 ( 98.83%)    -0.72791 (  1.17%)    -0.78990
      49    154.43    -0.78024 ( 98.91%)    -0.72248 (  1.09%)    -0.77961
      50    174.41    -0.71180 ( 99.33%)    -0.68642 (  0.67%)    -0.71163
      51    178.24    -0.69968 ( 99.38%)    -0.67999 (  0.62%)    -0.69956
      52    180.02    -0.69416 ( 99.41%)    -0.67705 (  0.59%)    -0.69406
      53    183.78    -0.68268 ( 99.46%)    -0.67093 (  0.54%)    -0.68261
      54    185.82    -0.67653 ( 99.48%)    -0.66765 (  0.52%)    -0.67649
      55    190.71    -0.66216 ( 99.53%)    -0.65996 (  0.47%)    -0.66215
      56    193.20    -0.65501 ( 99.55%)    -0.65612 (  0.45%)    -0.65501
      57    199.24    -0.63807 ( 99.60%)    -0.64700 (  0.40%)    -0.63810
      58    200.60    -0.63433 ( 99.62%)    -0.64498 (  0.38%)    -0.63437
      59    201.46    -0.63198 ( 99.62%)    -0.64371 (  0.38%)    -0.63203
      60    201.93    -0.63073 ( 99.63%)    -0.64303 (  0.37%)    -0.63077
      61    202.50    -0.62917 ( 99.63%)    -0.64219 (  0.37%)    -0.62921
      62    204.11    -0.62483 ( 99.64%)    -0.63984 (  0.36%)    -0.62489
      63    216.03    -0.59394 ( 99.71%)    -0.62303 (  0.29%)    -0.59403
      64    249.88    -0.51622 ( 99.84%)    -0.57991 (  0.16%)    -0.51632
      65    257.95    -0.49958 ( 99.86%)    -0.57050 (  0.14%)    -0.49968
      66    264.58    -0.48639 ( 99.87%)    -0.56298 (  0.13%)    -0.48649
      67    264.93    -0.48569 ( 99.87%)    -0.56258 (  0.13%)    -0.48579
      68    265.10    -0.48537 ( 99.87%)    -0.56240 (  0.13%)    -0.48547
      69    265.51    -0.48457 ( 99.87%)    -0.56193 (  0.13%)    -0.48466
      70    265.60    -0.48439 ( 99.87%)    -0.56183 (  0.13%)    -0.48448
      71    265.71    -0.48417 ( 99.87%)    -0.56171 (  0.13%)    -0.48427
      72    265.88    -0.48386 ( 99.88%)    -0.56153 (  0.12%)    -0.48395
      73    266.92    -0.48183 ( 99.88%)    -0.56037 (  0.12%)    -0.48193
      74    278.60    -0.45982 ( 99.90%)    -0.54768 (  0.10%)    -0.45991
      75    282.48    -0.45277 ( 99.90%)    -0.54358 (  0.10%)    -0.45286
      76    283.27    -0.45135 ( 99.90%)    -0.54276 (  0.10%)    -0.45144
      77    291.60    -0.43668 ( 99.91%)    -0.53416 (  0.09%)    -0.43676
      78    298.72    -0.42458 ( 99.92%)    -0.52702 (  0.08%)    -0.42466
      79    299.07    -0.42401 ( 99.92%)    -0.52668 (  0.08%)    -0.42409
      80    299.64    -0.42305 ( 99.92%)    -0.52611 (  0.08%)    -0.42313
   ------------------------------------------------------------------------

   temp. (K)  partition function   enthalpy   heat capacity  entropy
                                   cal/mol     cal/K/mol   cal/K/mol   J/K/mol
 298.15  VIB  0.212E+46            53054.636    343.881    337.919
         ROT  0.207E+10              888.752      2.981     45.610
         INT  0.438E+55            53943.388    346.862    383.529
         TR   0.496E+29             1481.254      4.968     47.519
         TOT                       55424.6422   351.8301   431.0475  1803.5027

       T/K    H(0)-H(T)+PV         H(T)/Eh          T*S/Eh         G(T)/Eh
   ------------------------------------------------------------------------
    298.15    0.883248E-01    0.122544E+01    0.204805E+00    0.102064E+01
   ------------------------------------------------------------------------

         :::::::::::::::::::::::::::::::::::::::::::::::::::::
         ::                  THERMODYNAMIC                  ::
         :::::::::::::::::::::::::::::::::::::::::::::::::::::
         :: total free energy        -267.902396957885 Eh   ::
         ::.................................................::
         :: total energy             -268.923034973212 Eh   ::
         :: zero point energy           1.137117802897 Eh   ::
         :: G(RRHO) w/o ZPVE           -0.116479787570 Eh   ::
         :: G(RRHO) contrib.            1.020638015327 Eh   ::
         :::::::::::::::::::::::::::::::::::::::::::::::::::::

optimized geometry written to: xtbopt.xyz


           -------------------------------------------------
          | TOTAL ENERGY             -268.923034973212 Eh   |
          | TOTAL ENTHALPY           -267.697592380797 Eh   |
          | TOTAL FREE ENERGY        -267.902396957885 Eh   |
          | GRADIENT NORM               0.000514741261 Eh/α |
          | HOMO-LUMO GAP               0.818972134203 eV   |
           -------------------------------------------------

------------------------------------------------------------------------
 * finished run on 2021/11/19 at 15:45:18.161     
------------------------------------------------------------------------
 total:
 * wall-time:     0 d,  0 h,  9 min, 28.624 sec
 *  cpu-time:     0 d,  0 h,  9 min, 28.634 sec
 * ratio c/w:     1.000 speedup
 SCF:
 * wall-time:     0 d,  0 h,  0 min,  2.555 sec
 *  cpu-time:     0 d,  0 h,  0 min,  2.555 sec
 * ratio c/w:     1.000 speedup
 ANC optimizer:
 * wall-time:     0 d,  0 h,  0 min, 48.880 sec
 *  cpu-time:     0 d,  0 h,  0 min, 48.881 sec
 * ratio c/w:     1.000 speedup
 analytical hessian:
 * wall-time:     0 d,  0 h,  8 min, 36.893 sec
 *  cpu-time:     0 d,  0 h,  8 min, 36.903 sec
 * ratio c/w:     1.000 speedup

