158
 energy: -266.867569813381 gnorm: 3.172698540451 xtb: 6.4.1 (bd6e46d)
C        26.46810100000000    3.51026400000000    0.78912300000000
C        27.35807900000000    2.57000500000000    0.59092800000000
C        26.69657700000000    1.30993000000000    0.29012100000000
C        27.05501500000000    0.00426800000000    0.00143900000000
C        26.22983700000000   -1.12680400000000   -0.08377700000000
C        26.68540200000000   -2.33552800000000    0.49753000000000
C        25.71270800000000   -3.26807500000000    0.29737500000000
C        24.68161400000000   -2.60037400000000   -0.40561200000000
N        25.01833900000000   -1.31951400000000   -0.62252600000000
C        23.52365400000000   -3.32648900000000   -0.73732900000000
C        22.20555300000000   -2.88379300000000   -0.62379500000000
C        20.89320600000000   -3.48592800000000   -0.72077400000000
C        19.97157900000000   -2.53928000000000   -0.51468900000000
C        20.66846400000000   -1.29345000000000   -0.27795800000000
N        21.98953800000000   -1.57320200000000   -0.35764400000000
C        20.26922300000000    0.00854800000000   -0.00995500000000
C        21.10183500000000    1.14522400000000    0.06595400000000
C        20.66769100000000    2.34721300000000   -0.54418700000000
C        21.66320400000000    3.26360200000000   -0.35223100000000
C        22.67735600000000    2.59035900000000    0.37170000000000
N        22.31215900000000    1.32253700000000    0.61052400000000
C        23.84699700000000    3.29731500000000    0.69320000000000
C        25.16225000000000    2.89379000000000    0.62318400000000
N        25.35187300000000    1.58268700000000    0.32678200000000
H        26.63536500000000    4.53880800000000    1.02771300000000
H        28.42833800000000    2.69334200000000    0.63994600000000
H        27.64592400000000   -2.52123100000000    1.01610700000000
H        25.74959000000000   -4.32468400000000    0.62270200000000
H        24.41505400000000   -0.55210400000000   -1.17004600000000
H        23.61204500000000   -4.36191600000000   -1.11567600000000
H        20.69453100000000   -4.54662800000000   -0.92951800000000
H        18.90216900000000   -2.73121400000000   -0.53392200000000
H        19.19427900000000    0.09781700000000    0.12779000000000
H        19.71403700000000    2.53877100000000   -1.07298400000000
H        21.64878300000000    4.31383100000000   -0.69867200000000
H        22.90548300000000    0.56509300000000    1.18252100000000
H        23.77848900000000    4.35472000000000    1.04991600000000
C        61.54548800000000   -3.49335900000000    0.82549300000000
C        60.65551100000000   -2.55520800000000    0.61754300000000
C        61.31701200000001   -1.29832600000000    0.30366600000000
C        60.95857400000000    0.00426800000000    0.00143900000000
C        61.78375200000000    1.13439400000000   -0.09551900000000
C        61.32818700000000    2.34909000000000    0.47320300000000
C        62.30088100000000    3.27950700000000    0.26337300000000
C        63.33197500000000    2.60454100000000   -0.43264200000000
N        62.99525000000001    1.32149800000000   -0.63624100000000
C        64.48993600000000    3.32717300000000   -0.77188200000000
C        65.80803600000000    2.88568000000000   -0.65375600000000
C        67.12038300000000    3.48677400000000   -0.75698400000000
C        68.04201000000000    2.54231800000000   -0.54107800000000
C        67.34512500000000    1.29901300000000   -0.29142100000000
N        66.02405100000000    1.57792300000000   -0.37400800000000
C        67.74436700000001   -0.00013000000000   -0.00991000000000
C        66.91175400000000   -1.13595700000000    0.07780000000000
C        67.34589800000001   -2.34421800000000   -0.51982400000000
C        66.35038500000000   -3.25856400000000   -0.31836100000000
C        65.33623400000000   -2.57783800000000    0.39853900000000
N        65.70143000000000   -1.30760400000000    0.62418300000000
C        64.16659199999999   -3.28141700000000    0.72736400000000
C        62.85133900000000   -2.87864200000000    0.65316100000000
N        62.66171600000000   -1.57068700000000    0.34315800000000
H        61.37822400000000   -4.51936900000000    1.07475300000000
H        59.58525200000000   -2.67803000000000    0.66784000000000
H        60.36766500000000    2.54016800000000    0.98982300000000
H        62.26399900000000    4.33943900000000    0.57770900000000
H        63.59853500000000    0.54844300000000   -1.17576100000000
H        64.40154500000000    4.35861400000000   -1.16096200000000
H        67.31905800000000    4.54525000000000   -0.97673300000000
H        69.11142000000000    2.73404200000000   -0.56230400000000
H        68.81931000000000   -0.08796400000000    0.12875500000000
H        68.29955200000001   -2.54125700000000   -1.04660300000000
H        66.36480600000000   -4.31233400000000   -0.65387600000000
H        65.10810600000001   -0.54426100000000    1.18828200000000
H        64.23510000000000   -4.33506000000000    1.09504200000000
C        29.45662900000000    0.00204600000000    0.00022500000000
C        30.66460600000000    0.00950100000000    0.00192000000000
C        32.08337400000000    0.01019700000000    0.00705800000000
C        33.29889000000000    0.00204600000000    0.00022500000000
C        42.08673700000000    0.00204600000000    0.00022500000000
C        43.29471400000001    0.00950100000000    0.00192000000000
C        44.71348200000000    0.01019700000000    0.00705800000000
C        45.92899900000000    0.00204600000000    0.00022500000000
C        54.71684600000000    0.00204600000000    0.00022500000000
C        55.92482300000001    0.00950100000000    0.00192000000000
C        57.34359100000000    0.01019700000000    0.00705800000000
C        58.55910700000000    0.00204600000000    0.00022500000000
C        34.89859200000001   -3.59400000000000    0.00037400000000
C        34.02404200000001   -2.59909600000000   -0.00992800000000
C        34.69550600000000   -1.32031300000000    0.00326200000000
C        34.29847500000000   -0.00472700000000   -0.00151700000000
C        35.10966700000000    1.13959600000000   -0.15564300000000
C        34.63064200000000    2.19211300000000   -0.96770900000000
C        35.61772700000000    3.13486500000000   -0.95917700000000
C        36.66499800000000    2.63307000000000   -0.14637500000000
N        36.32614500000000    1.42670300000000    0.32637100000000
C        37.82537600000001    3.41105300000000    0.00797500000000
C        39.14636500000000    2.95318000000000   -0.02141800000000
C        40.45893400000000    3.58131300000000   -0.08254600000000
C        41.37304700000001    2.62624900000000   -0.08512900000000
C        40.69950000000000    1.33937600000000   -0.02593900000000
N        39.38744200000000    1.62797400000000    0.00885000000000
C        41.10178400000000   -0.00472700000000   -0.00151700000000
C        40.26963000000001   -1.11851600000000    0.18076400000000
C        40.70958800000000   -2.15017300000000    1.04407500000000
C        39.71140600000000   -3.07351400000000    1.04869600000000
C        38.68849000000000   -2.59357600000000    0.19526700000000
N        39.05566700000000   -1.41232900000000   -0.31524100000000
C        37.53158100000000   -3.36898400000000    0.03819800000000
C        36.21080600000000   -2.94950600000000    0.02151300000000
N        36.03441500000001   -1.61130200000000    0.02241300000000
H        34.73007300000000   -4.65616800000000   -0.00502800000000
H        32.93621400000000   -2.78513200000000   -0.02695500000000
H        33.66656400000000    2.26748400000000   -1.50202500000000
H        35.57958000000000    4.10598000000000   -1.49162000000000
H        36.93382400000000    0.78960300000000    1.01500100000000
H        37.77027600000001    4.49731500000000    0.15209100000000
H        40.67736100000000    4.64930600000000   -0.12087600000000
H        42.44936200000000    2.77229300000000   -0.12475600000000
H        41.66359700000001   -2.21458500000000    1.60162300000000
H        39.73682400000000   -4.01883100000000    1.62401600000000
H        38.46859100000000   -0.79287300000000   -1.03889100000000
H        37.59229900000000   -4.48072400000000   -0.07593100000000
C        47.52870100000001   -3.59400000000000    0.00037400000000
C        46.65415100000001   -2.59909600000000   -0.00992800000000
C        47.32561500000000   -1.32031300000000    0.00326200000000
C        46.92858400000000   -0.00472700000000   -0.00151700000000
C        47.73977600000000    1.13959600000000   -0.15564300000000
C        47.26075000000000    2.19211300000000   -0.96770900000000
C        48.24783500000000    3.13486500000000   -0.95917700000000
C        49.29510700000000    2.63307000000000   -0.14637500000000
N        48.95625400000000    1.42670300000000    0.32637100000000
C        50.45548400000000    3.41105300000000    0.00797500000000
C        51.77647300000001    2.95318000000000   -0.02141800000000
C        53.08904300000000    3.58131300000000   -0.08254600000000
C        54.00315500000000    2.62624900000000   -0.08512900000000
C        53.32960900000000    1.33937600000000   -0.02593900000000
N        52.01755000000000    1.62797400000000    0.00885000000000
C        53.73189200000000   -0.00472700000000   -0.00151700000000
C        52.89973800000000   -1.11851600000000    0.18076400000000
C        53.33969600000001   -2.15017300000000    1.04407500000000
C        52.34151400000000   -3.07351400000000    1.04869600000000
C        51.31859800000000   -2.59357600000000    0.19526700000000
N        51.68577600000000   -1.41232900000000   -0.31524100000000
C        50.16168900000000   -3.36898400000000    0.03819800000000
C        48.84091400000000   -2.94950600000000    0.02151300000000
N        48.66452300000000   -1.61130200000000    0.02241300000000
H        47.36018100000000   -4.65616800000000   -0.00502800000000
H        45.56632300000000   -2.78513200000000   -0.02695500000000
H        46.29667200000001    2.26748400000000   -1.50202500000000
H        48.20968900000000    4.10598000000000   -1.49162000000000
H        49.56393200000000    0.78960300000000    1.01500100000000
H        50.40038400000000    4.49731500000000    0.15209100000000
H        53.30747000000000    4.64930600000000   -0.12087600000000
H        55.07947000000001    2.77229300000000   -0.12475600000000
H        54.29370600000001   -2.21458500000000    1.60162300000000
H        52.36693300000001   -4.01883100000000    1.62401600000000
H        51.09869900000001   -0.79287300000000   -1.03889100000000
H        50.22240700000000   -4.48072400000000   -0.07593100000000
158
 energy: -267.891597641431 gnorm: 0.700930879584 xtb: 6.4.1 (bd6e46d)
C        26.46347919178123    3.51340785240205    0.79019003574179
C        27.36536726464886    2.56606075083087    0.58952718911237
C        26.69393344261938    1.31028236538038    0.28830359196344
C        27.06256341231224    0.01020824862000    0.00253303765864
C        26.24045929158393   -1.12264007490683   -0.08160591747863
C        26.68931262678580   -2.33776479137752    0.49859793009259
C        25.71467608002357   -3.27022814739745    0.29603614542836
C        24.67806333516327   -2.60569991470604   -0.40727144084163
N        25.01456944720733   -1.31414989975427   -0.62514997232092
C        23.51750901991335   -3.32898975307434   -0.73979704609272
C        22.20491270895850   -2.87719955918932   -0.62530967800537
C        20.89352103270646   -3.49133439281077   -0.72259734647490
C        19.96819331616180   -2.54051637522348   -0.51439015550145
C        20.67409649216635   -1.29515369820275   -0.27566358676545
N        21.99430008687228   -1.56902963276135   -0.35654887645690
C        20.26730912136216    0.00333296584584   -0.00915076668225
C        21.09550526458668    1.14229964698093    0.06481501793867
C        20.66477009280067    2.34885575623226   -0.54359781693982
C        21.66144974239058    3.26576603178996   -0.35119973008002
C        22.68074431907498    2.59644577783499    0.37257307106691
N        22.31717154083256    1.31735854841285    0.61141777360024
C        23.85102834871533    3.30338170938096    0.69693762711823
C        25.16227145832347    2.88591892646700    0.62368059161607
N        25.35159921406410    1.57833411879865    0.32617273410180
H        26.63489067284133    4.54017138851644    1.02809727745897
H        28.42965677811818    2.69239421943433    0.63971141261508
H        27.64265225724855   -2.51919488139910    1.01431349913517
H        25.74825682041327   -4.32041934917057    0.62109070349697
H        24.42124241222992   -0.56071856003907   -1.16267927142932
H        23.61316309616858   -4.36054653681980   -1.11172377283768
H        20.69540651190554   -4.54469017007557   -0.92918106621809
H        18.90276248618386   -2.72951456863498   -0.53351176120661
H        19.19442271803470    0.10013111235513    0.12529094531083
H        19.71766535195909    2.53670213431569   -1.07097252677888
H        21.65010239316750    4.30960740226321   -0.69705888343298
H        22.89912442105730    0.57340891402136    1.17468899964542
H        23.77635164270041    4.35296051199389    1.04624308628128
C        61.55010899517524   -3.49649358724633    0.82659429253859
C        60.64822921564510   -2.55127817864356    0.61611136529220
C        61.31965682173614   -1.29870554422365    0.30185475439980
C        60.95111134107460   -0.00167557290782    0.00272708642341
C        61.77312363218902    1.13024051435630   -0.09328774316931
C        61.32428607790059    2.35133893553684    0.47426410086269
C        62.29890629308720    3.28164816726109    0.26200995809125
C        63.33552328654963    2.60984271530077   -0.43436212416294
N        62.99901051834870    1.31611433976358   -0.63883651774209
C        64.49607995256508    3.32964906227667   -0.77437299865650
C        65.80867712829048    2.87906622332813   -0.65520202037403
C        67.12006937784535    3.49216010990026   -0.75886288933978
C        68.04539631999023    2.54355774632905   -0.54079197441232
C        67.33949767240726    1.30073506538103   -0.28914606782293
N        66.01928421934593    1.57376593857469   -0.37286951641290
C        67.74628352325526    0.00510178996188   -0.00916004726898
C        66.91808200849361   -1.13305087474247    0.07662853718172
C        67.34881919077978   -2.34584678188987   -0.51921838594077
C        66.35213079574551   -3.26071678714439   -0.31730717897190
C        65.33285183343119   -2.58391511714969    0.39947116663308
N        65.69642015644406   -1.30241984903401    0.62502574178733
C        64.16255038613457   -3.28744482643079    0.73116981630085
C        62.85132181928667   -2.87077503297387    0.65357304366948
N        62.66198360821134   -1.56633386984932    0.34249498686857
H        61.37869877404595   -4.52073019887092    1.07515086261854
H        59.58393615752866   -2.67708374873443    0.66758572339788
H        60.37093792002961    2.53811629886404    0.98805116291322
H        62.26533038043596    4.33515910085830    0.57613972452306
H        63.59234557246744    0.55713382984269   -1.16848528437643
H        64.40042581817050    4.35728606838153   -1.15699258602395
H        67.31818258754382    4.54331578296832   -0.97637607888702
H        69.11082702315699    2.73234719688851   -0.56187633242114
H        68.81916685533123   -0.09030306073213    0.12628178331443
H        68.29592406026472   -2.53916708513983   -1.04461260122246
H        66.36348622548054   -4.30809422062493   -0.65230658661135
H        65.11446504670238   -0.55265805297056    1.18053589455788
H        64.23723672788248   -4.33333836480536    1.09135282798700
C        29.44344877175687    0.00065551780302    0.00044119032662
C        30.66273111438554    0.00880578274250    0.00243647278444
C        32.03541905302600    0.01140738557820    0.00732686665502
C        33.19218027809831    0.00870186084532    0.00040518188000
C        42.19551503412027   -0.00143954158994    0.00099109227155
C        43.34746794259588    0.00734713917583    0.00141081446736
C        44.66640029218241    0.01206392860873    0.00721499831946
C        45.82557278101831    0.00912149051084    0.00076699595825
C        54.82854467796003   -0.00100018329838    0.00100989357930
C        55.97828376275703    0.00787591096121    0.00148737601253
C        57.34766033956979    0.01092096789197    0.00720705710790
C        58.57051893310913    0.00352472704902    0.00020084562139
C        34.90399823608562   -3.59611055858182   -0.00003836746568
C        34.01654163861796   -2.59833876689332   -0.00973728487064
C        34.72180546090883   -1.33609895561334    0.00473541519563
C        34.39731788348933   -0.00782058353868   -0.00165630695559
C        35.12290465021272    1.14321022305215   -0.15828361414452
C        34.62979910138804    2.19188566740081   -0.96702505796525
C        35.61778377578234    3.13921745345042   -0.95864013711186
C        36.66761702543916    2.64047309250326   -0.14703908934385
N        36.33403688771600    1.42496076328881    0.32922532548226
C        37.83403882032303    3.41384431693597    0.00985095628926
C        39.14604638902855    2.95243885799731   -0.01925981141211
C        40.45624394615987    3.58799834912053   -0.08176719685488
C        41.37809681056508    2.62318014570731   -0.08542832146868
C        40.67364296132484    1.35392335330934   -0.02749997074649
N        39.37933150402312    1.62375019123068    0.00824699434575
C        40.99424468609334   -0.00036809266770   -0.00277205692020
C        40.25327346614625   -1.12409711183193    0.18381240990965
C        40.71094055513377   -2.14897745913428    1.04338738488594
C        39.71133166927216   -3.07854710548401    1.04861456165486
C        38.68606479245170   -2.60130895339171    0.19642236531601
N        39.04793600553442   -1.41049305752578   -0.31833212572372
C        37.52524711222544   -3.37626776382560    0.03577709899662
C        36.21249627056027   -2.94695269314431    0.01939589940680
N        36.03720070978303   -1.60977319878806    0.02294949435185
H        34.73042756333239   -4.65593961249485   -0.00503843198811
H        32.93778744647046   -2.78239864546857   -0.02685031965398
H        33.67030078872897    2.26540204560142   -1.49952173837755
H        35.58095062688350    4.10236657574929   -1.48924235757728
H        36.92771451874374    0.79635390145089    1.00609399502046
H        37.76855033826504    4.49617301793826    0.14903515941316
H        40.67592600721980    4.64857377250106   -0.12082793654487
H        42.44890241737466    2.77094572658613   -0.12482883527584
H        41.65980531145599   -2.21249739127150    1.59885763125983
H        39.73524077758275   -4.01572417102889    1.62147987238461
H        38.47461593983899   -0.79948274781077   -1.02958782940844
H        37.59462996829826   -4.47799308407559   -0.07290915286327
C        47.53416999928869   -3.59636457581994   -0.00003949148418
C        46.64680184576208   -2.59843225117679   -0.00977337743276
C        47.35338634269227   -1.33735223425406    0.00458264049996
C        47.02652220111393   -0.00761107421602   -0.00148000360615
C        47.75353943348087    1.14403994946539   -0.15856163393022
C        47.26012042007768    2.19160287270288   -0.96713825279206
C        48.24798928607757    3.13941141026872   -0.95851393989196
C        49.29779396839061    2.64075583772514   -0.14707762727322
N        48.96392257532705    1.42495304973079    0.32917509810806
C        50.46370948376720    3.41388475448076    0.00980734979278
C        51.77658648340423    2.95180268423280   -0.01921675898773
C        53.08638462321477    3.58776268362751   -0.08177701875996
C        54.00834220177117    2.62305703230761   -0.08543154064473
C        53.30509506419357    1.35283412110885   -0.02774565384603
N        52.00872297614063    1.62423239907003    0.00833097777241
C        53.62346930175399   -0.00020399544340   -0.00261451720376
C        52.88389973902665   -1.12328081884893    0.18364581227900
C        53.34125900441531   -2.14931029560511    1.04328550892883
C        52.34153989923730   -3.07835949538790    1.04874187455482
C        51.31625431298843   -2.60102927658231    0.19636924359650
N        51.67783199897916   -1.41048851061904   -0.31835701830036
C        50.15487904838368   -3.37622199914646    0.03570398200780
C        48.84304211042581   -2.94764465940527    0.01946574804365
N        48.66647170189034   -1.60921788378047    0.02299999680125
H        47.36053041062161   -4.65599280834571   -0.00502611903684
H        45.56793937079110   -2.78232117106262   -0.02684839177557
H        46.30044970436518    2.26534175097077   -1.49949097942417
H        48.21106244838541    4.10242034899422   -1.48921754184817
H        49.55773638228327    0.79637042755567    1.00609501377727
H        50.39866044972923    4.49618793816827    0.14899927349963
H        53.30603015821942    4.64852343894505   -0.12081766225724
H        55.07905022266181    2.77102414547104   -0.12484984952302
H        54.28994508429232   -2.21255628110855    1.59889114278926
H        52.36534863951344   -4.01567061597687    1.62150632832559
H        51.10464575623911   -0.79946482235913   -1.02958708851644
H        50.22474157199999   -4.47797677121135   -0.07295887984935
158
 energy: -268.132394477113 gnorm: 0.418425134297 xtb: 6.4.1 (bd6e46d)
C        26.45750298841286    3.51169839995711    0.79247618008644
C        27.37742975407182    2.56174878457709    0.58511580439725
C        26.69408785194056    1.31319900483956    0.28014938146968
C        27.09644049944587    0.02507980209385    0.00458397775733
C        26.27309070737816   -1.11419422818607   -0.07950401335131
C        26.70061851076735   -2.34175566273866    0.49543880248614
C        25.72144933317800   -3.27193309046362    0.28550303435133
C        24.67455104496168   -2.61431280770995   -0.41300104957133
N        25.02206233502589   -1.30949541377727   -0.61974596830241
C        23.50409408305525   -3.32987714589466   -0.74789755068067
C        22.20285648521424   -2.85840161151411   -0.63502729142575
C        20.89521564611116   -3.49710566835270   -0.72831707081243
C        19.96690330096638   -2.54447907732889   -0.51189739046733
C        20.68929157843069   -1.30189145794549   -0.26407190025437
N        22.00981823923682   -1.55470909679881   -0.35232572784776
C        20.26332415338978   -0.01036864613986   -0.00418723084735
C        21.08244423129466    1.13657191053359    0.06361827620719
C        20.65804594597634    2.35172724032672   -0.53477630439251
C        21.65590898826237    3.26923693243144   -0.34147248355504
C        22.68694003476561    2.61031872489993    0.37647232163919
N        22.32233487859366    1.31553293589330    0.60050967945078
C        23.86119473808666    3.31258717728911    0.70781405377965
C        25.16361587120148    2.86228972135869    0.62995041091800
N        25.35151699596324    1.55962593776944    0.32425588726182
H        26.63003219919809    4.54223781787623    1.02929320711238
H        28.43829641129543    2.68862844193595    0.63825016806228
H        27.63696018826664   -2.51338429706311    1.01131107621076
H        25.74262005794550   -4.30766701032635    0.61518892586177
H        24.44295848796840   -0.58730817570421   -1.13422674062967
H        23.61459821731762   -4.36016749281406   -1.09309771399061
H        20.70020242671324   -4.54162810407736   -0.92944893332672
H        18.90370469410350   -2.72180414332322   -0.53111904123397
H        19.19243210754897    0.10706421148093    0.11117716977395
H        19.72690161474619    2.52896891472549   -1.06522085667859
H        21.65521250930110    4.29771096611403   -0.69167444384711
H        22.88015511808558    0.59973639245935    1.14478775448974
H        23.77041213205482    4.35419070371127    1.03017684009010
C        61.55609473190874   -3.49478208235491    0.82888395080201
C        60.63619440328954   -2.54701931717815    0.61172209571573
C        61.31957141722980   -1.30177257351647    0.29382312595639
C        60.91734776538530   -0.01655987703973    0.00543372687183
C        61.74050443731936    1.12179559803400   -0.09098772047635
C        61.31299870676468    2.35530755739106    0.47111574089202
C        62.29212360662054    3.28325199105584    0.25146002111164
C        63.33902007705336    2.61838731023210   -0.44019730150321
N        62.99148128722027    1.31151606494855   -0.63341499414132
C        64.50948475342481    3.33044645365057   -0.78247084196468
C        65.81073116788797    2.86016041912773   -0.66471790753840
C        67.11837563341815    3.49786980532830   -0.76463128459800
C        68.04668763868158    2.54754614041917   -0.53833089076312
C        67.32430515991322    1.30759051113895   -0.27761821543933
N        66.00376334271233    1.55949088804374   -0.36848326586391
C        67.75026911727912    0.01885793186742   -0.00432598345505
C        66.93114190525763   -1.12733646875773    0.07538242490893
C        67.35553998642767   -2.34862307844675   -0.51035777444827
C        66.35766746794809   -3.26408675553279   -0.30753348328949
C        65.32665674243320   -2.59775067553048    0.40352518509192
N        65.69125991788478   -1.30071096985416    0.61411667697869
C        64.15239037910062   -3.29654516588118    0.74216190567508
C        62.84999005161029   -2.84711708011095    0.65958950087959
N        62.66209574132710   -1.54769234887941    0.34037880261689
H        61.38356033456404   -4.52280242521154    1.07637417496192
H        59.57531064019089   -2.67333168990827    0.66604532644739
H        60.37663586458313    2.53229453783576    0.98512724405825
H        62.27096224685010    4.32235273061522    0.57036928096533
H        63.57061358692221    0.58401252252282   -1.14031215769643
H        64.39898703337531    4.35709916502522   -1.13834449717086
H        67.31338646111129    4.54024856445717   -0.97660335022365
H        69.10988584446153    2.72466213741744   -0.55939386571512
H        68.82115835389786   -0.09738054563040    0.11225660134736
H        68.28668649879424   -2.53137441477614   -1.03892737476689
H        66.35837518474411   -4.29614284437903   -0.64703351589237
H        65.13343543551179   -0.57929327696428    1.15091708019308
H        64.24318154901846   -4.33474015768806    1.07532065366831
C        29.37715259408790   -0.00700756974953    0.00386618598961
C        30.59736683258284    0.00580673732419    0.00445150210469
C        31.94426377825627    0.01463176843802    0.00499898724614
C        33.15443749538598    0.01760632996614   -0.00274184798766
C        42.19438519731543   -0.00509431667375    0.01022132966304
C        43.38519983295828    0.00229918404312    0.00000124827868
C        44.63343559448314    0.01678280174838    0.00476547080926
C        45.82163328613754    0.01945129884760   -0.00169305521240
C        54.86049483346657   -0.00381048010643    0.01055968204008
C        56.07237393622130    0.00373271290307   -0.00083941615240
C        57.41652853279999    0.01374822968570    0.00705698255661
C        58.63685968022270    0.01182169222840    0.00240676329235
C        34.91410578072778   -3.59772071296318   -0.00288314523496
C        34.01032147269798   -2.60257985311773   -0.00683843778735
C        34.75213867482821   -1.35606743970053    0.01506994809687
C        34.41487843933901   -0.01688810993826   -0.00211427490462
C        35.13103244122908    1.14602822449012   -0.16307259900509
C        34.63235340956589    2.19942715990001   -0.96056079267966
C        35.61753852014078    3.15138131374492   -0.95056486379219
C        36.67907134662774    2.66310015558567   -0.14589631447554
N        36.35270247326702    1.43079820474620    0.32134049595359
C        37.85004734851505    3.42797278756995    0.01725558549634
C        39.14338954542733    2.95237382461968   -0.00730016514972
C        40.45176245959271    3.59761722647781   -0.07721922108200
C        41.37762219191843    2.62230317615408   -0.08789549455272
C        40.63202951670646    1.37230188754540   -0.03901677161141
N        39.34133121334024    1.62136464274423    0.00383665734803
C        40.95317192295307    0.01515002336427   -0.00518143613071
C        40.23438380652612   -1.12936292291796    0.19004958523136
C        40.70823922583072   -2.15546462207536    1.03718094842135
C        39.71262092734445   -3.09311952629525    1.04216365358042
C        38.67525805819688   -2.62760218872138    0.19611183711603
N        39.02474252489230   -1.41845485382992   -0.31080538495498
C        37.51452538171257   -3.39954087059646    0.02687677648858
C        36.21936263721651   -2.94360216544822    0.00724641684950
N        36.05691559182572   -1.61015290152761    0.02557710312107
H        34.73444353730307   -4.65570859637077   -0.00564792306761
H        32.94043686864391   -2.77165145268989   -0.02614635063345
H        33.68348546699752    2.25766733329368   -1.49075858402397
H        35.58688513685983    4.09539827330149   -1.48289467896428
H        36.91366759415030    0.81908039813611    0.97393323541972
H        37.76352954230358    4.50172534495327    0.13305118566729
H        40.66942884781160    4.65058496443445   -0.11996044123116
H        42.44623930764241    2.76372689326306   -0.12538543136212
H        41.64642873338207   -2.20377065125370    1.58891094028417
H        39.72875230762060   -4.01118427920842    1.61531731384956
H        38.48682505400511   -0.82236194785191   -0.99649051167555
H        37.60321837769111   -4.48184832459105   -0.05740964685042
C        47.54479721176759   -3.59879311901993   -0.00286543482139
C        46.64226761445357   -2.60237084296757   -0.00696858173727
C        47.39278624718300   -1.35988284043318    0.01432389738569
C        47.06704539311223   -0.01706952791614   -0.00179860384724
C        47.77083256141228    1.14833284624668   -0.16526609671392
C        47.26463224884468    2.19870164420265   -0.96084857622247