333
 energy: -577.354313141440 gnorm: 0.000315537360 xtb: 6.4.1 (bd6e46d)
Zn       68.07817287761192    0.02877346865027   -0.01054584963134
C        70.56765740905054    0.25620301183227    3.44687736611449
C        71.53254371981782    0.20017091914281    2.49751825050196
C        70.86036749165018    0.09580883222028    1.23367692186442
C        71.51423156017147    0.00803562679441   -0.00489338815644
C        70.86359684520050   -0.08002896275220   -1.24522529620480
C        71.53896412318332   -0.20098656247171   -2.50593499926409
C        70.57667683947585   -0.25459915234915   -3.45808080247226
C        69.31590505917382   -0.17075617093350   -2.77685341162899
N        69.52195964538842   -0.07015799886245   -1.43382840727425
C        68.08263233547116   -0.18957117128788   -3.40679267500681
C        66.84823571088275   -0.12366488416497   -2.78263279528357
C        65.58348684426805   -0.14227601559363   -3.46646831237088
C        64.62481733269097   -0.06678883184045   -2.51423349098805
C        65.30311653831733   -0.00336707160707   -1.24757338619625
N        66.64734320177512   -0.03784012121141   -1.44141350175752
C        64.66904854146307    0.07531749225244   -0.01834177690818
C        65.29932240500439    0.13300117529130    1.21398753503223
C        64.61736165913864    0.21096610044939    2.47784976449909
C        65.57340965594206    0.25227881727463    3.43481135693660
C        66.84021918178362    0.20035944582968    2.75652197520267
N        66.64308541220755    0.12689458840097    1.41401111476687
C        68.07323867401986    0.23175760035063    3.38606635570045
C        69.30838729548326    0.19354012371176    2.76063963194471
N        69.51797047216483    0.09911774942377    1.41769388041158
H        70.68290769012283    0.33694156023200    4.51059917673070
H        72.59711168580249    0.23836004299047    2.62300900769790
H        72.60349402041133   -0.25207037065691   -2.62733358862934
H        70.69464032320001   -0.34530082414399   -4.52069851485209
H        68.08507998703487   -0.26417814934808   -4.48540260648371
H        65.46469735443877   -0.20456381541812   -4.53122857219005
H        63.55890665464668   -0.05481239538213   -2.63822504571223
H        63.58816072462486    0.09177249023609   -0.02096389900451
H        63.55101355507976    0.23091046046847    2.59700670211745
H        65.45149309154603    0.31284579134694    4.49932477461188
H        68.07300201435019    0.29891220550816    4.46517507884711
Zn      155.28374218973306    0.03655296166564   -0.01596452881586
C       152.78070888533964    0.27335653330828    3.43156534322220
C       151.81950717591536    0.19394919602630    2.48013733110230
C       152.49656755080630    0.12598414232399    1.21635395135028
C       151.84740316888070    0.03621757895485   -0.02457000468988
C       152.50256520847188   -0.05557428607269   -1.26215744103276
C       151.83180378913829   -0.12662516190278   -2.52909641190458
C       152.79767936022679   -0.21120084382317   -3.47532893768674
C       154.05607252688949   -0.18504691330387   -2.78507225626592
N       153.84501943671268   -0.08647043404329   -1.44268610355000
C       155.29190617847436   -0.24788649473136   -3.40710945119025
C       156.52414554304218   -0.20233739642753   -2.77689288159547
C       157.79173115402517   -0.26303426189815   -3.45295442514196
C       158.74685828542061   -0.17770810735845   -2.49800121543713
C       158.06355934482116   -0.06540324828629   -1.23747214590413
N       156.71989092529029   -0.08461164519032   -1.43731877616328
C       158.69280017064548    0.04709724674001   -0.00839604767061
C       158.05759079904044    0.15260966486543    1.21821246991454
C       158.73459323337909    0.26336776611164    2.48229442996623
C       157.77473891580360    0.33625625870490    3.43355522343465
C       156.51056119075454    0.27134702852885    2.75150180631033
N       156.71295956155447    0.16180532273926    1.41224320137689
C       155.27519028785687    0.30919877360436    3.37607325152087
C       154.04253283458408    0.24836663037269    2.74757019130259
N       153.83813002642299    0.15492155929990    1.40376796209394
H       152.66140350152068    0.33908659828315    4.49587018111892
H       150.75456975095724    0.16826250608918    2.60590216968642
H       150.76755075393206   -0.09965642242824   -2.66026275042343
H       152.68366432802873   -0.28058921854528   -4.53998246863389
H       155.29354229387226   -0.33548233701406   -4.48474215989560
H       157.91471933917427   -0.35781508939876   -4.51483384578101
H       159.81340675877013   -0.18774429569148   -2.61656230925857
H       159.77380457165032    0.05152482894672   -0.00618528076336
H       159.80051333567170    0.28031691026702    2.60561162479203
H       157.89246040723890    0.42536567127254    4.49653441460683
H       155.27134898636604    0.39078229213398    4.45417851970373
C        72.91796775465173    0.00965827835719   -0.00413109610532
C        74.13082031142432    0.01645601141902   -0.00733247288703
C        83.81597890265040    0.05742634624644   -0.03096367740793
C        85.02937324748618    0.05653249502970   -0.03614223336933
C        94.71766180723607    0.04876512801039   -0.02258990183128
C        95.93132294491376    0.04838710976445   -0.02003426576425
C       105.62146974746868    0.03385674638867   -0.01572801659372
C       106.83523679909072    0.03295310287382   -0.01672233312602
C       116.52607166017884    0.04710732966523   -0.03462439354266
C       117.73985846004095    0.05148669906091   -0.03544417435203
C       127.43025849522355    0.05270799867881   -0.01093917265213
C       128.64396681721584    0.05246375460778   -0.01004679538509
C       138.33226761827547    0.03664407628859   -0.01588406674940
C       139.54566734165448    0.03431660898958   -0.01796024755096
C       149.23080891250979    0.03741388299012   -0.03165268339935
C       150.44366306593631    0.03737250661097   -0.02766441645147
Zn       78.97251082798583    0.04351370186341   -0.01689216195462
C        76.49442512175069   -1.49883574146385    3.09308723656997
C        75.52619304229937   -1.10538548202524    2.23068128093157
C        76.19321720523423   -0.52073333657612    1.10276318019195
C        75.53411048639055    0.02462669263345   -0.00981133846643
C        76.18251433641167    0.57873731868902   -1.12440936254889
C        75.50457201809976    1.15839189169052   -2.24845645001178
C        76.46505744855615    1.56508333642024   -3.11342563036853
C        77.72649651139628    1.23814124668128   -2.51288044088755
N        77.52378567175612    0.64598100455259   -1.30255807702611
C        78.95890103714886    1.48420904831845   -3.09370356015230
C        80.19605186629242    1.19752471151548   -2.54267278489276
C        81.45132531758132    1.44804006409038   -3.19088904777354
C        82.41971187834606    1.04209580472003   -2.33453058290078
C        81.75332064489575    0.55237988631472   -1.16200248994325
N        80.41065345854405    0.64729571355640   -1.31449047608193
C        82.41313095145757    0.05585558196195   -0.02655975056093
C        81.76323487674857   -0.44216262512367    1.11407095585904
C        82.43991793876040   -0.92186630976774    2.28490884761041
C        81.47946268760354   -1.33158062410612    3.14837322528743
C        80.21877960973508   -1.09413820996529    2.50582576257795
N        80.42229254398642   -0.54674112439790    1.27447128093820
C        78.98696456017555   -1.39080430494518    3.06339202721229
C        77.74976764748963   -1.15931429613557    2.48680641969582
N        77.53582198351488   -0.57239717723830    1.27588257626567
H        76.38341431579924   -1.97649669134561    4.04741801238391
H        74.46273409524638   -1.20577244466680    2.32771643659816
H        74.43965976085705    1.24690427633073   -2.34139201298403
H        76.34494769606225    2.04383011252515   -4.06611857531047
H        78.95471006289800    1.94323523174912   -4.07269581079066
H        81.56208810276101    1.87306036239147   -4.16982804501729
H        83.48299490551125    1.05328348762398   -2.47397842015105
H        83.50395178812386   -0.92345522645556    2.41896680433696
H        81.59898752480839   -1.75115163456089    4.12862943355225
H        78.99138667897496   -1.84675510777509    4.04381201764843
Zn       89.87305502386637    0.05182084413360   -0.03062380641827
C        87.37599035063238   -2.60828017237039    2.17705069146632
C        86.41277354772998   -1.89906374674538    1.54036121254619
C        87.08541861752164   -0.90437173265011    0.75506452549586
C        86.43216810083354    0.05463467284610   -0.03550230864506
C        87.08936538137043    1.01208174857620   -0.82459289279655
C        86.42050577063985    2.00795277927825   -1.61160509746304
C        87.38664176928791    2.71634791626756   -2.24476804402252
C        88.64291113597515    2.15606785737189   -1.83697415454504
N        88.43142447669473    1.12875740432478   -0.96698761072971
C        89.87834888560805    2.59373976691063   -2.28279592344626
C        91.11161200534784    2.09469739285745   -1.90006076193512
C        92.36968664575321    2.56213701550837   -2.40703731412823
C        93.33291905903124    1.84479396852850   -1.77963710873150
C        92.66088208134181    0.94719280721895   -0.88463012998156
N        91.31940200347819    1.10696686394080   -0.98434404971704
C        93.31488478519660    0.04963586757135   -0.02505999226880
C        92.65688306303659   -0.84709939590345    0.83232404198005
C        93.32480427559992   -1.74539635417455    1.72969722575355
C        92.35861404789338   -2.46122783677086    2.35424653205231
C        91.10281995752946   -1.99216137484850    1.84316882503690
N        91.31486848755517   -1.00507408183621    0.92774231296438
C        89.86771029571598   -2.48914058331536    2.22257526699945
C        88.63425952413751   -2.04999732059304    1.77277418598426
N        88.42688136332416   -1.02297626809581    0.90144941620183
H        87.25960219871040   -3.43299000276725    2.85346726236153
H        85.34939232814052   -2.03327171515577    1.57708237566198
H        85.35736274860984    2.14318806275683   -1.65185704623767
H        87.27354122257347    3.54179422577852   -2.92083654925728
H        89.88015448029184    3.40322547895765   -2.99966568097591
H        92.48582903435366    3.33193106644054   -3.14538091532709
H        94.39602745732728    1.89609291483165   -1.91030489396382
H        94.38739516794554   -1.79803939889901    1.86387929155008
H        92.47133415450810   -3.23097188736845    3.09317153381092
H        89.86624529664506   -3.29805860531665    2.94009046990817
Zn      100.77609183742516    0.04235792912423   -0.01398411005796
C        98.28025038339030   -3.21364952530345    1.14579077517348
C        97.31696315907408   -2.33196369885833    0.78407103221786
C        97.98833091155737   -1.12607527158637    0.39252986147723
C        97.33406536344616    0.04693427545778   -0.01764490476988
C        97.99228572389983    1.21860581181641   -0.42526371415858
C        97.32485989401462    2.42667024067406   -0.81689031017534
C        98.29124973500754    3.30645655876729   -1.17495942589728
C        99.54659089229708    2.63624714955366   -0.99298708869394
N        99.33426206600245    1.37383985914092   -0.52565257263997
C       100.78162728289348    3.19458670970599   -1.27498181701792
C       102.01449436496920    2.59155477438854   -1.09360739326502
C       103.27178901244899    3.19757779268897   -1.42537314138328
C       104.23506674234733    2.30963425720347   -1.07935783684647
C       103.56403590440190    1.16744740905741   -0.52861372797815
N       102.22273659374825    1.35427872703183   -0.56155423061584
C       104.21871409495554    0.03598945938423   -0.01493460080441
C       103.56028474834105   -1.09278328573384    0.49967905975980
C       104.22749124448396   -2.23729803036122    1.05022544500223
C       103.26106710320312   -3.12103008688830    1.39828659719443
C       102.00576936559021   -2.51027800165747    1.06754389406089
N       102.21827782485344   -1.27421172701562    0.53438017170814
C       100.77076948499935   -3.10876210731829    1.24956384896081
C        99.53773575786444   -2.54697543790536    0.96559565254154
N        99.32967800509857   -1.28458143480204    0.49632552343358
H        98.16439517311991   -4.22059686747225    1.49771564786291
H        96.25430811417617   -2.47432978413852    0.76433237068535
H        96.26248565690753    2.57157083734719   -0.79966180097082
H        98.17882622206395    4.31418894141134   -1.52575580962017
H       100.78347409343678    4.19859090879551   -1.67642920526545
H       103.38752056242220    4.16881062527785   -1.86645149214758
H       105.29749212922195    2.39829672391610   -1.19401500631892
H       105.28980229821720   -2.33035711436050    1.16281004149348
H       103.37338772912464   -4.09244889864863    1.83981988019929
H       100.76903710749311   -4.11229334376078    1.65220333331954
Zn      111.68064945574922    0.03925127736284   -0.02816677783850
C       109.19566614922249   -3.42373607824049    0.05502814356515
C       108.22922452900330   -2.47611036859983   -0.00939626861858
C       108.89639144868552   -1.20607716706320   -0.00227780844776
C       108.23797629431689    0.03437023703212   -0.01970648988215
C       108.89283056634235    1.27669762480030   -0.04061301823479
C       108.22219264994288    2.54487602688695   -0.03062853671122
C       109.18553544775629    3.49514183151862   -0.10176223078054
C       110.44248322824430    2.80502818350938   -0.14530050848514
N       110.23405256934741    1.45923364609720   -0.09434317752282
C       111.67522072212300    3.42700608728594   -0.24545608288032
C       112.90993371985005    2.80122323626257   -0.26491267145203
C       114.16481538851836    3.48412214632344   -0.39511089437744
C       115.13112337907539    2.53564411244185   -0.34302341420205
C       114.46438148867460    1.27697926737624   -0.17187290700040
N       113.12254212329229    1.46058991458446   -0.14326068533179
C       115.12333002669999    0.04437503559313   -0.03328956067585
C       114.46879312173429   -1.19037122400775    0.10684947272283
C       115.13962810420375   -2.44707856342414    0.27645864165086
C       114.17615601739287   -3.39835169645975    0.33073528382832
C       112.91892650218304   -2.71913084242315    0.20354510315238
N       113.12738387778168   -1.37790980296343    0.08148257958408
C       111.68594347061190   -3.34852241650889    0.18727670814442
C       110.45093242631555   -2.73014076945873    0.09259003083633
N       110.23840737185981   -1.38488297530934    0.04403667075810
H       109.08328402158398   -4.49064814864262    0.07216294822305
H       107.16692283580991   -2.60845960642826   -0.07148064038795
H       107.16000423157405    2.67443689004418    0.03816006921708
H       109.07009113355167    4.56170784755221   -0.11962931786193
H       111.67351742247779    4.50606378811996   -0.31484797238571
H       114.27705288408644    4.54458707033964   -0.51354832182861
H       116.19301628076006    2.65869583659210   -0.42646415657090
H       116.20209662656801   -2.56715319701614    0.35736412360163
H       114.29170677006189   -4.45846104824292    0.44922672476596
H       111.68769610024596   -4.42765389740696    0.25568102259242
Zn      122.58522443419010    0.05440300991471   -0.02810901030191
C       120.09812560929532   -3.26408464753984   -1.01592823446244
C       119.13259188313521   -2.34010618590830   -0.79208111565056
C       119.80041682704412   -1.13424176704991   -0.39453123470709
C       119.14260399977535    0.05371896359318   -0.03566127487940
C       119.79820284756704    1.24302549955736    0.32261433882764
C       119.12829496919902    2.45050560971706    0.71157676669973
C       120.09249634191409    3.37601174271304    0.93482156891555
C       121.34931266781366    2.72850970104334    0.69139740624195
N       121.13981564645663    1.43058614282755    0.33253646017738
C       122.58294803268950    3.34876354623992    0.79146428564458
C       123.81760412628070    2.75521346749733    0.59167708308259
C       125.07378727598982    3.44204469705532    0.68364249794568
C       126.03931473237512    2.52005442897658    0.45164046507567
C       125.37060343714670    1.27078911933387    0.22726878081497
N       124.02868629330045    1.44042946152773    0.30193740329590
C       126.02753324776261    0.05317915803691   -0.01401286759213
C       125.37162580589079   -1.16398977252400   -0.26044822090135
C       126.04118745952881   -2.41373600418188   -0.47951988641465
C       125.07704364692168   -3.33432842705796   -0.72257253923233
C       123.82077590778839   -2.64625882809747   -0.64220359938251
N       124.03031731937131   -1.33220962853931   -0.34803206158892
C       122.58759347749050   -3.23811275690094   -0.85564585818887
C       121.35354968789292   -2.61764294106632   -0.76272465479514
N       121.14206023708293   -1.32128734790913   -0.39930993264044
H       119.98507079248623   -4.28499058178414   -1.32607817052051
H       118.07060552847490   -2.44486931248263   -0.89688355960878
H       118.06584026804364    2.55562902306838    0.81097808369584
H       119.97770627017479    4.39859939096157    1.23871884797241
H       122.58210347786638    4.39827139747249    1.05170800650903
H       125.18735108349260    4.48805865374378    0.89384107404693
H       127.10196374294449    2.65960982405325    0.41754339750635
H       127.10322464667932   -2.55472114277593   -0.43420223490986
H       125.19153876687754   -4.38023344604358   -0.93277788694052
H       122.58834522508971   -4.28659382992138   -1.11999473896730
Zn      133.48867946872053    0.04443173129622   -0.01232351203858
C       130.99202245154436   -2.78422359920216   -1.99850283922107
C       130.02897067762672   -1.98084477605322   -1.48555113157705
C       130.70081893195743   -0.96337676103816   -0.72946240953225
C       130.04672843093934    0.05034767935861   -0.01047416606551
C       130.70497457633573    1.06198094676639    0.70757840279993
C       130.03736031863193    2.08222981593588    1.46365363239675
C       131.00370267029308    2.88222627152627    1.97572236318482
C       132.25933925951762    2.34327409732290    1.53852643207428
N       132.04701453298074    1.23208295244758    0.77857696403602
C       133.49454855021870    2.89159433109091    1.83864312551333
C       134.72782824428532    2.39093316158238    1.45787553417578
C       135.98620859076834    3.00370813080250    1.77310365535480
C       136.94923383206495    2.20702668708670    1.24961119699087
C       136.27638201150015    1.10574100898251    0.62274016728228
N       134.93496287652434    1.24506004672376    0.75002423802211
C       136.92949089128334    0.03872990650665   -0.01469130096003
C       136.27209816669708   -1.02615392199595   -0.65123921949115
C       136.94053553284925   -2.12932893217103   -1.27950918828661
C       135.97421748649631   -2.92287807644762   -1.80166877957183
C       134.71826356304140   -2.30624796913807   -1.48428143910751
N       134.93007184715745   -1.16116408927469   -0.77655803038000
C       133.48282474893452   -2.80274925207582   -1.86341909467562
C       132.24990256249114   -2.25007795667933   -1.56191991349559
N       132.04218902376545   -1.13829128642153   -0.80155609815316
H       130.87587600483806   -3.65355235305082   -2.61655977309693
H       128.96615467443260   -2.04833375890897   -1.61077090640716
H       128.97483286426214    2.15391301366310    1.58918474995247
H       130.89114503278066    3.75220429686358    2.59353417958510
H       133.49628808850150    3.79823911537666    2.42785372895884
H       136.10276372023344    3.92067929199560    2.31790520248998
H       138.01264127276411    2.34516987394432    1.26543207030366
H       138.00348340083866   -2.27072311323524   -1.29702898668408
H       136.08704331134163   -3.84002708243474   -2.34695404485024
H       133.48068966527435   -3.70926892055262   -2.45281745618023
Zn      144.38863888320407    0.03626832694790   -0.02571636023528
C       141.89252743523105   -1.81674470557453   -2.94557133065964
C       140.92905108763745   -1.28595924647633   -2.15443083293867
C       141.60201965353511   -0.62906253173485   -1.07076736037500
C       140.94851757802215    0.03396265961855   -0.01978314288230
C       141.60465987991577    0.69724212954986    1.02941636429678
C       140.93445126637349    1.35239430273374    2.11586099126961
C       141.89984503606095    1.88483309850189    2.90353698412635
C       143.15707621948039    1.54676395155992    2.30052591476660
N       142.94664513197003    0.81956957407777    1.16730161830334
C       144.39221593244508    1.91786202470656    2.80351529568277
C       145.62632018230582    1.59488196094525    2.26561782813762
C       146.88544313094906    2.01383242429010    2.81139690482658
C       147.84881926196076    1.48938199485538    2.01585449168579
C       147.17496406139864    0.74644250887358    0.98967587763715
N       145.83322729285140    0.83152850967200    1.15607943981666
C       147.82748681191850    0.03800753941261   -0.03114367220047
C       147.17263822461777   -0.67004815979670   -1.05064788867114
C       147.84409630026781   -1.41097748427487   -2.07986752749007
C       146.87879024342763   -1.93590110141736   -2.87276200090566
C       145.62089245861807   -1.51933548372573   -2.32227577974844
N       145.83048137548693   -0.75665204598725   -1.21279519703372
C       144.38528122812005   -1.84438242385369   -2.85548234567691
C       143.15136937128122   -1.47606933900194   -2.34737777618318
N       142.94374565101884   -0.74919196887824   -1.21343190828849
H       141.77619864128772   -2.38191266420752   -3.85016260804833
H       139.86510511865197   -1.31497148777897   -2.28600704934342
H       139.87095700156144    1.37910824492453    2.25151173978851
H       141.78579487790250    2.44945294480225    3.80875816417759
H       144.39330073663351    2.51670343441423    3.70380573531129
H       147.00208363925884    2.62863720157455    3.68297408874598
H       148.91314522304253    1.59658597065422    2.09455603854146
H       148.90833937067373   -1.51630528029359   -2.16237320632643
H       146.99335801838387   -2.54950224183400   -3.74546704704167
H       144.38386369378816   -2.44280909015725   -3.75605430703885
