      -----------------------------------------------------------      
     |                   =====================                   |     
     |                           x T B                           |     
     |                   =====================                   |     
     |                         S. Grimme                         |     
     |          Mulliken Center for Theoretical Chemistry        |     
     |                    University of Bonn                     |     
      -----------------------------------------------------------      

   * xtb version 6.4.1 (bd6e46d) compiled by 'conda@4901f00b25ba' on 2021-06-10

   xtb is free software: you can redistribute it and/or modify it under
   the terms of the GNU Lesser General Public License as published by
   the Free Software Foundation, either version 3 of the License, or
   (at your option) any later version.
   
   xtb is distributed in the hope that it will be useful,
   but WITHOUT ANY WARRANTY; without even the implied warranty of
   MERCHANTABILITY or FITNESS FOR A PARTICULAR PURPOSE.  See the
   GNU Lesser General Public License for more details.
   
   Cite this work as:
   * C. Bannwarth, E. Caldeweyher, S. Ehlert, A. Hansen, P. Pracht,
     J. Seibert, S. Spicher, S. Grimme, WIREs Comput. Mol. Sci., 2020, 11,
     e01493. DOI: 10.1002/wcms.1493
   
   for GFN2-xTB:
   * C. Bannwarth, S. Ehlert and S. Grimme., J. Chem. Theory Comput., 2019,
     15, 1652-1671. DOI: 10.1021/acs.jctc.8b01176
   for GFN1-xTB:
   * S. Grimme, C. Bannwarth, P. Shushkov, J. Chem. Theory Comput., 2017,
     13, 1989-2009. DOI: 10.1021/acs.jctc.7b00118
   for GFN0-xTB:
   * P. Pracht, E. Caldeweyher, S. Ehlert, S. Grimme, ChemRxiv, 2019, preprint.
     DOI: 10.26434/chemrxiv.8326202.v1
   for GFN-FF:
   * S. Spicher and S. Grimme, Angew. Chem. Int. Ed., 2020, 59, 15665-15673.
     DOI: 10.1002/anie.202004239
   
   for DFT-D4:
   * E. Caldeweyher, C. Bannwarth and S. Grimme, J. Chem. Phys., 2017,
     147, 034112. DOI: 10.1063/1.4993215
   * E. Caldeweyher, S. Ehlert, A. Hansen, H. Neugebauer, S. Spicher,
     C. Bannwarth and S. Grimme, J. Chem. Phys., 2019, 150, 154122.
     DOI: 10.1063/1.5090222
   * E. Caldeweyher, J.-M. Mewes, S. Ehlert and S. Grimme, Phys. Chem. Chem. Phys.
     2020, 22, 8499-8512. DOI: 10.1039/D0CP00502A
   
   for sTDA-xTB:
   * S. Grimme and C. Bannwarth, J. Chem. Phys., 2016, 145, 054103.
     DOI: 10.1063/1.4959605
   
   in the mass-spec context:
   * V. Asgeirsson, C. Bauer and S. Grimme, Chem. Sci., 2017, 8, 4879.
     DOI: 10.1039/c7sc00601b
   * J. Koopman and S. Grimme, ACS Omega 2019, 4, 12, 15120-15133.
     DOI: 10.1021/acsomega.9b02011
   
   for metadynamics refer to:
   * S. Grimme, J. Chem. Theory Comput., 2019, 155, 2847-2862
     DOI: 10.1021/acs.jctc.9b00143
   
   for SPH calculations refer to:
   * S. Spicher and S. Grimme, J. Chem. Theory Comput., 2021, 17, 1701-1714
     DOI: 10.1021/acs.jctc.0c01306
   
   with help from (in alphabetical order)
   P. Atkinson, C. Bannwarth, F. Bohle, G. Brandenburg, E. Caldeweyher
   M. Checinski, S. Dohm, S. Ehlert, S. Ehrlich, I. Gerasimov, J. Koopman
   C. Lavigne, S. Lehtola, F. März, M. Müller, F. Musil, H. Neugebauer
   J. Pisarek, C. Plett, P. Pracht, J. Seibert, P. Shushkov, S. Spicher
   M. Stahn, M. Steiner, T. Strunk, J. Stückrath, T. Rose, and J. Unsleber
   
 * started run on 2021/11/21 at 14:44:01.434     

           -------------------------------------------------
          |                Calculation Setup                |
           -------------------------------------------------

          program call               : /home/jeff/miniconda3/bin/xtb input_structure_1.xyz --gfn 2 --ohess normal --parallel 1 --etemp 300 --chrg 0 --uhf 0 -I det_control.in
          hostname                   : jelfscompute1
          coordinate file            : input_structure_1.xyz
          omp threads                :                     1
          number of atoms            :                   310
          number of electrons        :                  1066
          charge                     :                     0
          spin                       :                   0.0
          first test random number   :      0.91338083808283

   ID    Z sym.   atoms
    1   27 Co     1, 37, 101, 136, 171, 206, 241, 276
    2    6 C      2-9, 11-15, 17-21, 23, 24, 38-45, 47-51, 53-57, 59, 60,
                  73-100, 102-109, 111-115, 117-121, 123, 124, 137-144,
                  146-150, 152-156, 158, 159, 172-179, 181-185, 187-191, 193,
                  194, 207-214, 216-220, 222-226, 228, 229, 242-249, 251-255,
                  257-261, 263, 264, 277-284, 286-290, 292-296, 298, 299
    3    7 N      10, 16, 22, 25, 46, 52, 58, 61, 110, 116, 122, 125, 145,
                  151, 157, 160, 180, 186, 192, 195, 215, 221, 227, 230, 250,
                  256, 262, 265, 285, 291, 297, 300
    4    1 H      26-36, 62-72, 126-135, 161-170, 196-205, 231-240, 266-275,
                  301-310

molecular fragmentation (1/2 indicates fragments):
111111111111111111111111111111111111222222222222222222222222222222222222
222222222222222222222222222222222222222222222222222222222222222222222222
222222222222222222222222222222222222222222222222222222222222222222222222
222222222222222222222222222222222222222222222222222222222222222222222222
2222222222222222222222
# atoms in fragment 1/2:    36   274
 fragment masses (1/2) :      366.26     2894.09
CMA distance (Bohr)    : 102.894
constraining FC (au)   :  0.0500

           -------------------------------------------------
          |                 G F N 2 - x T B                 |
           -------------------------------------------------

        Reference                      10.1021/acs.jctc.8b01176
      * Hamiltonian:
        H0-scaling (s, p, d)           1.850000    2.230000    2.230000
        zeta-weighting                 0.500000
      * Dispersion:
        s8                             2.700000
        a1                             0.520000
        a2                             5.000000
        s9                             5.000000
      * Repulsion:
        kExp                           1.500000    1.000000
        rExp                           1.000000
      * Coulomb:
        alpha                          2.000000
        third order                    shell-resolved
        anisotropic                    true
        a3                             3.000000
        a5                             4.000000
        cn-shift                       1.200000
        cn-exp                         4.000000
        max-rad                        5.000000


          ...................................................
          :                      SETUP                      :
          :.................................................:
          :  # basis functions                1042          :
          :  # atomic orbitals                1034          :
          :  # shells                          546          :
          :  # electrons                      1066          :
          :  max. iterations                   250          :
          :  Hamiltonian                  GFN2-xTB          :
          :  restarted?                      false          :
          :  GBSA solvation                  false          :
          :  PC potential                    false          :
          :  electronic temp.          300.0000000     K    :
          :  accuracy                    1.0000000          :
          :  -> integral cutoff          0.2500000E+02      :
          :  -> integral neglect         0.1000000E-07      :
          :  -> SCF convergence          0.1000000E-05 Eh   :
          :  -> wf. convergence          0.1000000E-03 e    :
          :  Broyden damping             0.4000000          :
          ...................................................

 iter      E             dE          RMSdq      gap      omega  full diag
   1   -570.8651699 -0.570865E+03  0.892E+00    0.00       0.0  T
   2   -504.0735392  0.667916E+02  0.131E+01    0.07       1.0  T
   3   -547.0977937 -0.430243E+02  0.790E+00    0.06       1.0  T
   4   -508.7580192  0.383398E+02  0.796E+00    0.04       1.0  T
   5    -72.2165269  0.436541E+03  0.153E+01    0.00       1.0  T
   6   -467.0531711 -0.394837E+03  0.741E+00    0.05       1.0  T
   7   -541.3088235 -0.742557E+02  0.596E+00    0.06       1.0  T
   8   -541.2571078  0.517158E-01  0.640E+00    0.05       1.0  T
   9   -561.1858481 -0.199287E+02  0.474E+00    0.03       1.0  T
  10   -560.6784697  0.507378E+00  0.516E+00    0.03       1.0  T
  11   -557.2218037  0.345667E+01  0.519E+00    0.06       1.0  T
  12   -561.2788339 -0.405703E+01  0.505E+00    0.06       1.0  T
  13   -572.1587160 -0.108799E+02  0.367E+00    0.00       1.0  T
  14   -572.5941849 -0.435469E+00  0.337E+00    0.08       1.0  T
  15   -572.9201473 -0.325962E+00  0.320E+00    0.03       1.0  T
  16   -572.6980252  0.222122E+00  0.325E+00    0.03       1.0  T
  17   -572.6999018 -0.187664E-02  0.329E+00    0.04       1.0  T
  18   -572.5898072  0.110095E+00  0.329E+00    0.06       1.0  T
  19   -572.5058802  0.839270E-01  0.330E+00    0.04       1.0  T
  20   -571.7313482  0.774532E+00  0.326E+00    0.06       1.0  T
  21   -572.4548260 -0.723478E+00  0.323E+00    0.06       1.0  T
  22   -572.4720901 -0.172640E-01  0.280E+00    0.01       1.0  T
  23   -572.1086154  0.363475E+00  0.286E+00    0.03       1.0  T
  24   -571.8010167  0.307599E+00  0.294E+00    0.00       1.0  T
  25   -571.6383229  0.162694E+00  0.283E+00    0.04       1.0  T
  26   -571.8057331 -0.167410E+00  0.273E+00    0.01       1.0  T
  27   -572.5431345 -0.737401E+00  0.264E+00    0.00       1.0  T
  28   -569.5346315  0.300850E+01  0.275E+00    0.01       1.0  T
  29   -569.7845802 -0.249949E+00  0.270E+00    0.01       1.0  T
  30   -569.7504465  0.341336E-01  0.270E+00    0.01       1.0  T
  31   -564.5207669  0.522968E+01  0.400E+00    0.02       1.0  T
  32   -572.4476349 -0.792687E+01  0.241E+00    0.01       1.0  T
  33   -564.3744334  0.807320E+01  0.421E+00    0.05       1.0  T
  34   -560.4357595  0.393867E+01  0.466E+00    0.00       1.0  T
  35   -561.4633925 -0.102763E+01  0.462E+00    0.01       1.0  T
  36   -561.4783259 -0.149334E-01  0.460E+00    0.01       1.0  T
  37   -561.6344070 -0.156081E+00  0.456E+00    0.03       1.0  T
  38   -562.1117281 -0.477321E+00  0.450E+00    0.01       1.0  T
  39   -562.6211375 -0.509409E+00  0.442E+00    0.01       1.0  T
  40   -562.7172924 -0.961548E-01  0.441E+00    0.02       1.0  T
  41   -563.7923999 -0.107511E+01  0.430E+00    0.01       1.0  T
  42   -563.7706831  0.217168E-01  0.425E+00    0.01       1.0  T
  43   -563.5014236  0.269260E+00  0.428E+00    0.00       1.0  T
  44   -562.7818252  0.719598E+00  0.422E+00    0.01       1.0  T
  45   -567.7654347 -0.498361E+01  0.331E+00    0.01       1.0  T
  46   -569.9114300 -0.214600E+01  0.331E+00    0.00       1.0  T
  47   -569.8631930  0.482370E-01  0.328E+00    0.03       1.0  T
  48   -570.4922545 -0.629062E+00  0.309E+00    0.01       1.0  T
  49   -570.5896718 -0.974173E-01  0.306E+00    0.01       1.0  T
  50   -570.9321139 -0.342442E+00  0.297E+00    0.01       1.0  T
  51   -562.4343007  0.849781E+01  0.484E+00    0.01       1.0  T
  52   -562.2897248  0.144576E+00  0.483E+00    0.00       1.0  T
  53   -561.5287497  0.760975E+00  0.488E+00    0.01       1.0  T
  54   -554.1537567  0.737499E+01  0.589E+00    0.00       1.0  T
  55   -551.9828861  0.217087E+01  0.663E+00    0.01       1.0  T
  56   -551.0457476  0.937138E+00  0.665E+00    0.04       1.0  T
  57   -551.2638688 -0.218121E+00  0.662E+00    0.04       1.0  T
  58   -551.7280904 -0.464222E+00  0.655E+00    0.04       1.0  T
  59   -557.2061869 -0.547810E+01  0.567E+00    0.02       1.0  T
  60   -556.9191263  0.287061E+00  0.571E+00    0.01       1.0  T
  61   -555.1633726  0.175575E+01  0.590E+00    0.03       1.0  T
  62   -558.8907514 -0.372738E+01  0.539E+00    0.00       1.0  T
  63   -559.5464660 -0.655715E+00  0.531E+00    0.00       1.0  T
  64   -559.4210000  0.125466E+00  0.534E+00    0.01       1.0  T
  65   -558.9192580  0.501742E+00  0.542E+00    0.02       1.0  T
  66   -557.6863989  0.123286E+01  0.562E+00    0.00       1.0  T
  67   -558.4132837 -0.726885E+00  0.549E+00    0.01       1.0  T
  68   -557.9014917  0.511792E+00  0.558E+00    0.01       1.0  T
  69   -558.5241749 -0.622683E+00  0.553E+00    0.01       1.0  T
  70   -560.9064328 -0.238226E+01  0.519E+00    0.01       1.0  T
  71   -560.5825188  0.323914E+00  0.527E+00    0.01       1.0  T
  72   -560.3351412  0.247378E+00  0.530E+00    0.00       1.0  T
  73   -559.7392556  0.595886E+00  0.536E+00    0.03       1.0  T
  74   -555.6706190  0.406864E+01  0.596E+00    0.04       1.0  T
  75   -558.9088588 -0.323824E+01  0.563E+00    0.00       1.0  T
  76   -559.3628045 -0.453946E+00  0.554E+00    0.02       1.0  T
  77   -559.6464054 -0.283601E+00  0.550E+00    0.03       1.0  T
  78   -559.0710836  0.575322E+00  0.557E+00    0.00       1.0  T
  79   -560.0917318 -0.102065E+01  0.541E+00    0.03       1.0  T
  80   -560.8110486 -0.719317E+00  0.528E+00    0.03       1.0  T
  81   -561.0398786 -0.228830E+00  0.527E+00    0.03       1.0  T
  82   -562.0219667 -0.982088E+00  0.511E+00    0.03       1.0  T
  83   -561.8414619  0.180505E+00  0.515E+00    0.03       1.0  T
  84   -561.7838704  0.575915E-01  0.516E+00    0.03       1.0  T
  85   -567.8986794 -0.611481E+01  0.396E+00    0.01       1.0  T
  86   -569.0008880 -0.110221E+01  0.369E+00    0.00       1.0  T
  87   -569.1848505 -0.183962E+00  0.363E+00    0.02       1.0  T
  88   -569.5679399 -0.383089E+00  0.352E+00    0.01       1.0  T
  89   -569.5533661  0.145737E-01  0.353E+00    0.01       1.0  T
  90   -568.6894122  0.863954E+00  0.374E+00    0.02       1.0  T
  91   -570.6580856 -0.196867E+01  0.317E+00    0.00       1.0  T
  92   -570.0651313  0.592954E+00  0.333E+00    0.01       1.0  T
  93   -569.9814851  0.836462E-01  0.333E+00    0.01       1.0  T
  94   -572.3955940 -0.241411E+01  0.261E+00    0.00       1.0  T
  95   -571.7267542  0.668840E+00  0.279E+00    0.01       1.0  T
  96   -572.8690807 -0.114233E+01  0.242E+00    0.01       1.0  T
  97   -572.7059089  0.163172E+00  0.248E+00    0.00       1.0  T
  98   -572.6337218  0.721870E-01  0.251E+00    0.02       1.0  T
  99   -572.6320914  0.163042E-02  0.251E+00    0.02       1.0  T
 100   -572.4645811  0.167510E+00  0.255E+00    0.02       1.0  T
 101   -572.1187646  0.345817E+00  0.267E+00    0.01       1.0  T
 102   -572.5385912 -0.419827E+00  0.253E+00    0.02       1.0  T
 103   -572.6282389 -0.896477E-01  0.250E+00    0.02       1.0  T
 104   -572.3916505  0.236588E+00  0.258E+00    0.01       1.0  T
 105   -571.5711611  0.820489E+00  0.287E+00    0.01       1.0  T
 106   -571.0671439  0.504017E+00  0.300E+00    0.01       1.0  T
 107   -570.1664369  0.900707E+00  0.324E+00    0.00       1.0  T
 108   -570.7323464 -0.565909E+00  0.314E+00    0.00       1.0  T
 109   -571.0929919 -0.360646E+00  0.302E+00    0.00       1.0  T
 110   -571.8311673 -0.738175E+00  0.279E+00    0.01       1.0  T
 111   -570.9105028  0.920665E+00  0.308E+00    0.00       1.0  T
 112   -571.1781119 -0.267609E+00  0.296E+00    0.00       1.0  T
 113   -573.0890582 -0.191095E+01  0.232E+00    0.00       1.0  T
 114   -573.5909789 -0.501921E+00  0.218E+00    0.01       1.0  T
 115   -573.5234686  0.675103E-01  0.221E+00    0.00       1.0  T
 116   -573.5021973  0.212713E-01  0.222E+00    0.00       1.0  T
 117   -573.2929697  0.209228E+00  0.230E+00    0.00       1.0  T
 118   -572.7210440  0.571926E+00  0.250E+00    0.00       1.0  T
 119   -569.7312010  0.298984E+01  0.343E+00    0.02       1.0  T
 120   -568.8390537  0.892147E+00  0.368E+00    0.01       1.0  T
 121   -568.6431903  0.195863E+00  0.376E+00    0.00       1.0  T
 122   -567.5106813  0.113251E+01  0.400E+00    0.00       1.0  T
 123   -569.6551153 -0.214443E+01  0.345E+00    0.02       1.0  T
 124   -570.4105004 -0.755385E+00  0.329E+00    0.01       1.0  T
 125   -570.4069947  0.350574E-02  0.329E+00    0.01       1.0  T
 126   -570.6323178 -0.225323E+00  0.327E+00    0.01       1.0  T
 127   -570.4526492  0.179669E+00  0.332E+00    0.01       1.0  T
 128   -571.4885577 -0.103591E+01  0.298E+00    0.00       1.0  T
 129   -571.4140825  0.744752E-01  0.299E+00    0.01       1.0  T
 130   -571.8752988 -0.461216E+00  0.287E+00    0.00       1.0  T
 131   -571.6596288  0.215670E+00  0.294E+00    0.01       1.0  T
 132   -571.0824607  0.577168E+00  0.314E+00    0.01       1.0  T
 133   -571.4027918 -0.320331E+00  0.303E+00    0.00       1.0  T
 134   -571.4568464 -0.540546E-01  0.298E+00    0.01       1.0  T
 135   -571.3713514  0.854950E-01  0.296E+00    0.00       1.0  T
 136   -571.5502706 -0.178919E+00  0.289E+00    0.01       1.0  T
 137   -572.3034778 -0.753207E+00  0.262E+00    0.00       1.0  T
 138   -571.9356897  0.367788E+00  0.271E+00    0.00       1.0  T
 139   -572.1072021 -0.171512E+00  0.263E+00    0.00       1.0  T
 140   -572.1106652 -0.346305E-02  0.262E+00    0.01       1.0  T
 141   -572.1238818 -0.132166E-01  0.259E+00    0.00       1.0  T
 142   -572.4113200 -0.287438E+00  0.250E+00    0.00       1.0  T
 143   -572.4651289 -0.538089E-01  0.248E+00    0.00       1.0  T
 144   -572.8152847 -0.350156E+00  0.234E+00    0.01       1.0  T
 145   -573.4017037 -0.586419E+00  0.215E+00    0.00       1.0  T
 146   -573.4300031 -0.282995E-01  0.211E+00    0.01       1.0  T
 147   -573.1414469  0.288556E+00  0.220E+00    0.00       1.0  T
 148   -573.5454230 -0.403976E+00  0.208E+00    0.01       1.0  T
 149   -573.4144184  0.131005E+00  0.213E+00    0.02       1.0  T
 150   -573.4951848 -0.807664E-01  0.210E+00    0.02       1.0  T
 151   -573.5101022 -0.149174E-01  0.209E+00    0.02       1.0  T
 152   -573.6267688 -0.116667E+00  0.204E+00    0.02       1.0  T
 153   -573.5369881  0.897807E-01  0.209E+00    0.02       1.0  T
 154   -573.6164356 -0.794475E-01  0.206E+00    0.02       1.0  T
 155   -573.3859815  0.230454E+00  0.217E+00    0.01       1.0  T
 156   -573.7213451 -0.335364E+00  0.203E+00    0.01       1.0  T
 157   -573.3945162  0.326829E+00  0.219E+00    0.01       1.0  T
 158   -573.7256225 -0.331106E+00  0.203E+00    0.01       1.0  T
 159   -573.2813005  0.444322E+00  0.223E+00    0.01       1.0  T
 160   -573.8816974 -0.600397E+00  0.195E+00    0.01       1.0  T
 161   -573.6512478  0.230450E+00  0.205E+00    0.00       1.0  T
 162   -573.9388538 -0.287606E+00  0.192E+00    0.00       1.0  T
 163   -574.1048693 -0.166016E+00  0.182E+00    0.01       1.0  T
 164   -574.0953002  0.956917E-02  0.182E+00    0.00       1.0  T
 165   -574.4370960 -0.341796E+00  0.161E+00    0.00       1.0  T
 166   -574.5909744 -0.153878E+00  0.150E+00    0.00       1.0  T
 167   -574.6918336 -0.100859E+00  0.144E+00    0.00       1.0  T
 168   -574.7284369 -0.366032E-01  0.142E+00    0.01       1.0  T
 169   -574.7379645 -0.952767E-02  0.141E+00    0.00       1.0  T
 170   -574.7330438  0.492069E-02  0.142E+00    0.00       1.0  T
 171   -574.7305898  0.245409E-02  0.142E+00    0.00       1.0  T
 172   -574.7521904 -0.216007E-01  0.142E+00    0.00       1.0  T
 173   -574.8034695 -0.512791E-01  0.137E+00    0.00       1.0  T
 174   -574.8722912 -0.688217E-01  0.132E+00    0.00       1.0  T
 175   -574.8596832  0.126080E-01  0.131E+00    0.00       1.0  T
 176   -574.9106317 -0.509485E-01  0.127E+00    0.01       1.0  T
 177   -575.1634268 -0.252795E+00  0.103E+00    0.01       1.0  T
 178   -575.0043855  0.159041E+00  0.118E+00    0.00       1.0  T
 179   -575.1865540 -0.182168E+00  0.101E+00    0.01       1.0  T
 180   -575.3493738 -0.162820E+00  0.840E-01    0.00       1.0  T
 181   -575.1973220  0.152052E+00  0.993E-01    0.00       1.0  T
 182   -575.4057288 -0.208407E+00  0.806E-01    0.00       1.0  T
 183   -575.0036944  0.402034E+00  0.116E+00    0.00       1.0  T
 184   -575.4419582 -0.438264E+00  0.720E-01    0.00       1.0  T
 185   -575.3510220  0.909362E-01  0.826E-01    0.00       1.0  T
 186   -575.3923541 -0.413321E-01  0.765E-01    0.00       1.0  T
 187   -575.3672754  0.250786E-01  0.784E-01    0.00       1.0  T
 188   -575.4073406 -0.400652E-01  0.718E-01    0.00       1.0  T
 189   -575.3383126  0.690280E-01  0.800E-01    0.00       1.0  T
 190   -575.2105984  0.127714E+00  0.909E-01    0.00       1.0  T
 191   -575.3655928 -0.154994E+00  0.738E-01    0.01       1.0  T
 192   -575.3983939 -0.328011E-01  0.679E-01    0.00       1.0  T
 193   -575.3521039  0.462900E-01  0.721E-01    0.01       1.0  T
 194   -575.4775588 -0.125455E+00  0.533E-01    0.00       1.0  T
 195   -575.3747245  0.102834E+00  0.666E-01    0.01       1.0  T
 196   -575.3314803  0.432442E-01  0.723E-01    0.01       1.0  T
 197   -575.3868287 -0.553484E-01  0.643E-01    0.01       1.0  T
 198   -575.3824923  0.433643E-02  0.648E-01    0.00       1.0  T
 199   -575.4234805 -0.409883E-01  0.582E-01    0.00       1.0  T
 200   -575.4628554 -0.393749E-01  0.498E-01    0.00       1.0  T
 201   -575.4713357 -0.848034E-02  0.482E-01    0.00       1.0  T
 202   -575.4687988  0.253692E-02  0.479E-01    0.00       1.0  T
 203   -575.5182556 -0.494568E-01  0.379E-01    0.00       1.0  T
 204   -575.4677400  0.505156E-01  0.482E-01    0.00       1.0  T
 205   -575.5202853 -0.525452E-01  0.376E-01    0.00       1.0  T
 206   -575.5180459  0.223937E-02  0.385E-01    0.00       1.0  T
 207   -575.5478081 -0.297622E-01  0.309E-01    0.00       1.0  T
 208   -575.5746907 -0.268826E-01  0.223E-01    0.00       1.0  T
 209   -575.5792279 -0.453717E-02  0.203E-01    0.00       1.0  T
 210   -575.5722926  0.693537E-02  0.227E-01    0.00       1.0  T
 211   -575.5752727 -0.298012E-02  0.217E-01    0.00       1.0  T
 212   -575.5693553  0.591735E-02  0.233E-01    0.00       1.0  T
 213   -575.5707571 -0.140180E-02  0.228E-01    0.00       1.0  T
 214   -575.5747020 -0.394492E-02  0.215E-01    0.00       1.0  T
 215   -575.5711276  0.357448E-02  0.233E-01    0.00       1.0  T
 216   -575.5770668 -0.593922E-02  0.226E-01    0.00       1.0  T
 217   -575.5820602 -0.499338E-02  0.195E-01    0.00       1.0  T
 218   -575.5823372 -0.277089E-03  0.198E-01    0.00       1.0  T
 219   -575.5843514 -0.201415E-02  0.182E-01    0.00       1.0  T
 220   -575.5842737  0.776981E-04  0.174E-01    0.00       1.0  T
 221   -575.5895313 -0.525761E-02  0.143E-01    0.00       1.0  T
 222   -575.5924747 -0.294340E-02  0.119E-01    0.00       1.0  T
 223   -575.5928862 -0.411511E-03  0.115E-01    0.00       1.0  T
 224   -575.5946487 -0.176245E-02  0.102E-01    0.00       1.0  T
 225   -575.5956413 -0.992593E-03  0.862E-02    0.00       1.0  T
 226   -575.5956742 -0.329731E-04  0.792E-02    0.00       1.0  T
 227   -575.5947094  0.964866E-03  0.934E-02    0.00       1.0  T
 228   -575.5967102 -0.200082E-02  0.665E-02    0.00       1.0  T
 229   -575.5963946  0.315633E-03  0.722E-02    0.00       1.0  T
 230   -575.5965803 -0.185715E-03  0.677E-02    0.00       1.0  T
 231   -575.5968518 -0.271533E-03  0.624E-02    0.00       1.0  T
 232   -575.5967834  0.684257E-04  0.614E-02    0.00       1.0  T
 233   -575.5971935 -0.410134E-03  0.536E-02    0.00       1.0  T
 234   -575.5973340 -0.140489E-03  0.507E-02    0.00       1.0  T
 235   -575.5973162  0.177952E-04  0.509E-02    0.00       1.0  T
 236   -575.5978045 -0.488272E-03  0.398E-02    0.00       1.0  T
 237   -575.5978894 -0.849242E-04  0.370E-02    0.00       1.0  T
 238   -575.5977331  0.156281E-03  0.399E-02    0.00       1.0  T
 239   -575.5980970 -0.363910E-03  0.295E-02    0.00       1.0  T
 240   -575.5981724 -0.753231E-04  0.263E-02    0.00       1.0  T
 241   -575.5982762 -0.103827E-03  0.220E-02    0.00       1.0  T
 242   -575.5984569 -0.180714E-03  0.126E-02    0.00       1.0  T
 243   -575.5984514  0.546863E-05  0.130E-02    0.00       1.0  T
 244   -575.5984547 -0.331542E-05  0.127E-02    0.00       1.0  T
 245   -575.5984787 -0.239220E-04  0.108E-02    0.00       1.0  T
 246   -575.5984807 -0.208208E-05  0.107E-02    0.00       1.0  T
 247   -575.5984884 -0.765603E-05  0.102E-02    0.00       1.0  T
 248   -575.5984814  0.705222E-05  0.108E-02    0.00       1.0  T
 249   -575.5984978 -0.164146E-04  0.930E-03    0.00       1.0  T
 250   -575.5985005 -0.269954E-05  0.903E-03    0.00       1.0  T

   *** convergence criteria cannot be satisfied within 250 iterations ***

         #    Occupation            Energy/Eh            Energy/eV
      -------------------------------------------------------------
         1        2.0000           -0.6828086             -18.5802
       ...           ...                  ...                  ...
       527        1.7028           -0.3465975              -9.4314
       528        1.6834           -0.3465263              -9.4295
       529        1.6745           -0.3464952              -9.4286
       530        1.5699           -0.3461690              -9.4197
       531        1.5669           -0.3461605              -9.4195
       532        1.4066           -0.3457590              -9.4086
       533        1.3985           -0.3457406              -9.4081 (HOMO)
       534        1.3914           -0.3457245              -9.4076 (LUMO)
       535        1.3807           -0.3457007              -9.4070
       536        1.3238           -0.3455771              -9.4036
       537        1.2725           -0.3454701              -9.4007
       538        0.0001           -0.3357965              -9.1375
       ...           ...                  ...                  ...
      1034                          1.6141147              43.9223
      -------------------------------------------------------------
                  HL-Gap            0.0000161 Eh            0.0004 eV
             Fermi-level           -0.3449390 Eh           -9.3863 eV

 SCC (total)                   0 d,  0 h,  1 min, 35.575 sec
 SCC setup                      ...        0 min,  0.018 sec (  0.018%)
 Dispersion                     ...        0 min,  0.034 sec (  0.036%)
 classical contributions        ...        0 min,  0.003 sec (  0.003%)
 integral evaluation            ...        0 min,  0.270 sec (  0.282%)
 iterations                     ...        1 min, 34.553 sec ( 98.931%)
 molecular gradient             ...        0 min,  0.646 sec (  0.676%)
 printout                       ...        0 min,  0.051 sec (  0.054%)

########################################################################
[ERROR] Program stopped due to fatal error
-3- Single point calculation terminated
-2- xtb_calculator_singlepoint: Electronic structure method terminated
-1- scf: Self consistent charge iterator did not converge
########################################################################
