      -----------------------------------------------------------      
     |                   =====================                   |     
     |                           x T B                           |     
     |                   =====================                   |     
     |                         S. Grimme                         |     
     |          Mulliken Center for Theoretical Chemistry        |     
     |                    University of Bonn                     |     
      -----------------------------------------------------------      

   * xtb version 6.4.1 (bd6e46d) compiled by 'conda@4901f00b25ba' on 2021-06-10

   xtb is free software: you can redistribute it and/or modify it under
   the terms of the GNU Lesser General Public License as published by
   the Free Software Foundation, either version 3 of the License, or
   (at your option) any later version.
   
   xtb is distributed in the hope that it will be useful,
   but WITHOUT ANY WARRANTY; without even the implied warranty of
   MERCHANTABILITY or FITNESS FOR A PARTICULAR PURPOSE.  See the
   GNU Lesser General Public License for more details.
   
   Cite this work as:
   * C. Bannwarth, E. Caldeweyher, S. Ehlert, A. Hansen, P. Pracht,
     J. Seibert, S. Spicher, S. Grimme, WIREs Comput. Mol. Sci., 2020, 11,
     e01493. DOI: 10.1002/wcms.1493
   
   for GFN2-xTB:
   * C. Bannwarth, S. Ehlert and S. Grimme., J. Chem. Theory Comput., 2019,
     15, 1652-1671. DOI: 10.1021/acs.jctc.8b01176
   for GFN1-xTB:
   * S. Grimme, C. Bannwarth, P. Shushkov, J. Chem. Theory Comput., 2017,
     13, 1989-2009. DOI: 10.1021/acs.jctc.7b00118
   for GFN0-xTB:
   * P. Pracht, E. Caldeweyher, S. Ehlert, S. Grimme, ChemRxiv, 2019, preprint.
     DOI: 10.26434/chemrxiv.8326202.v1
   for GFN-FF:
   * S. Spicher and S. Grimme, Angew. Chem. Int. Ed., 2020, 59, 15665-15673.
     DOI: 10.1002/anie.202004239
   
   for DFT-D4:
   * E. Caldeweyher, C. Bannwarth and S. Grimme, J. Chem. Phys., 2017,
     147, 034112. DOI: 10.1063/1.4993215
   * E. Caldeweyher, S. Ehlert, A. Hansen, H. Neugebauer, S. Spicher,
     C. Bannwarth and S. Grimme, J. Chem. Phys., 2019, 150, 154122.
     DOI: 10.1063/1.5090222
   * E. Caldeweyher, J.-M. Mewes, S. Ehlert and S. Grimme, Phys. Chem. Chem. Phys.
     2020, 22, 8499-8512. DOI: 10.1039/D0CP00502A
   
   for sTDA-xTB:
   * S. Grimme and C. Bannwarth, J. Chem. Phys., 2016, 145, 054103.
     DOI: 10.1063/1.4959605
   
   in the mass-spec context:
   * V. Asgeirsson, C. Bauer and S. Grimme, Chem. Sci., 2017, 8, 4879.
     DOI: 10.1039/c7sc00601b
   * J. Koopman and S. Grimme, ACS Omega 2019, 4, 12, 15120-15133.
     DOI: 10.1021/acsomega.9b02011
   
   for metadynamics refer to:
   * S. Grimme, J. Chem. Theory Comput., 2019, 155, 2847-2862
     DOI: 10.1021/acs.jctc.9b00143
   
   for SPH calculations refer to:
   * S. Spicher and S. Grimme, J. Chem. Theory Comput., 2021, 17, 1701-1714
     DOI: 10.1021/acs.jctc.0c01306
   
   with help from (in alphabetical order)
   P. Atkinson, C. Bannwarth, F. Bohle, G. Brandenburg, E. Caldeweyher
   M. Checinski, S. Dohm, S. Ehlert, S. Ehrlich, I. Gerasimov, J. Koopman
   C. Lavigne, S. Lehtola, F. März, M. Müller, F. Musil, H. Neugebauer
   J. Pisarek, C. Plett, P. Pracht, J. Seibert, P. Shushkov, S. Spicher
   M. Stahn, M. Steiner, T. Strunk, J. Stückrath, T. Rose, and J. Unsleber
   
 * started run on 2021/11/21 at 01:39:54.467     

           -------------------------------------------------
          |                Calculation Setup                |
           -------------------------------------------------

          program call               : /home/jeff/miniconda3/bin/xtb /home/jeff/chem/final-year-proejct/Cu+2_2_2_outenergy/input_structure.xyz --gfn 2 --parallel 1 --etemp 300 --chrg 0 --uhf 0 -I det_control.in
          coordinate file            : /home/jeff/chem/final-year-proejct/Cu+2_2_2_outenergy/input_structure.xyz
          omp threads                :                     1
          number of atoms            :                    74
          number of electrons        :                   252
          charge                     :                     0
          spin                       :                   0.0
          first test random number   :      0.87867477119149

   ID    Z sym.   atoms
    1   29 Cu     1, 39
    2    6 C      2-9, 11-15, 17-21, 23, 24, 37, 38, 40-47, 49-53, 55-59, 61,
                  62
    3    7 N      10, 16, 22, 25, 48, 54, 60, 63
    4    1 H      26-36, 64-74

           -------------------------------------------------
          |                 G F N 2 - x T B                 |
           -------------------------------------------------

        Reference                      10.1021/acs.jctc.8b01176
      * Hamiltonian:
        H0-scaling (s, p, d)           1.850000    2.230000    2.230000
        zeta-weighting                 0.500000
      * Dispersion:
        s8                             2.700000
        a1                             0.520000
        a2                             5.000000
        s9                             5.000000
      * Repulsion:
        kExp                           1.500000    1.000000
        rExp                           1.000000
      * Coulomb:
        alpha                          2.000000
        third order                    shell-resolved
        anisotropic                    true
        a3                             3.000000
        a5                             4.000000
        cn-shift                       1.200000
        cn-exp                         4.000000
        max-rad                        5.000000


          ...................................................
          :                      SETUP                      :
          :.................................................:
          :  # basis functions                 242          :
          :  # atomic orbitals                 240          :
          :  # shells                          128          :
          :  # electrons                       252          :
          :  max. iterations                   250          :
          :  Hamiltonian                  GFN2-xTB          :
          :  restarted?                      false          :
          :  GBSA solvation                  false          :
          :  PC potential                    false          :
          :  electronic temp.          300.0000000     K    :
          :  accuracy                    1.0000000          :
          :  -> integral cutoff          0.2500000E+02      :
          :  -> integral neglect         0.1000000E-07      :
          :  -> SCF convergence          0.1000000E-05 Eh   :
          :  -> wf. convergence          0.1000000E-03 e    :
          :  Broyden damping             0.4000000          :
          ...................................................

 iter      E             dE          RMSdq      gap      omega  full diag
   1   -134.6064546 -0.134606E+03  0.489E+00    0.00       0.0  T
   2   -134.6316609 -0.252062E-01  0.307E+00    0.02       1.0  T
   3   -128.7879837  0.584368E+01  0.631E+00    0.01       1.0  T
   4   -134.3708474 -0.558286E+01  0.121E+00    0.45       1.0  T
   5   -134.1411514  0.229696E+00  0.148E+00    0.18       1.0  T
   6   -134.5281669 -0.387015E+00  0.666E-01    0.09       1.0  T
   7   -134.3560685  0.172098E+00  0.111E+00    0.60       1.0  T
   8   -134.4869736 -0.130905E+00  0.785E-01    0.12       1.0  T
   9   -134.3747640  0.112210E+00  0.104E+00    0.45       1.0  T
  10   -134.4523049 -0.775409E-01  0.844E-01    0.15       1.0  T
  11   -134.6461915 -0.193887E+00  0.214E-01    0.02       1.0  T
  12   -134.4128369  0.233355E+00  0.927E-01    0.22       1.0  T
  13   -134.6384348 -0.225598E+00  0.258E-01    0.03       1.0  T
  14   -134.6403218 -0.188698E-02  0.241E-01    0.02       1.0  T
  15   -134.6525582 -0.122364E-01  0.125E-01    0.00       1.0  T
  16   -134.6498530  0.270520E-02  0.151E-01    0.01       1.0  T
  17   -134.6516120 -0.175899E-02  0.125E-01    0.01       1.0  T
  18   -134.6462890  0.532300E-02  0.178E-01    0.02       1.0  T
  19   -134.6471394 -0.850415E-03  0.167E-01    0.02       1.0  T
  20   -134.6484234 -0.128401E-02  0.144E-01    0.01       1.0  T
  21   -134.6528778 -0.445439E-02  0.446E-02    0.00       1.0  T
  22   -134.6530634 -0.185590E-03  0.289E-02    0.00       1.0  T
  23   -134.6529034  0.160047E-03  0.315E-02    0.00       1.0  T
  24   -134.6530245 -0.121166E-03  0.178E-02    0.00       1.0  T
  25   -134.6529260  0.984938E-04  0.240E-02    0.00       1.0  T
  26   -134.6529728 -0.467668E-04  0.202E-02    0.00       1.0  T
  27   -134.6530831 -0.110236E-03  0.659E-03    0.00       1.8  T
  28   -134.6530943 -0.112596E-04  0.197E-03    0.00       5.9  T
  29   -134.6530955 -0.123912E-05  0.371E-04    0.00      31.3  T
  30   -134.6530954  0.125402E-06  0.752E-04    0.00      15.5  T
  31   -134.6530954  0.113971E-07  0.758E-04    0.00      15.3  T

   *** convergence criteria satisfied after 31 iterations ***

         #    Occupation            Energy/Eh            Energy/eV
      -------------------------------------------------------------
         1        2.0000           -0.6776098             -18.4387
       ...           ...                  ...                  ...
       120        2.0000           -0.3695661             -10.0564
       121        2.0000           -0.3695530             -10.0561
       122        2.0000           -0.3689369             -10.0393
       123        2.0000           -0.3679459             -10.0123
       124        2.0000           -0.3679193             -10.0116
       125        2.0000           -0.3545142              -9.6468
       126        1.0107           -0.3198128              -8.7025 (HOMO)
       127        0.9893           -0.3197722              -8.7014 (LUMO)
       128        0.0000           -0.3081237              -8.3845
       129                         -0.2983153              -8.1176
       130                         -0.2983067              -8.1173
       131                         -0.2922685              -7.9530
       ...                                ...                  ...
       240                          1.4097418              38.3610
      -------------------------------------------------------------
                  HL-Gap            0.0000407 Eh            0.0011 eV
             Fermi-level           -0.3197925 Eh           -8.7020 eV

 SCC (total)                   0 d,  0 h,  0 min,  0.435 sec
 SCC setup                      ...        0 min,  0.001 sec (  0.225%)
 Dispersion                     ...        0 min,  0.002 sec (  0.450%)
 classical contributions        ...        0 min,  0.000 sec (  0.086%)
 integral evaluation            ...        0 min,  0.023 sec (  5.322%)
 iterations                     ...        0 min,  0.317 sec ( 73.026%)
 molecular gradient             ...        0 min,  0.090 sec ( 20.656%)
 printout                       ...        0 min,  0.001 sec (  0.228%)

         :::::::::::::::::::::::::::::::::::::::::::::::::::::
         ::                     SUMMARY                     ::
         :::::::::::::::::::::::::::::::::::::::::::::::::::::
         :: total energy            -132.422484008927 Eh    ::
         :: gradient norm              0.000486854300 Eh/a0 ::
         :: HOMO-LUMO gap              0.001106373341 eV    ::
         ::.................................................::
         :: SCC energy              -134.653095412616 Eh    ::
         :: -> isotropic ES            0.055325737835 Eh    ::
         :: -> anisotropic ES          0.020653164733 Eh    ::
         :: -> anisotropic XC          0.050618216739 Eh    ::
         :: -> dispersion             -0.118079139901 Eh    ::
         :: repulsion energy           2.231889835246 Eh    ::
         :: add. restraining           0.000000000000 Eh    ::
         :: total charge               0.000000000000 e     ::
         :::::::::::::::::::::::::::::::::::::::::::::::::::::

           -------------------------------------------------
          |                Property Printout                |
           -------------------------------------------------

    * Orbital Energies and Occupations

         #    Occupation            Energy/Eh            Energy/eV
      -------------------------------------------------------------
         1        2.0000           -0.6776098             -18.4387
       ...           ...                  ...                  ...
       114        2.0000           -0.3894201             -10.5967
       115        2.0000           -0.3893463             -10.5947
       116        2.0000           -0.3756196             -10.2211
       117        2.0000           -0.3755954             -10.2205
       118        2.0000           -0.3751307             -10.2078
       119        2.0000           -0.3750998             -10.2070
       120        2.0000           -0.3695661             -10.0564
       121        2.0000           -0.3695530             -10.0561
       122        2.0000           -0.3689369             -10.0393
       123        2.0000           -0.3679459             -10.0123
       124        2.0000           -0.3679193             -10.0116
       125        2.0000           -0.3545142              -9.6468
       126        1.0107           -0.3198128              -8.7025 (HOMO)
       127        0.9893           -0.3197722              -8.7014 (LUMO)
       128        0.0000           -0.3081237              -8.3845
       129                         -0.2983153              -8.1176
       130                         -0.2983067              -8.1173
       131                         -0.2922685              -7.9530
       132                         -0.2627257              -7.1491
       133                         -0.2541744              -6.9164
       134                         -0.1900879              -5.1726
       135                         -0.1900750              -5.1722
       136                         -0.1768273              -4.8117
       137                         -0.1714151              -4.6644
       ...                                ...                  ...
       240                          1.4097418              38.3610
      -------------------------------------------------------------
                  HL-Gap            0.0000407 Eh            0.0011 eV
             Fermi-level           -0.3197925 Eh           -8.7020 eV

     #   Z          covCN         q      C6AA      α(0)
     1  29 Cu       2.955     0.195   146.224    27.535
     2   6 C        3.022    -0.051    29.237     8.869
     3   6 C        3.020    -0.049    29.192     8.863
     4   6 C        3.162     0.078    25.944     8.326
     5   6 C        2.953     0.018    27.601     8.617
     6   6 C        3.162     0.078    25.944     8.325
     7   6 C        3.020    -0.049    29.194     8.863
     8   6 C        3.022    -0.051    29.236     8.869
     9   6 C        3.147     0.077    26.027     8.346
    10   7 N        2.620    -0.171    24.721     7.384
    11   6 C        2.901    -0.050    29.238     8.866
    12   6 C        3.144     0.078    26.015     8.345
    13   6 C        3.019    -0.050    29.213     8.866
    14   6 C        3.019    -0.050    29.217     8.867
    15   6 C        3.144     0.079    26.000     8.343
    16   7 N        2.622    -0.170    24.687     7.379
    17   6 C        2.901    -0.052    29.278     8.872
    18   6 C        3.144     0.079    25.998     8.343
    19   6 C        3.019    -0.050    29.217     8.867
    20   6 C        3.019    -0.050    29.214     8.866
    21   6 C        3.144     0.078    26.013     8.345
    22   7 N        2.623    -0.170    24.689     7.379
    23   6 C        2.901    -0.050    29.238     8.866
    24   6 C        3.147     0.077    26.027     8.346
    25   7 N        2.619    -0.171    24.722     7.384
    26   1 H        0.926     0.034     2.529     2.487
    27   1 H        0.926     0.035     2.516     2.481
    28   1 H        0.926     0.035     2.514     2.480
    29   1 H        0.926     0.034     2.529     2.487
    30   1 H        0.926     0.049     2.327     2.386
    31   1 H        0.926     0.035     2.522     2.484
    32   1 H        0.926     0.035     2.523     2.484
    33   1 H        0.926     0.049     2.336     2.390
    34   1 H        0.926     0.035     2.523     2.484
    35   1 H        0.926     0.035     2.522     2.484
    36   1 H        0.926     0.049     2.327     2.386
    37   6 C        1.992    -0.028    31.801     9.107
    38   6 C        1.992    -0.028    31.801     9.107
    39  29 Cu       2.955     0.195   146.224    27.535
    40   6 C        3.022    -0.051    29.236     8.869
    41   6 C        3.020    -0.049    29.193     8.863
    42   6 C        3.162     0.078    25.945     8.326
    43   6 C        2.953     0.018    27.600     8.617
    44   6 C        3.162     0.078    25.944     8.326
    45   6 C        3.020    -0.049    29.193     8.863
    46   6 C        3.022    -0.051    29.237     8.870
    47   6 C        3.147     0.077    26.026     8.346
    48   7 N        2.620    -0.171    24.722     7.384
    49   6 C        2.901    -0.050    29.239     8.866
    50   6 C        3.144     0.078    26.014     8.345
    51   6 C        3.019    -0.050    29.214     8.866
    52   6 C        3.019    -0.050    29.217     8.867
    53   6 C        3.144     0.079    25.999     8.343
    54   7 N        2.622    -0.170    24.688     7.379
    55   6 C        2.901    -0.052    29.278     8.872
    56   6 C        3.144     0.079    26.000     8.343
    57   6 C        3.019    -0.050    29.217     8.867
    58   6 C        3.019    -0.050    29.213     8.866
    59   6 C        3.144     0.078    26.015     8.346
    60   7 N        2.623    -0.170    24.688     7.379
    61   6 C        2.901    -0.050    29.238     8.866
    62   6 C        3.147     0.077    26.028     8.346
    63   7 N        2.620    -0.171    24.721     7.384
    64   1 H        0.926     0.034     2.529     2.487
    65   1 H        0.926     0.035     2.514     2.480
    66   1 H        0.926     0.035     2.517     2.481
    67   1 H        0.926     0.034     2.529     2.487
    68   1 H        0.926     0.049     2.327     2.386
    69   1 H        0.926     0.035     2.522     2.484
    70   1 H        0.926     0.035     2.523     2.484
    71   1 H        0.926     0.049     2.336     2.390
    72   1 H        0.926     0.035     2.523     2.484
    73   1 H        0.926     0.035     2.522     2.484
    74   1 H        0.926     0.049     2.327     2.386

 Mol. C6AA /au·bohr⁶  :     102174.236566
 Mol. C8AA /au·bohr⁸  :    2931797.970654
 Mol. α(0) /au        :        532.139781


Wiberg/Mayer (AO) data.
largest (>0.10) Wiberg bond orders for each atom

 ---------------------------------------------------------------------------
     #   Z sym  total        # sym  WBO       # sym  WBO       # sym  WBO
 ---------------------------------------------------------------------------
     1  29 Cu   2.323 --    22 N    0.534    16 N    0.533    10 N    0.531
                            25 N    0.531
     2   6 C    3.947 --     3 C    1.652    24 C    1.166    26 H    0.972
     3   6 C    3.950 --     2 C    1.652     4 C    1.173    27 H    0.969
     4   6 C    3.915 --    25 N    1.287     5 C    1.257     3 C    1.173
     5   6 C    3.942 --     4 C    1.257     6 C    1.257    37 C    1.166
     6   6 C    3.916 --    10 N    1.286     5 C    1.257     7 C    1.173
     7   6 C    3.950 --     8 C    1.652     6 C    1.173    28 H    0.969
     8   6 C    3.947 --     7 C    1.652     9 C    1.166    29 H    0.972
     9   6 C    3.922 --    11 C    1.354    10 N    1.251     8 C    1.166
    10   7 N    3.382 --     6 C    1.286     9 C    1.251     1 Cu   0.531
    11   6 C    3.932 --     9 C    1.354    12 C    1.352    30 H    0.964
    12   6 C    3.928 --    11 C    1.352    16 N    1.264    13 C    1.158
    13   6 C    3.950 --    14 C    1.666    12 C    1.158    31 H    0.972
    14   6 C    3.948 --    13 C    1.666    15 C    1.157    32 H    0.972
    15   6 C    3.930 --    17 C    1.351    16 N    1.266    14 C    1.157
    16   7 N    3.378 --    15 C    1.266    12 C    1.264     1 Cu   0.533
    17   6 C    3.928 --    18 C    1.352    15 C    1.351    33 H    0.964
    18   6 C    3.930 --    17 C    1.352    22 N    1.265    19 C    1.158
    19   6 C    3.948 --    20 C    1.666    18 C    1.158    34 H    0.972
    20   6 C    3.950 --    19 C    1.666    21 C    1.158    35 H    0.972
    21   6 C    3.928 --    23 C    1.352    22 N    1.264    20 C    1.158
    22   7 N    3.378 --    18 C    1.265    21 C    1.264     1 Cu   0.534
    23   6 C    3.932 --    24 C    1.354    21 C    1.352    36 H    0.964
    24   6 C    3.922 --    23 C    1.354    25 N    1.251     2 C    1.166
    25   7 N    3.382 --     4 C    1.287    24 C    1.251     1 Cu   0.531
    26   1 H    0.998 --     2 C    0.972
    27   1 H    0.998 --     3 C    0.969
    28   1 H    0.998 --     7 C    0.969
    29   1 H    0.998 --     8 C    0.972
    30   1 H    0.996 --    11 C    0.964
    31   1 H    0.998 --    13 C    0.972
    32   1 H    0.998 --    14 C    0.972
    33   1 H    0.997 --    17 C    0.964
    34   1 H    0.998 --    19 C    0.972
    35   1 H    0.998 --    20 C    0.972
    36   1 H    0.996 --    23 C    0.964
    37   6 C    3.926 --    38 C    2.581     5 C    1.166
    38   6 C    3.926 --    37 C    2.581    43 C    1.166
    39  29 Cu   2.324 --    60 N    0.534    54 N    0.533    48 N    0.532
                            63 N    0.531
    40   6 C    3.947 --    41 C    1.652    62 C    1.166    64 H    0.972
    41   6 C    3.950 --    40 C    1.652    42 C    1.173    65 H    0.969
    42   6 C    3.916 --    63 N    1.287    43 C    1.257    41 C    1.173
    43   6 C    3.942 --    44 C    1.257    42 C    1.257    38 C    1.166
    44   6 C    3.915 --    48 N    1.286    43 C    1.257    45 C    1.173
    45   6 C    3.950 --    46 C    1.652    44 C    1.173    66 H    0.969
    46   6 C    3.947 --    45 C    1.652    47 C    1.166    67 H    0.972
    47   6 C    3.922 --    49 C    1.354    48 N    1.251    46 C    1.166
    48   7 N    3.382 --    44 C    1.286    47 C    1.251    39 Cu   0.532
    49   6 C    3.932 --    47 C    1.354    50 C    1.352    68 H    0.964
    50   6 C    3.928 --    49 C    1.352    54 N    1.264    51 C    1.158
    51   6 C    3.950 --    52 C    1.666    50 C    1.158    69 H    0.972
    52   6 C    3.948 --    51 C    1.666    53 C    1.157    70 H    0.972
    53   6 C    3.930 --    55 C    1.352    54 N    1.266    52 C    1.157
    54   7 N    3.378 --    53 C    1.266    50 C    1.264    39 Cu   0.533
    55   6 C    3.928 --    53 C    1.352    56 C    1.351    71 H    0.964
    56   6 C    3.930 --    55 C    1.351    60 N    1.266    57 C    1.158
    57   6 C    3.948 --    58 C    1.666    56 C    1.158    72 H    0.972
    58   6 C    3.950 --    57 C    1.666    59 C    1.158    73 H    0.972
    59   6 C    3.928 --    61 C    1.352    60 N    1.264    58 C    1.158
    60   7 N    3.378 --    56 C    1.266    59 C    1.264    39 Cu   0.534
    61   6 C    3.932 --    62 C    1.354    59 C    1.352    74 H    0.964
    62   6 C    3.922 --    61 C    1.354    63 N    1.251    40 C    1.166
    63   7 N    3.382 --    42 C    1.287    62 C    1.251    39 Cu   0.531
    64   1 H    0.998 --    40 C    0.972
    65   1 H    0.998 --    41 C    0.969
    66   1 H    0.998 --    45 C    0.969
    67   1 H    0.998 --    46 C    0.972
    68   1 H    0.996 --    49 C    0.964
    69   1 H    0.998 --    51 C    0.972
    70   1 H    0.998 --    52 C    0.972
    71   1 H    0.997 --    55 C    0.964
    72   1 H    0.998 --    57 C    0.972
    73   1 H    0.998 --    58 C    0.972
    74   1 H    0.996 --    61 C    0.964
 ---------------------------------------------------------------------------

Topologies differ in total number of bonds
Writing topology from bond orders to xtbtopo.mol

molecular dipole:
                 x           y           z       tot (Debye)
 q only:       -0.001       0.003       0.000
   full:       -0.001       0.003       0.000       0.009
molecular quadrupole (traceless):
                xx          xy          yy          xz          yz          zz
 q only:       12.448       0.183       4.860      -0.596       0.085     -17.308
  q+dip:       28.675       0.272      13.057      -1.470       0.213     -41.733
   full:       17.287       0.235       6.852      -0.880       0.120     -24.140


           -------------------------------------------------
          | TOTAL ENERGY             -132.422484008927 Eh   |
          | GRADIENT NORM               0.000486854300 Eh/α |
          | HOMO-LUMO GAP               0.001106373341 eV   |
           -------------------------------------------------

------------------------------------------------------------------------
 * finished run on 2021/11/21 at 01:39:54.932     
------------------------------------------------------------------------
 total:
 * wall-time:     0 d,  0 h,  0 min,  0.465 sec
 *  cpu-time:     0 d,  0 h,  0 min,  0.465 sec
 * ratio c/w:     1.000 speedup
 SCF:
 * wall-time:     0 d,  0 h,  0 min,  0.435 sec
 *  cpu-time:     0 d,  0 h,  0 min,  0.435 sec
 * ratio c/w:     1.000 speedup

