      -----------------------------------------------------------      
     |                   =====================                   |     
     |                           x T B                           |     
     |                   =====================                   |     
     |                         S. Grimme                         |     
     |          Mulliken Center for Theoretical Chemistry        |     
     |                    University of Bonn                     |     
      -----------------------------------------------------------      

   * xtb version 6.4.1 (bd6e46d) compiled by 'conda@4901f00b25ba' on 2021-06-10

   xtb is free software: you can redistribute it and/or modify it under
   the terms of the GNU Lesser General Public License as published by
   the Free Software Foundation, either version 3 of the License, or
   (at your option) any later version.
   
   xtb is distributed in the hope that it will be useful,
   but WITHOUT ANY WARRANTY; without even the implied warranty of
   MERCHANTABILITY or FITNESS FOR A PARTICULAR PURPOSE.  See the
   GNU Lesser General Public License for more details.
   
   Cite this work as:
   * C. Bannwarth, E. Caldeweyher, S. Ehlert, A. Hansen, P. Pracht,
     J. Seibert, S. Spicher, S. Grimme, WIREs Comput. Mol. Sci., 2020, 11,
     e01493. DOI: 10.1002/wcms.1493
   
   for GFN2-xTB:
   * C. Bannwarth, S. Ehlert and S. Grimme., J. Chem. Theory Comput., 2019,
     15, 1652-1671. DOI: 10.1021/acs.jctc.8b01176
   for GFN1-xTB:
   * S. Grimme, C. Bannwarth, P. Shushkov, J. Chem. Theory Comput., 2017,
     13, 1989-2009. DOI: 10.1021/acs.jctc.7b00118
   for GFN0-xTB:
   * P. Pracht, E. Caldeweyher, S. Ehlert, S. Grimme, ChemRxiv, 2019, preprint.
     DOI: 10.26434/chemrxiv.8326202.v1
   for GFN-FF:
   * S. Spicher and S. Grimme, Angew. Chem. Int. Ed., 2020, 59, 15665-15673.
     DOI: 10.1002/anie.202004239
   
   for DFT-D4:
   * E. Caldeweyher, C. Bannwarth and S. Grimme, J. Chem. Phys., 2017,
     147, 034112. DOI: 10.1063/1.4993215
   * E. Caldeweyher, S. Ehlert, A. Hansen, H. Neugebauer, S. Spicher,
     C. Bannwarth and S. Grimme, J. Chem. Phys., 2019, 150, 154122.
     DOI: 10.1063/1.5090222
   * E. Caldeweyher, J.-M. Mewes, S. Ehlert and S. Grimme, Phys. Chem. Chem. Phys.
     2020, 22, 8499-8512. DOI: 10.1039/D0CP00502A
   
   for sTDA-xTB:
   * S. Grimme and C. Bannwarth, J. Chem. Phys., 2016, 145, 054103.
     DOI: 10.1063/1.4959605
   
   in the mass-spec context:
   * V. Asgeirsson, C. Bauer and S. Grimme, Chem. Sci., 2017, 8, 4879.
     DOI: 10.1039/c7sc00601b
   * J. Koopman and S. Grimme, ACS Omega 2019, 4, 12, 15120-15133.
     DOI: 10.1021/acsomega.9b02011
   
   for metadynamics refer to:
   * S. Grimme, J. Chem. Theory Comput., 2019, 155, 2847-2862
     DOI: 10.1021/acs.jctc.9b00143
   
   for SPH calculations refer to:
   * S. Spicher and S. Grimme, J. Chem. Theory Comput., 2021, 17, 1701-1714
     DOI: 10.1021/acs.jctc.0c01306
   
   with help from (in alphabetical order)
   P. Atkinson, C. Bannwarth, F. Bohle, G. Brandenburg, E. Caldeweyher
   M. Checinski, S. Dohm, S. Ehlert, S. Ehrlich, I. Gerasimov, J. Koopman
   C. Lavigne, S. Lehtola, F. März, M. Müller, F. Musil, H. Neugebauer
   J. Pisarek, C. Plett, P. Pracht, J. Seibert, P. Shushkov, S. Spicher
   M. Stahn, M. Steiner, T. Strunk, J. Stückrath, T. Rose, and J. Unsleber
   
 * started run on 2021/11/18 at 19:18:34.296     

           -------------------------------------------------
          |                Calculation Setup                |
           -------------------------------------------------

          program call               : /home/jeff/miniconda3/bin/xtb input_structure_1.xyz --gfn 2 --ohess normal --parallel 1 --etemp 300 --chrg 0 --uhf 0 -I det_control.in
          hostname                   : jelfscompute1
          coordinate file            : input_structure_1.xyz
          omp threads                :                     1
          number of atoms            :                   185
          number of electrons        :                   594
          charge                     :                     0
          spin                       :                   0.0
          first test random number   :      0.28262129629417

   ID    Z sym.   atoms
    1   30 Zn     1, 37, 81, 116, 151
    2    6 C      2-9, 11-15, 17-21, 23, 24, 38-45, 47-51, 53-57, 59, 60,
                  73-80, 82-89, 91-95, 97-101, 103, 104, 117-124, 126-130,
                  132-136, 138, 139, 152-159, 161-165, 167-171, 173, 174
    3    7 N      10, 16, 22, 25, 46, 52, 58, 61, 90, 96, 102, 105, 125, 131,
                  137, 140, 160, 166, 172, 175
    4    1 H      26-36, 62-72, 106-115, 141-150, 176-185

molecular fragmentation (1/2 indicates fragments):
111111111111111111111111111111111111222222222222222222222222222222222222
222222222222222222222222222222222222222222222222222222222222222222222222
22222222222222222222222222222222222222222
# atoms in fragment 1/2:    36   149
 fragment masses (1/2) :      372.71     1583.89
CMA distance (Bohr)    :  53.472
constraining FC (au)   :  0.0500

           -------------------------------------------------
          |                 G F N 2 - x T B                 |
           -------------------------------------------------

        Reference                      10.1021/acs.jctc.8b01176
      * Hamiltonian:
        H0-scaling (s, p, d)           1.850000    2.230000    2.230000
        zeta-weighting                 0.500000
      * Dispersion:
        s8                             2.700000
        a1                             0.520000
        a2                             5.000000
        s9                             5.000000
      * Repulsion:
        kExp                           1.500000    1.000000
        rExp                           1.000000
      * Coulomb:
        alpha                          2.000000
        third order                    shell-resolved
        anisotropic                    true
        a3                             3.000000
        a5                             4.000000
        cn-shift                       1.200000
        cn-exp                         4.000000
        max-rad                        5.000000


          ...................................................
          :                      SETUP                      :
          :.................................................:
          :  # basis functions                 584          :
          :  # atomic orbitals                 584          :
          :  # shells                          318          :
          :  # electrons                       594          :
          :  max. iterations                   250          :
          :  Hamiltonian                  GFN2-xTB          :
          :  restarted?                      false          :
          :  GBSA solvation                  false          :
          :  PC potential                    false          :
          :  electronic temp.          300.0000000     K    :
          :  accuracy                    1.0000000          :
          :  -> integral cutoff          0.2500000E+02      :
          :  -> integral neglect         0.1000000E-07      :
          :  -> SCF convergence          0.1000000E-05 Eh   :
          :  -> wf. convergence          0.1000000E-03 e    :
          :  Broyden damping             0.4000000          :
          ...................................................

 iter      E             dE          RMSdq      gap      omega  full diag
   1   -322.5167390 -0.322517E+03  0.657E+00    0.31       0.0  T
   2   -321.5552713  0.961468E+00  0.356E+00    0.24       1.0  T
   3   -261.3721556  0.601831E+02  0.656E+00    0.04       1.0  T
   4   -168.4990769  0.928731E+02  0.161E+01    0.02       1.0  T
   5   -276.8121586 -0.108313E+03  0.560E+00    0.01       1.0  T
   6   -305.3437210 -0.285316E+02  0.420E+00    0.02       1.0  T
   7   -319.3402765 -0.139966E+02  0.269E+00    0.04       1.0  T
   8   -323.1453371 -0.380506E+01  0.196E+00    0.26       1.0  T
   9   -323.0324130  0.112924E+00  0.149E+00    0.08       1.0  T
  10   -322.3619818  0.670431E+00  0.166E+00    0.12       1.0  T
  11   -323.2816574 -0.919676E+00  0.129E+00    0.13       1.0  T
  12   -323.6061510 -0.324494E+00  0.103E+00    0.01       1.0  T
  13   -323.5385954  0.675556E-01  0.894E-01    0.07       1.0  T
  14   -323.7467497 -0.208154E+00  0.763E-01    0.08       1.0  T
  15   -323.7801759 -0.334262E-01  0.591E-01    0.09       1.0  T
  16   -323.8033746 -0.231986E-01  0.507E-01    0.10       1.0  T
  17   -323.8248303 -0.214557E-01  0.370E-01    0.14       1.0  T
  18   -323.8291177 -0.428741E-02  0.277E-01    0.17       1.0  T
  19   -323.8364434 -0.732577E-02  0.149E-01    0.15       1.0  T
  20   -323.8379894 -0.154595E-02  0.129E-01    0.14       1.0  T
  21   -323.8381046 -0.115182E-03  0.117E-01    0.13       1.0  T
  22   -323.8380696  0.349152E-04  0.111E-01    0.14       1.0  T
  23   -323.8382242 -0.154564E-03  0.105E-01    0.13       1.0  T
  24   -323.8381643  0.599416E-04  0.940E-02    0.13       1.0  T
  25   -323.8382567 -0.924777E-04  0.907E-02    0.13       1.0  T
  26   -323.8382678 -0.110981E-04  0.829E-02    0.12       1.0  T
  27   -323.8382945 -0.266465E-04  0.779E-02    0.12       1.0  T
  28   -323.8383321 -0.375881E-04  0.752E-02    0.12       1.0  T
  29   -323.8384280 -0.959000E-04  0.699E-02    0.12       1.0  T
  30   -323.8385372 -0.109198E-03  0.647E-02    0.13       1.0  T
  31   -323.8386300 -0.927936E-04  0.593E-02    0.13       1.0  T
  32   -323.8387898 -0.159842E-03  0.487E-02    0.13       1.0  T
  33   -323.8389283 -0.138460E-03  0.390E-02    0.13       1.0  T
  34   -323.8389472 -0.189055E-04  0.373E-02    0.13       1.0  T
  35   -323.8390383 -0.911381E-04  0.287E-02    0.13       1.0  T
  36   -323.8391162 -0.779206E-04  0.162E-02    0.13       1.0  T
  37   -323.8391416 -0.254109E-04  0.106E-02    0.13       1.0  T
  38   -323.8391484 -0.675448E-05  0.832E-03    0.13       1.0  T
  39   -323.8391575 -0.908038E-05  0.282E-03    0.13       2.6  T
  40   -323.8391586 -0.114084E-05  0.124E-03    0.13       6.0  T
  41   -323.8391588 -0.198397E-06  0.394E-04    0.13      18.7  T
  42   -323.8391588 -0.206918E-07  0.257E-04    0.13      28.6  T

   *** convergence criteria satisfied after 42 iterations ***

         #    Occupation            Energy/Eh            Energy/eV
      -------------------------------------------------------------
         1        2.0000           -0.6827917             -18.5797
       ...           ...                  ...                  ...
       291        2.0000           -0.3640407              -9.9061
       292        2.0000           -0.3626315              -9.8677
       293        2.0000           -0.3534468              -9.6178
       294        2.0000           -0.3534422              -9.6177
       295        2.0000           -0.3500339              -9.5249
       296        2.0000           -0.3415546              -9.2942
       297        1.8228           -0.3329767              -9.0608 (HOMO)
       298        0.1301           -0.3282303              -8.9316 (LUMO)
       299        0.0470           -0.3272222              -8.9042
       300        0.0000           -0.3169305              -8.6241
       301        0.0000           -0.3165046              -8.6125
       302                         -0.3144665              -8.5571
       ...                                ...                  ...
       584                          1.4401308              39.1880
      -------------------------------------------------------------
                  HL-Gap            0.0047464 Eh            0.1292 eV
             Fermi-level           -0.3307621 Eh           -9.0005 eV

 SCC (total)                   0 d,  0 h,  0 min,  3.913 sec
 SCC setup                      ...        0 min,  0.006 sec (  0.155%)
 Dispersion                     ...        0 min,  0.013 sec (  0.342%)
 classical contributions        ...        0 min,  0.002 sec (  0.040%)
 integral evaluation            ...        0 min,  0.105 sec (  2.674%)
 iterations                     ...        0 min,  3.475 sec ( 88.786%)
 molecular gradient             ...        0 min,  0.303 sec (  7.752%)
 printout                       ...        0 min,  0.010 sec (  0.250%)

         :::::::::::::::::::::::::::::::::::::::::::::::::::::
         ::                     SUMMARY                     ::
         :::::::::::::::::::::::::::::::::::::::::::::::::::::
         :: total energy            -318.020110085969 Eh    ::
         :: gradient norm              0.789368534834 Eh/a0 ::
         :: HOMO-LUMO gap              0.129156300437 eV    ::
         ::.................................................::
         :: SCC energy              -323.839158842991 Eh    ::
         :: -> isotropic ES            0.340361974935 Eh    ::
         :: -> anisotropic ES          0.040040456192 Eh    ::
         :: -> anisotropic XC          0.193770819152 Eh    ::
         :: -> dispersion             -0.294854715366 Eh    ::
         :: repulsion energy           5.818334860177 Eh    ::
         :: add. restraining           0.000000000000 Eh    ::
         :: total charge               0.000000000000 e     ::
         :::::::::::::::::::::::::::::::::::::::::::::::::::::

      ----------------------------------------------------------- 
     |                   =====================                   |
     |                        A N C O P T                        |
     |                   =====================                   |
     |               Approximate Normal Coordinate               |
     |                Rational Function Optimizer                |
      ----------------------------------------------------------- 

          ...................................................
          :                      SETUP                      :
          :.................................................:
          :   optimization level            normal          :
          :   max. optcycles                   555          :
          :   ANC micro-cycles                  20          :
          :   degrees of freedom               549          :
          :.................................................:
          :   RF solver                   davidson          :
          :   write xtbopt.log                true          :
          :   linear?                        false          :
          :   energy convergence         0.5000000E-05 Eh   :
          :   grad. convergence          0.1000000E-02 Eh/α :
          :   maximium RF displ.         1.0000000          :
          :   Hlow (freq-cutoff)         0.1000000E-01      :
          :   Hmax (freq-cutoff)         5.0000000          :
          :   S6 in model hess.         20.0000000          :
          ...................................................

generating ANC from model Hessian ...
Using Lindh-Hessian (1995)
 Shifting diagonal of input Hessian by    1.0025756514957714E-002
 Lowest  eigenvalues of input Hessian
    0.010000    0.010001    0.010003    0.010004    0.010010    0.010011
    0.010016    0.010017    0.010020    0.010023    0.000000    0.000000
    0.000000    0.000000    0.000000    0.000000    0.010027    0.010035
 Highest eigenvalues
    2.210448    2.211512    2.393221    2.512585    2.732929    2.732929


........................................................................
.............................. CYCLE    1 ..............................
........................................................................
   1   -323.8391589 -0.323839E+03  0.467E-04    0.13       0.0  T
   2   -323.8391580  0.879321E-06  0.113E-03    0.13       6.5  T
   3   -323.8391587 -0.734730E-06  0.574E-04    0.13      12.8  T
   4   -323.8391586  0.111670E-06  0.666E-04    0.13      11.0  T
     SCC iter.                  ...        0 min,  0.331 sec
     gradient                   ...        0 min,  0.304 sec
 * total energy  :  -318.0201098 Eh     change        0.2392588E-06 Eh
   gradient norm :     0.7893708 Eh/α   predicted     0.0000000E+00 (-100.00%)
   displ. norm   :     0.5594663 α      lambda       -0.3485249E+00
   maximum displ.:     0.1548509 α      in ANC's #189, #537, #188, ...

........................................................................
.............................. CYCLE    2 ..............................
........................................................................
   1   -323.8091259 -0.323809E+03  0.377E-01    0.14       0.0  T
   2   -323.1935736  0.615552E+00  0.928E-01    0.14       1.0  T
   3   -323.6813888 -0.487815E+00  0.516E-01    0.03       1.0  T
   4   -323.7750714 -0.936826E-01  0.386E-01    0.50       1.0  T
   5   -323.8176288 -0.425575E-01  0.200E-01    0.21       1.0  T
   6   -323.6431244  0.174504E+00  0.485E-01    0.03       1.0  T
   7   -323.8168503 -0.173726E+00  0.160E-01    0.23       1.0  T
   8   -323.8236669 -0.681655E-02  0.146E-01    0.15       1.0  T
   9   -323.8267085 -0.304164E-02  0.950E-02    0.17       1.0  T
  10   -323.8278591 -0.115058E-02  0.822E-02    0.17       1.0  T
  11   -323.8294290 -0.156993E-02  0.593E-02    0.17       1.0  T
  12   -323.8310273 -0.159827E-02  0.395E-02    0.16       1.0  T
  13   -323.8313514 -0.324097E-03  0.213E-02    0.15       1.0  T
  14   -323.8315823 -0.230952E-03  0.109E-02    0.14       1.0  T
  15   -323.8315465  0.358161E-04  0.948E-03    0.14       1.0  T
  16   -323.8315832 -0.367269E-04  0.628E-03    0.14       1.2  T
  17   -323.8316081 -0.248160E-04  0.233E-03    0.13       3.2  T
  18   -323.8316092 -0.112347E-05  0.137E-03    0.14       5.4  T
  19   -323.8316101 -0.920564E-06  0.549E-04    0.13      13.4  T
  20   -323.8316101  0.317925E-07  0.456E-04    0.13      16.1  T
     SCC iter.                  ...        0 min,  1.627 sec
     gradient                   ...        0 min,  0.304 sec
 * total energy  :  -318.2968612 Eh     change       -0.2767513E+00 Eh
   gradient norm :     0.4419384 Eh/α   predicted    -0.2288536E+00 ( -17.31%)
   displ. norm   :     0.6490304 α      lambda       -0.2273884E+00
   maximum displ.:     0.1995211 α      in ANC's #189, #188, #537, ...

........................................................................
.............................. CYCLE    3 ..............................
........................................................................
   1   -323.8649880 -0.323865E+03  0.377E-01    0.15       0.0  T
   2   -323.5108119  0.354176E+00  0.727E-01    0.07       1.0  T
   3   -323.7937271 -0.282915E+00  0.439E-01    0.08       1.0  T
   4   -323.8538083 -0.600813E-01  0.294E-01    0.45       1.0  T
   5   -323.7848494  0.689589E-01  0.361E-01    0.03       1.0  T
   6   -323.8583938 -0.735444E-01  0.206E-01    0.27       1.0  T
   7   -323.8692698 -0.108761E-01  0.184E-01    0.14       1.0  T
   8   -323.8745745 -0.530466E-02  0.123E-01    0.19       1.0  T
   9   -323.8780095 -0.343501E-02  0.963E-02    0.19       1.0  T
  10   -323.8794329 -0.142334E-02  0.820E-02    0.19       1.0  T
  11   -323.8798431 -0.410197E-03  0.741E-02    0.18       1.0  T
  12   -323.8814477 -0.160464E-02  0.525E-02    0.17       1.0  T
  13   -323.8810649  0.382833E-03  0.421E-02    0.11       1.0  T
  14   -323.8822262 -0.116136E-02  0.219E-02    0.14       1.0  T
  15   -323.8811759  0.105026E-02  0.379E-02    0.11       1.0  T
  16   -323.8822533 -0.107733E-02  0.987E-03    0.14       1.0  T
  17   -323.8822951 -0.417862E-04  0.592E-03    0.14       1.2  T
  18   -323.8823206 -0.255741E-04  0.188E-03    0.14       3.9  T
  19   -323.8823162  0.445199E-05  0.255E-03    0.14       2.9  T
  20   -323.8823215 -0.527075E-05  0.628E-04    0.14      11.7  T
  21   -323.8823216 -0.161532E-06  0.268E-04    0.14      27.4  T
  22   -323.8823216  0.300553E-07  0.254E-04    0.14      28.9  T
     SCC iter.                  ...        0 min,  1.814 sec
     gradient                   ...        0 min,  0.304 sec
 * total energy  :  -318.4647709 Eh     change       -0.1679097E+00 Eh
   gradient norm :     0.1793807 Eh/α   predicted    -0.1615868E+00 (  -3.77%)
   displ. norm   :     0.7328952 α      lambda       -0.1085423E+00
   maximum displ.:     0.2330235 α      in ANC's #189, #188, #183, ...

........................................................................
.............................. CYCLE    4 ..............................
........................................................................
   1   -323.9581236 -0.323958E+03  0.283E-01    0.22       0.0  T
   2   -323.7658369  0.192287E+00  0.536E-01    0.03       1.0  T
   3   -323.9341314 -0.168295E+00  0.272E-01    0.25       1.0  T
   4   -323.9549323 -0.208009E-01  0.183E-01    0.29       1.0  T
   5   -323.9458377  0.909459E-02  0.195E-01    0.18       1.0  T
   6   -323.9561234 -0.102857E-01  0.136E-01    0.23       1.0  T
   7   -323.9603723 -0.424887E-02  0.827E-02    0.24       1.0  T
   8   -323.9616262 -0.125394E-02  0.625E-02    0.20       1.0  T
   9   -323.9617329 -0.106621E-03  0.602E-02    0.20       1.0  T
  10   -323.9619087 -0.175878E-03  0.575E-02    0.20       1.0  T
  11   -323.9632241 -0.131536E-02  0.313E-02    0.17       1.0  T
  12   -323.9627341  0.490007E-03  0.286E-02    0.13       1.0  T
  13   -323.9631420 -0.407875E-03  0.200E-02    0.16       1.0  T
  14   -323.9634415 -0.299545E-03  0.829E-03    0.17       1.0  T
  15   -323.9634471 -0.557871E-05  0.658E-03    0.15       1.1  T
  16   -323.9634831 -0.360049E-04  0.280E-03    0.16       2.6  T
  17   -323.9634804  0.267484E-05  0.290E-03    0.16       2.5  T
  18   -323.9634876 -0.719027E-05  0.603E-04    0.16      12.2  T
  19   -323.9634877 -0.126696E-06  0.272E-04    0.16      27.0  T
  20   -323.9634878 -0.278777E-07  0.158E-04    0.16      46.6  T
     SCC iter.                  ...        0 min,  1.651 sec
     gradient                   ...        0 min,  0.304 sec
 * total energy  :  -318.5526653 Eh     change       -0.8789447E-01 Eh
   gradient norm :     0.1025787 Eh/α   predicted    -0.8342221E-01 (  -5.09%)
   displ. norm   :     0.8109110 α      lambda       -0.7509297E-01
   maximum displ.:     0.2204636 α      in ANC's #189, #93, #188, ...

........................................................................
.............................. CYCLE    5 ..............................
........................................................................
   1   -324.0288266 -0.324029E+03  0.281E-01    0.32       0.0  T
   2   -324.0133504  0.154762E-01  0.239E-01    0.11       1.0  T
   3   -324.0063258  0.702464E-02  0.269E-01    0.35       1.0  T
   4   -324.0279893 -0.216635E-01  0.114E-01    0.32       1.0  T
   5   -324.0288391 -0.849822E-03  0.798E-02    0.25       1.0  T
   6   -324.0308775 -0.203841E-02  0.375E-02    0.26       1.0  T
   7   -324.0312628 -0.385280E-03  0.274E-02    0.26       1.0  T
   8   -324.0313184 -0.555953E-04  0.229E-02    0.25       1.0  T
   9   -324.0313673 -0.489600E-04  0.173E-02    0.26       1.0  T
  10   -324.0313666  0.759805E-06  0.134E-02    0.24       1.0  T
  11   -324.0314379 -0.712899E-04  0.481E-03    0.23       1.5  T
  12   -324.0314416 -0.378572E-05  0.310E-03    0.22       2.4  T
  13   -324.0314432 -0.154928E-05  0.233E-03    0.23       3.2  T
  14   -324.0314439 -0.706696E-06  0.203E-03    0.23       3.6  T
  15   -324.0314447 -0.813737E-06  0.747E-04    0.23       9.8  T
  16   -324.0314449 -0.229593E-06  0.338E-04    0.23      21.7  T
     SCC iter.                  ...        0 min,  1.322 sec
     gradient                   ...        0 min,  0.304 sec
 * total energy  :  -318.6182941 Eh     change       -0.6562874E-01 Eh
   gradient norm :     0.0887525 Eh/α   predicted    -0.6223712E-01 (  -5.17%)
   displ. norm   :     0.8735564 α      lambda       -0.6294846E-01
   maximum displ.:     0.2806332 α      in ANC's #21, #59, #93, ...

........................................................................
.............................. CYCLE    6 ..............................
........................................................................
   1   -324.0851512 -0.324085E+03  0.317E-01    0.49       0.0  T
   2   -324.0808402  0.431099E-02  0.228E-01    0.41       1.0  T
   3   -324.0674965  0.133438E-01  0.295E-01    0.54       1.0  T
   4   -324.0836882 -0.161917E-01  0.109E-01    0.52       1.0  T
   5   -324.0867037 -0.301557E-02  0.465E-02    0.47       1.0  T
   6   -324.0873311 -0.627310E-03  0.719E-03    0.49       1.0  T
   7   -324.0873361 -0.501986E-05  0.542E-03    0.48       1.4  T
   8   -324.0873369 -0.835254E-06  0.462E-03    0.48       1.6  T
   9   -324.0873402 -0.333133E-05  0.224E-03    0.48       3.3  T
  10   -324.0873416 -0.132412E-05  0.846E-04    0.48       8.7  T
  11   -324.0873417 -0.133640E-06  0.468E-04    0.48      15.7  T
  12   -324.0873417 -0.453157E-07  0.246E-04    0.48      29.8  T
     SCC iter.                  ...        0 min,  0.993 sec
     gradient                   ...        0 min,  0.304 sec
 * total energy  :  -318.6761534 Eh     change       -0.5785936E-01 Eh
   gradient norm :     0.0791042 Eh/α   predicted    -0.5549224E-01 (  -4.09%)
   displ. norm   :     0.9249473 α      lambda       -0.5847703E-01
   maximum displ.:     0.3568894 α      in ANC's #21, #59, #15, ...

........................................................................
.............................. CYCLE    7 ..............................
........................................................................
   1   -324.1295989 -0.324130E+03  0.352E-01    0.77       0.0  T
   2   -324.1265892  0.300974E-02  0.238E-01    0.80       1.0  T
   3   -324.1150696  0.115196E-01  0.289E-01    0.82       1.0  T
   4   -324.1311419 -0.160723E-01  0.597E-02    0.83       1.0  T
   5   -324.1315688 -0.426889E-03  0.357E-02    0.82       1.0  T
   6   -324.1319458 -0.377013E-03  0.797E-03    0.82       1.0  T
   7   -324.1319587 -0.128696E-04  0.424E-03    0.82       1.7  T
   8   -324.1319596 -0.885730E-06  0.287E-03    0.82       2.6  T
   9   -324.1319609 -0.130782E-05  0.155E-03    0.82       4.8  T
  10   -324.1319614 -0.557304E-06  0.715E-04    0.82      10.3  T
  11   -324.1319615 -0.887082E-07  0.299E-04    0.82      24.6  T
     SCC iter.                  ...        0 min,  0.916 sec
     gradient                   ...        0 min,  0.305 sec
 * total energy  :  -318.7327478 Eh     change       -0.5659436E-01 Eh
   gradient norm :     0.0753080 Eh/α   predicted    -0.5425288E-01 (  -4.14%)
   displ. norm   :     0.9645058 α      lambda       -0.6029805E-01
   maximum displ.:     0.4049711 α      in ANC's #21, #59, #15, ...

........................................................................
.............................. CYCLE    8 ..............................
........................................................................
   1   -324.1656743 -0.324166E+03  0.367E-01    0.89       0.0  T
   2   -324.1639992  0.167503E-02  0.242E-01    0.89       1.0  T
   3   -324.1532275  0.107718E-01  0.272E-01    0.90       1.0  T
   4   -324.1674631 -0.142356E-01  0.444E-02    0.90       1.0  T
   5   -324.1677444 -0.281340E-03  0.181E-02    0.90       1.0  T
   6   -324.1678445 -0.100085E-03  0.779E-03    0.90       1.0  T
   7   -324.1678558 -0.113371E-04  0.399E-03    0.90       1.8  T
   8   -324.1678569 -0.110157E-05  0.211E-03    0.90       3.5  T
   9   -324.1678577 -0.701496E-06  0.990E-04    0.90       7.4  T
  10   -324.1678577 -0.776584E-07  0.616E-04    0.90      11.9  T
     SCC iter.                  ...        0 min,  0.816 sec
     gradient                   ...        0 min,  0.305 sec
 * total energy  :  -318.7919962 Eh     change       -0.5924844E-01 Eh
   gradient norm :     0.0762696 Eh/α   predicted    -0.5819587E-01 (  -1.78%)
   displ. norm   :     0.9644986 α      lambda       -0.6173910E-01
   maximum displ.:     0.4285195 α      in ANC's #21, #59, #15, ...

........................................................................
.............................. CYCLE    9 ..............................
........................................................................
   1   -324.2021568 -0.324202E+03  0.340E-01    0.94       0.0  T
   2   -324.2008843  0.127248E-02  0.233E-01    0.94       1.0  T
   3   -324.1909666  0.991774E-02  0.242E-01    0.94       1.0  T
   4   -324.2031614 -0.121948E-01  0.487E-02    0.94       1.0  T
   5   -324.2037151 -0.553745E-03  0.187E-02    0.94       1.0  T
   6   -324.2038289 -0.113776E-03  0.747E-03    0.94       1.0  T
   7   -324.2038367 -0.779374E-05  0.434E-03    0.94       1.7  T
   8   -324.2038377 -0.106356E-05  0.199E-03    0.94       3.7  T
   9   -324.2038384 -0.618740E-06  0.104E-03    0.94       7.0  T
  10   -324.2038386 -0.265281E-06  0.479E-04    0.94      15.3  T
  11   -324.2038387 -0.538419E-07  0.237E-04    0.94      31.0  T
     SCC iter.                  ...        0 min,  0.898 sec
     gradient                   ...        0 min,  0.305 sec
 * total energy  :  -318.8508345 Eh     change       -0.5883830E-01 Eh
   gradient norm :     0.0774865 Eh/α   predicted    -0.5958620E-01 (   1.27%)
   displ. norm   :     0.9348254 α      lambda       -0.5435979E-01
   maximum displ.:     0.4697340 α      in ANC's #21, #15, #59, ...

........................................................................
.............................. CYCLE   10 ..............................
........................................................................
   1   -324.2233131 -0.324223E+03  0.281E-01    0.96       0.0  T
   2   -324.2219197  0.139341E-02  0.202E-01    0.96       1.0  T
   3   -324.2141790  0.774061E-02  0.199E-01    0.96       1.0  T
   4   -324.2239747 -0.979571E-02  0.343E-02    0.96       1.0  T
   5   -324.2243082 -0.333435E-03  0.939E-03    0.96       1.0  T
   6   -324.2243237 -0.155450E-04  0.505E-03    0.96       1.5  T
   7   -324.2243266 -0.289582E-05  0.316E-03    0.96       2.3  T
   8   -324.2243278 -0.115203E-05  0.125E-03    0.96       5.9  T
   9   -324.2243282 -0.407555E-06  0.466E-04    0.96      15.8  T
  10   -324.2243282 -0.493451E-07  0.247E-04    0.96      29.7  T
     SCC iter.                  ...        0 min,  0.827 sec
     gradient                   ...        0 min,  0.305 sec
 * total energy  :  -318.8964750 Eh     change       -0.4564043E-01 Eh
   gradient norm :     0.0750035 Eh/α   predicted    -0.5093240E-01 (  11.59%)
   displ. norm   :     0.8205672 α      lambda       -0.4013648E-01
   maximum displ.:     0.4550515 α      in ANC's #21, #15, #25, ...

........................................................................
.............................. CYCLE   11 ..............................
........................................................................
   1   -324.2571152 -0.324257E+03  0.222E-01    0.97       0.0  T
   2   -324.2566980  0.417182E-03  0.144E-01    0.97       1.0  T
   3   -324.2489429  0.775504E-02  0.153E-01    0.97       1.0  T
   4   -324.2573044 -0.836144E-02  0.249E-02    0.97       1.0  T
   5   -324.2574688 -0.164379E-03  0.521E-03    0.97       1.4  T
   6   -324.2574721 -0.333758E-05  0.316E-03    0.97       2.3  T
   7   -324.2574724 -0.323609E-06  0.218E-03    0.97       3.4  T
   8   -324.2574737 -0.132731E-05  0.855E-04    0.97       8.6  T
   9   -324.2574740 -0.217967E-06  0.330E-04    0.97      22.3  T
  10   -324.2574740 -0.132960E-07  0.180E-04    0.97      40.9  T
     SCC iter.                  ...        0 min,  0.826 sec
     gradient                   ...        0 min,  0.305 sec
 * total energy  :  -318.9318520 Eh     change       -0.3537707E-01 Eh
   gradient norm :     0.0608035 Eh/α   predicted    -0.3358093E-01 (  -5.08%)
   displ. norm   :     0.8483427 α      lambda       -0.3820366E-01
   maximum displ.:     0.4911041 α      in ANC's #21, #15, #25, ...

........................................................................
.............................. CYCLE   12 ..............................
........................................................................
   1   -324.3337976 -0.324334E+03  0.206E-01    0.96       0.0  T
   2   -324.3335622  0.235357E-03  0.130E-01    0.96       1.0  T
   3   -324.3264894  0.707285E-02  0.128E-01    0.96       1.0  T
   4   -324.3338656 -0.737625E-02  0.258E-02    0.96       1.0  T
   5   -324.3340810 -0.215336E-03  0.554E-03    0.96       1.3  T
   6   -324.3340871 -0.610536E-05  0.291E-03    0.96       2.5  T
   7   -324.3340879 -0.819996E-06  0.191E-03    0.96       3.9  T
   8   -324.3340885 -0.602532E-06  0.824E-04    0.96       8.9  T
   9   -324.3340886 -0.133157E-06  0.332E-04    0.96      22.1  T
     SCC iter.                  ...        0 min,  0.735 sec
     gradient                   ...        0 min,  0.307 sec
 * total energy  :  -318.9649854 Eh     change       -0.3313341E-01 Eh
   gradient norm :     0.0515723 Eh/α   predicted    -0.3284912E-01 (  -0.86%)
   displ. norm   :     0.9062355 α      lambda       -0.3264987E-01
   maximum displ.:     0.5415367 α      in ANC's #21, #15, #25, ...

........................................................................
.............................. CYCLE   13 ..............................
........................................................................
   1   -324.3832571 -0.324383E+03  0.162E-01    0.96       0.0  T
   2   -324.3830500  0.207117E-03  0.105E-01    0.95       1.0  T
   3   -324.3784835  0.456647E-02  0.109E-01    0.96       1.0  T
   4   -324.3833318 -0.484829E-02  0.152E-02    0.96       1.0  T
   5   -324.3834152 -0.833918E-04  0.390E-03    0.96       1.9  T
   6   -324.3834179 -0.270473E-05  0.240E-03    0.96       3.1  T
   7   -324.3834186 -0.722777E-06  0.138E-03    0.96       5.3  T
   8   -324.3834190 -0.382079E-06  0.547E-04    0.96      13.4  T
   9   -324.3834191 -0.734879E-07  0.218E-04    0.96      33.8  T
     SCC iter.                  ...        0 min,  0.745 sec
     gradient                   ...        0 min,  0.305 sec
 * total energy  :  -318.9947064 Eh     change       -0.2972100E-01 Eh
   gradient norm :     0.0473705 Eh/α   predicted    -0.2973202E-01 (   0.04%)
   displ. norm   :     0.9279956 α      lambda       -0.2993717E-01
   maximum displ.:     0.5340515 α      in ANC's #21, #15, #25, ...

........................................................................
.............................. CYCLE   14 ..............................
........................................................................
   1   -324.4247473 -0.324425E+03  0.157E-01    0.95       0.0  T
   2   -324.4245927  0.154512E-03  0.101E-01    0.95       1.0  T
   3   -324.4203404  0.425237E-02  0.102E-01    0.95       1.0  T
   4   -324.4248016 -0.446125E-02  0.127E-02    0.95       1.0  T
   5   -324.4248617 -0.600969E-04  0.323E-03    0.95       2.3  T
   6   -324.4248634 -0.169675E-05  0.194E-03    0.95       3.8  T
   7   -324.4248638 -0.396918E-06  0.100E-03    0.95       7.3  T
   8   -324.4248640 -0.157627E-06  0.390E-04    0.95      18.9  T
   9   -324.4248640 -0.301668E-07  0.179E-04    0.95      41.0  T
     SCC iter.                  ...        0 min,  0.744 sec
     gradient                   ...        0 min,  0.306 sec
 * total energy  :  -319.0215462 Eh     change       -0.2683981E-01 Eh
   gradient norm :     0.0406794 Eh/α   predicted    -0.2785916E-01 (   3.80%)
   displ. norm   :     0.9424763 α      lambda       -0.2862630E-01
   maximum displ.:     0.5228173 α      in ANC's #21, #15, #25, ...

........................................................................
.............................. CYCLE   15 ..............................
........................................................................
   1   -324.4774768 -0.324477E+03  0.170E-01    0.93       0.0  T
   2   -324.4773812  0.955860E-04  0.106E-01    0.93       1.0  T
   3   -324.4738019  0.357925E-02  0.100E-01    0.93       1.0  T
   4   -324.4775187 -0.371675E-02  0.158E-02    0.93       1.0  T
   5   -324.4776066 -0.879656E-04  0.372E-03    0.93       2.0  T
   6   -324.4776082 -0.154500E-05  0.253E-03    0.93       2.9  T
   7   -324.4776092 -0.103435E-05  0.119E-03    0.93       6.2  T
   8   -324.4776094 -0.188056E-06  0.466E-04    0.93      15.8  T
   9   -324.4776095 -0.562389E-07  0.201E-04    0.93      36.6  T
     SCC iter.                  ...        0 min,  0.736 sec
     gradient                   ...        0 min,  0.306 sec
 * total energy  :  -319.0455275 Eh     change       -0.2398124E-01 Eh
   gradient norm :     0.0369350 Eh/α   predicted    -0.2702697E-01 (  12.70%)
   displ. norm   :     0.9084206 α      lambda       -0.2462243E-01
   maximum displ.:     0.4866908 α      in ANC's #21, #15, #25, ...

........................................................................
.............................. CYCLE   16 ..............................
........................................................................
   1   -324.5090181 -0.324509E+03  0.133E-01    0.92       0.0  T
   2   -324.5089633  0.547948E-04  0.839E-02    0.92       1.0  T
   3   -324.5068521  0.211122E-02  0.753E-02    0.92       1.0  T
   4   -324.5090292 -0.217707E-02  0.135E-02    0.92       1.0  T
   5   -324.5090967 -0.675232E-04  0.338E-03    0.92       2.2  T
   6   -324.5090986 -0.186453E-05  0.191E-03    0.92       3.9  T
   7   -324.5090990 -0.414213E-06  0.110E-03    0.92       6.7  T
   8   -324.5090992 -0.218274E-06  0.428E-04    0.92      17.2  T
   9   -324.5090993 -0.587366E-07  0.171E-04    0.92      43.0  T
     SCC iter.                  ...        0 min,  0.745 sec
     gradient                   ...        0 min,  0.306 sec
 * total energy  :  -319.0676034 Eh     change       -0.2207596E-01 Eh
   gradient norm :     0.0334292 Eh/α   predicted    -0.2247079E-01 (   1.79%)
   displ. norm   :     0.9284517 α      lambda       -0.2232704E-01
   maximum displ.:     0.4888245 α      in ANC's #15, #21, #25, ...

........................................................................
.............................. CYCLE   17 ..............................
........................................................................
   1   -324.5248150 -0.324525E+03  0.142E-01    0.93       0.0  T
   2   -324.5247024  0.112580E-03  0.906E-02    0.93       1.0  T
   3   -324.5220938  0.260858E-02  0.892E-02    0.93       1.0  T
   4   -324.5248765 -0.278267E-02  0.126E-02    0.93       1.0  T
   5   -324.5249253 -0.488424E-04  0.360E-03    0.93       2.0  T
   6   -324.5249268 -0.141737E-05  0.230E-03    0.93       3.2  T
   7   -324.5249277 -0.984468E-06  0.105E-03    0.93       7.0  T
   8   -324.5249280 -0.242692E-06  0.399E-04    0.93      18.4  T
   9   -324.5249280 -0.413173E-07  0.167E-04    0.93      43.9  T
     SCC iter.                  ...        0 min,  0.736 sec
     gradient                   ...        0 min,  0.307 sec
 * total energy  :  -319.0875954 Eh     change       -0.1999194E-01 Eh
   gradient norm :     0.0397175 Eh/α   predicted    -0.2078672E-01 (   3.98%)
   displ. norm   :     0.9269559 α      lambda       -0.2189384E-01
   maximum displ.:     0.4830207 α      in ANC's #15, #21, #25, ...

........................................................................
.............................. CYCLE   18 ..............................
........................................................................
   1   -324.5755091 -0.324576E+03  0.154E-01    0.90       0.0  T
   2   -324.5755318 -0.227155E-04  0.935E-02    0.90       1.0  T
   3   -324.5742381  0.129367E-02  0.665E-02    0.90       1.0  T
   4   -324.5755101 -0.127194E-02  0.201E-02    0.90       1.0  T
   5   -324.5756506 -0.140495E-03  0.354E-03    0.90       2.1  T
   6   -324.5756522 -0.162605E-05  0.216E-03    0.90       3.4  T
   7   -324.5756527 -0.469787E-06  0.138E-03    0.90       5.3  T
   8   -324.5756532 -0.497388E-06  0.412E-04    0.90      17.9  T
   9   -324.5756532 -0.522345E-07  0.147E-04    0.90      50.0  T
     SCC iter.                  ...        0 min,  0.736 sec
     gradient                   ...        0 min,  0.307 sec
 * total energy  :  -319.1068148 Eh     change       -0.1921943E-01 Eh
   gradient norm :     0.0375441 Eh/α   predicted    -0.2035305E-01 (   5.90%)
   displ. norm   :     0.9164050 α      lambda       -0.2045227E-01
   maximum displ.:     0.4592425 α      in ANC's #15, #21, #25, ...

........................................................................
.............................. CYCLE   19 ..............................
........................................................................
   1   -324.5985423 -0.324599E+03  0.159E-01    0.92       0.0  T
   2   -324.5984545  0.877246E-04  0.989E-02    0.92       1.0  T
   3   -324.5963133  0.214127E-02  0.925E-02    0.92       1.0  T
   4   -324.5986073 -0.229402E-02  0.152E-02    0.92       1.0  T
   5   -324.5986775 -0.702542E-04  0.361E-03    0.92       2.0  T
   6   -324.5986786 -0.105621E-05  0.239E-03    0.92       3.1  T
   7   -324.5986795 -0.943016E-06  0.118E-03    0.92       6.2  T
   8   -324.5986799 -0.336812E-06  0.500E-04    0.92      14.7  T
   9   -324.5986800 -0.819426E-07  0.167E-04    0.92      44.0  T
     SCC iter.                  ...        0 min,  0.736 sec
     gradient                   ...        0 min,  0.308 sec
 * total energy  :  -319.1241634 Eh     change       -0.1734857E-01 Eh
   gradient norm :     0.0406424 Eh/α   predicted    -0.1881403E-01 (   8.45%)
   displ. norm   :     0.9074873 α      lambda       -0.1895416E-01
   maximum displ.:     0.4713616 α      in ANC's #15, #21, #25, ...

........................................................................
.............................. CYCLE   20 ..............................
........................................................................
   1   -324.6229530 -0.324623E+03  0.139E-01    0.91       0.0  T
   2   -324.6229151  0.379640E-04  0.861E-02    0.91       1.0  T
   3   -324.6216279  0.128720E-02  0.747E-02    0.91       1.0  T
   4   -324.6230002 -0.137230E-02  0.923E-03    0.91       1.0  T
   5   -324.6230268 -0.266177E-04  0.258E-03    0.91       2.8  T
   6   -324.6230281 -0.132813E-05  0.140E-03    0.91       5.2  T
   7   -324.6230283 -0.166380E-06  0.806E-04    0.91       9.1  T
   8   -324.6230284 -0.141655E-06  0.321E-04    0.91      22.9  T
     SCC iter.                  ...        0 min,  0.657 sec
     gradient                   ...        0 min,  0.306 sec
 * total energy  :  -319.1412265 Eh     change       -0.1706314E-01 Eh
   gradient norm :     0.0276355 Eh/α   predicted    -0.1728178E-01 (   1.28%)
   displ. norm   :     0.9382734 α      lambda       -0.1715539E-01
   maximum displ.:     0.4744659 α      in ANC's #15, #25, #28, ...
 * RMSD in coord.:     1.0251164 α      energy gain  -0.1121116E+01 Eh

generating ANC from model Hessian ...
Using Lindh-Hessian (1995)
 Shifting diagonal of input Hessian by    1.0016787481216089E-002
 Lowest  eigenvalues of input Hessian
    0.010000    0.010003    0.010006    0.010007    0.010011    0.010012
    0.010013    0.010014    0.010015    0.000000    0.000000    0.000000
    0.000000    0.000000    0.000000    0.010021    0.010036    0.010089
 Highest eigenvalues
    2.118552    2.118786    2.511163    2.526702    2.558056    2.561076


........................................................................
.............................. CYCLE   21 ..............................
........................................................................
   1   -324.6431696 -0.324643E+03  0.147E-01    0.92       0.0  T
   2   -324.6431332  0.363676E-04  0.897E-02    0.92       1.0  T
   3   -324.6414461  0.168715E-02  0.719E-02    0.92       1.0  T
   4   -324.6432049 -0.175878E-02  0.111E-02    0.92       1.0  T
   5   -324.6432438 -0.389024E-04  0.300E-03    0.92       2.5  T
   6   -324.6432452 -0.143677E-05  0.168E-03    0.92       4.4  T
   7   -324.6432456 -0.380315E-06  0.903E-04    0.92       8.1  T
   8   -324.6432458 -0.193440E-06  0.283E-04    0.92      26.0  T
     SCC iter.                  ...        0 min,  0.657 sec
     gradient                   ...        0 min,  0.307 sec
 * total energy  :  -319.1566664 Eh     change       -0.1543984E-01 Eh
   gradient norm :     0.0301479 Eh/α   predicted     0.0000000E+00 (-100.00%)
   displ. norm   :     0.6827647 α      lambda       -0.1212649E-01
   maximum displ.:     0.5119980 α      in ANC's #26, #37, #23, ...

........................................................................
.............................. CYCLE   22 ..............................
........................................................................
   1   -324.6748682 -0.324675E+03  0.106E-01    0.92       0.0  T
   2   -324.6748603  0.788134E-05  0.636E-02    0.92       1.0  T
   3   -324.6742827  0.577631E-03  0.441E-02    0.92       1.0  T
   4   -324.6748798 -0.597115E-03  0.661E-03    0.92       1.1  T
   5   -324.6748938 -0.140622E-04  0.166E-03    0.92       4.4  T
   6   -324.6748942 -0.396868E-06  0.988E-04    0.92       7.4  T
   7   -324.6748944 -0.138857E-06  0.486E-04    0.92      15.1  T
     SCC iter.                  ...        0 min,  0.576 sec
     gradient                   ...        0 min,  0.307 sec
 * total energy  :  -319.1681881 Eh     change       -0.1152170E-01 Eh
   gradient norm :     0.0195319 Eh/α   predicted    -0.8889768E-02 ( -22.84%)
   displ. norm   :     0.8862828 α      lambda       -0.1425858E-01
   maximum displ.:     0.6316920 α      in ANC's #26, #37, #23, ...

........................................................................
.............................. CYCLE   23 ..............................
........................................................................
   1   -324.7051234 -0.324705E+03  0.138E-01    0.92       0.0  T
   2   -324.7051169  0.646847E-05  0.821E-02    0.92       1.0  T
   3   -324.7044057  0.711232E-03  0.470E-02    0.92       1.0  T
   4   -324.7051373 -0.731624E-03  0.706E-03    0.92       1.0  T
   5   -324.7051541 -0.167482E-04  0.200E-03    0.92       3.7  T
   6   -324.7051545 -0.467417E-06  0.123E-03    0.92       6.0  T
   7   -324.7051547 -0.209522E-06  0.558E-04    0.92      13.2  T
   8   -324.7051548 -0.804395E-07  0.186E-04    0.92      39.4  T
     SCC iter.                  ...        0 min,  0.665 sec
     gradient                   ...        0 min,  0.307 sec
 * total energy  :  -319.1817707 Eh     change       -0.1358264E-01 Eh
   gradient norm :     0.0160322 Eh/α   predicted    -0.1272933E-01 (  -6.28%)
   displ. norm   :     0.9143116 α      lambda       -0.1345656E-01
   maximum displ.:     0.6609014 α      in ANC's #26, #23, #37, ...

........................................................................
.............................. CYCLE   24 ..............................
........................................................................
   1   -324.7262848 -0.324726E+03  0.139E-01    0.92       0.0  T
   2   -324.7262859 -0.112656E-05  0.820E-02    0.92       1.0  T
   3   -324.7259316  0.354358E-03  0.287E-02    0.92       1.0  T
   4   -324.7262901 -0.358574E-03  0.606E-03    0.92       1.2  T
   5   -324.7263035 -0.133585E-04  0.171E-03    0.92       4.3  T
   6   -324.7263037 -0.173335E-06  0.111E-03    0.92       6.6  T
   7   -324.7263038 -0.140709E-06  0.494E-04    0.92      14.9  T
   8   -324.7263039 -0.574652E-07  0.139E-04    0.92      52.8  T
     SCC iter.                  ...        0 min,  0.664 sec
     gradient                   ...        0 min,  0.307 sec
 * total energy  :  -319.1946870 Eh     change       -0.1291629E-01 Eh
   gradient norm :     0.0169557 Eh/α   predicted    -0.1235308E-01 (  -4.36%)
   displ. norm   :     0.9139976 α      lambda       -0.1254159E-01
   maximum displ.:     0.6707060 α      in ANC's #26, #23, #15, ...

........................................................................
.............................. CYCLE   25 ..............................
........................................................................
   1   -324.7452752 -0.324745E+03  0.133E-01    0.93       0.0  T
   2   -324.7452769 -0.170598E-05  0.785E-02    0.92       1.0  T
   3   -324.7449997  0.277259E-03  0.247E-02    0.93       1.0  T
   4   -324.7452806 -0.280967E-03  0.552E-03    0.92       1.3  T
   5   -324.7452911 -0.104706E-04  0.158E-03    0.92       4.7  T
   6   -324.7452912 -0.977147E-07  0.101E-03    0.92       7.2  T
   7   -324.7452913 -0.100510E-06  0.515E-04    0.92      14.3  T
   8   -324.7452914 -0.720157E-07  0.132E-04    0.92      55.7  T
     SCC iter.                  ...        0 min,  0.663 sec
     gradient                   ...        0 min,  0.308 sec
 * total energy  :  -319.2067192 Eh     change       -0.1203221E-01 Eh
   gradient norm :     0.0156305 Eh/α   predicted    -0.1150947E-01 (  -4.34%)
   displ. norm   :     0.9107197 α      lambda       -0.1164968E-01
   maximum displ.:     0.6783908 α      in ANC's #26, #23, #15, ...

........................................................................
.............................. CYCLE   26 ..............................
........................................................................
   1   -324.7645022 -0.324765E+03  0.126E-01    0.93       0.0  T
   2   -324.7645038 -0.161234E-05  0.743E-02    0.93       1.0  T
   3   -324.7642497  0.254127E-03  0.249E-02    0.93       1.0  T
   4   -324.7645084 -0.258646E-03  0.524E-03    0.93       1.4  T
   5   -324.7645173 -0.894465E-05  0.152E-03    0.93       4.8  T
   6   -324.7645174 -0.717191E-07  0.999E-04    0.93       7.4  T
   7   -324.7645175 -0.112392E-06  0.490E-04    0.93      15.0  T
     SCC iter.                  ...        0 min,  0.582 sec
     gradient                   ...        0 min,  0.308 sec
 * total energy  :  -319.2178508 Eh     change       -0.1113159E-01 Eh
   gradient norm :     0.0134381 Eh/α   predicted    -0.1065602E-01 (  -4.27%)
   displ. norm   :     0.9091417 α      lambda       -0.1081644E-01
   maximum displ.:     0.6836452 α      in ANC's #26, #23, #15, ...

........................................................................
.............................. CYCLE   27 ..............................
........................................................................
   1   -324.7845688 -0.324785E+03  0.121E-01    0.92       0.0  T
   2   -324.7845718 -0.292577E-05  0.713E-02    0.92       1.0  T
   3   -324.7843864  0.185370E-03  0.211E-02    0.92       1.0  T
   4   -324.7845729 -0.186501E-03  0.520E-03    0.92       1.4  T
   5   -324.7845823 -0.939829E-05  0.138E-03    0.92       5.3  T
   6   -324.7845823 -0.259662E-07  0.939E-04    0.92       7.8  T
   7   -324.7845824 -0.104396E-06  0.438E-04    0.92      16.8  T
     SCC iter.                  ...        0 min,  0.584 sec
     gradient                   ...        0 min,  0.308 sec
 * total energy  :  -319.2281423 Eh     change       -0.1029146E-01 Eh
   gradient norm :     0.0123469 Eh/α   predicted    -0.9878330E-02 (  -4.01%)
   displ. norm   :     0.9051720 α      lambda       -0.9998313E-02
   maximum displ.:     0.6873073 α      in ANC's #26, #23, #15, ...

........................................................................
.............................. CYCLE   28 ..............................
........................................................................
   1   -324.8047049 -0.324805E+03  0.115E-01    0.92       0.0  T
   2   -324.8047091 -0.418542E-05  0.676E-02    0.92       1.0  T
   3   -324.8045949  0.114136E-03  0.161E-02    0.92       1.0  T
   4   -324.8047066 -0.111659E-03  0.506E-03    0.92       1.5  T
   5   -324.8047165 -0.991052E-05  0.121E-03    0.92       6.1  T
   6   -324.8047165 -0.318266E-09  0.829E-04    0.92       8.9  T
   7   -324.8047166 -0.913295E-07  0.361E-04    0.92      20.4  T
     SCC iter.                  ...        0 min,  0.575 sec
     gradient                   ...        0 min,  0.309 sec
 * total energy  :  -319.2376720 Eh     change       -0.9529759E-02 Eh
   gradient norm :     0.0117569 Eh/α   predicted    -0.9095152E-02 (  -4.56%)
   displ. norm   :     0.9027367 α      lambda       -0.9217199E-02
   maximum displ.:     0.6910304 α      in ANC's #26, #15, #23, ...

........................................................................
.............................. CYCLE   29 ..............................
........................................................................
   1   -324.8242754 -0.324824E+03  0.109E-01    0.92       0.0  T
   2   -324.8242803 -0.486928E-05  0.642E-02    0.92       1.0  T
   3   -324.8242162  0.640629E-04  0.125E-02    0.92       1.0  T
   4   -324.8242775 -0.612627E-04  0.447E-03    0.92       1.6  T
   5   -324.8242856 -0.809285E-05  0.107E-03    0.92       6.9  T
   6   -324.8242856  0.268177E-07  0.763E-04    0.92       9.6  T
   7   -324.8242857 -0.107066E-06  0.270E-04    0.92      27.2  T
     SCC iter.                  ...        0 min,  0.582 sec
     gradient                   ...        0 min,  0.309 sec
 * total energy  :  -319.2464945 Eh     change       -0.8822452E-02 Eh
   gradient norm :     0.0108269 Eh/α   predicted    -0.8364311E-02 (  -5.19%)
   displ. norm   :     0.9016420 α      lambda       -0.8520726E-02
   maximum displ.:     0.6959288 α      in ANC's #26, #15, #23, ...

........................................................................
.............................. CYCLE   30 ..............................
........................................................................
   1   -324.8431869 -0.324843E+03  0.106E-01    0.91       0.0  T
   2   -324.8431919 -0.505617E-05  0.624E-02    0.91       1.0  T
   3   -324.8431527  0.392206E-04  0.104E-02    0.91       1.0  T
   4   -324.8431909 -0.382108E-04  0.370E-03    0.91       2.0  T
   5   -324.8431961 -0.519196E-05  0.986E-04    0.91       7.5  T
   6   -324.8431961  0.428215E-07  0.728E-04    0.91      10.1  T
   7   -324.8431962 -0.125471E-06  0.216E-04    0.91      34.0  T
     SCC iter.                  ...        0 min,  0.582 sec
     gradient                   ...        0 min,  0.310 sec
 * total energy  :  -319.2546456 Eh     change       -0.8151163E-02 Eh
   gradient norm :     0.0096478 Eh/α   predicted    -0.7723864E-02 (  -5.24%)
   displ. norm   :     0.9024122 α      lambda       -0.7877117E-02
   maximum displ.:     0.7012500 α      in ANC's #26, #15, #23, ...

........................................................................
.............................. CYCLE   31 ..............................
........................................................................
   1   -324.8607729 -0.324861E+03  0.105E-01    0.91       0.0  T
   2   -324.8607779 -0.499826E-05  0.614E-02    0.91       1.0  T
   3   -324.8607530  0.248507E-04  0.877E-03    0.91       1.0  T
   4   -324.8607785 -0.255167E-04  0.290E-03    0.91       2.5  T
   5   -324.8607814 -0.280402E-05  0.938E-04    0.91       7.8  T
   6   -324.8607813  0.293730E-07  0.640E-04    0.91      11.5  T
   7   -324.8607814 -0.105697E-06  0.185E-04    0.91      39.7  T
     SCC iter.                  ...        0 min,  0.583 sec
     gradient                   ...        0 min,  0.309 sec
 * total energy  :  -319.2621616 Eh     change       -0.7516018E-02 Eh
   gradient norm :     0.0086118 Eh/α   predicted    -0.7145918E-02 (  -4.92%)
   displ. norm   :     0.9043365 α      lambda       -0.7255480E-02
   maximum displ.:     0.7063424 α      in ANC's #26, #15, #23, ...

........................................................................
.............................. CYCLE   32 ..............................
........................................................................
   1   -324.8771717 -0.324877E+03  0.104E-01    0.90       0.0  T
   2   -324.8771764 -0.477697E-05  0.608E-02    0.91       1.0  T
   3   -324.8771568  0.196113E-04  0.796E-03    0.90       1.0  T
   4   -324.8771776 -0.207919E-04  0.254E-03    0.90       2.9  T
   5   -324.8771796 -0.194109E-05  0.903E-04    0.90       8.1  T
   6   -324.8771796 -0.340464E-08  0.553E-04    0.90      13.3  T
   7   -324.8771796 -0.601403E-07  0.154E-04    0.90      47.7  T
     SCC iter.                  ...        0 min,  0.575 sec
     gradient                   ...        0 min,  0.310 sec
 * total energy  :  -319.2690593 Eh     change       -0.6897641E-02 Eh
   gradient norm :     0.0077597 Eh/α   predicted    -0.6594607E-02 (  -4.39%)
   displ. norm   :     0.9070056 α      lambda       -0.6640569E-02
   maximum displ.:     0.7120036 α      in ANC's #26, #15, #23, ...

........................................................................
.............................. CYCLE   33 ..............................
........................................................................
   1   -324.8926526 -0.324893E+03  0.103E-01    0.90       0.0  T
   2   -324.8926571 -0.451127E-05  0.601E-02    0.90       1.0  T
   3   -324.8926397  0.173686E-04  0.756E-03    0.90       1.0  T
   4   -324.8926582 -0.185067E-04  0.245E-03    0.90       3.0  T
   5   -324.8926600 -0.175267E-05  0.886E-04    0.90       8.3  T
   6   -324.8926600 -0.611044E-08  0.541E-04    0.90      13.6  T
   7   -324.8926600 -0.531916E-07  0.153E-04    0.90      48.1  T
     SCC iter.                  ...        0 min,  0.582 sec
     gradient                   ...        0 min,  0.310 sec
 * total energy  :  -319.2753501 Eh     change       -0.6290798E-02 Eh
   gradient norm :     0.0070129 Eh/α   predicted    -0.6051750E-02 (  -3.80%)
   displ. norm   :     0.9105624 α      lambda       -0.6028756E-02
   maximum displ.:     0.7174969 α      in ANC's #26, #15, #23, ...

........................................................................
.............................. CYCLE   34 ..............................
........................................................................
   1   -324.9073310 -0.324907E+03  0.102E-01    0.90       0.0  T
   2   -324.9073353 -0.429905E-05  0.595E-02    0.90       1.0  T
   3   -324.9073198  0.155067E-04  0.719E-03    0.90       1.0  T
   4   -324.9073364 -0.166200E-04  0.233E-03    0.90       3.2  T
   5   -324.9073380 -0.157704E-05  0.859E-04    0.90       8.6  T
   6   -324.9073380 -0.327708E-08  0.543E-04    0.90      13.5  T
   7   -324.9073380 -0.558758E-07  0.153E-04    0.90      47.9  T
     SCC iter.                  ...        0 min,  0.576 sec
     gradient                   ...        0 min,  0.311 sec
 * total energy  :  -319.2810390 Eh     change       -0.5688917E-02 Eh
   gradient norm :     0.0063408 Eh/α   predicted    -0.5513673E-02 (  -3.08%)
   displ. norm   :     0.9142493 α      lambda       -0.5417658E-02
   maximum displ.:     0.7233300 α      in ANC's #26, #15, #23, ...

........................................................................
.............................. CYCLE   35 ..............................
........................................................................
   1   -324.9213613 -0.324921E+03  0.101E-01    0.89       0.0  T
   2   -324.9213654 -0.410401E-05  0.590E-02    0.89       1.0  T
   3   -324.9213513  0.141292E-04  0.695E-03    0.89       1.1  T
   4   -324.9213665 -0.152063E-04  0.223E-03    0.89       3.3  T
   5   -324.9213679 -0.145132E-05  0.839E-04    0.89       8.8  T
   6   -324.9213679 -0.422705E-08  0.540E-04    0.89      13.6  T
   7   -324.9213680 -0.582542E-07  0.154E-04    0.89      47.7  T
     SCC iter.                  ...        0 min,  0.575 sec
     gradient                   ...        0 min,  0.311 sec
 * total energy  :  -319.2861233 Eh     change       -0.5084335E-02 Eh
   gradient norm :     0.0057865 Eh/α   predicted    -0.4973013E-02 (  -2.19%)
   displ. norm   :     0.9189374 α      lambda       -0.4818147E-02
   maximum displ.:     0.7292781 α      in ANC's #26, #15, #23, ...

........................................................................
.............................. CYCLE   36 ..............................
........................................................................
   1   -324.9347890 -0.324935E+03  0.101E-01    0.89       0.0  T
   2   -324.9347929 -0.391633E-05  0.589E-02    0.89       1.0  T
   3   -324.9347792  0.137072E-04  0.684E-03    0.89       1.1  T
   4   -324.9347939 -0.146274E-04  0.222E-03    0.89       3.3  T
   5   -324.9347954 -0.150432E-05  0.832E-04    0.89       8.8  T
   6   -324.9347954 -0.370443E-08  0.546E-04    0.89      13.5  T
   7   -324.9347954 -0.624715E-07  0.154E-04    0.89      47.7  T
     SCC iter.                  ...        0 min,  0.582 sec
     gradient                   ...        0 min,  0.311 sec
 * total energy  :  -319.2906045 Eh     change       -0.4481167E-02 Eh
   gradient norm :     0.0055536 Eh/α   predicted    -0.4443410E-02 (  -0.84%)
   displ. norm   :     0.9181542 α      lambda       -0.4208315E-02
   maximum displ.:     0.7300910 α      in ANC's #26, #15, #23, ...

........................................................................
.............................. CYCLE   37 ..............................
........................................................................
   1   -324.9472413 -0.324947E+03  0.100E-01    0.88       0.0  T
   2   -324.9472451 -0.378300E-05  0.586E-02    0.88       1.0  T
   3   -324.9472305  0.146435E-04  0.719E-03    0.88       1.0  T
   4   -324.9472462 -0.157569E-04  0.214E-03    0.88       3.4  T
   5   -324.9472476 -0.132582E-05  0.837E-04    0.88       8.8  T
   6   -324.9472476 -0.591098E-08  0.562E-04    0.88      13.1  T
   7   -324.9472476 -0.667297E-07  0.177E-04    0.88      41.6  T
     SCC iter.                  ...        0 min,  0.582 sec
     gradient                   ...        0 min,  0.313 sec
 * total energy  :  -319.2944520 Eh     change       -0.3847447E-02 Eh
   gradient norm :     0.0062056 Eh/α   predicted    -0.3877980E-02 (   0.79%)
   displ. norm   :     0.9073988 α      lambda       -0.3618609E-02
   maximum displ.:     0.7193842 α      in ANC's #26, #15, #23, ...

........................................................................
.............................. CYCLE   38 ..............................
........................................................................
   1   -324.9597040 -0.324960E+03  0.993E-02    0.88       0.0  T
   2   -324.9597075 -0.356943E-05  0.581E-02    0.88       1.0  T
   3   -324.9596869  0.206295E-04  0.820E-03    0.88       1.0  T
   4   -324.9597085 -0.215545E-04  0.241E-03    0.88       3.0  T
   5   -324.9597102 -0.177934E-05  0.879E-04    0.88       8.4  T
   6   -324.9597102 -0.192949E-08  0.593E-04    0.88      12.4  T
   7   -324.9597103 -0.726257E-07  0.204E-04    0.88      36.1  T
     SCC iter.                  ...        0 min,  0.581 sec
     gradient                   ...        0 min,  0.312 sec
 * total energy  :  -319.2976396 Eh     change       -0.3187670E-02 Eh
   gradient norm :     0.0078860 Eh/α   predicted    -0.3299040E-02 (   3.49%)
   displ. norm   :     0.8854912 α      lambda       -0.3021749E-02
   maximum displ.:     0.6997045 α      in ANC's #26, #15, #23, ...

........................................................................
.............................. CYCLE   39 ..............................
........................................................................
   1   -324.9700718 -0.324970E+03  0.965E-02    0.87       0.0  T
   2   -324.9700752 -0.336924E-05  0.565E-02    0.88       1.0  T
   3   -324.9700589  0.162541E-04  0.762E-03    0.87       1.0  T
   4   -324.9700765 -0.176135E-04  0.199E-03    0.87       3.7  T
   5   -324.9700776 -0.104361E-05  0.874E-04    0.87       8.4  T
   6   -324.9700776 -0.319442E-07  0.543E-04    0.87      13.5  T
   7   -324.9700777 -0.605226E-07  0.198E-04    0.87      37.1  T
     SCC iter.                  ...        0 min,  0.581 sec
     gradient                   ...        0 min,  0.312 sec
 * total energy  :  -319.3002430 Eh     change       -0.2603333E-02 Eh
   gradient norm :     0.0059220 Eh/α   predicted    -0.2695546E-02 (   3.54%)
   displ. norm   :     0.8630349 α      lambda       -0.2345836E-02
   maximum displ.:     0.6801087 α      in ANC's #26, #15, #23, ...

........................................................................
.............................. CYCLE   40 ..............................
........................................................................
   1   -324.9811070 -0.324981E+03  0.928E-02    0.87       0.0  T
   2   -324.9811099 -0.295096E-05  0.543E-02    0.87       1.0  T
   3   -324.9810974  0.125076E-04  0.689E-03    0.87       1.1  T
   4   -324.9811107 -0.132622E-04  0.202E-03    0.87       3.6  T
   5   -324.9811119 -0.119423E-05  0.810E-04    0.87       9.1  T
   6   -324.9811119 -0.402762E-07  0.488E-04    0.87      15.1  T
   7   -324.9811119 -0.390733E-07  0.181E-04    0.87      40.5  T
     SCC iter.                  ...        0 min,  0.582 sec
     gradient                   ...        0 min,  0.312 sec
 * total energy  :  -319.3022553 Eh     change       -0.2012355E-02 Eh
   gradient norm :     0.0049318 Eh/α   predicted    -0.2046545E-02 (   1.70%)
   displ. norm   :     0.8389388 α      lambda       -0.1804800E-02
   maximum displ.:     0.6539146 α      in ANC's #26, #15, #23, ...

........................................................................
.............................. CYCLE   41 ..............................
........................................................................
   1   -324.9918344 -0.324992E+03  0.897E-02    0.87       0.0  T
   2   -324.9918374 -0.298702E-05  0.525E-02    0.87       1.0  T
   3   -324.9918277  0.965035E-05  0.661E-03    0.87       1.1  T
   4   -324.9918381 -0.104132E-04  0.186E-03    0.87       3.9  T
   5   -324.9918391 -0.933890E-06  0.838E-04    0.87       8.8  T
   6   -324.9918391 -0.760994E-07  0.491E-04    0.87      15.0  T
     SCC iter.                  ...        0 min,  0.500 sec
     gradient                   ...        0 min,  0.312 sec
 * total energy  :  -319.3037213 Eh     change       -0.1465982E-02 Eh
   gradient norm :     0.0060728 Eh/α   predicted    -0.1537525E-02 (   4.88%)
   displ. norm   :     0.7899524 α      lambda       -0.1308521E-02
   maximum displ.:     0.6166496 α      in ANC's #26, #15, #23, ...

........................................................................
.............................. CYCLE   42 ..............................
........................................................................
   1   -325.0009998 -0.325001E+03  0.840E-02    0.86       0.0  T
   2   -325.0010023 -0.246059E-05  0.492E-02    0.87       1.0  T
   3   -325.0009889  0.133782E-04  0.682E-03    0.86       1.1  T
   4   -325.0010024 -0.135335E-04  0.223E-03    0.86       3.3  T
   5   -325.0010040 -0.151887E-05  0.787E-04    0.86       9.3  T
   6   -325.0010040 -0.399971E-07  0.472E-04    0.86      15.6  T
   7   -325.0010040 -0.237108E-07  0.217E-04    0.86      33.9  T
     SCC iter.                  ...        0 min,  0.575 sec
     gradient                   ...        0 min,  0.313 sec
 * total energy  :  -319.3047274 Eh     change       -0.1006121E-02 Eh
   gradient norm :     0.0049811 Eh/α   predicted    -0.1062537E-02 (   5.61%)
   displ. norm   :     0.7175209 α      lambda       -0.8085472E-03
   maximum displ.:     0.5527655 α      in ANC's #26, #15, #23, ...
 * RMSD in coord.:     1.3808481 α      energy gain  -0.1635009E+00 Eh

generating ANC from model Hessian ...
Using Lindh-Hessian (1995)
 Shifting diagonal of input Hessian by    1.0123079339885793E-002
 Lowest  eigenvalues of input Hessian
    0.010000    0.010028    0.010066    0.010079    0.010098    0.010102
    0.010107    0.010113    0.010117    0.010118    0.000000    0.000000
    0.000000    0.000000    0.000000    0.000000    0.010130    0.010198
 Highest eigenvalues
    2.156783    2.157708    2.651968    2.653472    2.654581    2.663126


........................................................................
.............................. CYCLE   43 ..............................
........................................................................
   1   -325.0098562 -0.325010E+03  0.757E-02    0.86       0.0  T
   2   -325.0098580 -0.183554E-05  0.443E-02    0.86       1.0  T
   3   -325.0098514  0.663014E-05  0.536E-03    0.86       1.4  T
   4   -325.0098586 -0.718900E-05  0.150E-03    0.86       4.9  T
   5   -325.0098591 -0.549167E-06  0.673E-04    0.86      10.9  T
   6   -325.0098591 -0.365437E-07  0.397E-04    0.86      18.5  T
     SCC iter.                  ...        0 min,  0.494 sec
     gradient                   ...        0 min,  0.313 sec
 * total energy  :  -319.3053087 Eh     change       -0.5813326E-03 Eh
   gradient norm :     0.0047647 Eh/α   predicted     0.0000000E+00 (-100.00%)
   displ. norm   :     0.0768126 α      lambda       -0.1103259E-03
   maximum displ.:     0.0426798 α      in ANC's #21, #22, #19, ...

........................................................................
.............................. CYCLE   44 ..............................
........................................................................
   1   -325.0121628 -0.325012E+03  0.113E-02    0.86       0.0  T
   2   -325.0121629 -0.109488E-06  0.673E-03    0.86       1.1  T
   3   -325.0121610  0.195412E-05  0.277E-03    0.86       2.7  T
   4   -325.0121629 -0.196991E-05  0.661E-04    0.86      11.1  T
   5   -325.0121631 -0.135245E-06  0.200E-04    0.86      36.8  T
   6   -325.0121631 -0.679341E-08  0.110E-04    0.86      67.1  T
     SCC iter.                  ...        0 min,  0.495 sec
     gradient                   ...        0 min,  0.313 sec
 * total energy  :  -319.3053982 Eh     change       -0.8943736E-04 Eh
   gradient norm :     0.0017214 Eh/α   predicted    -0.5550397E-04 ( -37.94%)
   displ. norm   :     0.3376470 α      lambda       -0.1987353E-03
   maximum displ.:     0.1884800 α      in ANC's #21, #22, #19, ...

........................................................................
.............................. CYCLE   45 ..............................
........................................................................
   1   -325.0181162 -0.325018E+03  0.410E-02    0.86       0.0  T
   2   -325.0181173 -0.106918E-05  0.242E-02    0.86       1.0  T
   3   -325.0181082  0.908485E-05  0.648E-03    0.86       1.1  T
   4   -325.0181176 -0.937307E-05  0.152E-03    0.86       4.8  T
   5   -325.0181182 -0.615723E-06  0.520E-04    0.86      14.1  T
   6   -325.0181182 -0.379927E-07  0.280E-04    0.86      26.2  T
     SCC iter.                  ...        0 min,  0.501 sec
     gradient                   ...        0 min,  0.313 sec
 * total energy  :  -319.3055852 Eh     change       -0.1870160E-03 Eh
   gradient norm :     0.0066929 Eh/α   predicted    -0.1044117E-03 ( -44.17%)
   displ. norm   :     0.1963082 α      lambda       -0.1354511E-03
   maximum displ.:     0.1083485 α      in ANC's #21, #22, #19, ...

........................................................................
.............................. CYCLE   46 ..............................
........................................................................
   1   -325.0187853 -0.325019E+03  0.218E-02    0.86       0.0  T
   2   -325.0187855 -0.108580E-06  0.128E-02    0.86       1.0  T
   3   -325.0187841  0.137343E-05  0.198E-03    0.86       3.7  T
   4   -325.0187855 -0.144692E-05  0.438E-04    0.86      16.8  T
   5   -325.0187856 -0.485813E-07  0.192E-04    0.86      38.2  T
   6   -325.0187856  0.701959E-09  0.121E-04    0.86      60.8  T
     SCC iter.                  ...        0 min,  0.500 sec
     gradient                   ...        0 min,  0.313 sec
 * total energy  :  -319.3057100 Eh     change       -0.1248253E-03 Eh
   gradient norm :     0.0061823 Eh/α   predicted    -0.7033682E-04 ( -43.65%)
   displ. norm   :     0.4491154 α      lambda       -0.3163736E-03
   maximum displ.:     0.2417724 α      in ANC's #21, #22, #19, ...

........................................................................
.............................. CYCLE   47 ..............................
........................................................................
   1   -325.0184594 -0.325018E+03  0.488E-02    0.86       0.0  T
   2   -325.0184602 -0.744100E-06  0.286E-02    0.86       1.0  T
   3   -325.0184573  0.281988E-05  0.310E-03    0.86       2.4  T
   4   -325.0184603 -0.296899E-05  0.103E-03    0.86       7.2  T
   5   -325.0184606 -0.304723E-06  0.450E-04    0.86      16.3  T
   6   -325.0184606 -0.145383E-07  0.276E-04    0.86      26.6  T
     SCC iter.                  ...        0 min,  0.500 sec
     gradient                   ...        0 min,  0.313 sec
 * total energy  :  -319.3059687 Eh     change       -0.2586886E-03 Eh
   gradient norm :     0.0029826 Eh/α   predicted    -0.1901032E-03 ( -26.51%)
   displ. norm   :     0.5332527 α      lambda       -0.2502303E-03
   maximum displ.:     0.2862537 α      in ANC's #21, #22, #19, ...

........................................................................
.............................. CYCLE   48 ..............................
........................................................................
   1   -325.0176922 -0.325018E+03  0.570E-02    0.86       0.0  T
   2   -325.0176933 -0.105184E-05  0.334E-02    0.86       1.0  T
   3   -325.0176880  0.533447E-05  0.424E-03    0.86       1.7  T
   4   -325.0176934 -0.547006E-05  0.131E-03    0.86       5.6  T
   5   -325.0176940 -0.573153E-06  0.509E-04    0.86      14.5  T
   6   -325.0176940 -0.286253E-07  0.297E-04    0.86      24.7  T
     SCC iter.                  ...        0 min,  0.495 sec
     gradient                   ...        0 min,  0.313 sec
 * total energy  :  -319.3061525 Eh     change       -0.1837916E-03 Eh
   gradient norm :     0.0030838 Eh/α   predicted    -0.1606936E-03 ( -12.57%)
   displ. norm   :     0.4086373 α      lambda       -0.1170711E-03
   maximum displ.:     0.2185048 α      in ANC's #21, #22, #19, ...

........................................................................
.............................. CYCLE   49 ..............................
........................................................................
   1   -325.0183396 -0.325018E+03  0.428E-02    0.86       0.0  T
   2   -325.0183401 -0.508559E-06  0.251E-02    0.86       1.0  T
   3   -325.0183361  0.398899E-05  0.340E-03    0.86       2.2  T
   4   -325.0183402 -0.409654E-05  0.979E-04    0.86       7.5  T
   5   -325.0183406 -0.331373E-06  0.323E-04    0.86      22.8  T
   6   -325.0183406 -0.299553E-08  0.183E-04    0.86      40.1  T
     SCC iter.                  ...        0 min,  0.500 sec
     gradient                   ...        0 min,  0.313 sec
 * total energy  :  -319.3062398 Eh     change       -0.8728842E-04 Eh
   gradient norm :     0.0035479 Eh/α   predicted    -0.6831044E-04 ( -21.74%)
   displ. norm   :     0.3198610 α      lambda       -0.7922998E-04
   maximum displ.:     0.1694434 α      in ANC's #21, #22, #19, ...

........................................................................
.............................. CYCLE   50 ..............................
........................................................................
   1   -325.0204695 -0.325020E+03  0.334E-02    0.86       0.0  T
   2   -325.0204698 -0.263604E-06  0.196E-02    0.86       1.0  T
   3   -325.0204657  0.404689E-05  0.327E-03    0.86       2.3  T
   4   -325.0204699 -0.417769E-05  0.774E-04    0.86       9.5  T
   5   -325.0204701 -0.191870E-06  0.246E-04    0.86      29.9  T
   6   -325.0204701  0.347234E-08  0.167E-04    0.86      44.1  T
     SCC iter.                  ...        0 min,  0.501 sec
     gradient                   ...        0 min,  0.313 sec
 * total energy  :  -319.3063001 Eh     change       -0.6033209E-04 Eh
   gradient norm :     0.0024332 Eh/α   predicted    -0.4366900E-04 ( -27.62%)
   displ. norm   :     0.2569504 α      lambda       -0.5799435E-04
   maximum displ.:     0.1317842 α      in ANC's #21, #19, #3, ...

........................................................................
.............................. CYCLE   51 ..............................
........................................................................
   1   -325.0228457 -0.325023E+03  0.273E-02    0.86       0.0  T
   2   -325.0228459 -0.177761E-06  0.161E-02    0.86       1.0  T
   3   -325.0228420  0.380881E-05  0.320E-03    0.86       2.3  T
   4   -325.0228459 -0.386892E-05  0.747E-04    0.86       9.8  T
   5   -325.0228461 -0.195381E-06  0.228E-04    0.86      32.3  T
   6   -325.0228461  0.620162E-10  0.160E-04    0.86      45.8  T
     SCC iter.                  ...        0 min,  0.499 sec
     gradient                   ...        0 min,  0.314 sec
 * total energy  :  -319.3063425 Eh     change       -0.4233807E-04 Eh
   gradient norm :     0.0012330 Eh/α   predicted    -0.3091722E-04 ( -26.98%)
   displ. norm   :     0.2683362 α      lambda       -0.3310110E-04
   maximum displ.:     0.1265790 α      in ANC's #21, #3, #19, ...

........................................................................
.............................. CYCLE   52 ..............................
........................................................................
   1   -325.0243977 -0.325024E+03  0.289E-02    0.86       0.0  T
   2   -325.0243980 -0.216725E-06  0.170E-02    0.86       1.0  T
   3   -325.0243942  0.375629E-05  0.323E-03    0.86       2.3  T
   4   -325.0243980 -0.375392E-05  0.851E-04    0.86       8.6  T
   5   -325.0243982 -0.270082E-06  0.256E-04    0.86      28.7  T
   6   -325.0243982 -0.362735E-08  0.159E-04    0.86      46.2  T
     SCC iter.                  ...        0 min,  0.500 sec
     gradient                   ...        0 min,  0.313 sec
 * total energy  :  -319.3063761 Eh     change       -0.3359332E-04 Eh
   gradient norm :     0.0019455 Eh/α   predicted    -0.1708088E-04 ( -49.15%)
   displ. norm   :     0.1547355 α      lambda       -0.2321415E-04
   maximum displ.:     0.0804362 α      in ANC's #3, #19, #5, ...

........................................................................
.............................. CYCLE   53 ..............................
........................................................................
   1   -325.0239498 -0.325024E+03  0.164E-02    0.86       0.0  T
   2   -325.0239498 -0.684820E-07  0.966E-03    0.86       1.0  T
   3   -325.0239487  0.109625E-05  0.170E-03    0.86       4.3  T
   4   -325.0239498 -0.108745E-05  0.498E-04    0.86      14.8  T
   5   -325.0239499 -0.940638E-07  0.139E-04    0.86      53.1  T
   6   -325.0239499 -0.962928E-10  0.780E-05    0.86      94.3  T
     SCC iter.                  ...        0 min,  0.500 sec
     gradient                   ...        0 min,  0.314 sec
 * total energy  :  -319.3064062 Eh     change       -0.3014023E-04 Eh
   gradient norm :     0.0016943 Eh/α   predicted    -0.1173170E-04 ( -61.08%)
   displ. norm   :     0.2695564 α      lambda       -0.4577571E-04
   maximum displ.:     0.1399395 α      in ANC's #3, #5, #4, ...

........................................................................
.............................. CYCLE   54 ..............................
........................................................................
   1   -325.0219168 -0.325022E+03  0.282E-02    0.86       0.0  T
   2   -325.0219170 -0.197490E-06  0.165E-02    0.86       1.0  T
   3   -325.0219152  0.174210E-05  0.218E-03    0.86       3.4  T
[...]
 369: 43.15 370: 34.62 371:  0.44 372:  1.25 373:  0.04 374:  1.12 375:  8.72 376:  3.28
 377: 35.32 378:  0.04 379:  2.57 380:  0.03 381: 13.54 382: 55.36 383: 79.28 384: 21.31
 385:  1.91 386:235.33 387:  0.08 388:365.02 389:  0.54 390: 39.72 391:  0.36 392:  0.01
 393:  0.02 394:  2.88 395:  0.08 396:****** 397:  6.48 398:  5.11 399: 39.93 400:  8.45
 401: 16.63 402:  9.90 403: 51.29 404: 22.17 405:  5.24 406:  0.42 407:  0.37 408:  0.62
 409:  8.16 410: 13.22 411: 10.95 412: 72.83 413:  6.52 414:  0.29 415:  9.53 416:  1.38
 417:  9.08 418:  9.73 419: 30.12 420:  1.72 421:  4.66 422:  0.14 423:  1.77 424:  0.92
 425:  1.04 426:  0.07 427:  5.44 428:  3.88 429:150.11 430:  3.72 431: 17.43 432:  0.77
 433: 42.68 434: 18.61 435:  9.16 436: 15.65 437:  7.21 438: 26.60 439:159.38 440:  0.34
 441:  7.52 442:120.12 443: 22.06 444: 22.88 445: 76.99 446: 34.13 447:  1.71 448: 77.46
 449:163.93 450:  0.80 451:145.64 452:  0.16 453:  0.70 454:  0.84 455:  0.02 456: 66.34
 457:  0.07 458: 20.69 459:  0.07 460:  0.04 461:  0.48 462:  0.24 463:  0.21 464:  0.07
 465:  0.06 466:  0.63 467:  0.26 468:  8.05 469:  3.19 470:  3.54 471:  3.24 472:  3.19
 473: 15.65 474:  6.38 475:123.56 476:  1.15 477:510.35 478: 35.42 479: 21.67 480: 12.89
 481: 64.99 482: 85.51 483:  0.05 484:  6.52 485:  0.18 486: 16.26 487:  0.06 488:  1.06
 489:100.83 490:747.00 491: 48.56 492:303.03 493: 27.42 494:  0.81 495:  0.38 496:  0.14
 497:  0.04 498:  1.24 499:  1.43 500:  1.02 501:  9.02 502:  0.29 503:  0.50 504:******
 505:****** 506:****** 507:****** 508:****** 509: 79.09 510:424.93 511:520.82 512:422.42
 513: 91.56 514:243.43 515:162.40 516:384.69 517:159.10 518:  1.04 519:  5.32 520:204.50
 521:522.87 522:  9.83 523:296.75 524:954.66 525: 10.47 526: 46.69 527: 17.06 528: 11.72
 529: 12.04 530: 18.97 531:  4.89 532: 44.09 533:  2.29 534: 22.68 535:  0.83 536: 33.04
 537:142.36 538:109.14 539:274.09 540: 11.85 541:  1.13 542:  4.79 543: 21.98 544:  3.11
 545: 32.16 546:138.67 547: 64.08 548:  3.81 549: 52.05 550: 71.78 551: 32.94 552: 39.49
 553: 64.50 554: 47.86 555: 39.63
 Raman intensities (amu)
   1:  0.00   2:  0.00   3:  0.00   4:  0.00   5:  0.00   6:  0.00   7:  0.00   8:  0.00
   9:  0.00  10:  0.00  11:  0.00  12:  0.00  13:  0.00  14:  0.00  15:  0.00  16:  0.00
  17:  0.00  18:  0.00  19:  0.00  20:  0.00  21:  0.00  22:  0.00  23:  0.00  24:  0.00
  25:  0.00  26:  0.00  27:  0.00  28:  0.00  29:  0.00  30:  0.00  31:  0.00  32:  0.00
  33:  0.00  34:  0.00  35:  0.00  36:  0.00  37:  0.00  38:  0.00  39:  0.00  40:  0.00
  41:  0.00  42:  0.00  43:  0.00  44:  0.00  45:  0.00  46:  0.00  47:  0.00  48:  0.00
  49:  0.00  50:  0.00  51:  0.00  52:  0.00  53:  0.00  54:  0.00  55:  0.00  56:  0.00
  57:  0.00  58:  0.00  59:  0.00  60:  0.00  61:  0.00  62:  0.00  63:  0.00  64:  0.00
  65:  0.00  66:  0.00  67:  0.00  68:  0.00  69:  0.00  70:  0.00  71:  0.00  72:  0.00
  73:  0.00  74:  0.00  75:  0.00  76:  0.00  77:  0.00  78:  0.00  79:  0.00  80:  0.00
  81:  0.00  82:  0.00  83:  0.00  84:  0.00  85:  0.00  86:  0.00  87:  0.00  88:  0.00
  89:  0.00  90:  0.00  91:  0.00  92:  0.00  93:  0.00  94:  0.00  95:  0.00  96:  0.00
  97:  0.00  98:  0.00  99:  0.00 100:  0.00 101:  0.00 102:  0.00 103:  0.00 104:  0.00
 105:  0.00 106:  0.00 107:  0.00 108:  0.00 109:  0.00 110:  0.00 111:  0.00 112:  0.00
 113:  0.00 114:  0.00 115:  0.00 116:  0.00 117:  0.00 118:  0.00 119:  0.00 120:  0.00
 121:  0.00 122:  0.00 123:  0.00 124:  0.00 125:  0.00 126:  0.00 127:  0.00 128:  0.00
 129:  0.00 130:  0.00 131:  0.00 132:  0.00 133:  0.00 134:  0.00 135:  0.00 136:  0.00
 137:  0.00 138:  0.00 139:  0.00 140:  0.00 141:  0.00 142:  0.00 143:  0.00 144:  0.00
 145:  0.00 146:  0.00 147:  0.00 148:  0.00 149:  0.00 150:  0.00 151:  0.00 152:  0.00
 153:  0.00 154:  0.00 155:  0.00 156:  0.00 157:  0.00 158:  0.00 159:  0.00 160:  0.00
 161:  0.00 162:  0.00 163:  0.00 164:  0.00 165:  0.00 166:  0.00 167:  0.00 168:  0.00
 169:  0.00 170:  0.00 171:  0.00 172:  0.00 173:  0.00 174:  0.00 175:  0.00 176:  0.00
 177:  0.00 178:  0.00 179:  0.00 180:  0.00 181:  0.00 182:  0.00 183:  0.00 184:  0.00
 185:  0.00 186:  0.00 187:  0.00 188:  0.00 189:  0.00 190:  0.00 191:  0.00 192:  0.00
 193:  0.00 194:  0.00 195:  0.00 196:  0.00 197:  0.00 198:  0.00 199:  0.00 200:  0.00
 201:  0.00 202:  0.00 203:  0.00 204:  0.00 205:  0.00 206:  0.00 207:  0.00 208:  0.00
 209:  0.00 210:  0.00 211:  0.00 212:  0.00 213:  0.00 214:  0.00 215:  0.00 216:  0.00
 217:  0.00 218:  0.00 219:  0.00 220:  0.00 221:  0.00 222:  0.00 223:  0.00 224:  0.00
 225:  0.00 226:  0.00 227:  0.00 228:  0.00 229:  0.00 230:  0.00 231:  0.00 232:  0.00
 233:  0.00 234:  0.00 235:  0.00 236:  0.00 237:  0.00 238:  0.00 239:  0.00 240:  0.00
 241:  0.00 242:  0.00 243:  0.00 244:  0.00 245:  0.00 246:  0.00 247:  0.00 248:  0.00
 249:  0.00 250:  0.00 251:  0.00 252:  0.00 253:  0.00 254:  0.00 255:  0.00 256:  0.00
 257:  0.00 258:  0.00 259:  0.00 260:  0.00 261:  0.00 262:  0.00 263:  0.00 264:  0.00
 265:  0.00 266:  0.00 267:  0.00 268:  0.00 269:  0.00 270:  0.00 271:  0.00 272:  0.00
 273:  0.00 274:  0.00 275:  0.00 276:  0.00 277:  0.00 278:  0.00 279:  0.00 280:  0.00
 281:  0.00 282:  0.00 283:  0.00 284:  0.00 285:  0.00 286:  0.00 287:  0.00 288:  0.00
 289:  0.00 290:  0.00 291:  0.00 292:  0.00 293:  0.00 294:  0.00 295:  0.00 296:  0.00
 297:  0.00 298:  0.00 299:  0.00 300:  0.00 301:  0.00 302:  0.00 303:  0.00 304:  0.00
 305:  0.00 306:  0.00 307:  0.00 308:  0.00 309:  0.00 310:  0.00 311:  0.00 312:  0.00
 313:  0.00 314:  0.00 315:  0.00 316:  0.00 317:  0.00 318:  0.00 319:  0.00 320:  0.00
 321:  0.00 322:  0.00 323:  0.00 324:  0.00 325:  0.00 326:  0.00 327:  0.00 328:  0.00
 329:  0.00 330:  0.00 331:  0.00 332:  0.00 333:  0.00 334:  0.00 335:  0.00 336:  0.00
 337:  0.00 338:  0.00 339:  0.00 340:  0.00 341:  0.00 342:  0.00 343:  0.00 344:  0.00
 345:  0.00 346:  0.00 347:  0.00 348:  0.00 349:  0.00 350:  0.00 351:  0.00 352:  0.00
 353:  0.00 354:  0.00 355:  0.00 356:  0.00 357:  0.00 358:  0.00 359:  0.00 360:  0.00
 361:  0.00 362:  0.00 363:  0.00 364:  0.00 365:  0.00 366:  0.00 367:  0.00 368:  0.00
 369:  0.00 370:  0.00 371:  0.00 372:  0.00 373:  0.00 374:  0.00 375:  0.00 376:  0.00
 377:  0.00 378:  0.00 379:  0.00 380:  0.00 381:  0.00 382:  0.00 383:  0.00 384:  0.00
 385:  0.00 386:  0.00 387:  0.00 388:  0.00 389:  0.00 390:  0.00 391:  0.00 392:  0.00
 393:  0.00 394:  0.00 395:  0.00 396:  0.00 397:  0.00 398:  0.00 399:  0.00 400:  0.00
 401:  0.00 402:  0.00 403:  0.00 404:  0.00 405:  0.00 406:  0.00 407:  0.00 408:  0.00
 409:  0.00 410:  0.00 411:  0.00 412:  0.00 413:  0.00 414:  0.00 415:  0.00 416:  0.00
 417:  0.00 418:  0.00 419:  0.00 420:  0.00 421:  0.00 422:  0.00 423:  0.00 424:  0.00
 425:  0.00 426:  0.00 427:  0.00 428:  0.00 429:  0.00 430:  0.00 431:  0.00 432:  0.00
 433:  0.00 434:  0.00 435:  0.00 436:  0.00 437:  0.00 438:  0.00 439:  0.00 440:  0.00
 441:  0.00 442:  0.00 443:  0.00 444:  0.00 445:  0.00 446:  0.00 447:  0.00 448:  0.00
 449:  0.00 450:  0.00 451:  0.00 452:  0.00 453:  0.00 454:  0.00 455:  0.00 456:  0.00
 457:  0.00 458:  0.00 459:  0.00 460:  0.00 461:  0.00 462:  0.00 463:  0.00 464:  0.00
 465:  0.00 466:  0.00 467:  0.00 468:  0.00 469:  0.00 470:  0.00 471:  0.00 472:  0.00
 473:  0.00 474:  0.00 475:  0.00 476:  0.00 477:  0.00 478:  0.00 479:  0.00 480:  0.00
 481:  0.00 482:  0.00 483:  0.00 484:  0.00 485:  0.00 486:  0.00 487:  0.00 488:  0.00
 489:  0.00 490:  0.00 491:  0.00 492:  0.00 493:  0.00 494:  0.00 495:  0.00 496:  0.00
 497:  0.00 498:  0.00 499:  0.00 500:  0.00 501:  0.00 502:  0.00 503:  0.00 504:  0.00
 505:  0.00 506:  0.00 507:  0.00 508:  0.00 509:  0.00 510:  0.00 511:  0.00 512:  0.00
 513:  0.00 514:  0.00 515:  0.00 516:  0.00 517:  0.00 518:  0.00 519:  0.00 520:  0.00
 521:  0.00 522:  0.00 523:  0.00 524:  0.00 525:  0.00 526:  0.00 527:  0.00 528:  0.00
 529:  0.00 530:  0.00 531:  0.00 532:  0.00 533:  0.00 534:  0.00 535:  0.00 536:  0.00
Refinement of some symmetry elements was terminated before convergence was reached.
Some symmetry elements may remain unidentified.
Molecule has no symmetry elements
It seems to be the C1 point group
 537:  0.00 538:  0.00 539:  0.00 540:  0.00 541:  0.00 542:  0.00 543:  0.00 544:  0.00
 545:  0.00 546:  0.00 547:  0.00 548:  0.00 549:  0.00 550:  0.00 551:  0.00 552:  0.00
 553:  0.00 554:  0.00 555:  0.00
 output can be read by thermo (or use thermo option).
 writing <g98.out> molden fake output.
 recommended (thermochemical) frequency scaling factor: 1.0
           -------------------------------------------------
          |             Thermodynamic Functions             |
           -------------------------------------------------

c1  symmetry found (for desy threshold:  0.10E+00) used in thermo
 inverting freq            1   1.5440147762812175     

          ...................................................
          :                      SETUP                      :
          :.................................................:
          :  # frequencies                         549      :
          :  # imaginary freq.                       0      :
          :  linear?                             false      :
          :  only rotor calc.                    false      :
          :  symmetry                               c1      :
          :  rotational number                       1      :
          :  scaling factor                  1.0000000      :
          :  rotor cutoff                   50.0000000 cm⁻¹ :
          :  imag. cutoff                  -20.0000000 cm⁻¹ :
          :.................................................:

    mode    ω/cm⁻¹     T·S(HO)/kcal·mol⁻¹    T·S(FR)/kcal·mol⁻¹   T·S(vib)
   ------------------------------------------------------------------------
       1      1.54    -3.49531 (  0.00%)    -2.08676 (100.00%)    -2.08676
       2      1.45    -3.53149 (  0.00%)    -2.10485 (100.00%)    -2.10485
       3      3.93    -2.94172 (  0.00%)    -1.80997 (100.00%)    -1.81001
       4      4.66    -2.84042 (  0.01%)    -1.75932 ( 99.99%)    -1.75940
       5      7.17    -2.58535 (  0.04%)    -1.63178 ( 99.96%)    -1.63218
       6      8.18    -2.50785 (  0.07%)    -1.59302 ( 99.93%)    -1.59367
       7     10.51    -2.35897 (  0.19%)    -1.51857 ( 99.81%)    -1.52021
       8     10.61    -2.35342 (  0.20%)    -1.51579 ( 99.80%)    -1.51749
       9     13.61    -2.20588 (  0.55%)    -1.44200 ( 99.45%)    -1.44617
      10     14.30    -2.17667 (  0.66%)    -1.42739 ( 99.34%)    -1.43237
      11     14.66    -2.16186 (  0.73%)    -1.41998 ( 99.27%)    -1.42543
      12     17.63    -2.05283 (  1.52%)    -1.36544 ( 98.48%)    -1.37589
      13     23.49    -1.88283 (  4.64%)    -1.28037 ( 95.36%)    -1.30835
      14     27.81    -1.78290 (  8.73%)    -1.23035 ( 91.27%)    -1.27860
      15     32.23    -1.69558 ( 14.73%)    -1.18661 ( 85.27%)    -1.26157
      16     35.28    -1.64222 ( 19.86%)    -1.15987 ( 80.14%)    -1.25566
      17     40.11    -1.56640 ( 29.28%)    -1.12186 ( 70.72%)    -1.25202
      18     40.33    -1.56321 ( 29.73%)    -1.12025 ( 70.27%)    -1.25195
      19     42.05    -1.53847 ( 33.35%)    -1.10785 ( 66.65%)    -1.25144
      20     45.14    -1.49660 ( 39.92%)    -1.08683 ( 60.08%)    -1.25040
      21     45.75    -1.48866 ( 41.22%)    -1.08284 ( 58.78%)    -1.25010
      22     49.66    -1.44037 ( 49.31%)    -1.05859 ( 50.69%)    -1.24685
      23     51.14    -1.42299 ( 52.26%)    -1.04986 ( 47.74%)    -1.24485
      24     51.86    -1.41472 ( 53.65%)    -1.04571 ( 46.35%)    -1.24370
      25     56.36    -1.36574 ( 61.75%)    -1.02108 ( 38.25%)    -1.23391
      26     60.74    -1.32170 ( 68.53%)    -0.99891 ( 31.47%)    -1.22012
      27     65.19    -1.28009 ( 74.30%)    -0.97794 ( 25.70%)    -1.20243
      28     67.66    -1.25831 ( 77.02%)    -0.96696 ( 22.98%)    -1.19137
      29     69.93    -1.23894 ( 79.28%)    -0.95719 ( 20.72%)    -1.18055
      30     71.88    -1.22276 ( 81.03%)    -0.94902 ( 18.97%)    -1.17083
      31     72.21    -1.22012 ( 81.31%)    -0.94768 ( 18.69%)    -1.16919
      32     72.97    -1.21396 ( 81.94%)    -0.94457 ( 18.06%)    -1.16530
      33     76.51    -1.18618 ( 84.57%)    -0.93053 ( 15.43%)    -1.14674
      34     77.88    -1.17575 ( 85.48%)    -0.92525 ( 14.52%)    -1.13938
      35     87.06    -1.11060 ( 90.19%)    -0.89225 (  9.81%)    -1.08918
      36     95.37    -1.05745 ( 92.98%)    -0.86524 (  7.02%)    -1.04395
      37     95.77    -1.05503 ( 93.08%)    -0.86401 (  6.92%)    -1.04182
      38    105.44    -0.99913 ( 95.19%)    -0.83550 (  4.81%)    -0.99125
      39    118.93    -0.92954 ( 96.97%)    -0.79985 (  3.03%)    -0.92561
      40    121.67    -0.91639 ( 97.23%)    -0.79309 (  2.77%)    -0.91297
      41    125.31    -0.89948 ( 97.53%)    -0.78438 (  2.47%)    -0.89663
      42    126.30    -0.89492 ( 97.60%)    -0.78203 (  2.40%)    -0.89221
      43    127.22    -0.89076 ( 97.67%)    -0.77989 (  2.33%)    -0.88818
      44    130.07    -0.87806 ( 97.86%)    -0.77333 (  2.14%)    -0.87583
      45    132.65    -0.86679 ( 98.02%)    -0.76751 (  1.98%)    -0.86483
      46    133.40    -0.86356 ( 98.06%)    -0.76583 (  1.94%)    -0.86166
      47    134.51    -0.85881 ( 98.13%)    -0.76337 (  1.87%)    -0.85702
      48    139.15    -0.83943 ( 98.36%)    -0.75333 (  1.64%)    -0.83802
      49    142.14    -0.82732 ( 98.49%)    -0.74704 (  1.51%)    -0.82611
      50    165.49    -0.74123 ( 99.17%)    -0.70198 (  0.83%)    -0.74090
      51    166.32    -0.73840 ( 99.19%)    -0.70049 (  0.81%)    -0.73810
      52    167.29    -0.73515 ( 99.21%)    -0.69878 (  0.79%)    -0.73487
      53    168.07    -0.73253 ( 99.22%)    -0.69739 (  0.78%)    -0.73226
      54    168.58    -0.73086 ( 99.23%)    -0.69651 (  0.77%)    -0.73059
      55    181.53    -0.68949 ( 99.43%)    -0.67457 (  0.57%)    -0.68941
      56    181.80    -0.68869 ( 99.43%)    -0.67414 (  0.57%)    -0.68861
      57    182.01    -0.68803 ( 99.43%)    -0.67379 (  0.57%)    -0.68795
      58    182.07    -0.68785 ( 99.43%)    -0.67369 (  0.57%)    -0.68777
      59    182.52    -0.68648 ( 99.44%)    -0.67296 (  0.56%)    -0.68641
      60    182.72    -0.68587 ( 99.44%)    -0.67264 (  0.56%)    -0.68579
      61    189.54    -0.66556 ( 99.52%)    -0.66178 (  0.48%)    -0.66554
      62    192.42    -0.65723 ( 99.55%)    -0.65732 (  0.45%)    -0.65723
      63    193.70    -0.65359 ( 99.56%)    -0.65536 (  0.44%)    -0.65360
      64    194.25    -0.65203 ( 99.56%)    -0.65452 (  0.44%)    -0.65204
      65    195.03    -0.64980 ( 99.57%)    -0.65332 (  0.43%)    -0.64982
      66    195.85    -0.64750 ( 99.58%)    -0.65208 (  0.42%)    -0.64752
      67    195.94    -0.64726 ( 99.58%)    -0.65195 (  0.42%)    -0.64728
      68    196.79    -0.64488 ( 99.58%)    -0.65067 (  0.42%)    -0.64490
      69    196.95    -0.64443 ( 99.59%)    -0.65043 (  0.41%)    -0.64445
      70    197.48    -0.64294 ( 99.59%)    -0.64962 (  0.41%)    -0.64296
      71    197.84    -0.64194 ( 99.59%)    -0.64909 (  0.41%)    -0.64197
      72    198.03    -0.64143 ( 99.60%)    -0.64881 (  0.40%)    -0.64146
      73    198.35    -0.64052 ( 99.60%)    -0.64832 (  0.40%)    -0.64055
      74    198.54    -0.63999 ( 99.60%)    -0.64803 (  0.40%)    -0.64002
      75    198.87    -0.63908 ( 99.60%)    -0.64754 (  0.40%)    -0.63912
      76    199.55    -0.63721 ( 99.61%)    -0.64653 (  0.39%)    -0.63724
      77    199.62    -0.63701 ( 99.61%)    -0.64643 (  0.39%)    -0.63705
      78    203.19    -0.62732 ( 99.63%)    -0.64119 (  0.37%)    -0.62737
      79    203.37    -0.62682 ( 99.64%)    -0.64092 (  0.36%)    -0.62687
      80    203.42    -0.62670 ( 99.64%)    -0.64085 (  0.36%)    -0.62675
      81    203.83    -0.62560 ( 99.64%)    -0.64025 (  0.36%)    -0.62565
      82    204.40    -0.62406 ( 99.64%)    -0.63942 (  0.36%)    -0.62412
      83    204.69    -0.62328 ( 99.65%)    -0.63900 (  0.35%)    -0.62334
      84    212.17    -0.60374 ( 99.69%)    -0.62838 (  0.31%)    -0.60381
      85    220.44    -0.58304 ( 99.74%)    -0.61705 (  0.26%)    -0.58313
      86    223.27    -0.57614 ( 99.75%)    -0.61326 (  0.25%)    -0.57623
      87    236.27    -0.54586 ( 99.80%)    -0.59650 (  0.20%)    -0.54596
      88    238.77    -0.54026 ( 99.81%)    -0.59338 (  0.19%)    -0.54036
      89    250.54    -0.51484 ( 99.84%)    -0.57913 (  0.16%)    -0.51494
      90    261.58    -0.49231 ( 99.87%)    -0.56636 (  0.13%)    -0.49241
      91    262.25    -0.49098 ( 99.87%)    -0.56560 (  0.13%)    -0.49108
      92    262.95    -0.48959 ( 99.87%)    -0.56481 (  0.13%)    -0.48969
      93    263.92    -0.48767 ( 99.87%)    -0.56371 (  0.13%)    -0.48777
      94    265.02    -0.48553 ( 99.87%)    -0.56249 (  0.13%)    -0.48563
      95    265.50    -0.48459 ( 99.87%)    -0.56195 (  0.13%)    -0.48469
      96    265.82    -0.48397 ( 99.87%)    -0.56159 (  0.13%)    -0.48407
      97    280.55    -0.45627 ( 99.90%)    -0.54562 (  0.10%)    -0.45636
      98    283.32    -0.45126 ( 99.90%)    -0.54270 (  0.10%)    -0.45135
   ------------------------------------------------------------------------

   temp. (K)  partition function   enthalpy   heat capacity  entropy
                                   cal/mol     cal/K/mol   cal/K/mol   J/K/mol
 298.15  VIB  0.234E+55            64938.254    417.954    412.623
         ROT  0.347E+10              888.752      2.981     46.637
         INT  0.812E+64            65827.006    420.935    459.260
         TR   0.837E+29             1481.254      4.968     48.560
         TOT                       67308.2602   425.9035   507.8202  2124.7195

       T/K    H(0)-H(T)+PV         H(T)/Eh          T*S/Eh         G(T)/Eh
   ------------------------------------------------------------------------
    298.15    0.107263E+00    0.138913E+01    0.241282E+00    0.114784E+01
   ------------------------------------------------------------------------

         :::::::::::::::::::::::::::::::::::::::::::::::::::::
         ::                  THERMODYNAMIC                  ::
         :::::::::::::::::::::::::::::::::::::::::::::::::::::
         :: total free energy        -318.165226481083 Eh   ::
         ::.................................................::
         :: total energy             -319.313070787767 Eh   ::
         :: zero point energy           1.281863509733 Eh   ::
         :: G(RRHO) w/o ZPVE           -0.134019203049 Eh   ::
         :: G(RRHO) contrib.            1.147844306684 Eh   ::
         :::::::::::::::::::::::::::::::::::::::::::::::::::::

optimized geometry written to: xtbopt.xyz


           -------------------------------------------------
          | TOTAL ENERGY             -319.313070787767 Eh   |
          | TOTAL ENTHALPY           -317.923944737794 Eh   |
          | TOTAL FREE ENERGY        -318.165226481083 Eh   |
          | GRADIENT NORM               0.000407098474 Eh/α |
          | HOMO-LUMO GAP               0.940531598171 eV   |
           -------------------------------------------------

------------------------------------------------------------------------
 * finished run on 2021/11/18 at 19:36:00.024     
------------------------------------------------------------------------
 total:
 * wall-time:     0 d,  0 h, 17 min, 25.728 sec
 *  cpu-time:     0 d,  0 h, 17 min, 25.735 sec
 * ratio c/w:     1.000 speedup
 SCF:
 * wall-time:     0 d,  0 h,  0 min,  3.916 sec
 *  cpu-time:     0 d,  0 h,  0 min,  3.916 sec
 * ratio c/w:     1.000 speedup
 ANC optimizer:
 * wall-time:     0 d,  0 h,  2 min, 54.571 sec
 *  cpu-time:     0 d,  0 h,  2 min, 54.562 sec
 * ratio c/w:     1.000 speedup
 analytical hessian:
 * wall-time:     0 d,  0 h, 14 min, 26.867 sec
 *  cpu-time:     0 d,  0 h, 14 min, 26.883 sec
 * ratio c/w:     1.000 speedup

