185
 energy: -318.020109846710 gnorm: 0.789370798457 xtb: 6.4.1 (bd6e46d)
Zn       32.94370100000000    0.04460800000000   -0.01411300000000
C        35.27269200000000   -3.10218500000000    1.30857600000000
C        36.18879900000000   -2.15797800000000    1.25829400000000
C        35.77762000000000   -1.10407400000000    0.33700200000000
C        36.39649000000000    0.02027200000000   -0.00940800000000
C        35.69244800000000    1.24022000000000   -0.37351300000000
C        36.02055900000001    2.20027500000000   -1.22098700000000
C        34.98577900000000    3.21656100000000   -1.23788400000000
C        34.04951100000000    2.84009900000000   -0.39099300000000
N        34.45150100000000    1.60708800000000    0.17282400000000
C        32.78843700000000    3.48509800000000   -0.01184100000000
C        31.69321900000000    2.85031600000000    0.33891900000000
C        30.61959400000000    3.16827200000000    1.30794700000000
C        29.78203100000000    2.17151800000000    1.23078100000000
C        30.22032800000000    1.16783500000000    0.25032900000000
N        31.32526700000000    1.60668800000000   -0.23396300000000
C        29.60949400000000   -0.08543600000000   -0.16321900000000
C        30.27365400000000   -1.18994300000000   -0.41764300000000
C        29.89980600000000   -2.25288400000000   -1.37517100000000
C        30.84855300000000   -3.14664000000000   -1.28615100000000
C        31.83427700000000   -2.70919000000000   -0.30327400000000
N        31.48123100000000   -1.56338500000000    0.19352300000000
C        33.06516400000000   -3.36526100000000    0.14244700000000
C        34.18820600000000   -2.71939900000000    0.40956800000000
N        34.51680600000000   -1.47195800000000   -0.18883500000000
H        35.33295400000000   -4.01196600000000    1.92612300000000
H        37.10512700000000   -2.19792700000000    1.83634200000000
H        36.94792400000000    2.21707100000000   -1.82213000000000
H        35.00267800000000    4.12124900000000   -1.85050600000000
H        32.74071400000000    4.57990100000000   -0.01561800000000
H        30.56677200000000    4.04699700000000    1.93294000000000
H        28.87040100000000    2.13584800000000    1.84810500000000
H        28.51124300000000   -0.08252600000000   -0.26249000000000
H        29.03095000000000   -2.30534900000000   -2.02412100000000
H        30.84570700000000   -4.06294800000000   -1.88491100000000
H        33.02968200000000   -4.46106200000000    0.25437200000000
Zn       78.73524700000000   -0.00276800000000   -0.01854600000000
C        76.40625600000000    2.84402400000000    1.86495900000000
C        75.49014900000000    1.92553400000000    1.64038600000000
C        75.90132800000001    1.06083700000000    0.53957100000000
C        75.28245800000001    0.02027200000000   -0.00940800000000
C        75.98650000000001   -1.11095300000000   -0.59351100000000
C        75.65838900000000   -1.89712400000000   -1.60437700000000
C        76.69316900000000   -2.89263400000000   -1.80951800000000
C        77.62943700000000   -2.67981700000000   -0.90748700000000
N        77.22744700000001   -1.57280500000000   -0.12471600000000
C        78.89051200000000   -3.38395800000000   -0.65457400000000
C        79.98572900000001   -2.82526600000000   -0.19214100000000
C        81.05935400000000   -3.31747100000000    0.70108100000000
C        81.89691700000000   -2.32370400000000    0.81016600000000
C        81.45862000000000   -1.15555500000000    0.03293100000000
N        80.35368200000001   -1.49694700000000   -0.52436800000000
C        82.06945399999999    0.15268000000000   -0.14093900000000
C        81.40529400000000    1.28521300000000   -0.18604500000000
C        81.77914300000002    2.50733900000000   -0.92976000000000
C        80.83039500000001    3.36906600000000   -0.67648100000000
C        79.84467200000000    2.75687200000000    0.20818200000000
N        80.19771700000000    1.53879300000000    0.48379200000000
C        78.61378400000001    3.31886600000000    0.76787700000000
C        77.49074200000000    2.63466200000000    0.91054400000000
N        77.16214200000000    1.51988700000000    0.09111000000000
H        76.34599400000000    3.62344800000000    2.64056300000000
H        74.57382100000000    1.85755400000000    2.21581100000000
H        74.73102400000002   -1.80210700000000   -2.19820200000000
H        76.67627000000000   -3.66796800000000   -2.57933800000000
H        78.93823400000001   -4.45905600000000   -0.86138800000000
H        81.11217600000002   -4.29688800000000    1.15220800000000
H        82.80854800000000   -2.40317600000000    1.42339200000000
H        83.16770500000000    0.16823600000000   -0.23902600000000
H        82.64799800000000    2.67928300000000   -1.55771200000000
H        80.83324100000000    4.38054800000000   -1.09485900000000
H        78.64926600000001    4.37488300000000    1.08114600000000
C        39.01093900000000    0.02027200000000   -0.00940800000000
C        40.22714400000000    0.02027200000000   -0.00940800000000
C        49.82456000000000    0.02027200000000   -0.00940800000000
C        51.04076600000000    0.02027200000000   -0.00940800000000
C        60.63818200000000    0.02027200000000   -0.00940800000000
C        61.85438800000001    0.02027200000000   -0.00940800000000
C        71.45180400000001    0.02027200000000   -0.00940800000000
C        72.66801000000000    0.02027200000000   -0.00940800000000
Zn       45.05734800000000    0.03307400000000    0.00407800000000
C        42.77753700000000   -3.22837400000000   -0.90558800000000
C        41.82132800000001   -2.32902300000000   -1.00761400000000
C        42.21370200000000   -1.16671800000000   -0.20509800000000
C        41.57858600000000   -0.01544600000000    0.00716800000000
C        42.26404300000001    1.25915400000000    0.23339700000000
C        41.92875300000000    2.33775400000000    0.93763700000000
C        42.95329400000000    3.35707100000000    0.84705600000000
C        43.90389100000000    2.86014600000000    0.07369100000000
N        43.52689700000000    1.54354100000000   -0.34245200000000
C        45.15103100000001    3.47184700000000   -0.34317400000000
C        46.25258200000000    2.80459000000000   -0.67494600000000
C        47.24612900000000    3.05657500000000   -1.70911600000000
C        48.14001200000001    2.09571600000000   -1.60763200000000
C        47.76031400000000    1.18383200000000   -0.50365500000000
N        46.66539900000000    1.63315100000000    0.00371200000000
C        48.41752100000000   -0.01544600000000    0.00716800000000
C        47.79410900000000   -1.08462800000000    0.46868500000000
C        48.17282200000000   -2.01674300000000    1.54416000000000
C        47.23215300000000   -2.93088900000000    1.63002600000000
C        46.22385200000000   -2.63511000000000    0.63259900000000
N        46.56162700000001   -1.58173300000000   -0.01669600000000
C        44.97145900000000   -3.34211800000000    0.30140600000000
C        43.85758200000000   -2.74542100000000   -0.04593600000000
N        43.47547000000000   -1.46266400000000    0.37174700000000
H        42.77788200000000   -4.21944700000000   -1.39682200000000
H        40.91279400000000   -2.45071700000000   -1.58876200000000
H        41.00390100000000    2.45610500000000    1.51456300000000
H        42.98058900000000    4.34623500000000    1.30370600000000
H        45.23697100000000    4.56922500000000   -0.40519700000000
H        47.27880100000000    3.86279100000000   -2.43594000000000
H        49.03307400000000    1.98274700000000   -2.24140600000000
H        49.08757200000000   -1.94233700000000    2.15433000000000
H        47.25120000000000   -3.74449700000000    2.33829300000000
H        45.00994300000000   -4.44207700000000    0.36044200000000
Zn       55.87097000000000    0.03307400000000    0.00407800000000
C        53.59115900000000   -3.22837400000000   -0.90558800000000
C        52.63495000000000   -2.32902300000000   -1.00761400000000
C        53.02732400000001   -1.16671800000000   -0.20509800000000
C        52.39220800000000   -0.01544600000000    0.00716800000000
C        53.07766500000001    1.25915400000000    0.23339700000000
C        52.74237400000000    2.33775400000000    0.93763700000000
C        53.76691600000000    3.35707100000000    0.84705600000000
C        54.71751300000000    2.86014600000000    0.07369100000000
N        54.34051900000000    1.54354100000000   -0.34245200000000
C        55.96465300000000    3.47184700000000   -0.34317400000000
C        57.06620400000000    2.80459000000000   -0.67494600000000
C        58.05975100000000    3.05657500000000   -1.70911600000000
C        58.95363400000001    2.09571600000000   -1.60763200000000
C        58.57393600000001    1.18383200000000   -0.50365500000000
N        57.47902100000000    1.63315100000000    0.00371200000000
C        59.23114300000000   -0.01544600000000    0.00716800000000
C        58.60773100000000   -1.08462800000000    0.46868500000000
C        58.98644400000001   -2.01674300000000    1.54416000000000
C        58.04577500000000   -2.93088900000000    1.63002600000000
C        57.03747400000000   -2.63511000000000    0.63259900000000
N        57.37524900000000   -1.58173300000000   -0.01669600000000
C        55.78508100000001   -3.34211800000000    0.30140600000000
C        54.67120400000000   -2.74542100000000   -0.04593600000000
N        54.28909200000000   -1.46266400000000    0.37174700000000
H        53.59150400000000   -4.21944700000000   -1.39682200000000
H        51.72641600000000   -2.45071700000000   -1.58876200000000
H        51.81752200000000    2.45610500000000    1.51456300000000
H        53.79421100000000    4.34623500000000    1.30370600000000
H        56.05059300000001    4.56922500000000   -0.40519700000000
H        58.09242300000000    3.86279100000000   -2.43594000000000
H        59.84669500000000    1.98274700000000   -2.24140600000000
H        59.90119400000000   -1.94233700000000    2.15433000000000
H        58.06482200000000   -3.74449700000000    2.33829300000000
H        55.82356500000000   -4.44207700000000    0.36044200000000
Zn       66.68459199999999    0.03307400000000    0.00407800000000
C        64.40478100000000   -3.22837400000000   -0.90558800000000
C        63.44857200000000   -2.32902300000000   -1.00761400000000
C        63.84094600000000   -1.16671800000000   -0.20509800000000
C        63.20583000000000   -0.01544600000000    0.00716800000000
C        63.89128700000000    1.25915400000000    0.23339700000000
C        63.55599600000000    2.33775400000000    0.93763700000000
C        64.58053800000000    3.35707100000000    0.84705600000000
C        65.53113500000001    2.86014600000000    0.07369100000000
N        65.15414100000000    1.54354100000000   -0.34245200000000
C        66.77827499999999    3.47184700000000   -0.34317400000000
C        67.87982599999999    2.80459000000000   -0.67494600000000
C        68.87337300000000    3.05657500000000   -1.70911600000000
C        69.76725600000000    2.09571600000000   -1.60763200000000
C        69.38755800000000    1.18383200000000   -0.50365500000000
N        68.29264200000000    1.63315100000000    0.00371200000000
C        70.04476500000001   -0.01544600000000    0.00716800000000
C        69.42135300000000   -1.08462800000000    0.46868500000000
C        69.80006600000000   -2.01674300000000    1.54416000000000
C        68.85939700000000   -2.93088900000000    1.63002600000000
C        67.85109600000000   -2.63511000000000    0.63259900000000
N        68.18887100000002   -1.58173300000000   -0.01669600000000
C        66.59870300000000   -3.34211800000000    0.30140600000000
C        65.48482600000000   -2.74542100000000   -0.04593600000000
N        65.10271400000001   -1.46266400000000    0.37174700000000
H        64.40512600000000   -4.21944700000000   -1.39682200000000
H        62.54003800000000   -2.45071700000000   -1.58876200000000
H        62.63114400000000    2.45610500000000    1.51456300000000
H        64.60783200000000    4.34623500000000    1.30370600000000
H        66.86421400000000    4.56922500000000   -0.40519700000000
H        68.90604500000001    3.86279100000000   -2.43594000000000
H        70.66031700000001    1.98274700000000   -2.24140600000000
H        70.71481600000000   -1.94233700000000    2.15433000000000
H        68.87844400000002   -3.74449700000000    2.33829300000000
H        66.63718700000000   -4.44207700000000    0.36044200000000
185
 energy: -318.296861174731 gnorm: 0.441938356337 xtb: 6.4.1 (bd6e46d)
Zn       32.95671136929440    0.04456966857516   -0.01264225082396
C        35.27325981801702   -3.11129567757935    1.29898646287916
C        36.20577854070237   -2.15823463812405    1.25298451791675
C        35.77843003819962   -1.10665920777195    0.34381099016621
C        36.38903527255282    0.04159412852315   -0.00795932307382
C        35.68217291595639    1.23705935303926   -0.36623671011741
C        36.03338418078176    2.22806183567461   -1.23858727777010
C        35.01579340299290    3.21932376828138   -1.25076919447647
C        34.04386995284850    2.81649533252431   -0.38494327952711
N        34.43048285471532    1.58661087664255    0.17383502159306
C        32.80870293816449    3.48226514693157   -0.01248355420204
C        31.68290401012727    2.83356975033305    0.34010513785698
C        30.62045242695751    3.17603991411673    1.28936365536289
C        29.75457426384751    2.16378498565577    1.23291889465008
C        30.21304953178407    1.16835059749563    0.26802256817712
N        31.35888267378779    1.58529575656496   -0.21381664740062
C        29.59759679107658   -0.06224508478215   -0.15576199641400
C        30.27714692225631   -1.19356186826347   -0.42370016370558
C        29.89148071616082   -2.25270333605396   -1.36018752808588
C        30.85578362538025   -3.16997134452558   -1.28134207878915
C        31.84445971419289   -2.71996682938294   -0.31259633980719
N        31.49102885782084   -1.53945394421639    0.16522499206201
C        33.04630757639550   -3.37062222813781    0.13407576151931
C        34.19477885526400   -2.70358068773190    0.41296525529272
N        34.51345288563357   -1.46798449984955   -0.15761963643248
H        35.32352589726557   -4.00636436592907    1.91701897440205
H        37.11097599490081   -2.18795070687001    1.83329263342342
H        36.94591024927798    2.22668625940405   -1.82388085303735
H        35.01017485045204    4.11798611259868   -1.85137358933815
H        32.75832097879678    4.57424071216323   -0.00867954201030
H        30.57474397405239    4.04514457843371    1.92548949884772
H        28.86489520972707    2.12577540493085    1.84678125445538
H        28.51291999755303   -0.07307688065750   -0.26777543674179
H        29.03306226026779   -2.29499433194975   -2.01546311400155
H        30.85774442573148   -4.06795536734701   -1.88072224084881
H        33.02416982953963   -4.45581358765411    0.25426819461408
Zn       78.72233681235913   -0.00296730933033   -0.01712092599804
C        76.40569255491533    2.85480089094010    1.85721484925359
C        75.47330853985983    1.92673766305839    1.63526631324291
C        75.90117074365733    1.06199507216278    0.54704283837616
C        75.29199623600967   -0.00127596852424   -0.01132398801860
C        75.99734016033442   -1.10909036695505   -0.58571428032442
C        75.64570210583631   -1.92111994376142   -1.62678925147344
C        76.66309965098630   -2.89293239014838   -1.82269066620789
C        77.63512004064842   -2.65780766173011   -0.89711255630760
N        77.24866016195459   -1.55329874126190   -0.11975206671997
C        78.87026518284968   -3.38112927401479   -0.65470426122267
C        79.99605010430946   -2.80901129155003   -0.18783623097661
C        81.05846741162783   -3.32162569019474    0.68139274314933
C        81.92441609801539   -2.31647525575308    0.81363729930006
C        81.46597158249915   -1.15931403842394    0.05021638418821
N        80.32001038056357   -1.47971037678312   -0.50062566079341
C        82.08136853880728    0.12846082195505   -0.13788144698372
C        81.40180836331348    1.28991775856998   -0.19136948180608
C        81.78745947402673    2.50431967081461   -0.91508670490480
C        80.82310383864929    3.39108264760236   -0.66744843888556
C        79.83450329632836    2.76920423254431    0.20094684483251
N        80.18793897163636    1.52056787549782    0.45155009482730
C        78.63259494334726    3.32578123287188    0.76068002862656
C        77.48420548565853    2.61868142230481    0.91087842164290
N        77.16575338500910    1.51033817725930    0.12097853117662
H        76.35541128235255    3.61965724271888    2.63058569263790
H        74.56803062306366    1.84829521464469    2.21093910672544
H        74.73309193249727   -1.81120187500368   -2.20169848225799
H        76.66875439180872   -3.66459384902543   -2.57961265667794
H        78.92065954688070   -4.45480697715010   -0.85361353989756
H        81.10420345409270   -4.29368067765606    1.14522001202359
H        82.81406671267673   -2.39302718903653    1.42394441692472
H        83.16604246221908    0.15992150280805   -0.24592608834983
H        82.64589324621889    2.66749101038427   -1.55111738343043
H        80.82119859909878    4.38469688306692   -1.08980163850654
H        78.65480471414743    4.36977430251277    1.08018177307249
C        38.97469704852162    0.01894627213530   -0.00807805911825
C        40.19573030448620    0.02927559189221   -0.01338612730219
C        49.82049113812963    0.02806736047546   -0.00756076549234
C        51.03508110335104    0.02897618757938   -0.01155505328057
C        60.63407753785384    0.02809247345382   -0.00733729117763
C        61.84870762989431    0.02899484385877   -0.01154099316913
C        71.47684034665343    0.02788471235709   -0.00528160818938
C        72.69687348530066    0.02045047125977   -0.00962924642882
Zn       45.04667422724998    0.03572818020536    0.00286706053577
C        42.77844770397936   -3.24655981504367   -0.89767871070237
C        41.81359628961642   -2.32862364615496   -0.99684257211942
C        42.23480840839008   -1.17851821303901   -0.20963877940162
C        41.58569762443704    0.00492784413172    0.00406264450725
C        42.29101972238937    1.26211452785257    0.23064618704134
C        41.91905119918796    2.36410932172901    0.94898922293143
C        42.92826460504401    3.35841729764426    0.85390971100808
C        43.91434903238437    2.83876335997892    0.06989557476545
N        43.55000432390148    1.53076873260607   -0.33016647753526
C        45.13587388216800    3.46979931771740   -0.34451343010924
C        46.26138013148785    2.79156585168621   -0.67611439404741
C        47.25352136839027    3.06434027060260   -1.69455366951564
C        48.16216932470004    2.08337526832977   -1.60525064540448
C        47.76390717824641    1.18338321527225   -0.52008634959820
N        46.63231944790532    1.61341455754470   -0.01569754800388
C        48.42738587361661    0.00324550963225   -0.00245332985146
C        47.78091479791449   -1.09752407533618    0.47628131084005
C        48.18519265146691   -2.01537138669025    1.53257189444086
C        47.22815398298914   -2.94894631735668    1.62721449528902
C        46.21287085445098   -2.64274411841693    0.64291705424022
N        46.54816050097109   -1.54574676740425   -0.00274428768034
C        44.99279337559241   -3.34790464296997    0.31194713906706
C        43.84499484313235   -2.73205606013689   -0.05390796875796
N        43.48759793825517   -1.45181485245356    0.33884050697088
H        42.78355211785626   -4.21602134929866   -1.39232451795863
H        40.91319601274966   -2.43959164731447   -1.58323320408081
H        41.00288308097308    2.46094688692666    1.51531037263934
H        42.96865179419391    4.33996325377547    1.30579018670167
H        45.21778371224033    4.56170990305382   -0.41141675435360
H        47.27086942532621    3.86092181922775   -2.42651568045766
H        49.03444039279101    1.97516013284926   -2.23753277908393
H        49.08182717426631   -1.93636574748130    2.14471949462295
H        47.24276951110840   -3.75145358509927    2.33837138406290
H        45.01692529205096   -4.43830577046207    0.35791202985590
Zn       55.86003984271861    0.03600210845112    0.00286250633412
C        53.59173687511218   -3.24757979908704   -0.89730802003606
C        52.62807361711432   -2.32897378425755   -0.99675070813909
C        53.05201472735708   -1.18130441412911   -0.20667247116379
C        52.40550430968866    0.00442262924950    0.00523076900552
C        53.10767745496599    1.26402439869250    0.22987729153793
C        52.73356036743881    2.36394180839015    0.94887165830480
C        53.74223667215344    3.35920807898750    0.85350257623359
C        54.72846502121902    2.83986445592834    0.06990218937820
N        54.36438400435439    1.53122740496996   -0.33008922085433
C        55.94945930260714    3.47003119135723   -0.34420811419426
C        57.07513907346993    2.79155906615747   -0.67611432963297
C        58.06697429376177    3.06427486765284   -1.69460444228612
C        58.97575033781180    2.08322826722032   -1.60533426970993
C        58.57742582497940    1.18347321403182   -0.52030824909465
N        57.44603228219047    1.61348666399405   -0.01576456578323
C        59.24111812747974    0.00310228204610   -0.00227549838530
C        58.59490650549437   -1.09754232092999    0.47632778504291
C        58.99919339833473   -2.01535593110808    1.53236047664872
C        58.04146123825983   -2.94839110946134    1.62771540458633
C        57.02690084884828   -2.64215797077289    0.64332003501987
N        57.36159710086537   -1.54627663483252   -0.00278974559442
C        55.80575380596984   -3.34826795029312    0.31107073924278
C        54.65944413190917   -2.73331015490950   -0.05387830098422
N        54.30202046289224   -1.45185218016740    0.33876431390009
H        53.59699961655349   -4.21638048646167   -1.39244946166257
H        51.72719344986890   -2.43943545933407   -1.58313408038243
H        51.81677171513829    2.46066764725684    1.51506795392744
H        53.78229527258305    4.34027633454726    1.30581813341124
H        56.03154087252857    4.56184375588948   -0.41120199911813
H        58.08447946452109    3.86091643590391   -2.42648641257427
H        59.84807301480914    1.97515317286361   -2.23750188902402
H        59.89558430560437   -1.93638709746015    2.14466398330459
H        58.05635899481292   -3.75135581615872    2.33836004375836
H        55.83065390514962   -4.43850946455152    0.35704813764062
Zn       66.67337243157657    0.03624460275722    0.00284871800454
C        64.40499647970849   -3.24779298548883   -0.89706512600105
C        63.44180779644420   -2.32920231623061   -0.99677725977923
C        63.86577762470316   -1.18110896648530   -0.20650645616298
C        63.21918221489607    0.00438840200196    0.00517029345180
C        63.92137663738562    1.26402346656381    0.22980407523928
C        63.54729933042841    2.36402899610715    0.94891602714245
C        64.55573745365166    3.35931920633420    0.85337840529064
C        65.54218473214367    2.83994394251489    0.06974161514427
N        65.17787772285095    1.53119018413844   -0.33009262320521
C        66.76311335181823    3.46972636140582   -0.34378192758890
C        67.88946873431638    2.79078590053293   -0.67560193575307
C        68.88063994804307    3.06373695514732   -1.69468483193238
C        69.78987403821398    2.08313119144618   -1.60576772834357
C        69.39318846578360    1.18055075281675   -0.52235528501218
N        68.26116745942710    1.61271428383350   -0.01552752825925
C        70.06042742462279    0.00250913870860   -0.00239037765751
C        69.41210867199925   -1.09465560785349    0.47643691625291
C        69.81379972811548   -2.01577226139827    1.53242604237091
C        68.85548905615390   -2.94720424320274    1.62822318364877
C        67.84118688864122   -2.64056870446295    0.64293278523526
N        68.17562148406731   -1.54597444798979   -0.00278918583268
C        66.61915755768543   -3.34806685526091    0.31042827860073
C        65.47332102206737   -2.73343282973079   -0.05363970168315
N        65.11565556542185   -1.45151788240557    0.33874950634241
H        64.41058152630872   -4.21641292853900   -1.39248428540418
H        62.54088081336685   -2.43947208099422   -1.58319342044987
H        62.63042907905812    2.46070906863290    1.51508275322655
H        64.59589225517185    4.34031635637594    1.30582357974505
H        66.84526378710515    4.56165974206118   -0.41105120956353
H        68.89802130212192    3.86076845510814   -2.42638116263497
H        70.66193745138041    1.97525745552227   -2.23773462684833
H        70.70956808207875   -1.93668673172755    2.14486714370033
H        68.86999341229792   -3.75097308464032    2.33832542554637
H        66.64450000603046   -4.43837625487024    0.35638902094030
185
 energy: -318.464770861912 gnorm: 0.179380656586 xtb: 6.4.1 (bd6e46d)
Zn       32.96447204197369    0.04523544892343   -0.01033445947927
C        35.27209227024409   -3.11640634723796    1.28710147080988
C        36.22159375796989   -2.15821030709133    1.24560867686362
C        35.77792726755219   -1.10935975130810    0.35302146629281
C        36.37920569107424    0.06271043490754   -0.01394072755048
C        35.67427759042235    1.23036282851823   -0.36127347059976
C        36.04261424121763    2.25776226613672   -1.24852530810297
C        35.04905413199420    3.21735665082950   -1.25297733137012
C        34.03918561902701    2.78895535905560   -0.37543302913724
N        34.41099778246726    1.56318554170851    0.15872181408766
C        32.83305090507771    3.47127392681094   -0.01302834821057
C        31.68053518984541    2.80767868429187    0.34737133205387
C        30.62676937549647    3.17686622502262    1.26490522519887
C        29.73060272702267    2.15985497331528    1.22572553116099
C        30.20653601577341    1.16751162251653    0.28789368466444
N        31.39891330853057    1.56039149097583   -0.18233392825258
C        29.59184443498664   -0.03961785398700   -0.14671890978154
C        30.28645140835735   -1.19156269172915   -0.43721472289690
C        29.88884569835498   -2.25001527325409   -1.34130116356534
C        30.85930740771731   -3.18959429066837   -1.26901822767951
C        31.85525453036959   -2.72795430556520   -0.32284445904697
N        31.50401961624657   -1.50549978714803    0.12573625801615
C        33.02911748335733   -3.36881879648508    0.12443015209918
C        34.19881658715185   -2.68071480490172    0.41945951049442
N        34.50840750497934   -1.46122699274148   -0.11931284724607
H        35.31293995014627   -4.00064690959462    1.90380940439832
H        37.11991475697549   -2.17719831888570    1.82688192347026
H        36.94448926692655    2.23540193647759   -1.82392240710751
H        35.01440422864979    4.11265123337179   -1.84735479317067
H        32.77731931975818    4.56074644267894   -0.00786159826396
H        30.58298956146344    4.03963591633635    1.91145788804062
H        28.85836412371883    2.11540054491499    1.84115130653586
H        28.51666412341816   -0.06682798873947   -0.26689790455409
H        29.03718197382454   -2.28449281530140   -2.00177922345535
H        30.86992678836358   -4.07406258697502   -1.87206695825461
H        33.02407856871986   -4.44693326584545    0.24858071488873
Zn       78.71463145058823   -0.00401000646312   -0.01497767961496
C        76.40689556024489    2.86199976931779    1.84648851975594
C        75.45770915403328    1.92786459600669    1.62799596173684
C        75.90223766723940    1.06314861712996    0.55617587564494
C        75.30382020908891   -0.02022686847283   -0.02331449555000
C        76.00577918136894   -1.10336671648522   -0.57998711166586
C        75.63668113769263   -1.94853849714761   -1.64223078403549
C        76.62985762100216   -2.89067806690872   -1.82450245423374
C        77.63990475587788   -2.63270912210960   -0.88257446852357
N        77.26845084208252   -1.52776185220020   -0.13025282151224
C        78.84596961296761   -3.37033778206665   -0.65321893968708
C        79.99844802012456   -2.78492156751571   -0.17586857931976
C        81.05214721253394   -3.31789236946423    0.65721963386224
C        81.94838414918810   -2.31125878493556    0.80729769254885
C        81.47250002307999   -1.16218133882241    0.06990274098513
N        80.27999157555901   -1.46111583393904   -0.46507282154372
C        82.08711073803704    0.10454162910658   -0.13320158546917
C        81.39251000288158    1.29046853052945   -0.20505392726165
C        81.79009113058736    2.49816342967869   -0.89704825647234
C        80.81959875387533    3.40808730413022   -0.65170379088558
C        79.82374955169821    2.77900802349347    0.19236683804238
N        80.17497203582167    1.49454315707592    0.40646879049504
C        78.64993960705692    3.32595001163984    0.75090955104131
C        77.48031071813031    2.59518824713211    0.91305137367212
N        77.17128994983686    1.49706376976185    0.15733573587291
H        76.36595606289011    3.61652600846858    2.61649868913596
H        74.55918800596869    1.83885900459480    2.20250616539856
H        74.73467123905519   -1.81973089238027   -2.20335651052428
H        76.66454456664141   -3.66015344978107   -2.57467657351207
H        78.90172558212703   -4.44177358476876   -0.85035548748342
H        81.09596447918739   -4.28565603226711    1.13246860769416
H        82.82060383425595   -2.38178192195404    1.42033017928188
H        83.16229986793415    0.15363057343340   -0.24621007081355
H        82.64176715535234    2.65463290060202   -1.53964746287966
H        80.80902708115781    4.38908542881649   -1.08019782641982
H        78.65498473638485    4.36222289767629    1.07294525748238
C        38.93984672168557    0.02532121406951   -0.01004941583815
C        40.16310271936452    0.04005597600282   -0.00863500590896