      -----------------------------------------------------------      
     |                   =====================                   |     
     |                           x T B                           |     
     |                   =====================                   |     
     |                         S. Grimme                         |     
     |          Mulliken Center for Theoretical Chemistry        |     
     |                    University of Bonn                     |     
      -----------------------------------------------------------      

   * xtb version 6.4.1 (bd6e46d) compiled by 'conda@4901f00b25ba' on 2021-06-10

   xtb is free software: you can redistribute it and/or modify it under
   the terms of the GNU Lesser General Public License as published by
   the Free Software Foundation, either version 3 of the License, or
   (at your option) any later version.
   
   xtb is distributed in the hope that it will be useful,
   but WITHOUT ANY WARRANTY; without even the implied warranty of
   MERCHANTABILITY or FITNESS FOR A PARTICULAR PURPOSE.  See the
   GNU Lesser General Public License for more details.
   
   Cite this work as:
   * C. Bannwarth, E. Caldeweyher, S. Ehlert, A. Hansen, P. Pracht,
     J. Seibert, S. Spicher, S. Grimme, WIREs Comput. Mol. Sci., 2020, 11,
     e01493. DOI: 10.1002/wcms.1493
   
   for GFN2-xTB:
   * C. Bannwarth, S. Ehlert and S. Grimme., J. Chem. Theory Comput., 2019,
     15, 1652-1671. DOI: 10.1021/acs.jctc.8b01176
   for GFN1-xTB:
   * S. Grimme, C. Bannwarth, P. Shushkov, J. Chem. Theory Comput., 2017,
     13, 1989-2009. DOI: 10.1021/acs.jctc.7b00118
   for GFN0-xTB:
   * P. Pracht, E. Caldeweyher, S. Ehlert, S. Grimme, ChemRxiv, 2019, preprint.
     DOI: 10.26434/chemrxiv.8326202.v1
   for GFN-FF:
   * S. Spicher and S. Grimme, Angew. Chem. Int. Ed., 2020, 59, 15665-15673.
     DOI: 10.1002/anie.202004239
   
   for DFT-D4:
   * E. Caldeweyher, C. Bannwarth and S. Grimme, J. Chem. Phys., 2017,
     147, 034112. DOI: 10.1063/1.4993215
   * E. Caldeweyher, S. Ehlert, A. Hansen, H. Neugebauer, S. Spicher,
     C. Bannwarth and S. Grimme, J. Chem. Phys., 2019, 150, 154122.
     DOI: 10.1063/1.5090222
   * E. Caldeweyher, J.-M. Mewes, S. Ehlert and S. Grimme, Phys. Chem. Chem. Phys.
     2020, 22, 8499-8512. DOI: 10.1039/D0CP00502A
   
   for sTDA-xTB:
   * S. Grimme and C. Bannwarth, J. Chem. Phys., 2016, 145, 054103.
     DOI: 10.1063/1.4959605
   
   in the mass-spec context:
   * V. Asgeirsson, C. Bauer and S. Grimme, Chem. Sci., 2017, 8, 4879.
     DOI: 10.1039/c7sc00601b
   * J. Koopman and S. Grimme, ACS Omega 2019, 4, 12, 15120-15133.
     DOI: 10.1021/acsomega.9b02011
   
   for metadynamics refer to:
   * S. Grimme, J. Chem. Theory Comput., 2019, 155, 2847-2862
     DOI: 10.1021/acs.jctc.9b00143
   
   for SPH calculations refer to:
   * S. Spicher and S. Grimme, J. Chem. Theory Comput., 2021, 17, 1701-1714
     DOI: 10.1021/acs.jctc.0c01306
   
   with help from (in alphabetical order)
   P. Atkinson, C. Bannwarth, F. Bohle, G. Brandenburg, E. Caldeweyher
   M. Checinski, S. Dohm, S. Ehlert, S. Ehrlich, I. Gerasimov, J. Koopman
   C. Lavigne, S. Lehtola, F. März, M. Müller, F. Musil, H. Neugebauer
   J. Pisarek, C. Plett, P. Pracht, J. Seibert, P. Shushkov, S. Spicher
   M. Stahn, M. Steiner, T. Strunk, J. Stückrath, T. Rose, and J. Unsleber
   
 * started run on 2021/11/20 at 15:59:34.101     

           -------------------------------------------------
          |                Calculation Setup                |
           -------------------------------------------------

          program call               : /home/jeff/miniconda3/bin/xtb /home/jeff/chem/final-year-proejct/Zn+2_4_6_outenergy/input_structure.xyz --gfn 2 --parallel 1 --etemp 300 --chrg 0 --uhf 0 -I det_control.in
          coordinate file            : /home/jeff/chem/final-year-proejct/Zn+2_4_6_outenergy/input_structure.xyz
          omp threads                :                     1
          number of atoms            :                   232
          number of electrons        :                   754
          charge                     :                     0
          spin                       :                   0.0
          first test random number   :      0.84450510826439

   ID    Z sym.   atoms
    1   30 Zn     1, 37, 93, 128, 163, 198
    2    6 C      2-9, 11-15, 17-21, 23, 24, 38-45, 47-51, 53-57, 59, 60,
                  73-92, 94-101, 103-107, 109-113, 115, 116, 129-136,
                  138-142, 144-148, 150, 151, 164-171, 173-177, 179-183, 185,
                  186, 199-206, 208-212, 214-218, 220, 221
    3    7 N      10, 16, 22, 25, 46, 52, 58, 61, 102, 108, 114, 117, 137,
                  143, 149, 152, 172, 178, 184, 187, 207, 213, 219, 222
    4    1 H      26-36, 62-72, 118-127, 153-162, 188-197, 223-232

           -------------------------------------------------
          |                 G F N 2 - x T B                 |
           -------------------------------------------------

        Reference                      10.1021/acs.jctc.8b01176
      * Hamiltonian:
        H0-scaling (s, p, d)           1.850000    2.230000    2.230000
        zeta-weighting                 0.500000
      * Dispersion:
        s8                             2.700000
        a1                             0.520000
        a2                             5.000000
        s9                             5.000000
      * Repulsion:
        kExp                           1.500000    1.000000
        rExp                           1.000000
      * Coulomb:
        alpha                          2.000000
        third order                    shell-resolved
        anisotropic                    true
        a3                             3.000000
        a5                             4.000000
        cn-shift                       1.200000
        cn-exp                         4.000000
        max-rad                        5.000000


          ...................................................
          :                      SETUP                      :
          :.................................................:
          :  # basis functions                 742          :
          :  # atomic orbitals                 742          :
          :  # shells                          402          :
          :  # electrons                       754          :
          :  max. iterations                   250          :
          :  Hamiltonian                  GFN2-xTB          :
          :  restarted?                      false          :
          :  GBSA solvation                  false          :
          :  PC potential                    false          :
          :  electronic temp.          300.0000000     K    :
          :  accuracy                    1.0000000          :
          :  -> integral cutoff          0.2500000E+02      :
          :  -> integral neglect         0.1000000E-07      :
          :  -> SCF convergence          0.1000000E-05 Eh   :
          :  -> wf. convergence          0.1000000E-03 e    :
          :  Broyden damping             0.4000000          :
          ...................................................

 iter      E             dE          RMSdq      gap      omega  full diag
   1   -411.0576160 -0.411058E+03  0.701E+00    0.86       0.0  T
   2   -411.8750825 -0.817466E+00  0.368E+00    0.81       1.0  T
   3   -411.6617425  0.213340E+00  0.249E+00    0.92       1.0  T
   4   -412.5325457 -0.870803E+00  0.402E-01    0.84       1.0  T
   5   -412.5380577 -0.551191E-02  0.271E-01    0.87       1.0  T
   6   -412.5405919 -0.253425E-02  0.170E-01    0.87       1.0  T
   7   -412.5436712 -0.307932E-02  0.913E-02    0.86       1.0  T
   8   -412.5458016 -0.213034E-02  0.339E-02    0.86       1.0  T
   9   -412.5460527 -0.251114E-03  0.145E-02    0.86       1.0  T
  10   -412.5460783 -0.255678E-04  0.651E-03    0.86       1.0  T
  11   -412.5460835 -0.529820E-05  0.245E-03    0.86       2.7  T
  12   -412.5460843 -0.797662E-06  0.113E-03    0.86       5.8  T
  13   -412.5460844 -0.219063E-07  0.667E-04    0.86       9.8  T
  14   -412.5460845 -0.935281E-07  0.196E-04    0.86      33.5  T

   *** convergence criteria satisfied after 14 iterations ***

         #    Occupation            Energy/Eh            Energy/eV
      -------------------------------------------------------------
         1        2.0000           -0.6684720             -18.1900
       ...           ...                  ...                  ...
       371        2.0000           -0.3693410             -10.0503
       372        2.0000           -0.3693245             -10.0498
       373        2.0000           -0.3681581             -10.0181
       374        2.0000           -0.3629422              -9.8762
       375        2.0000           -0.3574083              -9.7256
       376        2.0000           -0.3522946              -9.5864
       377        2.0000           -0.3486942              -9.4885 (HOMO)
       378        0.0000           -0.3170840              -8.6283 (LUMO)
       379                         -0.3127727              -8.5110
       380                         -0.3073092              -8.3623
       381                         -0.3015149              -8.2046
       382                         -0.3000955              -8.1660
       ...                                ...                  ...
       742                          1.6317353              44.4018
      -------------------------------------------------------------
                  HL-Gap            0.0316101 Eh            0.8602 eV
             Fermi-level           -0.3328835 Eh           -9.0582 eV

 SCC (total)                   0 d,  0 h,  0 min,  2.808 sec
 SCC setup                      ...        0 min,  0.010 sec (  0.340%)
 Dispersion                     ...        0 min,  0.020 sec (  0.716%)
 classical contributions        ...        0 min,  0.002 sec (  0.070%)
 integral evaluation            ...        0 min,  0.151 sec (  5.368%)
 iterations                     ...        0 min,  2.195 sec ( 78.184%)
 molecular gradient             ...        0 min,  0.410 sec ( 14.593%)
 printout                       ...        0 min,  0.020 sec (  0.729%)

         :::::::::::::::::::::::::::::::::::::::::::::::::::::
         ::                     SUMMARY                     ::
         :::::::::::::::::::::::::::::::::::::::::::::::::::::
         :: total energy            -404.948431181919 Eh    ::
         :: gradient norm              0.000553581068 Eh/a0 ::
         :: HOMO-LUMO gap              0.860155897655 eV    ::
         ::.................................................::
         :: SCC energy              -412.546084462256 Eh    ::
         :: -> isotropic ES            0.390442342720 Eh    ::
         :: -> anisotropic ES          0.052382373446 Eh    ::
         :: -> anisotropic XC          0.232774038134 Eh    ::
         :: -> dispersion             -0.376191310083 Eh    ::
         :: repulsion energy           7.604245574450 Eh    ::
         :: add. restraining           0.000000000000 Eh    ::
         :: total charge               0.000000001423 e     ::
         :::::::::::::::::::::::::::::::::::::::::::::::::::::

           -------------------------------------------------
          |                Property Printout                |
           -------------------------------------------------

    * Orbital Energies and Occupations

         #    Occupation            Energy/Eh            Energy/eV
      -------------------------------------------------------------
         1        2.0000           -0.6684720             -18.1900
       ...           ...                  ...                  ...
       365        2.0000           -0.3863529             -10.5132
       366        2.0000           -0.3721528             -10.1268
       367        2.0000           -0.3708542             -10.0915
       368        2.0000           -0.3708537             -10.0914
       369        2.0000           -0.3706116             -10.0849
       370        2.0000           -0.3706101             -10.0848
       371        2.0000           -0.3693410             -10.0503
       372        2.0000           -0.3693245             -10.0498
       373        2.0000           -0.3681581             -10.0181
       374        2.0000           -0.3629422              -9.8762
       375        2.0000           -0.3574083              -9.7256
       376        2.0000           -0.3522946              -9.5864
       377        2.0000           -0.3486942              -9.4885 (HOMO)
       378        0.0000           -0.3170840              -8.6283 (LUMO)
       379                         -0.3127727              -8.5110
       380                         -0.3073092              -8.3623
       381                         -0.3015149              -8.2046
       382                         -0.3000955              -8.1660
       383                         -0.3000934              -8.1660
       384                         -0.2998437              -8.1592
       385                         -0.2998429              -8.1591
       386                         -0.2986596              -8.1269
       387                         -0.2986437              -8.1265
       388                         -0.2961784              -8.0594
       ...                                ...                  ...
       742                          1.6317353              44.4018
      -------------------------------------------------------------
                  HL-Gap            0.0316101 Eh            0.8602 eV
             Fermi-level           -0.3328835 Eh           -9.0582 eV

     #   Z          covCN         q      C6AA      α(0)
     1  30 Zn       3.042     0.245   122.298    21.603
     2   6 C        3.020    -0.052    29.266     8.874
     3   6 C        3.018    -0.050    29.228     8.868
     4   6 C        3.166     0.077    25.943     8.323
     5   6 C        2.953     0.017    27.631     8.622
     6   6 C        3.166     0.077    25.942     8.323
     7   6 C        3.018    -0.050    29.227     8.868
     8   6 C        3.020    -0.052    29.266     8.874
     9   6 C        3.149     0.076    26.051     8.349
    10   7 N        2.632    -0.177    24.837     7.402
    11   6 C        2.901    -0.050    29.234     8.865
    12   6 C        3.145     0.077    26.038     8.348
    13   6 C        3.017    -0.051    29.244     8.871
    14   6 C        3.018    -0.051    29.247     8.871
    15   6 C        3.145     0.077    26.028     8.347
    16   7 N        2.635    -0.175    24.790     7.395
    17   6 C        2.901    -0.052    29.278     8.872
    18   6 C        3.145     0.077    26.028     8.347
    19   6 C        3.018    -0.051    29.247     8.871
    20   6 C        3.017    -0.051    29.244     8.871
    21   6 C        3.145     0.077    26.038     8.348
    22   7 N        2.635    -0.175    24.790     7.395
    23   6 C        2.901    -0.050    29.234     8.865
    24   6 C        3.149     0.076    26.051     8.349
    25   7 N        2.631    -0.177    24.836     7.401
    26   1 H        0.926     0.034     2.534     2.489
    27   1 H        0.926     0.035     2.510     2.478
    28   1 H        0.926     0.035     2.510     2.477
    29   1 H        0.926     0.034     2.534     2.489
    30   1 H        0.926     0.049     2.329     2.387
    31   1 H        0.926     0.034     2.526     2.485
    32   1 H        0.926     0.034     2.527     2.486
    33   1 H        0.926     0.049     2.337     2.391
    34   1 H        0.926     0.034     2.527     2.486
    35   1 H        0.926     0.034     2.526     2.485
    36   1 H        0.926     0.049     2.329     2.387
    37  30 Zn       3.042     0.245   122.298    21.603
    38   6 C        3.020    -0.052    29.266     8.874
    39   6 C        3.018    -0.050    29.228     8.868
    40   6 C        3.166     0.077    25.942     8.323
    41   6 C        2.953     0.017    27.631     8.622
    42   6 C        3.166     0.077    25.944     8.324
    43   6 C        3.018    -0.050    29.227     8.868
    44   6 C        3.020    -0.052    29.266     8.874
    45   6 C        3.149     0.076    26.051     8.349
    46   7 N        2.631    -0.177    24.837     7.402
    47   6 C        2.901    -0.050    29.235     8.865
    48   6 C        3.145     0.077    26.038     8.348
    49   6 C        3.017    -0.051    29.244     8.871
    50   6 C        3.018    -0.051    29.247     8.871
    51   6 C        3.145     0.077    26.028     8.347
    52   7 N        2.635    -0.175    24.790     7.395
    53   6 C        2.901    -0.052    29.279     8.872
    54   6 C        3.145     0.077    26.028     8.347
    55   6 C        3.018    -0.051    29.247     8.871
    56   6 C        3.017    -0.051    29.244     8.871
    57   6 C        3.145     0.077    26.038     8.348
    58   7 N        2.635    -0.175    24.791     7.395
    59   6 C        2.901    -0.050    29.235     8.865
    60   6 C        3.149     0.076    26.051     8.349
    61   7 N        2.632    -0.177    24.836     7.402
    62   1 H        0.926     0.034     2.534     2.489
    63   1 H        0.926     0.035     2.510     2.477
    64   1 H        0.926     0.035     2.509     2.477
    65   1 H        0.926     0.034     2.534     2.489
    66   1 H        0.926     0.049     2.330     2.387
    67   1 H        0.926     0.034     2.526     2.485
    68   1 H        0.926     0.034     2.527     2.486
    69   1 H        0.926     0.049     2.337     2.391
    70   1 H        0.926     0.034     2.527     2.486
    71   1 H        0.926     0.034     2.526     2.485
    72   1 H        0.926     0.049     2.329     2.387
    73   6 C        1.996    -0.020    31.582     9.076
    74   6 C        1.963    -0.010    31.336     9.040
    75   6 C        1.963    -0.009    31.317     9.037
    76   6 C        1.996    -0.021    31.604     9.079
    77   6 C        1.996    -0.021    31.587     9.076
    78   6 C        1.963    -0.010    31.325     9.038
    79   6 C        1.963    -0.009    31.319     9.038
    80   6 C        1.996    -0.021    31.593     9.077
    81   6 C        1.996    -0.021    31.589     9.077
    82   6 C        1.963    -0.009    31.321     9.038
    83   6 C        1.963    -0.009    31.321     9.038
    84   6 C        1.996    -0.021    31.589     9.077
    85   6 C        1.996    -0.021    31.593     9.077
    86   6 C        1.963    -0.009    31.319     9.038
    87   6 C        1.963    -0.010    31.325     9.038
    88   6 C        1.996    -0.021    31.587     9.076
    89   6 C        1.996    -0.021    31.603     9.079
    90   6 C        1.963    -0.009    31.316     9.037
    91   6 C        1.963    -0.010    31.335     9.040
    92   6 C        1.996    -0.020    31.581     9.076
    93  30 Zn       3.038     0.246   122.275    21.601
    94   6 C        3.020    -0.052    29.261     8.873
    95   6 C        3.018    -0.050    29.227     8.868
    96   6 C        3.167     0.077    25.933     8.321
    97   6 C        2.953     0.017    27.620     8.620
    98   6 C        3.167     0.078    25.933     8.321
    99   6 C        3.018    -0.050    29.226     8.868
   100   6 C        3.021    -0.052    29.262     8.873
   101   6 C        3.151     0.075    26.055     8.349
   102   7 N        2.632    -0.177    24.838     7.402
   103   6 C        2.901    -0.048    29.181     8.857
   104   6 C        3.150     0.075    26.058     8.349
   105   6 C        3.020    -0.052    29.261     8.873
   106   6 C        3.019    -0.050    29.229     8.868
   107   6 C        3.167     0.078    25.933     8.321
   108   7 N        2.632    -0.177    24.837     7.402
   109   6 C        2.953     0.017    27.629     8.621
   110   6 C        3.167     0.078    25.934     8.321
   111   6 C        3.018    -0.050    29.229     8.868
   112   6 C        3.020    -0.052    29.261     8.873
   113   6 C        3.150     0.075    26.058     8.349
   114   7 N        2.632    -0.177    24.837     7.402
   115   6 C        2.901    -0.048    29.181     8.857
   116   6 C        3.151     0.075    26.056     8.349
   117   7 N        2.632    -0.177    24.837     7.402
   118   1 H        0.926     0.034     2.532     2.488
   119   1 H        0.926     0.036     2.509     2.477
   120   1 H        0.926     0.036     2.508     2.477
   121   1 H        0.926     0.034     2.532     2.489
   122   1 H        0.925     0.050     2.320     2.382
   123   1 H        0.926     0.034     2.532     2.488
   124   1 H        0.926     0.035     2.510     2.478
   125   1 H        0.926     0.035     2.510     2.478
   126   1 H        0.926     0.034     2.532     2.488
   127   1 H        0.925     0.050     2.320     2.382
   128  30 Zn       3.038     0.246   122.275    21.601
   129   6 C        3.020    -0.052    29.261     8.873
   130   6 C        3.018    -0.050    29.227     8.868
   131   6 C        3.167     0.078    25.934     8.322
   132   6 C        2.953     0.017    27.623     8.620
   133   6 C        3.167     0.078    25.934     8.321
   134   6 C        3.019    -0.050    29.228     8.868
   135   6 C        3.020    -0.052    29.261     8.873
   136   6 C        3.150     0.075    26.057     8.349
   137   7 N        2.632    -0.177    24.836     7.402
   138   6 C        2.901    -0.048    29.179     8.857
   139   6 C        3.150     0.075    26.057     8.349
   140   6 C        3.020    -0.052    29.260     8.873
   141   6 C        3.019    -0.050    29.228     8.868
   142   6 C        3.167     0.078    25.934     8.322
   143   7 N        2.632    -0.177    24.836     7.401
   144   6 C        2.953     0.017    27.625     8.621
   145   6 C        3.167     0.078    25.935     8.322
   146   6 C        3.018    -0.050    29.228     8.868
   147   6 C        3.020    -0.052    29.261     8.873
   148   6 C        3.150     0.075    26.058     8.349
   149   7 N        2.632    -0.177    24.836     7.401
   150   6 C        2.901    -0.048    29.179     8.857
   151   6 C        3.150     0.075    26.057     8.349
   152   7 N        2.632    -0.177    24.836     7.402
   153   1 H        0.926     0.034     2.532     2.488
   154   1 H        0.926     0.036     2.509     2.477
   155   1 H        0.926     0.036     2.509     2.477
   156   1 H        0.926     0.034     2.531     2.488
   157   1 H        0.925     0.050     2.319     2.382
   158   1 H        0.926     0.034     2.532     2.488
   159   1 H        0.926     0.035     2.509     2.477
   160   1 H        0.926     0.035     2.509     2.477
   161   1 H        0.926     0.034     2.531     2.488
   162   1 H        0.925     0.050     2.319     2.382
   163  30 Zn       3.038     0.246   122.275    21.601
   164   6 C        3.020    -0.052    29.261     8.873
   165   6 C        3.019    -0.050    29.228     8.868
   166   6 C        3.167     0.078    25.934     8.322
   167   6 C        2.953     0.017    27.625     8.621
   168   6 C        3.166     0.078    25.935     8.322
   169   6 C        3.018    -0.050    29.228     8.868
   170   6 C        3.020    -0.052    29.261     8.873
   171   6 C        3.150     0.075    26.058     8.350
   172   7 N        2.632    -0.177    24.836     7.401
   173   6 C        2.901    -0.048    29.179     8.857
   174   6 C        3.150     0.075    26.057     8.349
   175   6 C        3.020    -0.052    29.261     8.873
   176   6 C        3.018    -0.050    29.227     8.868
   177   6 C        3.166     0.078    25.935     8.322
   178   7 N        2.632    -0.177    24.837     7.402
   179   6 C        2.953     0.017    27.623     8.620
   180   6 C        3.167     0.078    25.932     8.321
   181   6 C        3.019    -0.050    29.228     8.868
   182   6 C        3.020    -0.052    29.261     8.873
   183   6 C        3.151     0.075    26.057     8.349
   184   7 N        2.632    -0.177    24.835     7.401
   185   6 C        2.901    -0.048    29.179     8.857
   186   6 C        3.150     0.075    26.057     8.349
   187   7 N        2.632    -0.177    24.837     7.402
   188   1 H        0.926     0.034     2.531     2.488
   189   1 H        0.926     0.035     2.509     2.477
   190   1 H        0.926     0.035     2.509     2.477
   191   1 H        0.926     0.034     2.532     2.488
   192   1 H        0.925     0.050     2.319     2.382
   193   1 H        0.926     0.034     2.532     2.488
   194   1 H        0.926     0.036     2.509     2.477
   195   1 H        0.926     0.036     2.509     2.477
   196   1 H        0.926     0.034     2.531     2.488
   197   1 H        0.925     0.050     2.319     2.381
   198  30 Zn       3.038     0.246   122.275    21.601
   199   6 C        3.020    -0.052    29.261     8.873
   200   6 C        3.018    -0.050    29.228     8.868
   201   6 C        3.167     0.078    25.934     8.322
   202   6 C        2.953     0.017    27.629     8.621
   203   6 C        3.167     0.078    25.932     8.321
   204   6 C        3.019    -0.050    29.229     8.868
   205   6 C        3.020    -0.052    29.261     8.873
   206   6 C        3.151     0.075    26.057     8.349
   207   7 N        2.632    -0.177    24.837     7.402
   208   6 C        2.901    -0.048    29.182     8.857
   209   6 C        3.151     0.075    26.055     8.349
   210   6 C        3.021    -0.052    29.261     8.873
   211   6 C        3.019    -0.050    29.227     8.868
   212   6 C        3.167     0.077    25.933     8.321
   213   7 N        2.632    -0.177    24.838     7.402
   214   6 C        2.953     0.017    27.621     8.620
   215   6 C        3.167     0.077    25.935     8.322
   216   6 C        3.018    -0.050    29.227     8.868
   217   6 C        3.020    -0.052    29.261     8.873
   218   6 C        3.150     0.075    26.055     8.349
   219   7 N        2.632    -0.177    24.837     7.402
   220   6 C        2.901    -0.048    29.182     8.857
   221   6 C        3.150     0.075    26.057     8.349
   222   7 N        2.632    -0.177    24.838     7.402
   223   1 H        0.926     0.034     2.532     2.488
   224   1 H        0.926     0.035     2.511     2.478
   225   1 H        0.926     0.035     2.510     2.477
   226   1 H        0.926     0.034     2.532     2.488
   227   1 H        0.925     0.050     2.320     2.382
   228   1 H        0.926     0.034     2.532     2.488
   229   1 H        0.926     0.036     2.508     2.476
   230   1 H        0.926     0.036     2.507     2.476
   231   1 H        0.926     0.034     2.532     2.488
   232   1 H        0.925     0.050     2.321     2.382

 Mol. C6AA /au·bohr⁶  :    1053615.116923
 Mol. C8AA /au·bohr⁸  :   30023092.939969
 Mol. α(0) /au        :       1677.216364


Wiberg/Mayer (AO) data.
largest (>0.10) Wiberg bond orders for each atom

 ---------------------------------------------------------------------------
     #   Z sym  total        # sym  WBO       # sym  WBO       # sym  WBO
 ---------------------------------------------------------------------------
     1  30 Zn   2.081 --    16 N    0.492    22 N    0.491    10 N    0.489
                            25 N    0.489
     2   6 C    3.953 --     3 C    1.651    24 C    1.171    26 H    0.972
     3   6 C    3.957 --     2 C    1.651     4 C    1.179    27 H    0.971
     4   6 C    3.912 --    25 N    1.286     5 C    1.252     3 C    1.179
     5   6 C    3.941 --     6 C    1.252     4 C    1.252    73 C    1.185
     6   6 C    3.912 --    10 N    1.286     5 C    1.252     7 C    1.179
     7   6 C    3.957 --     8 C    1.651     6 C    1.179    28 H    0.971
     8   6 C    3.953 --     7 C    1.651     9 C    1.171    29 H    0.972
     9   6 C    3.924 --    11 C    1.358    10 N    1.247     8 C    1.171
    10   7 N    3.467 --     6 C    1.286     9 C    1.247     1 Zn   0.489
    11   6 C    3.931 --     9 C    1.358    12 C    1.354    30 H    0.964
    12   6 C    3.929 --    11 C    1.354    16 N    1.261    13 C    1.163
    13   6 C    3.957 --    14 C    1.666    12 C    1.163    31 H    0.972
    14   6 C    3.955 --    13 C    1.666    15 C    1.162    32 H    0.972
    15   6 C    3.932 --    17 C    1.354    16 N    1.263    14 C    1.162
    16   7 N    3.464 --    15 C    1.263    12 C    1.261     1 Zn   0.492
    17   6 C    3.926 --    15 C    1.354    18 C    1.354    33 H    0.964
    18   6 C    3.932 --    17 C    1.354    22 N    1.263    19 C    1.162
    19   6 C    3.955 --    20 C    1.666    18 C    1.162    34 H    0.972
    20   6 C    3.957 --    19 C    1.666    21 C    1.163    35 H    0.972
    21   6 C    3.929 --    23 C    1.354    22 N    1.261    20 C    1.163
    22   7 N    3.464 --    18 C    1.263    21 C    1.261     1 Zn   0.491
    23   6 C    3.931 --    24 C    1.358    21 C    1.354    36 H    0.964
    24   6 C    3.924 --    23 C    1.358    25 N    1.247     2 C    1.171
    25   7 N    3.467 --     4 C    1.286    24 C    1.247     1 Zn   0.489
    26   1 H    0.998 --     2 C    0.972
    27   1 H    0.998 --     3 C    0.971
    28   1 H    0.998 --     7 C    0.971
    29   1 H    0.998 --     8 C    0.972
    30   1 H    0.996 --    11 C    0.964
    31   1 H    0.998 --    13 C    0.972
    32   1 H    0.998 --    14 C    0.972
    33   1 H    0.996 --    17 C    0.964
    34   1 H    0.998 --    19 C    0.972
    35   1 H    0.998 --    20 C    0.972
    36   1 H    0.996 --    23 C    0.964
    37  30 Zn   2.081 --    52 N    0.492    58 N    0.491    46 N    0.489
                            61 N    0.489
    38   6 C    3.953 --    39 C    1.651    60 C    1.171    62 H    0.972
    39   6 C    3.957 --    38 C    1.651    40 C    1.179    63 H    0.971
    40   6 C    3.912 --    61 N    1.286    41 C    1.252    39 C    1.179
    41   6 C    3.941 --    42 C    1.253    40 C    1.252    92 C    1.184
    42   6 C    3.912 --    46 N    1.286    41 C    1.253    43 C    1.179
    43   6 C    3.957 --    44 C    1.651    42 C    1.179    64 H    0.971
    44   6 C    3.953 --    43 C    1.651    45 C    1.171    65 H    0.972
    45   6 C    3.924 --    47 C    1.358    46 N    1.247    44 C    1.171
    46   7 N    3.467 --    42 C    1.286    45 C    1.247    37 Zn   0.489
    47   6 C    3.931 --    45 C    1.358    48 C    1.354    66 H    0.964
    48   6 C    3.929 --    47 C    1.354    52 N    1.261    49 C    1.163
    49   6 C    3.957 --    50 C    1.666    48 C    1.163    67 H    0.972
    50   6 C    3.955 --    49 C    1.666    51 C    1.162    68 H    0.972
    51   6 C    3.932 --    53 C    1.354    52 N    1.263    50 C    1.162
    52   7 N    3.464 --    51 C    1.263    48 C    1.261    37 Zn   0.492
    53   6 C    3.926 --    51 C    1.354    54 C    1.354    69 H    0.964
    54   6 C    3.932 --    53 C    1.354    58 N    1.263    55 C    1.162
    55   6 C    3.955 --    56 C    1.666    54 C    1.162    70 H    0.972
    56   6 C    3.957 --    55 C    1.666    57 C    1.163    71 H    0.972
    57   6 C    3.929 --    59 C    1.354    58 N    1.261    56 C    1.163
    58   7 N    3.464 --    54 C    1.263    57 C    1.261    37 Zn   0.491
    59   6 C    3.931 --    60 C    1.358    57 C    1.354    72 H    0.964
    60   6 C    3.924 --    59 C    1.358    61 N    1.247    38 C    1.171
    61   7 N    3.467 --    40 C    1.286    60 C    1.247    37 Zn   0.489
    62   1 H    0.998 --    38 C    0.972
    63   1 H    0.998 --    39 C    0.971
    64   1 H    0.998 --    43 C    0.971
    65   1 H    0.998 --    44 C    0.972
    66   1 H    0.996 --    47 C    0.964
    67   1 H    0.998 --    49 C    0.972
    68   1 H    0.998 --    50 C    0.972
    69   1 H    0.996 --    53 C    0.964
    70   1 H    0.998 --    55 C    0.972
    71   1 H    0.998 --    56 C    0.972
    72   1 H    0.996 --    59 C    0.964
    73   6 C    3.918 --    74 C    2.470     5 C    1.185    76 C    0.203
    74   6 C    3.928 --    73 C    2.470    75 C    1.305
    75   6 C    3.925 --    76 C    2.468    74 C    1.305
    76   6 C    3.919 --    75 C    2.468    97 C    1.187    73 C    0.203
    77   6 C    3.918 --    78 C    2.466   109 C    1.188    80 C    0.202
    78   6 C    3.925 --    77 C    2.466    79 C    1.307
    79   6 C    3.925 --    80 C    2.466    78 C    1.307
    80   6 C    3.918 --    79 C    2.466   132 C    1.188    77 C    0.202
    81   6 C    3.918 --    82 C    2.466   144 C    1.188    84 C    0.202
    82   6 C    3.925 --    81 C    2.466    83 C    1.307
    83   6 C    3.925 --    84 C    2.466    82 C    1.307
    84   6 C    3.918 --    83 C    2.466   167 C    1.188    81 C    0.202
    85   6 C    3.918 --    86 C    2.466   179 C    1.188    88 C    0.202
    86   6 C    3.925 --    85 C    2.466    87 C    1.307
    87   6 C    3.925 --    88 C    2.466    86 C    1.307
    88   6 C    3.918 --    87 C    2.466   202 C    1.188    85 C    0.202
    89   6 C    3.919 --    90 C    2.469   214 C    1.186    92 C    0.203
    90   6 C    3.925 --    89 C    2.469    91 C    1.304
    91   6 C    3.928 --    92 C    2.471    90 C    1.304
    92   6 C    3.917 --    91 C    2.471    41 C    1.184    89 C    0.203
    93  30 Zn   2.076 --   108 N    0.489   114 N    0.489   102 N    0.489
                           117 N    0.489
    94   6 C    3.954 --    95 C    1.648   116 C    1.173   118 H    0.972
    95   6 C    3.955 --    94 C    1.648    96 C    1.181   119 H    0.971
    96   6 C    3.912 --   117 N    1.287    97 C    1.249    95 C    1.181
    97   6 C    3.929 --    98 C    1.250    96 C    1.249    76 C    1.187
    98   6 C    3.912 --   102 N    1.287    97 C    1.250    99 C    1.181
    99   6 C    3.955 --   100 C    1.648    98 C    1.181   120 H    0.971
   100   6 C    3.954 --    99 C    1.648   101 C    1.173   121 H    0.972
   101   6 C    3.923 --   103 C    1.356   102 N    1.245   100 C    1.173
   102   7 N    3.460 --    98 C    1.287   101 C    1.245    93 Zn   0.489
   103   6 C    3.925 --   104 C    1.357   101 C    1.356   122 H    0.964
   104   6 C    3.923 --   103 C    1.357   108 N    1.244   105 C    1.173
   105   6 C    3.954 --   106 C    1.648   104 C    1.173   123 H    0.972
   106   6 C    3.955 --   105 C    1.648   107 C    1.181   124 H    0.971
   107   6 C    3.912 --   108 N    1.288   109 C    1.249   106 C    1.181
   108   7 N    3.460 --   107 C    1.288   104 C    1.244    93 Zn   0.489
   109   6 C    3.929 --   107 C    1.249   110 C    1.249    77 C    1.188
   110   6 C    3.912 --   114 N    1.288   109 C    1.249   111 C    1.181
   111   6 C    3.955 --   112 C    1.648   110 C    1.181   125 H    0.971
   112   6 C    3.954 --   111 C    1.648   113 C    1.173   126 H    0.972
   113   6 C    3.923 --   115 C    1.357   114 N    1.244   112 C    1.173
   114   7 N    3.460 --   110 C    1.288   113 C    1.244    93 Zn   0.489
   115   6 C    3.925 --   113 C    1.357   116 C    1.356   127 H    0.964
   116   6 C    3.923 --   115 C    1.356   117 N    1.245    94 C    1.173
   117   7 N    3.460 --    96 C    1.287   116 C    1.245    93 Zn   0.489
   118   1 H    0.998 --    94 C    0.972
   119   1 H    0.998 --    95 C    0.971
   120   1 H    0.998 --    99 C    0.971
   121   1 H    0.998 --   100 C    0.972
   122   1 H    0.996 --   103 C    0.964
   123   1 H    0.998 --   105 C    0.972
   124   1 H    0.998 --   106 C    0.971
   125   1 H    0.998 --   111 C    0.971
   126   1 H    0.998 --   112 C    0.972
   127   1 H    0.996 --   115 C    0.964
   128  30 Zn   2.076 --   143 N    0.489   149 N    0.489   152 N    0.489
                           137 N    0.489
   129   6 C    3.953 --   130 C    1.648   151 C    1.173   153 H    0.972
   130   6 C    3.955 --   129 C    1.648   131 C    1.181   154 H    0.971
   131   6 C    3.912 --   152 N    1.288   132 C    1.249   130 C    1.181
   132   6 C    3.929 --   131 C    1.249   133 C    1.249    80 C    1.188
   133   6 C    3.912 --   137 N    1.288   132 C    1.249   134 C    1.181
   134   6 C    3.955 --   135 C    1.648   133 C    1.181   155 H    0.971
   135   6 C    3.953 --   134 C    1.648   136 C    1.173   156 H    0.972
   136   6 C    3.923 --   138 C    1.356   137 N    1.245   135 C    1.173
   137   7 N    3.460 --   133 C    1.288   136 C    1.245   128 Zn   0.489
   138   6 C    3.925 --   139 C    1.356   136 C    1.356   157 H    0.964
   139   6 C    3.923 --   138 C    1.356   143 N    1.245   140 C    1.173
   140   6 C    3.953 --   141 C    1.648   139 C    1.173   158 H    0.972
   141   6 C    3.955 --   140 C    1.648   142 C    1.181   159 H    0.971
   142   6 C    3.912 --   143 N    1.288   144 C    1.249   141 C    1.181
   143   7 N    3.460 --   142 C    1.288   139 C    1.245   128 Zn   0.489
   144   6 C    3.929 --   145 C    1.249   142 C    1.249    81 C    1.188
   145   6 C    3.912 --   149 N    1.288   144 C    1.249   146 C    1.181
   146   6 C    3.955 --   147 C    1.648   145 C    1.181   160 H    0.971
   147   6 C    3.954 --   146 C    1.648   148 C    1.173   161 H    0.972
   148   6 C    3.923 --   150 C    1.356   149 N    1.245   147 C    1.173
   149   7 N    3.460 --   145 C    1.288   148 C    1.245   128 Zn   0.489
   150   6 C    3.925 --   148 C    1.356   151 C    1.356   162 H    0.964
   151   6 C    3.923 --   150 C    1.356   152 N    1.245   129 C    1.173
   152   7 N    3.460 --   131 C    1.288   151 C    1.245   128 Zn   0.489
   153   1 H    0.998 --   129 C    0.972
   154   1 H    0.998 --   130 C    0.971
   155   1 H    0.998 --   134 C    0.971
   156   1 H    0.998 --   135 C    0.972
   157   1 H    0.996 --   138 C    0.964
   158   1 H    0.998 --   140 C    0.972
   159   1 H    0.998 --   141 C    0.971
   160   1 H    0.998 --   146 C    0.971
   161   1 H    0.998 --   147 C    0.972
   162   1 H    0.996 --   150 C    0.964
   163  30 Zn   2.076 --   172 N    0.489   178 N    0.489   184 N    0.489
                           187 N    0.489
   164   6 C    3.954 --   165 C    1.648   186 C    1.173   188 H    0.972
   165   6 C    3.955 --   164 C    1.648   166 C    1.181   189 H    0.971
   166   6 C    3.912 --   187 N    1.288   167 C    1.249   165 C    1.181
   167   6 C    3.929 --   168 C    1.249   166 C    1.249    84 C    1.188
   168   6 C    3.912 --   172 N    1.288   167 C    1.249   169 C    1.181
   169   6 C    3.955 --   170 C    1.648   168 C    1.181   190 H    0.971
   170   6 C    3.953 --   169 C    1.648   171 C    1.173   191 H    0.972
   171   6 C    3.923 --   173 C    1.356   172 N    1.245   170 C    1.173
   172   7 N    3.460 --   168 C    1.288   171 C    1.245   163 Zn   0.489
   173   6 C    3.925 --   171 C    1.356   174 C    1.356   192 H    0.964
   174   6 C    3.923 --   173 C    1.356   178 N    1.245   175 C    1.173
   175   6 C    3.953 --   176 C    1.648   174 C    1.173   193 H    0.972
   176   6 C    3.955 --   175 C    1.648   177 C    1.181   194 H    0.971
   177   6 C    3.912 --   178 N    1.288   179 C    1.249   176 C    1.181
   178   7 N    3.460 --   177 C    1.288   174 C    1.245   163 Zn   0.489
   179   6 C    3.929 --   177 C    1.249   180 C    1.248    85 C    1.188
   180   6 C    3.912 --   184 N    1.288   179 C    1.248   181 C    1.181
   181   6 C    3.955 --   182 C    1.648   180 C    1.181   195 H    0.971
   182   6 C    3.954 --   181 C    1.648   183 C    1.173   196 H    0.972
   183   6 C    3.923 --   185 C    1.356   184 N    1.245   182 C    1.173
   184   7 N    3.460 --   180 C    1.288   183 C    1.245   163 Zn   0.489
   185   6 C    3.925 --   186 C    1.356   183 C    1.356   197 H    0.964
   186   6 C    3.923 --   185 C    1.356   187 N    1.245   164 C    1.173
   187   7 N    3.460 --   166 C    1.288   186 C    1.245   163 Zn   0.489
   188   1 H    0.998 --   164 C    0.972
   189   1 H    0.998 --   165 C    0.971
   190   1 H    0.998 --   169 C    0.971
   191   1 H    0.998 --   170 C    0.972
   192   1 H    0.996 --   173 C    0.964
   193   1 H    0.998 --   175 C    0.972
   194   1 H    0.998 --   176 C    0.971
   195   1 H    0.998 --   181 C    0.971
   196   1 H    0.998 --   182 C    0.972
   197   1 H    0.996 --   185 C    0.964
   198  30 Zn   2.076 --   222 N    0.489   207 N    0.489   219 N    0.489
                           213 N    0.489
   199   6 C    3.954 --   200 C    1.648   221 C    1.173   223 H    0.972
   200   6 C    3.955 --   199 C    1.648   201 C    1.181   224 H    0.971
   201   6 C    3.912 --   222 N    1.288   202 C    1.249   200 C    1.181
   202   6 C    3.929 --   201 C    1.249   203 C    1.249    88 C    1.188
   203   6 C    3.912 --   207 N    1.288   202 C    1.249   204 C    1.181
   204   6 C    3.955 --   205 C    1.648   203 C    1.181   225 H    0.971
   205   6 C    3.954 --   204 C    1.648   206 C    1.173   226 H    0.972
   206   6 C    3.923 --   208 C    1.357   207 N    1.244   205 C    1.173
   207   7 N    3.460 --   203 C    1.288   206 C    1.244   198 Zn   0.489
   208   6 C    3.926 --   206 C    1.357   209 C    1.356   227 H    0.964
   209   6 C    3.923 --   208 C    1.356   213 N    1.245   210 C    1.173
   210   6 C    3.954 --   211 C    1.648   209 C    1.173   228 H    0.972
   211   6 C    3.955 --   210 C    1.648   212 C    1.181   229 H    0.971
   212   6 C    3.912 --   213 N    1.287   214 C    1.250   211 C    1.181
   213   7 N    3.460 --   212 C    1.287   209 C    1.245   198 Zn   0.489
   214   6 C    3.929 --   215 C    1.250   212 C    1.250    89 C    1.186
   215   6 C    3.912 --   219 N    1.287   214 C    1.250   216 C    1.181
   216   6 C    3.955 --   217 C    1.648   215 C    1.181   230 H    0.971
   217   6 C    3.954 --   216 C    1.648   218 C    1.173   231 H    0.972
   218   6 C    3.923 --   220 C    1.356   219 N    1.245   217 C    1.173
   219   7 N    3.460 --   215 C    1.287   218 C    1.245   198 Zn   0.489
   220   6 C    3.925 --   221 C    1.357   218 C    1.356   232 H    0.964
   221   6 C    3.923 --   220 C    1.357   222 N    1.244   199 C    1.173
   222   7 N    3.460 --   201 C    1.288   221 C    1.244   198 Zn   0.489
   223   1 H    0.998 --   199 C    0.972
   224   1 H    0.998 --   200 C    0.971
   225   1 H    0.998 --   204 C    0.971
   226   1 H    0.998 --   205 C    0.972
   227   1 H    0.996 --   208 C    0.964
   228   1 H    0.998 --   210 C    0.972
   229   1 H    0.998 --   211 C    0.971
   230   1 H    0.998 --   216 C    0.971
   231   1 H    0.998 --   217 C    0.972
   232   1 H    0.996 --   220 C    0.964
 ---------------------------------------------------------------------------

Topologies differ in total number of bonds
Writing topology from bond orders to xtbtopo.mol

molecular dipole:
                 x           y           z       tot (Debye)
 q only:        0.000      -0.001      -0.001
   full:        0.001      -0.001      -0.002       0.007
molecular quadrupole (traceless):
                xx          xy          yy          xz          yz          zz
 q only:       90.419       0.245      -9.975      -0.205      -3.493     -80.445
  q+dip:      167.299       0.402       6.786      -0.466      -8.845    -174.085
   full:      117.509       0.405      -9.849      -0.475      -4.840    -107.660


           -------------------------------------------------
          | TOTAL ENERGY             -404.948431181919 Eh   |
          | GRADIENT NORM               0.000553581068 Eh/α |
          | HOMO-LUMO GAP               0.860155897655 eV   |
           -------------------------------------------------

------------------------------------------------------------------------
 * finished run on 2021/11/20 at 15:59:37.036     
------------------------------------------------------------------------
 total:
 * wall-time:     0 d,  0 h,  0 min,  2.935 sec
 *  cpu-time:     0 d,  0 h,  0 min,  2.935 sec
 * ratio c/w:     1.000 speedup
 SCF:
 * wall-time:     0 d,  0 h,  0 min,  2.811 sec
 *  cpu-time:     0 d,  0 h,  0 min,  2.811 sec
 * ratio c/w:     1.000 speedup

