      -----------------------------------------------------------      
     |                   =====================                   |     
     |                           x T B                           |     
     |                   =====================                   |     
     |                         S. Grimme                         |     
     |          Mulliken Center for Theoretical Chemistry        |     
     |                    University of Bonn                     |     
      -----------------------------------------------------------      

   * xtb version 6.4.1 (bd6e46d) compiled by 'conda@4901f00b25ba' on 2021-06-10

   xtb is free software: you can redistribute it and/or modify it under
   the terms of the GNU Lesser General Public License as published by
   the Free Software Foundation, either version 3 of the License, or
   (at your option) any later version.
   
   xtb is distributed in the hope that it will be useful,
   but WITHOUT ANY WARRANTY; without even the implied warranty of
   MERCHANTABILITY or FITNESS FOR A PARTICULAR PURPOSE.  See the
   GNU Lesser General Public License for more details.
   
   Cite this work as:
   * C. Bannwarth, E. Caldeweyher, S. Ehlert, A. Hansen, P. Pracht,
     J. Seibert, S. Spicher, S. Grimme, WIREs Comput. Mol. Sci., 2020, 11,
     e01493. DOI: 10.1002/wcms.1493
   
   for GFN2-xTB:
   * C. Bannwarth, S. Ehlert and S. Grimme., J. Chem. Theory Comput., 2019,
     15, 1652-1671. DOI: 10.1021/acs.jctc.8b01176
   for GFN1-xTB:
   * S. Grimme, C. Bannwarth, P. Shushkov, J. Chem. Theory Comput., 2017,
     13, 1989-2009. DOI: 10.1021/acs.jctc.7b00118
   for GFN0-xTB:
   * P. Pracht, E. Caldeweyher, S. Ehlert, S. Grimme, ChemRxiv, 2019, preprint.
     DOI: 10.26434/chemrxiv.8326202.v1
   for GFN-FF:
   * S. Spicher and S. Grimme, Angew. Chem. Int. Ed., 2020, 59, 15665-15673.
     DOI: 10.1002/anie.202004239
   
   for DFT-D4:
   * E. Caldeweyher, C. Bannwarth and S. Grimme, J. Chem. Phys., 2017,
     147, 034112. DOI: 10.1063/1.4993215
   * E. Caldeweyher, S. Ehlert, A. Hansen, H. Neugebauer, S. Spicher,
     C. Bannwarth and S. Grimme, J. Chem. Phys., 2019, 150, 154122.
     DOI: 10.1063/1.5090222
   * E. Caldeweyher, J.-M. Mewes, S. Ehlert and S. Grimme, Phys. Chem. Chem. Phys.
     2020, 22, 8499-8512. DOI: 10.1039/D0CP00502A
   
   for sTDA-xTB:
   * S. Grimme and C. Bannwarth, J. Chem. Phys., 2016, 145, 054103.
     DOI: 10.1063/1.4959605
   
   in the mass-spec context:
   * V. Asgeirsson, C. Bauer and S. Grimme, Chem. Sci., 2017, 8, 4879.
     DOI: 10.1039/c7sc00601b
   * J. Koopman and S. Grimme, ACS Omega 2019, 4, 12, 15120-15133.
     DOI: 10.1021/acsomega.9b02011
   
   for metadynamics refer to:
   * S. Grimme, J. Chem. Theory Comput., 2019, 155, 2847-2862
     DOI: 10.1021/acs.jctc.9b00143
   
   for SPH calculations refer to:
   * S. Spicher and S. Grimme, J. Chem. Theory Comput., 2021, 17, 1701-1714
     DOI: 10.1021/acs.jctc.0c01306
   
   with help from (in alphabetical order)
   P. Atkinson, C. Bannwarth, F. Bohle, G. Brandenburg, E. Caldeweyher
   M. Checinski, S. Dohm, S. Ehlert, S. Ehrlich, I. Gerasimov, J. Koopman
   C. Lavigne, S. Lehtola, F. März, M. Müller, F. Musil, H. Neugebauer
   J. Pisarek, C. Plett, P. Pracht, J. Seibert, P. Shushkov, S. Spicher
   M. Stahn, M. Steiner, T. Strunk, J. Stückrath, T. Rose, and J. Unsleber
   
 * started run on 2021/11/20 at 07:20:47.292     

           -------------------------------------------------
          |                Calculation Setup                |
           -------------------------------------------------

          program call               : /home/jeff/miniconda3/bin/xtb input_structure_1.xyz --gfn 2 --ohess normal --parallel 1 --etemp 300 --chrg 0 --uhf 0 -I det_control.in
          hostname                   : jelfscompute1
          coordinate file            : input_structure_1.xyz
          omp threads                :                     1
          number of atoms            :                   242
          number of electrons        :                   848
          charge                     :                     0
          spin                       :                   0.0
          first test random number   :      0.89452430498651

   ID    Z sym.   atoms
    1   29 Cu     1, 37, 103, 138, 173, 208
    2    6 C      2-9, 11-15, 17-21, 23, 24, 38-45, 47-51, 53-57, 59, 60,
                  73-102, 104-111, 113-117, 119-123, 125, 126, 139-146,
                  148-152, 154-158, 160, 161, 174-181, 183-187, 189-193, 195,
                  196, 209-216, 218-222, 224-228, 230, 231
    3    7 N      10, 16, 22, 25, 46, 52, 58, 61, 112, 118, 124, 127, 147,
                  153, 159, 162, 182, 188, 194, 197, 217, 223, 229, 232
    4    1 H      26-36, 62-72, 128-137, 163-172, 198-207, 233-242

molecular fragmentation (1/2 indicates fragments):
111111111111111111111111111111111111222222222222222222222222222222222222
222222222222222222222222222222222222222222222222222222222222222222222222
222222222222222222222222222222222222222222222222222222222222222222222222
22222222222222222222222222
# atoms in fragment 1/2:    36   206
 fragment masses (1/2) :      370.87     2210.66
CMA distance (Bohr)    :  90.101
constraining FC (au)   :  0.0500

           -------------------------------------------------
          |                 G F N 2 - x T B                 |
           -------------------------------------------------

        Reference                      10.1021/acs.jctc.8b01176
      * Hamiltonian:
        H0-scaling (s, p, d)           1.850000    2.230000    2.230000
        zeta-weighting                 0.500000
      * Dispersion:
        s8                             2.700000
        a1                             0.520000
        a2                             5.000000
        s9                             5.000000
      * Repulsion:
        kExp                           1.500000    1.000000
        rExp                           1.000000
      * Coulomb:
        alpha                          2.000000
        third order                    shell-resolved
        anisotropic                    true
        a3                             3.000000
        a5                             4.000000
        cn-shift                       1.200000
        cn-exp                         4.000000
        max-rad                        5.000000


          ...................................................
          :                      SETUP                      :
          :.................................................:
          :  # basis functions                 818          :
          :  # atomic orbitals                 812          :
          :  # shells                          428          :
          :  # electrons                       848          :
          :  max. iterations                   250          :
          :  Hamiltonian                  GFN2-xTB          :
          :  restarted?                      false          :
          :  GBSA solvation                  false          :
          :  PC potential                    false          :
          :  electronic temp.          300.0000000     K    :
          :  accuracy                    1.0000000          :
          :  -> integral cutoff          0.2500000E+02      :
          :  -> integral neglect         0.1000000E-07      :
          :  -> SCF convergence          0.1000000E-05 Eh   :
          :  -> wf. convergence          0.1000000E-03 e    :
          :  Broyden damping             0.4000000          :
          ...................................................

 iter      E             dE          RMSdq      gap      omega  full diag
   1   -452.4636435 -0.452464E+03  0.643E+00    0.08       0.0  T
   2   -433.3776735  0.190860E+02  0.508E+00    0.04       1.0  T
   3   -144.0787248  0.289299E+03  0.148E+01    0.03       1.0  T
   4   -315.6598361 -0.171581E+03  0.988E+00    0.04       1.0  T
   5   -315.2909576  0.368878E+00  0.945E+00    0.00       1.0  T
   6   -407.1555974 -0.918646E+02  0.572E+00    0.05       1.0  T
   7   -374.1866097  0.329690E+02  0.589E+00    0.00       1.0  T
   8   -434.8183282 -0.606317E+02  0.380E+00    0.13       1.0  T
   9   -420.8044237  0.140139E+02  0.460E+00    0.01       1.0  T
  10   -447.1499150 -0.263455E+02  0.236E+00    0.01       1.0  T
  11   -447.2202165 -0.703015E-01  0.250E+00    0.06       1.0  T
  12   -451.0002136 -0.378000E+01  0.184E+00    0.08       1.0  T
  13   -451.5202476 -0.520034E+00  0.172E+00    0.06       1.0  T
  14   -452.4414978 -0.921250E+00  0.132E+00    0.03       1.0  T
  15   -452.3111432  0.130355E+00  0.122E+00    0.07       1.0  T
  16   -452.5493313 -0.238188E+00  0.110E+00    0.13       1.0  T
  17   -452.6453541 -0.960228E-01  0.956E-01    0.02       1.0  T
  18   -452.6474498 -0.209572E-02  0.792E-01    0.10       1.0  T
  19   -452.7972496 -0.149800E+00  0.670E-01    0.00       1.0  T
  20   -452.7920420  0.520761E-02  0.626E-01    0.07       1.0  T
  21   -452.9566267 -0.164585E+00  0.523E-01    0.02       1.0  T
  22   -452.9356178  0.210089E-01  0.476E-01    0.02       1.0  T
  23   -452.9174146  0.182032E-01  0.474E-01    0.01       1.0  T
  24   -453.0118062 -0.943916E-01  0.377E-01    0.00       1.0  T
  25   -452.9990943  0.127119E-01  0.372E-01    0.02       1.0  T
  26   -452.9870467  0.120476E-01  0.397E-01    0.05       1.0  T
  27   -452.9541649  0.328818E-01  0.455E-01    0.06       1.0  T
  28   -453.0029126 -0.487477E-01  0.318E-01    0.05       1.0  T
  29   -453.0700687 -0.671561E-01  0.234E-01    0.03       1.0  T
  30   -453.0595830  0.104857E-01  0.239E-01    0.01       1.0  T
  31   -453.0930955 -0.335126E-01  0.184E-01    0.01       1.0  T
  32   -453.0947145 -0.161896E-02  0.162E-01    0.02       1.0  T
  33   -453.0869582  0.775632E-02  0.171E-01    0.02       1.0  T
  34   -453.1022022 -0.152440E-01  0.118E-01    0.00       1.0  T
  35   -453.1012863  0.915915E-03  0.104E-01    0.00       1.0  T
  36   -453.1054213 -0.413503E-02  0.817E-02    0.01       1.0  T
  37   -453.1035761  0.184515E-02  0.792E-02    0.00       1.0  T
  38   -453.1081826 -0.460645E-02  0.449E-02    0.00       1.0  T
  39   -453.1084366 -0.254023E-03  0.365E-02    0.00       1.0  T
  40   -453.1089387 -0.502129E-03  0.286E-02    0.00       1.0  T
  41   -453.1094597 -0.520968E-03  0.194E-02    0.00       1.0  T
  42   -453.1093424  0.117275E-03  0.244E-02    0.00       1.0  T
  43   -453.1093580 -0.155882E-04  0.201E-02    0.00       1.0  T
  44   -453.1096628 -0.304820E-03  0.116E-02    0.00       1.0  T
  45   -453.1097188 -0.559597E-04  0.849E-03    0.00       1.0  T
  46   -453.1097295 -0.107319E-04  0.755E-03    0.00       1.0  T
  47   -453.1097623 -0.327473E-04  0.514E-03    0.00       1.3  T
  48   -453.1097803 -0.180583E-04  0.299E-03    0.00       2.1  T
  49   -453.1097738  0.658171E-05  0.394E-03    0.00       1.6  T
  50   -453.1097829 -0.912292E-05  0.249E-03    0.00       2.6  T
  51   -453.1097853 -0.246322E-05  0.157E-03    0.00       4.1  T
  52   -453.1097873 -0.200078E-05  0.981E-04    0.00       6.6  T
  53   -453.1097872  0.193348E-06  0.982E-04    0.00       6.5  T
  54   -453.1097874 -0.270343E-06  0.792E-04    0.00       8.1  T

   *** convergence criteria satisfied after 54 iterations ***

         #    Occupation            Energy/Eh            Energy/eV
      -------------------------------------------------------------
         1        2.0000           -0.6868689             -18.6907
       ...           ...                  ...                  ...
       418        2.0000           -0.3557930              -9.6816
       419        2.0000           -0.3556546              -9.6779
       420        2.0000           -0.3544455              -9.6450
       421        2.0000           -0.3539943              -9.6327
       422        1.6293           -0.3392722              -9.2321
       423        1.3581           -0.3385775              -9.2132
       424        1.3212           -0.3384982              -9.2110 (HOMO)
       425        1.2819           -0.3384161              -9.2088 (LUMO)
       426        0.3918           -0.3365241              -9.1573
       427        0.0073           -0.3325351              -9.0487
       428        0.0068           -0.3324700              -9.0470
       429        0.0035           -0.3318349              -9.0297
       ...           ...                  ...                  ...
       812                          2.2593703              61.4806
      -------------------------------------------------------------
                  HL-Gap            0.0000821 Eh            0.0022 eV
             Fermi-level           -0.3378655 Eh           -9.1938 eV

 SCC (total)                   0 d,  0 h,  0 min, 10.627 sec
 SCC setup                      ...        0 min,  0.011 sec (  0.101%)
 Dispersion                     ...        0 min,  0.023 sec (  0.215%)
 classical contributions        ...        0 min,  0.002 sec (  0.018%)
 integral evaluation            ...        0 min,  0.174 sec (  1.641%)
 iterations                     ...        0 min, 10.002 sec ( 94.115%)
 molecular gradient             ...        0 min,  0.391 sec (  3.682%)
 printout                       ...        0 min,  0.024 sec (  0.226%)

         :::::::::::::::::::::::::::::::::::::::::::::::::::::
         ::                     SUMMARY                     ::
         :::::::::::::::::::::::::::::::::::::::::::::::::::::
         :: total energy            -443.680814775731 Eh    ::
         :: gradient norm              1.998065757135 Eh/a0 ::
         :: HOMO-LUMO gap              0.002233456441 eV    ::
         ::.................................................::
         :: SCC energy              -453.109787422374 Eh    ::
         :: -> isotropic ES            0.234227484925 Eh    ::
         :: -> anisotropic ES          0.053970093247 Eh    ::
         :: -> anisotropic XC          0.252584424078 Eh    ::
         :: -> dispersion             -0.377205566844 Eh    ::
         :: repulsion energy           9.429919974723 Eh    ::
         :: add. restraining           0.000000000000 Eh    ::
         :: total charge               0.000000000154 e     ::
         :::::::::::::::::::::::::::::::::::::::::::::::::::::

      ----------------------------------------------------------- 
     |                   =====================                   |
     |                        A N C O P T                        |
     |                   =====================                   |
     |               Approximate Normal Coordinate               |
     |                Rational Function Optimizer                |
      ----------------------------------------------------------- 

          ...................................................
          :                      SETUP                      :
          :.................................................:
          :   optimization level            normal          :
          :   max. optcycles                   726          :
          :   ANC micro-cycles                  20          :
          :   degrees of freedom               720          :
          :.................................................:
          :   RF solver                   davidson          :
          :   write xtbopt.log                true          :
          :   linear?                        false          :
          :   energy convergence         0.5000000E-05 Eh   :
          :   grad. convergence          0.1000000E-02 Eh/α :
          :   maximium RF displ.         1.0000000          :
          :   Hlow (freq-cutoff)         0.1000000E-01      :
          :   Hmax (freq-cutoff)         5.0000000          :
          :   S6 in model hess.         20.0000000          :
          ...................................................

generating ANC from model Hessian ...
Using Lindh-Hessian (1995)
 Shifting diagonal of input Hessian by    1.0134354595250760E-002
 Lowest  eigenvalues of input Hessian
    0.010000    0.010034    0.010100    0.010100    0.010100    0.010101
    0.010106    0.010110    0.010115    0.010117    0.010118    0.010122
    0.010124    0.010127    0.010129    0.010129    0.010132    0.000000
 Highest eigenvalues
    3.325873    3.327672    3.495154    3.495769    3.495770    3.495772


........................................................................
.............................. CYCLE    1 ..............................
........................................................................
   1   -453.1097875 -0.453110E+03  0.665E-04    0.00       0.0  T
   2   -453.1096930  0.945152E-04  0.836E-03    0.00       1.0  T
   3   -453.1097405 -0.474851E-04  0.578E-03    0.00       1.1  T
   4   -453.1097669 -0.263895E-04  0.416E-03    0.00       1.5  T
   5   -453.1097761 -0.923532E-05  0.291E-03    0.00       2.2  T
   6   -453.1097794 -0.333414E-05  0.257E-03    0.00       2.5  T
   7   -453.1097833 -0.387082E-05  0.187E-03    0.00       3.4  T
   8   -453.1097871 -0.380774E-05  0.756E-04    0.00       8.5  T
   9   -453.1097865  0.613571E-06  0.106E-03    0.00       6.0  T
  10   -453.1097875 -0.101013E-05  0.432E-04    0.00      14.9  T
  11   -453.1097875  0.175316E-07  0.426E-04    0.00      15.1  T
  12   -453.1097876 -0.163225E-06  0.203E-04    0.00      31.6  T
     SCC iter.                  ...        0 min,  2.202 sec
     gradient                   ...        0 min,  0.392 sec
 * total energy  :  -443.6808150 Eh     change       -0.2244790E-06 Eh
   gradient norm :     1.9980645 Eh/α   predicted     0.0000000E+00 (-100.00%)
   displ. norm   :     0.6384096 α      lambda       -0.1195713E+01
   maximum displ.:     0.2289938 α      in ANC's #572, #706, #573, ...

........................................................................
.............................. CYCLE    2 ..............................
........................................................................
   1   -453.1429392 -0.453143E+03  0.384E-01    0.02       0.0  T
   2   -452.2087481  0.934191E+00  0.960E-01    0.17       1.0  T
   3   -452.1654551  0.432931E-01  0.898E-01    0.08       1.0  T
   4   -452.6837416 -0.518286E+00  0.800E-01    0.08       1.0  T
   5   -452.9430619 -0.259320E+00  0.458E-01    0.07       1.0  T
   6   -452.1483125  0.794749E+00  0.875E-01    0.04       1.0  T
   7   -452.9397176 -0.791405E+00  0.501E-01    0.00       1.0  T
   8   -452.8876068  0.521108E-01  0.511E-01    0.00       1.0  T
   9   -452.9474499 -0.598431E-01  0.402E-01    0.02       1.0  T
  10   -453.0987508 -0.151301E+00  0.298E-01    0.04       1.0  T
  11   -453.1221269 -0.233761E-01  0.243E-01    0.05       1.0  T
  12   -453.1549159 -0.327891E-01  0.167E-01    0.03       1.0  T
  13   -453.1557930 -0.877074E-03  0.169E-01    0.02       1.0  T
  14   -453.1652981 -0.950506E-02  0.136E-01    0.02       1.0  T
  15   -453.1480410  0.172571E-01  0.161E-01    0.01       1.0  T
  16   -453.1609901 -0.129491E-01  0.132E-01    0.00       1.0  T
  17   -453.1636652 -0.267505E-02  0.122E-01    0.02       1.0  T
  18   -453.1676194 -0.395419E-02  0.102E-01    0.02       1.0  T
  19   -453.1767170 -0.909760E-02  0.491E-02    0.00       1.0  T
  20   -453.1740226  0.269438E-02  0.620E-02    0.01       1.0  T
  21   -453.1773135 -0.329093E-02  0.374E-02    0.00       1.0  T
  22   -453.1778657 -0.552130E-03  0.280E-02    0.00       1.0  T
  23   -453.1781660 -0.300323E-03  0.179E-02    0.00       1.0  T
  24   -453.1783217 -0.155691E-03  0.135E-02    0.00       1.0  T
  25   -453.1784582 -0.136513E-03  0.871E-03    0.00       1.0  T
  26   -453.1783234  0.134786E-03  0.132E-02    0.00       1.0  T
  27   -453.1784858 -0.162393E-03  0.499E-03    0.00       1.3  T
  28   -453.1784652  0.206231E-04  0.557E-03    0.00       1.2  T
  29   -453.1784886 -0.234405E-04  0.340E-03    0.00       1.9  T
  30   -453.1784881  0.523991E-06  0.333E-03    0.00       1.9  T
  31   -453.1784979 -0.977290E-05  0.168E-03    0.00       3.8  T
  32   -453.1784997 -0.183322E-05  0.898E-04    0.00       7.2  T
  33   -453.1784997  0.677551E-08  0.750E-04    0.00       8.6  T
  34   -453.1784999 -0.234600E-06  0.472E-04    0.00      13.6  T
     SCC iter.                  ...        0 min,  6.225 sec
     gradient                   ...        0 min,  0.391 sec
 * total energy  :  -444.5048413 Eh     change       -0.8240263E+00 Eh
   gradient norm :     0.8464537 Eh/α   predicted    -0.8415376E+00 (   2.13%)
   displ. norm   :     0.6133733 α      lambda       -0.4539621E+00
   maximum displ.:     0.1816375 α      in ANC's #572, #252, #247, ...

........................................................................
.............................. CYCLE    3 ..............................
........................................................................
   1   -453.1470395 -0.453147E+03  0.418E-01    0.02       0.0  T
   2   -450.5535660  0.259347E+01  0.182E+00    0.11       1.0  T
   3   -452.6794017 -0.212584E+01  0.680E-01    0.00       1.0  T
   4   -452.4517223  0.227679E+00  0.909E-01    0.14       1.0  T
   5   -452.8445784 -0.392856E+00  0.549E-01    0.05       1.0  T
   6   -452.8541294 -0.955096E-02  0.553E-01    0.09       1.0  T
   7   -452.8440837  0.100457E-01  0.639E-01    0.08       1.0  T
   8   -452.8486721 -0.458846E-02  0.511E-01    0.10       1.0  T
   9   -452.8582609 -0.958878E-02  0.592E-01    0.06       1.0  T
  10   -453.0317016 -0.173441E+00  0.329E-01    0.02       1.0  T
  11   -452.8582982  0.173403E+00  0.457E-01    0.05       1.0  T
  12   -453.0740473 -0.215749E+00  0.311E-01    0.04       1.0  T
  13   -453.1675458 -0.934985E-01  0.164E-01    0.03       1.0  T
  14   -453.1620434  0.550241E-02  0.171E-01    0.03       1.0  T
  15   -453.1567749  0.526845E-02  0.176E-01    0.03       1.0  T
  16   -453.1738430 -0.170681E-01  0.141E-01    0.02       1.0  T
  17   -453.1655497  0.829338E-02  0.154E-01    0.01       1.0  T
  18   -453.1806261 -0.150765E-01  0.968E-02    0.00       1.0  T
  19   -453.1850846 -0.445851E-02  0.740E-02    0.01       1.0  T
  20   -453.1919271 -0.684251E-02  0.337E-02    0.00       1.0  T
  21   -453.1926643 -0.737131E-03  0.263E-02    0.00       1.0  T
  22   -453.1911299  0.153438E-02  0.387E-02    0.00       1.0  T
  23   -453.1930058 -0.187591E-02  0.116E-02    0.01       1.0  T
  24   -453.1928758  0.130013E-03  0.157E-02    0.00       1.0  T
  25   -453.1929932 -0.117436E-03  0.992E-03    0.01       1.0  T
  26   -453.1930287 -0.355224E-04  0.822E-03    0.01       1.0  T
  27   -453.1928623  0.166384E-03  0.131E-02    0.01       1.0  T
  28   -453.1930565 -0.194128E-03  0.606E-03    0.01       1.1  T
  29   -453.1930489  0.756872E-05  0.594E-03    0.01       1.1  T
  30   -453.1930722 -0.232878E-04  0.354E-03    0.01       1.8  T
  31   -453.1930798 -0.759505E-05  0.260E-03    0.01       2.5  T
  32   -453.1930834 -0.358755E-05  0.204E-03    0.01       3.1  T
  33   -453.1930861 -0.274990E-05  0.141E-03    0.01       4.6  T
  34   -453.1930873 -0.121903E-05  0.766E-04    0.01       8.4  T
  35   -453.1930876 -0.273573E-06  0.426E-04    0.01      15.1  T
  36   -453.1930877 -0.412486E-07  0.314E-04    0.01      20.5  T
     SCC iter.                  ...        0 min,  6.603 sec
     gradient                   ...        0 min,  0.391 sec
 * total energy  :  -444.8509775 Eh     change       -0.3461363E+00 Eh
   gradient norm :     0.4224727 Eh/α   predicted    -0.3123775E+00 (  -9.75%)
   displ. norm   :     0.6808558 α      lambda       -0.2358104E+00
   maximum displ.:     0.2503846 α      in ANC's #252, #247, #276, ...

........................................................................
.............................. CYCLE    4 ..............................
........................................................................
   1   -453.1041018 -0.453104E+03  0.609E-01    0.01       0.0  T
   2   -436.8302604  0.162738E+02  0.347E+00    0.10       1.0  T
   3   -452.8264006 -0.159961E+02  0.110E+00    0.04       1.0  T
   4   -452.9111409 -0.847403E-01  0.571E-01    0.01       1.0  T
   5   -452.1019752  0.809166E+00  0.102E+00    0.20       1.0  T
   6   -452.6557023 -0.553727E+00  0.682E-01    0.04       1.0  T
   7   -452.5946850  0.610173E-01  0.758E-01    0.05       1.0  T
   8   -452.9243672 -0.329682E+00  0.576E-01    0.04       1.0  T
   9   -453.0526372 -0.128270E+00  0.405E-01    0.03       1.0  T
  10   -452.6857323  0.366905E+00  0.678E-01    0.03       1.0  T
  11   -453.2371230 -0.551391E+00  0.238E-01    0.03       1.0  T
  12   -453.2435852 -0.646224E-02  0.216E-01    0.04       1.0  T
  13   -453.2737677 -0.301825E-01  0.137E-01    0.00       1.0  T
  14   -453.2049736  0.687941E-01  0.240E-01    0.00       1.0  T
  15   -453.2621239 -0.571504E-01  0.181E-01    0.03       1.0  T
  16   -453.2145041  0.476199E-01  0.230E-01    0.03       1.0  T
  17   -453.2357704 -0.212663E-01  0.192E-01    0.02       1.0  T
  18   -453.2734665 -0.376961E-01  0.102E-01    0.02       1.0  T
  19   -453.2792027 -0.573615E-02  0.883E-02    0.01       1.0  T
  20   -453.2808836 -0.168088E-02  0.751E-02    0.00       1.0  T
  21   -453.2774945  0.338910E-02  0.834E-02    0.01       1.0  T
  22   -453.2809984 -0.350390E-02  0.611E-02    0.01       1.0  T
  23   -453.2815065 -0.508137E-03  0.561E-02    0.00       1.0  T
  24   -453.2818928 -0.386256E-03  0.472E-02    0.00       1.0  T
  25   -453.2821541 -0.261360E-03  0.421E-02    0.00       1.0  T
  26   -453.2826143 -0.460171E-03  0.364E-02    0.00       1.0  T
  27   -453.2836311 -0.101679E-02  0.233E-02    0.01       1.0  T
  28   -453.2840037 -0.372602E-03  0.136E-02    0.01       1.0  T
  29   -453.2840750 -0.713008E-04  0.947E-03    0.01       1.0  T
  30   -453.2840793 -0.431885E-05  0.723E-03    0.01       1.0  T
  31   -453.2840886 -0.929144E-05  0.608E-03    0.01       1.1  T
  32   -453.2840987 -0.101177E-04  0.472E-03    0.01       1.4  T
  33   -453.2840841  0.145689E-04  0.590E-03    0.01       1.1  T
  34   -453.2840986 -0.144171E-04  0.470E-03    0.01       1.4  T
  35   -453.2841071 -0.852349E-05  0.336E-03    0.01       1.9  T
  36   -453.2841164 -0.934242E-05  0.143E-03    0.01       4.5  T
  37   -453.2841163  0.171737E-06  0.122E-03    0.01       5.3  T
  38   -453.2841176 -0.133352E-05  0.473E-04    0.01      13.6  T
  39   -453.2841177 -0.869061E-07  0.375E-04    0.01      17.1  T
  40   -453.2841178 -0.141174E-06  0.225E-04    0.01      28.6  T
     SCC iter.                  ...        0 min,  7.329 sec
     gradient                   ...        0 min,  0.391 sec
 * total energy  :  -445.0308184 Eh     change       -0.1798408E+00 Eh
   gradient norm :     0.1937330 Eh/α   predicted    -0.1725621E+00 (  -4.05%)
   displ. norm   :     0.7655124 α      lambda       -0.1313730E+00
   maximum displ.:     0.3067835 α      in ANC's #252, #247, #192, ...

........................................................................
.............................. CYCLE    5 ..............................
........................................................................
   1   -453.0933225 -0.453093E+03  0.721E-01    0.00       0.0  T
   2   -434.3052086  0.187881E+02  0.368E+00    0.08       1.0  T
   3   -452.4958018 -0.181906E+02  0.132E+00    0.05       1.0  T
   4   -452.5799099 -0.841081E-01  0.106E+00    0.03       1.0  T
   5   -452.6022861 -0.223762E-01  0.773E-01    0.10       1.0  T
   6   -453.2049385 -0.602652E+00  0.410E-01    0.02       1.0  T
   7   -453.1361885  0.687500E-01  0.497E-01    0.02       1.0  T
   8   -452.4985556  0.637633E+00  0.783E-01    0.07       1.0  T
   9   -453.1172533 -0.618698E+00  0.526E-01    0.09       1.0  T
  10   -453.2391735 -0.121920E+00  0.419E-01    0.02       1.0  T
  11   -453.1514149  0.877585E-01  0.399E-01    0.02       1.0  T
  12   -453.1873002 -0.358853E-01  0.367E-01    0.00       1.0  T
  13   -453.3419636 -0.154663E+00  0.203E-01    0.01       1.0  T
  14   -453.3339411  0.802254E-02  0.204E-01    0.01       1.0  T
  15   -453.3027958  0.311452E-01  0.232E-01    0.03       1.0  T
  16   -453.3474405 -0.446447E-01  0.165E-01    0.01       1.0  T
  17   -453.3753407 -0.279002E-01  0.888E-02    0.01       1.0  T
  18   -453.3487262  0.266145E-01  0.158E-01    0.00       1.0  T
  19   -453.3696338 -0.209076E-01  0.949E-02    0.01       1.0  T
  20   -453.3755957 -0.596185E-02  0.639E-02    0.01       1.0  T
  21   -453.3772006 -0.160487E-02  0.564E-02    0.00       1.0  T
  22   -453.3784124 -0.121185E-02  0.401E-02    0.00       1.0  T
  23   -453.3785279 -0.115519E-03  0.356E-02    0.00       1.0  T
  24   -453.3800709 -0.154301E-02  0.161E-02    0.01       1.0  T
  25   -453.3799356  0.135386E-03  0.169E-02    0.01       1.0  T
  26   -453.3800491 -0.113492E-03  0.141E-02    0.01       1.0  T
  27   -453.3801574 -0.108338E-03  0.822E-03    0.01       1.0  T
  28   -453.3801381  0.192458E-04  0.753E-03    0.01       1.0  T
  29   -453.3801429 -0.471317E-05  0.761E-03    0.01       1.0  T
  30   -453.3801680 -0.251510E-04  0.548E-03    0.01       1.2  T
  31   -453.3802007 -0.326841E-04  0.160E-03    0.01       4.0  T
  32   -453.3801877  0.130371E-04  0.345E-03    0.01       1.9  T
  33   -453.3802006 -0.129078E-04  0.119E-03    0.01       5.4  T
  34   -453.3802002  0.355925E-06  0.128E-03    0.01       5.0  T
  35   -453.3802019 -0.164470E-05  0.899E-04    0.01       7.1  T
  36   -453.3802027 -0.830829E-06  0.273E-04    0.01      23.6  T
  37   -453.3802027 -0.494098E-07  0.219E-04    0.01      29.4  T
     SCC iter.                  ...        0 min,  6.863 sec
     gradient                   ...        0 min,  0.392 sec
 * total energy  :  -445.1400844 Eh     change       -0.1092660E+00 Eh
   gradient norm :     0.1242647 Eh/α   predicted    -0.1041794E+00 (  -4.66%)
   displ. norm   :     0.8115598 α      lambda       -0.9397059E-01
   maximum displ.:     0.3086040 α      in ANC's #252, #247, #192, ...

........................................................................
.............................. CYCLE    6 ..............................
........................................................................
   1   -453.1874791 -0.453187E+03  0.722E-01    0.00       0.0  T
   2   -434.2579260  0.189296E+02  0.369E+00    0.06       1.0  T
   3   -452.7176099 -0.184597E+02  0.133E+00    0.03       1.0  T
   4   -452.8366220 -0.119012E+00  0.728E-01    0.00       1.0  T
   5   -451.9344623  0.902160E+00  0.107E+00    0.07       1.0  T
   6   -452.5376560 -0.603194E+00  0.732E-01    0.05       1.0  T
   7   -452.9828748 -0.445219E+00  0.741E-01    0.07       1.0  T
   8   -453.1221737 -0.139299E+00  0.544E-01    0.03       1.0  T
   9   -453.1326962 -0.105226E-01  0.567E-01    0.03       1.0  T
  10   -453.1716589 -0.389627E-01  0.555E-01    0.07       1.0  T
  11   -453.2118090 -0.401501E-01  0.472E-01    0.05       1.0  T
  12   -453.3294904 -0.117681E+00  0.364E-01    0.01       1.0  T
  13   -453.4086952 -0.792048E-01  0.254E-01    0.03       1.0  T
  14   -453.4064230  0.227223E-02  0.259E-01    0.04       1.0  T
  15   -453.4308088 -0.243859E-01  0.195E-01    0.01       1.0  T
  16   -453.4342078 -0.339899E-02  0.177E-01    0.02       1.0  T
  17   -453.3842959  0.499119E-01  0.220E-01    0.02       1.0  T
  18   -453.4257689 -0.414730E-01  0.162E-01    0.01       1.0  T
  19   -453.4414696 -0.157007E-01  0.121E-01    0.00       1.0  T
  20   -453.4472773 -0.580775E-02  0.130E-01    0.00       1.0  T
  21   -453.4552502 -0.797291E-02  0.722E-02    0.01       1.0  T
  22   -453.4533968  0.185344E-02  0.704E-02    0.01       1.0  T
  23   -453.4546578 -0.126101E-02  0.464E-02    0.01       1.0  T
  24   -453.4566842 -0.202635E-02  0.334E-02    0.01       1.0  T
  25   -453.4548211  0.186310E-02  0.398E-02    0.00       1.0  T
  26   -453.4557739 -0.952855E-03  0.297E-02    0.01       1.0  T
  27   -453.4571660 -0.139206E-02  0.148E-02    0.01       1.0  T
  28   -453.4566597  0.506293E-03  0.190E-02    0.01       1.0  T
  29   -453.4572395 -0.579802E-03  0.557E-03    0.01       1.2  T
  30   -453.4571969  0.425591E-04  0.782E-03    0.01       1.0  T
  31   -453.4571628  0.341644E-04  0.794E-03    0.01       1.0  T
  32   -453.4572498 -0.869877E-04  0.487E-03    0.01       1.3  T
  33   -453.4572561 -0.637793E-05  0.377E-03    0.01       1.7  T
  34   -453.4572638 -0.770757E-05  0.238E-03    0.01       2.7  T
  35   -453.4572653 -0.143399E-05  0.168E-03    0.01       3.8  T
  36   -453.4572680 -0.268926E-05  0.716E-04    0.01       9.0  T
  37   -453.4572663  0.169311E-05  0.141E-03    0.01       4.6  T
  38   -453.4572677 -0.140084E-05  0.967E-04    0.01       6.7  T
  39   -453.4572680 -0.307703E-06  0.643E-04    0.01      10.0  T
  40   -453.4572682 -0.255715E-06  0.421E-04    0.01      15.3  T
     SCC iter.                  ...        0 min,  7.416 sec
     gradient                   ...        0 min,  0.392 sec
 * total energy  :  -445.2205232 Eh     change       -0.8043888E-01 Eh
   gradient norm :     0.0955932 Eh/α   predicted    -0.7793119E-01 (  -3.12%)
   displ. norm   :     0.8235728 α      lambda       -0.6983743E-01
   maximum displ.:     0.2739161 α      in ANC's #252, #138, #192, ...

........................................................................
.............................. CYCLE    7 ..............................
........................................................................
   1   -453.2913945 -0.453291E+03  0.678E-01    0.02       0.0  T
   2   -434.6409224  0.186505E+02  0.367E+00    0.05       1.0  T
   3   -452.6497175 -0.180088E+02  0.133E+00    0.03       1.0  T
   4   -452.6218794  0.278381E-01  0.832E-01    0.12       1.0  T
   5   -452.3772577  0.244622E+00  0.108E+00    0.03       1.0  T
   6   -452.5817861 -0.204528E+00  0.849E-01    0.06       1.0  T
   7   -452.8940406 -0.312254E+00  0.709E-01    0.02       1.0  T
   8   -453.0984023 -0.204362E+00  0.671E-01    0.07       1.0  T
   9   -453.3311725 -0.232770E+00  0.380E-01    0.00       1.0  T
  10   -453.1497545  0.181418E+00  0.580E-01    0.02       1.0  T
  11   -453.3035885 -0.153834E+00  0.396E-01    0.01       1.0  T
  12   -453.3298434 -0.262549E-01  0.453E-01    0.05       1.0  T
  13   -453.3834323 -0.535889E-01  0.365E-01    0.03       1.0  T
  14   -453.4678769 -0.844446E-01  0.260E-01    0.03       1.0  T
  15   -453.4747582 -0.688128E-02  0.244E-01    0.03       1.0  T
  16   -453.4745446  0.213611E-03  0.244E-01    0.03       1.0  T
  17   -453.4676923  0.685224E-02  0.232E-01    0.01       1.0  T
  18   -453.4652619  0.243038E-02  0.198E-01    0.02       1.0  T
  19   -453.4886994 -0.234375E-01  0.138E-01    0.01       1.0  T
  20   -453.5074566 -0.187571E-01  0.102E-01    0.01       1.0  T
  21   -453.5114983 -0.404175E-02  0.894E-02    0.01       1.0  T
  22   -453.5131227 -0.162442E-02  0.719E-02    0.01       1.0  T
  23   -453.5145296 -0.140690E-02  0.615E-02    0.01       1.0  T
  24   -453.5162482 -0.171860E-02  0.384E-02    0.02       1.0  T
  25   -453.5169336 -0.685381E-03  0.297E-02    0.01       1.0  T
  26   -453.5167892  0.144398E-03  0.282E-02    0.01       1.0  T
  27   -453.5170199 -0.230635E-03  0.241E-02    0.01       1.0  T
  28   -453.5173518 -0.331989E-03  0.151E-02    0.01       1.0  T
  29   -453.5174035 -0.516655E-04  0.123E-02    0.01       1.0  T
  30   -453.5174952 -0.917014E-04  0.853E-03    0.01       1.0  T
  31   -453.5175397 -0.444458E-04  0.489E-03    0.01       1.3  T
  32   -453.5174999  0.397558E-04  0.633E-03    0.01       1.0  T
  33   -453.5175540 -0.541105E-04  0.255E-03    0.01       2.5  T
  34   -453.5175567 -0.272873E-05  0.182E-03    0.01       3.5  T
  35   -453.5175591 -0.236275E-05  0.105E-03    0.01       6.1  T
  36   -453.5175541  0.495283E-05  0.189E-03    0.01       3.4  T
  37   -453.5175588 -0.467282E-05  0.872E-04    0.01       7.4  T
  38   -453.5175596 -0.797887E-06  0.462E-04    0.01      13.9  T
  39   -453.5175597 -0.701274E-07  0.514E-04    0.01      12.5  T
     SCC iter.                  ...        0 min,  7.142 sec
     gradient                   ...        0 min,  0.393 sec
 * total energy  :  -445.2805903 Eh     change       -0.6006702E-01 Eh
   gradient norm :     0.0731648 Eh/α   predicted    -0.5860310E-01 (  -2.44%)
   displ. norm   :     0.8230672 α      lambda       -0.5144040E-01
   maximum displ.:     0.2656403 α      in ANC's #138, #134, #252, ...

........................................................................
.............................. CYCLE    8 ..............................
........................................................................
   1   -453.3742908 -0.453374E+03  0.616E-01    0.03       0.0  T
   2   -434.9688780  0.184054E+02  0.364E+00    0.06       1.0  T
   3   -452.6785285 -0.177097E+02  0.120E+00    0.00       1.0  T
   4   -452.6267035  0.518250E-01  0.912E-01    0.06       1.0  T
   5   -452.7251172 -0.984136E-01  0.873E-01    0.03       1.0  T
   6   -452.6374439  0.876733E-01  0.804E-01    0.03       1.0  T
   7   -453.1148155 -0.477372E+00  0.660E-01    0.02       1.0  T
   8   -453.1584448 -0.436293E-01  0.553E-01    0.00       1.0  T
   9   -453.1464825  0.119623E-01  0.541E-01    0.02       1.0  T
  10   -453.3965359 -0.250053E+00  0.460E-01    0.03       1.0  T
  11   -453.1281195  0.268416E+00  0.541E-01    0.02       1.0  T
  12   -453.3626375 -0.234518E+00  0.428E-01    0.01       1.0  T
  13   -453.4914944 -0.128857E+00  0.297E-01    0.02       1.0  T
  14   -453.5183488 -0.268543E-01  0.253E-01    0.02       1.0  T
  15   -453.5259603 -0.761154E-02  0.241E-01    0.02       1.0  T
  16   -453.5115254  0.144349E-01  0.242E-01    0.02       1.0  T
  17   -453.5212186 -0.969326E-02  0.239E-01    0.01       1.0  T
  18   -453.5420373 -0.208186E-01  0.161E-01    0.01       1.0  T
  19   -453.5441726 -0.213536E-02  0.128E-01    0.02       1.0  T
  20   -453.5608811 -0.167085E-01  0.602E-02    0.01       1.0  T
  21   -453.5515834  0.929770E-02  0.918E-02    0.01       1.0  T
  22   -453.5604875 -0.890402E-02  0.607E-02    0.01       1.0  T
  23   -453.5505226  0.996491E-02  0.997E-02    0.01       1.0  T
  24   -453.5588003 -0.827774E-02  0.602E-02    0.01       1.0  T
  25   -453.5620572 -0.325687E-02  0.387E-02    0.01       1.0  T
  26   -453.5623310 -0.273869E-03  0.283E-02    0.01       1.0  T
  27   -453.5626502 -0.319157E-03  0.204E-02    0.01       1.0  T
  28   -453.5627198 -0.696360E-04  0.171E-02    0.01       1.0  T
  29   -453.5628264 -0.106567E-03  0.123E-02    0.01       1.0  T
  30   -453.5629287 -0.102257E-03  0.956E-03    0.01       1.0  T
  31   -453.5629239  0.475284E-05  0.832E-03    0.01       1.0  T
  32   -453.5629990 -0.750763E-04  0.490E-03    0.01       1.3  T
  33   -453.5630312 -0.322520E-04  0.141E-03    0.01       4.5  T
  34   -453.5630311  0.104943E-06  0.131E-03    0.01       4.9  T
  35   -453.5630317 -0.605475E-06  0.125E-03    0.01       5.2  T
  36   -453.5630334 -0.164508E-05  0.701E-04    0.01       9.2  T
  37   -453.5630339 -0.522553E-06  0.214E-04    0.01      30.0  T
  38   -453.5630337  0.240010E-06  0.465E-04    0.01      13.8  T
     SCC iter.                  ...        0 min,  7.039 sec
     gradient                   ...        0 min,  0.393 sec
 * total energy  :  -445.3246793 Eh     change       -0.4408900E-01 Eh
   gradient norm :     0.0531872 Eh/α   predicted    -0.4314412E-01 (  -2.14%)
   displ. norm   :     0.8161012 α      lambda       -0.3698418E-01
   maximum displ.:     0.2645719 α      in ANC's #138, #134, #50, ...

........................................................................
.............................. CYCLE    9 ..............................
........................................................................
   1   -453.4441158 -0.453444E+03  0.541E-01    0.03       0.0  T
   2   -435.4150219  0.180291E+02  0.360E+00    0.06       1.0  T
   3   -452.7351468 -0.173201E+02  0.119E+00    0.01       1.0  T
   4   -452.6407761  0.943708E-01  0.914E-01    0.04       1.0  T
   5   -453.0412031 -0.400427E+00  0.637E-01    0.02       1.0  T
   6   -453.1002763 -0.590732E-01  0.646E-01    0.06       1.0  T
   7   -452.9919553  0.108321E+00  0.742E-01    0.07       1.0  T
   8   -453.1702216 -0.178266E+00  0.553E-01    0.00       1.0  T
   9   -453.2599176 -0.896960E-01  0.532E-01    0.03       1.0  T
  10   -453.3299096 -0.699920E-01  0.478E-01    0.00       1.0  T
  11   -453.3736535 -0.437439E-01  0.441E-01    0.05       1.0  T
  12   -453.4718307 -0.981772E-01  0.329E-01    0.03       1.0  T
  13   -453.5538635 -0.820327E-01  0.231E-01    0.01       1.0  T
  14   -453.5578151 -0.395163E-02  0.219E-01    0.00       1.0  T
  15   -453.5563642  0.145093E-02  0.220E-01    0.02       1.0  T
  16   -453.5576274 -0.126325E-02  0.217E-01    0.02       1.0  T
  17   -453.5574999  0.127494E-03  0.218E-01    0.02       1.0  T
  18   -453.5696244 -0.121245E-01  0.170E-01    0.01       1.0  T
  19   -453.5863155 -0.166910E-01  0.947E-02    0.01       1.0  T
  20   -453.5869940 -0.678483E-03  0.903E-02    0.02       1.0  T
  21   -453.5883242 -0.133023E-02  0.795E-02    0.01       1.0  T
  22   -453.5912852 -0.296105E-02  0.595E-02    0.01       1.0  T
  23   -453.5945865 -0.330127E-02  0.307E-02    0.01       1.0  T
  24   -453.5952228 -0.636265E-03  0.160E-02    0.01       1.0  T
  25   -453.5947467  0.476042E-03  0.225E-02    0.01       1.0  T
  26   -453.5948978 -0.151058E-03  0.192E-02    0.01       1.0  T
  27   -453.5953153 -0.417489E-03  0.714E-03    0.01       1.0  T
  28   -453.5953601 -0.448370E-04  0.448E-03    0.01       1.4  T
  29   -453.5952658  0.943111E-04  0.954E-03    0.01       1.0  T
  30   -453.5953606 -0.947639E-04  0.437E-03    0.01       1.5  T
  31   -453.5953739 -0.133457E-04  0.310E-03    0.01       2.1  T
  32   -453.5953824 -0.845085E-05  0.240E-03    0.01       2.7  T
  33   -453.5953757  0.666396E-05  0.310E-03    0.01       2.1  T
  34   -453.5953860 -0.102843E-04  0.181E-03    0.01       3.5  T
  35   -453.5953874 -0.141614E-05  0.115E-03    0.01       5.6  T
  36   -453.5953888 -0.142916E-05  0.570E-04    0.01      11.3  T
  37   -453.5953890 -0.144470E-06  0.327E-04    0.01      19.7  T
  38   -453.5953890 -0.228715E-08  0.232E-04    0.01      27.7  T
     SCC iter.                  ...        0 min,  7.040 sec
     gradient                   ...        0 min,  0.393 sec
 * total energy  :  -445.3560997 Eh     change       -0.3142045E-01 Eh
   gradient norm :     0.0383594 Eh/α   predicted    -0.3080824E-01 (  -1.95%)
   displ. norm   :     0.8061113 α      lambda       -0.2588996E-01
   maximum displ.:     0.2681920 α      in ANC's #50, #138, #134, ...

........................................................................
.............................. CYCLE   10 ..............................
........................................................................
   1   -453.5134255 -0.453513E+03  0.450E-01    0.03       0.0  T
   2   -436.5082250  0.170052E+02  0.351E+00    0.07       1.0  T
   3   -452.9002558 -0.163920E+02  0.107E+00    0.01       1.0  T
   4   -452.6405679  0.259688E+00  0.918E-01    0.05       1.0  T
   5   -453.0453076 -0.404740E+00  0.641E-01    0.02       1.0  T
   6   -452.3323929  0.712915E+00  0.933E-01    0.03       1.0  T
   7   -453.0831638 -0.750771E+00  0.658E-01    0.04       1.0  T
   8   -453.1525320 -0.693682E-01  0.616E-01    0.06       1.0  T
   9   -453.2625569 -0.110025E+00  0.586E-01    0.04       1.0  T
  10   -453.1982971  0.642598E-01  0.554E-01    0.01       1.0  T
  11   -452.8271905  0.371107E+00  0.704E-01    0.02       1.0  T
  12   -453.3550747 -0.527884E+00  0.478E-01    0.08       1.0  T
  13   -453.4550851 -0.100010E+00  0.418E-01    0.06       1.0  T
  14   -453.5526085 -0.975234E-01  0.267E-01    0.03       1.0  T
  15   -453.5276549  0.249536E-01  0.277E-01    0.00       1.0  T
  16   -453.5722759 -0.446210E-01  0.248E-01    0.01       1.0  T
  17   -453.5836827 -0.114068E-01  0.220E-01    0.00       1.0  T
  18   -453.5926062 -0.892348E-02  0.192E-01    0.00       1.0  T
  19   -453.6058173 -0.132111E-01  0.143E-01    0.00       1.0  T
  20   -453.6125117 -0.669437E-02  0.105E-01    0.01       1.0  T
  21   -453.6135047 -0.992982E-03  0.962E-02    0.00       1.0  T
  22   -453.6153775 -0.187278E-02  0.848E-02    0.01       1.0  T
  23   -453.6166736 -0.129614E-02  0.728E-02    0.01       1.0  T
  24   -453.6185330 -0.185939E-02  0.442E-02    0.00       1.0  T
  25   -453.6191659 -0.632920E-03  0.475E-02    0.00       1.0  T
  26   -453.6173235  0.184243E-02  0.576E-02    0.01       1.0  T
  27   -453.6195124 -0.218895E-02  0.344E-02    0.00       1.0  T
  28   -453.6205163 -0.100385E-02  0.228E-02    0.00       1.0  T
  29   -453.6207123 -0.196012E-03  0.179E-02    0.00       1.0  T
  30   -453.6209539 -0.241634E-03  0.110E-02    0.00       1.0  T
  31   -453.6210473 -0.933832E-04  0.702E-03    0.00       1.0  T
  32   -453.6210549 -0.758262E-05  0.592E-03    0.00       1.1  T
  33   -453.6210801 -0.252295E-04  0.404E-03    0.00       1.6  T
  34   -453.6210784  0.170784E-05  0.391E-03    0.00       1.6  T
  35   -453.6210900 -0.115779E-04  0.243E-03    0.00       2.6  T
  36   -453.6210884  0.160288E-05  0.255E-03    0.00       2.5  T
  37   -453.6210934 -0.496717E-05  0.111E-03    0.00       5.8  T
  38   -453.6210935 -0.183419E-06  0.812E-04    0.01       7.9  T
  39   -453.6210940 -0.433809E-06  0.648E-04    0.01       9.9  T
     SCC iter.                  ...        0 min,  7.134 sec
     gradient                   ...        0 min,  0.394 sec
 * total energy  :  -445.3779966 Eh     change       -0.2189687E-01 Eh
   gradient norm :     0.0293319 Eh/α   predicted    -0.2135685E-01 (  -2.47%)
   displ. norm   :     0.8072010 α      lambda       -0.1834293E-01
   maximum displ.:     0.3416536 α      in ANC's #50, #46, #56, ...

........................................................................
.............................. CYCLE   11 ..............................
........................................................................
   1   -453.5981462 -0.453598E+03  0.320E-01    0.02       0.0  T
   2   -441.1923809  0.124058E+02  0.311E+00    0.03       1.0  T
   3   -453.1382854 -0.119459E+02  0.684E-01    0.02       1.0  T
   4   -452.6591279  0.479158E+00  0.963E-01    0.05       1.0  T
   5   -453.2298010 -0.570673E+00  0.581E-01    0.02       1.0  T
   6   -452.7579264  0.471875E+00  0.896E-01    0.09       1.0  T
   7   -453.1237363 -0.365810E+00  0.606E-01    0.04       1.0  T
   8   -453.1693493 -0.456130E-01  0.579E-01    0.07       1.0  T
   9   -453.4026317 -0.233282E+00  0.485E-01    0.03       1.0  T
  10   -452.8582474  0.544384E+00  0.759E-01    0.05       1.0  T
  11   -453.1905167 -0.332269E+00  0.514E-01    0.04       1.0  T
  12   -453.2973564 -0.106840E+00  0.467E-01    0.01       1.0  T
  13   -453.3132215 -0.158651E-01  0.476E-01    0.02       1.0  T
  14   -453.5482889 -0.235067E+00  0.309E-01    0.02       1.0  T
  15   -453.6092746 -0.609856E-01  0.211E-01    0.01       1.0  T
  16   -453.6230192 -0.137446E-01  0.151E-01    0.01       1.0  T
  17   -453.6283487 -0.532958E-02  0.159E-01    0.01       1.0  T
  18   -453.6284231 -0.744140E-04  0.158E-01    0.01       1.0  T
  19   -453.6256735  0.274961E-02  0.159E-01    0.00       1.0  T
  20   -453.6397864 -0.141128E-01  0.940E-02    0.01       1.0  T
  21   -453.6337870  0.599935E-02  0.102E-01    0.01       1.0  T
  22   -453.6446764 -0.108894E-01  0.453E-02    0.01       1.0  T
  23   -453.6448090 -0.132540E-03  0.379E-02    0.01       1.0  T
  24   -453.6450365 -0.227521E-03  0.331E-02    0.00       1.0  T
  25   -453.6453793 -0.342770E-03  0.282E-02    0.01       1.0  T
  26   -453.6456333 -0.254005E-03  0.222E-02    0.01       1.0  T
  27   -453.6459338 -0.300535E-03  0.155E-02    0.01       1.0  T
  28   -453.6457337  0.200102E-03  0.182E-02    0.00       1.0  T
  29   -453.6459149 -0.181188E-03  0.142E-02    0.00       1.0  T
  30   -453.6459979 -0.829733E-04  0.126E-02    0.01       1.0  T
  31   -453.6460918 -0.939419E-04  0.785E-03    0.01       1.0  T
  32   -453.6461212 -0.294307E-04  0.623E-03    0.01       1.0  T
  33   -453.6461144  0.680895E-05  0.616E-03    0.01       1.0  T
  34   -453.6461305 -0.160937E-04  0.487E-03    0.01       1.3  T
  35   -453.6461485 -0.180145E-04  0.295E-03    0.01       2.2  T
  36   -453.6461563 -0.775440E-05  0.164E-03    0.01       3.9  T
  37   -453.6461587 -0.243118E-05  0.916E-04    0.01       7.0  T
  38   -453.6461580  0.714523E-06  0.105E-03    0.01       6.1  T
  39   -453.6461589 -0.928004E-06  0.648E-04    0.01       9.9  T
  40   -453.6461588  0.178551E-06  0.755E-04    0.01       8.5  T
     SCC iter.                  ...        0 min,  7.313 sec
     gradient                   ...        0 min,  0.393 sec
 * total energy  :  -445.3937587 Eh     change       -0.1576211E-01 Eh
   gradient norm :     0.0250103 Eh/α   predicted    -0.1514735E-01 (  -3.90%)
   displ. norm   :     0.8340668 α      lambda       -0.1426841E-01
   maximum displ.:     0.4103402 α      in ANC's #50, #46, #56, ...

........................................................................
.............................. CYCLE   12 ..............................
........................................................................
   1   -453.6649984 -0.453665E+03  0.181E-01    0.01       0.0  T
   2   -452.4914859  0.117351E+01  0.941E-01    0.04       1.0  T
   3   -453.1240725 -0.632587E+00  0.573E-01    0.03       1.0  T
   4   -452.9991271  0.124945E+00  0.734E-01    0.09       1.0  T
   5   -453.4496693 -0.450542E+00  0.418E-01    0.02       1.0  T
   6   -452.6582508  0.791419E+00  0.862E-01    0.06       1.0  T
   7   -453.2514233 -0.593172E+00  0.615E-01    0.02       1.0  T
   8   -453.2552709 -0.384769E-02  0.578E-01    0.03       1.0  T
   9   -453.2996952 -0.444242E-01  0.548E-01    0.04       1.0  T
  10   -453.3638065 -0.641113E-01  0.513E-01    0.03       1.0  T
  11   -453.4231880 -0.593815E-01  0.442E-01    0.00       1.0  T
  12   -453.6014050 -0.178217E+00  0.229E-01    0.02       1.0  T
  13   -453.6445342 -0.431293E-01  0.145E-01    0.01       1.0  T
  14   -453.6528685 -0.833427E-02  0.113E-01    0.01       1.0  T
  15   -453.6410664  0.118021E-01  0.167E-01    0.00       1.0  T
  16   -453.6538616 -0.127952E-01  0.134E-01    0.01       1.0  T
  17   -453.6525075  0.135413E-02  0.132E-01    0.01       1.0  T
  18   -453.6661493 -0.136418E-01  0.662E-02    0.00       1.0  T
  19   -453.6704422 -0.429290E-02  0.352E-02    0.01       1.0  T
  20   -453.6693285  0.111371E-02  0.432E-02    0.00       1.0  T
  21   -453.6705653 -0.123674E-02  0.261E-02    0.01       1.0  T
  22   -453.6695132  0.105204E-02  0.417E-02    0.01       1.0  T
  23   -453.6710395 -0.152625E-02  0.181E-02    0.01       1.0  T
  24   -453.6711716 -0.132107E-03  0.130E-02    0.01       1.0  T
  25   -453.6709444  0.227182E-03  0.165E-02    0.01       1.0  T
  26   -453.6712383 -0.293880E-03  0.704E-03    0.01       1.0  T
  27   -453.6712868 -0.485035E-04  0.268E-03    0.01       2.4  T
  28   -453.6712755  0.113347E-04  0.392E-03    0.01       1.6  T
  29   -453.6712637  0.118127E-04  0.482E-03    0.01       1.3  T
  30   -453.6712907 -0.270742E-04  0.177E-03    0.01       3.6  T
  31   -453.6712929 -0.222128E-05  0.115E-03    0.01       5.6  T
  32   -453.6712939 -0.932324E-06  0.681E-04    0.01       9.4  T
  33   -453.6712937  0.162447E-06  0.699E-04    0.01       9.2  T
     SCC iter.                  ...        0 min,  6.036 sec
     gradient                   ...        0 min,  0.393 sec
 * total energy  :  -445.4065633 Eh     change       -0.1280463E-01 Eh
   gradient norm :     0.0243172 Eh/α   predicted    -0.1209725E-01 (  -5.52%)
   displ. norm   :     0.8828367 α      lambda       -0.1289048E-01
   maximum displ.:     0.4597656 α      in ANC's #50, #46, #56, ...

........................................................................
.............................. CYCLE   13 ..............................
........................................................................
   1   -453.6014375 -0.453601E+03  0.327E-01    0.00       0.0  T
   2   -451.8107103  0.179073E+01  0.137E+00    0.27       1.0  T
   3   -452.5094186 -0.698708E+00  0.936E-01    0.32       1.0  T
   4   -452.7343426 -0.224924E+00  0.816E-01    0.04       1.0  T
   5   -453.4240353 -0.689693E+00  0.559E-01    0.02       1.0  T
   6   -453.3121131  0.111922E+00  0.552E-01    0.01       1.0  T
   7   -453.2418749  0.702382E-01  0.570E-01    0.02       1.0  T
   8   -453.0949654  0.146909E+00  0.629E-01    0.01       1.0  T
   9   -453.3134941 -0.218529E+00  0.545E-01    0.01       1.0  T
  10   -453.4776701 -0.164176E+00  0.449E-01    0.00       1.0  T
  11   -453.2734747  0.204195E+00  0.563E-01    0.08       1.0  T
  12   -453.5963871 -0.322912E+00  0.292E-01    0.01       1.0  T
  13   -453.5965575 -0.170420E-03  0.313E-01    0.03       1.0  T
  14   -453.6459798 -0.494223E-01  0.242E-01    0.02       1.0  T
  15   -453.6088586  0.371211E-01  0.291E-01    0.00       1.0  T
  16   -453.6091452 -0.286516E-03  0.287E-01    0.00       1.0  T
  17   -453.6595436 -0.503984E-01  0.206E-01    0.01       1.0  T
  18   -453.6582195  0.132409E-02  0.198E-01    0.01       1.0  T
  19   -453.6701720 -0.119525E-01  0.154E-01    0.01       1.0  T
  20   -453.6879304 -0.177584E-01  0.858E-02    0.01       1.0  T
  21   -453.6924728 -0.454239E-02  0.640E-02    0.00       1.0  T
  22   -453.6851889  0.728383E-02  0.872E-02    0.01       1.0  T
  23   -453.6948140 -0.962506E-02  0.378E-02    0.00       1.0  T
  24   -453.6955874 -0.773434E-03  0.180E-02    0.01       1.0  T
  25   -453.6946028  0.984685E-03  0.304E-02    0.01       1.0  T
  26   -453.6956498 -0.104700E-02  0.127E-02    0.01       1.0  T
  27   -453.6957645 -0.114746E-03  0.914E-03    0.01       1.0  T
  28   -453.6958544 -0.899181E-04  0.601E-03    0.01       1.1  T
  29   -453.6958558 -0.134130E-05  0.595E-03    0.01       1.1  T
  30   -453.6958740 -0.182738E-04  0.406E-03    0.01       1.6  T
  31   -453.6958763 -0.221411E-05  0.389E-03    0.01       1.7  T
  32   -453.6958996 -0.233757E-04  0.132E-03    0.01       4.9  T
  33   -453.6958991  0.537070E-06  0.129E-03    0.01       5.0  T
  34   -453.6959008 -0.171512E-05  0.776E-04    0.01       8.3  T
  35   -453.6959012 -0.374402E-06  0.515E-04    0.01      12.5  T
  36   -453.6959013 -0.114080E-06  0.363E-04    0.01      17.7  T
     SCC iter.                  ...        0 min,  6.585 sec
     gradient                   ...        0 min,  0.393 sec
 * total energy  :  -445.4187390 Eh     change       -0.1217564E-01 Eh
   gradient norm :     0.0248174 Eh/α   predicted    -0.1146868E-01 (  -5.81%)
   displ. norm   :     0.9336276 α      lambda       -0.1314424E-01
   maximum displ.:     0.4885384 α      in ANC's #50, #46, #56, ...

........................................................................
.............................. CYCLE   14 ..............................
........................................................................
   1   -453.4918550 -0.453492E+03  0.519E-01    0.02       0.0  T
   2   -450.9271954  0.256466E+01  0.187E+00    0.25       1.0  T
   3   -452.3640597 -0.143686E+01  0.105E+00    0.17       1.0  T
   4   -453.0392548 -0.675195E+00  0.846E-01    0.04       1.0  T
   5   -453.0539760 -0.147212E-01  0.810E-01    0.05       1.0  T
   6   -452.7917255  0.262250E+00  0.754E-01    0.02       1.0  T
   7   -452.8177525 -0.260270E-01  0.780E-01    0.02       1.0  T
   8   -453.2293388 -0.411586E+00  0.608E-01    0.04       1.0  T
   9   -453.2513394 -0.220006E-01  0.593E-01    0.03       1.0  T
  10   -453.1411619  0.110177E+00  0.607E-01    0.03       1.0  T
  11   -453.5356990 -0.394537E+00  0.363E-01    0.00       1.0  T
  12   -453.4511724  0.845266E-01  0.450E-01    0.01       1.0  T
  13   -453.5260283 -0.748559E-01  0.366E-01    0.01       1.0  T
  14   -453.5984125 -0.723842E-01  0.285E-01    0.00       1.0  T
  15   -453.5986830 -0.270524E-03  0.310E-01    0.02       1.0  T
  16   -453.6556970 -0.570140E-01  0.237E-01    0.00       1.0  T
  17   -453.6664347 -0.107376E-01  0.211E-01    0.01       1.0  T
  18   -453.7025494 -0.361147E-01  0.122E-01    0.00       1.0  T
  19   -453.6956818  0.686761E-02  0.131E-01    0.00       1.0  T
  20   -453.7032666 -0.758483E-02  0.110E-01    0.00       1.0  T
  21   -453.7167676 -0.135010E-01  0.475E-02    0.01       1.0  T
  22   -453.7155567  0.121087E-02  0.480E-02    0.01       1.0  T
  23   -453.7168300 -0.127330E-02  0.425E-02    0.00       1.0  T
  24   -453.7165609  0.269167E-03  0.446E-02    0.00       1.0  T
  25   -453.7189054 -0.234454E-02  0.197E-02    0.01       1.0  T
  26   -453.7192547 -0.349248E-03  0.849E-03    0.01       1.0  T
  27   -453.7192268  0.279016E-04  0.851E-03    0.01       1.0  T
  28   -453.7191242  0.102535E-03  0.115E-02    0.01       1.0  T
  29   -453.7192836 -0.159354E-03  0.659E-03    0.01       1.0  T
  30   -453.7193172 -0.335809E-04  0.462E-03    0.01       1.4  T
  31   -453.7193405 -0.233502E-04  0.256E-03    0.01       2.5  T
  32   -453.7193280  0.125177E-04  0.379E-03    0.01       1.7  T
  33   -453.7193390 -0.109969E-04  0.285E-03    0.01       2.3  T
  34   -453.7193488 -0.976568E-05  0.148E-03    0.01       4.3  T
  35   -453.7193497 -0.967722E-06  0.101E-03    0.01       6.4  T
  36   -453.7193501 -0.407421E-06  0.783E-04    0.01       8.2  T
  37   -453.7193508 -0.718361E-06  0.389E-04    0.01      16.5  T
     SCC iter.                  ...        0 min,  6.772 sec
     gradient                   ...        0 min,  0.393 sec
 * total energy  :  -445.4316331 Eh     change       -0.1289417E-01 Eh
   gradient norm :     0.0245702 Eh/α   predicted    -0.1230080E-01 (  -4.60%)
   displ. norm   :     0.9667006 α      lambda       -0.1427276E-01
   maximum displ.:     0.4935586 α      in ANC's #50, #46, #35, ...

........................................................................
.............................. CYCLE   15 ..............................
........................................................................
   1   -453.5020415 -0.453502E+03  0.572E-01    0.00       0.0  T
   2   -450.8373222  0.266472E+01  0.193E+00    0.03       1.0  T
   3   -453.1107177 -0.227340E+01  0.883E-01    0.02       1.0  T
   4   -452.8584643  0.252253E+00  0.954E-01    0.06       1.0  T
   5   -452.4467863  0.411678E+00  0.953E-01    0.19       1.0  T
   6   -452.7960635 -0.349277E+00  0.759E-01    0.01       1.0  T
   7   -453.3392243 -0.543161E+00  0.514E-01    0.02       1.0  T
   8   -453.0346157  0.304609E+00  0.700E-01    0.04       1.0  T
   9   -453.0243060  0.103098E-01  0.687E-01    0.00       1.0  T
  10   -453.4797113 -0.455405E+00  0.521E-01    0.02       1.0  T
  11   -453.3988639  0.808474E-01  0.559E-01    0.02       1.0  T
  12   -453.5432808 -0.144417E+00  0.374E-01    0.01       1.0  T
  13   -453.5385369  0.474390E-02  0.370E-01    0.03       1.0  T
  14   -453.6401544 -0.101618E+00  0.299E-01    0.01       1.0  T
  15   -453.6851949 -0.450405E-01  0.235E-01    0.01       1.0  T
  16   -453.6896556 -0.446069E-02  0.228E-01    0.02       1.0  T
  17   -453.7026372 -0.129816E-01  0.161E-01    0.01       1.0  T
  18   -453.7431011 -0.404639E-01  0.587E-02    0.00       1.0  T
  19   -453.7447897 -0.168863E-02  0.429E-02    0.00       1.0  T
  20   -453.7428198  0.196987E-02  0.535E-02    0.00       1.0  T
  21   -453.7462530 -0.343312E-02  0.234E-02    0.00       1.0  T
  22   -453.7455804  0.672560E-03  0.297E-02    0.00       1.0  T
  23   -453.7458505 -0.270093E-03  0.258E-02    0.00       1.0  T
  24   -453.7467569 -0.906388E-03  0.107E-02    0.00       1.0  T
  25   -453.7468815 -0.124629E-03  0.735E-03    0.00       1.0  T
  26   -453.7469366 -0.550546E-04  0.359E-03    0.00       1.8  T
  27   -453.7469326  0.397295E-05  0.323E-03    0.00       2.0  T
  28   -453.7469461 -0.135169E-04  0.197E-03    0.00       3.3  T
  29   -453.7469503 -0.418254E-05  0.589E-04    0.00      10.9  T
  30   -453.7469505 -0.190187E-06  0.447E-04    0.00      14.4  T
  31   -453.7469503  0.196107E-06  0.507E-04    0.00      12.7  T
     SCC iter.                  ...        0 min,  5.677 sec
     gradient                   ...        0 min,  0.417 sec
 * total energy  :  -445.4459156 Eh     change       -0.1428243E-01 Eh
   gradient norm :     0.0259313 Eh/α   predicted    -0.1380540E-01 (  -3.34%)
   displ. norm   :     0.9592022 α      lambda       -0.1491636E-01
   maximum displ.:     0.4721678 α      in ANC's #50, #46, #35, ...

........................................................................
.............................. CYCLE   16 ..............................
........................................................................
   1   -453.5464049 -0.453546E+03  0.501E-01    0.00       0.0  T
   2   -450.9994660  0.254694E+01  0.182E+00    0.09       1.0  T
   3   -452.7606246 -0.176116E+01  0.102E+00    0.16       1.0  T
   4   -452.8433790 -0.827544E-01  0.970E-01    0.00       1.0  T
   5   -452.6677093  0.175670E+00  0.895E-01    0.10       1.0  T
   6   -453.0470801 -0.379371E+00  0.677E-01    0.06       1.0  T
   7   -453.3450654 -0.297985E+00  0.552E-01    0.04       1.0  T
   8   -453.2704475  0.746179E-01  0.629E-01    0.01       1.0  T
   9   -453.5431209 -0.272673E+00  0.394E-01    0.01       1.0  T
  10   -453.2022790  0.340842E+00  0.675E-01    0.09       1.0  T
  11   -453.3685385 -0.166260E+00  0.503E-01    0.01       1.0  T
  12   -453.5274959 -0.158957E+00  0.394E-01    0.02       1.0  T
  13   -453.6092494 -0.817534E-01  0.307E-01    0.02       1.0  T
  14   -453.6626994 -0.534500E-01  0.274E-01    0.02       1.0  T
  15   -453.5991003  0.635991E-01  0.316E-01    0.02       1.0  T
  16   -453.5112632  0.878371E-01  0.369E-01    0.01       1.0  T
  17   -453.6890107 -0.177748E+00  0.207E-01    0.00       1.0  T
  18   -453.7311919 -0.421812E-01  0.856E-02    0.01       1.0  T
  19   -453.7249301  0.626183E-02  0.109E-01    0.00       1.0  T
  20   -453.7282149 -0.328477E-02  0.881E-02    0.00       1.0  T
  21   -453.7332839 -0.506907E-02  0.722E-02    0.00       1.0  T
  22   -453.7382468 -0.496290E-02  0.423E-02    0.00       1.0  T
  23   -453.7395657 -0.131884E-02  0.294E-02    0.00       1.0  T
  24   -453.7410111 -0.144546E-02  0.122E-02    0.00       1.0  T
  25   -453.7410587 -0.475886E-04  0.102E-02    0.00       1.0  T
  26   -453.7411319 -0.732303E-04  0.544E-03    0.00       1.2  T
  27   -453.7411495 -0.175285E-04  0.455E-03    0.00       1.4  T
  28   -453.7411802 -0.306863E-04  0.216E-03    0.00       3.0  T
  29   -453.7411823 -0.217436E-05  0.175E-03    0.00       3.7  T
  30   -453.7411833 -0.100207E-05  0.131E-03    0.00       4.9  T
  31   -453.7411806  0.272353E-05  0.181E-03    0.00       3.5  T
  32   -453.7411851 -0.453912E-05  0.913E-04    0.00       7.0  T
  33   -453.7411866 -0.141835E-05  0.247E-04    0.00      26.1  T
  34   -453.7411866 -0.487152E-07  0.161E-04    0.00      39.8  T
  35   -453.7411866 -0.258847E-07  0.877E-05    0.00      73.3  T
     SCC iter.                  ...        0 min,  6.485 sec
     gradient                   ...        0 min,  0.393 sec
 * total energy  :  -445.4614173 Eh     change       -0.1550172E-01 Eh
   gradient norm :     0.0320385 Eh/α   predicted    -0.1432025E-01 (  -7.62%)
   displ. norm   :     0.9370236 α      lambda       -0.1671390E-01
   maximum displ.:     0.4211159 α      in ANC's #50, #46, #35, ...

........................................................................
.............................. CYCLE   17 ..............................
........................................................................
   1   -453.5823868 -0.453582E+03  0.468E-01    0.00       0.0  T
   2   -449.2130093  0.436938E+01  0.276E+00    0.03       1.0  T
   3   -452.6543416 -0.344133E+01  0.109E+00    0.11       1.0  T
   4   -452.5128122  0.141529E+00  0.112E+00    0.21       1.0  T
   5   -453.2632685 -0.750456E+00  0.648E-01    0.01       1.0  T
   6   -452.6754946  0.587774E+00  0.851E-01    0.13       1.0  T
   7   -452.7961124 -0.120618E+00  0.791E-01    0.04       1.0  T
   8   -453.1597043 -0.363592E+00  0.643E-01    0.01       1.0  T
   9   -453.2195380 -0.598336E-01  0.699E-01    0.06       1.0  T
  10   -453.2017780  0.177600E-01  0.578E-01    0.01       1.0  T
  11   -453.1054999  0.962781E-01  0.665E-01    0.06       1.0  T
  12   -453.5428544 -0.437354E+00  0.374E-01    0.01       1.0  T
  13   -453.6855123 -0.142658E+00  0.232E-01    0.01       1.0  T
  14   -453.6234071  0.621052E-01  0.283E-01    0.01       1.0  T
  15   -453.7092659 -0.858588E-01  0.173E-01    0.00       1.0  T
  16   -453.6980399  0.112260E-01  0.187E-01    0.00       1.0  T
  17   -453.7396996 -0.416597E-01  0.978E-02    0.00       1.0  T
  18   -453.7400187 -0.319084E-03  0.849E-02    0.00       1.0  T
  19   -453.7465191 -0.650042E-02  0.550E-02    0.00       1.0  T
  20   -453.7473400 -0.820885E-03  0.494E-02    0.00       1.0  T
  21   -453.7499705 -0.263049E-02  0.260E-02    0.00       1.0  T
  22   -453.7485139  0.145658E-02  0.385E-02    0.00       1.0  T
  23   -453.7495449 -0.103098E-02  0.290E-02    0.00       1.0  T
  24   -453.7503745 -0.829600E-03  0.159E-02    0.00       1.0  T
  25   -453.7499580  0.416493E-03  0.203E-02    0.00       1.0  T
  26   -453.7504423 -0.484329E-03  0.140E-02    0.00       1.0  T
  27   -453.7506561 -0.213756E-03  0.916E-03    0.00       1.0  T
  28   -453.7506776 -0.215773E-04  0.797E-03    0.00       1.0  T
  29   -453.7507222 -0.445179E-04  0.582E-03    0.00       1.1  T
  30   -453.7507220  0.143692E-06  0.562E-03    0.00       1.1  T
  31   -453.7507432 -0.212387E-04  0.385E-03    0.00       1.7  T
  32   -453.7507592 -0.159061E-04  0.240E-03    0.00       2.7  T
  33   -453.7507613 -0.217734E-05  0.174E-03    0.00       3.7  T
  34   -453.7507613  0.354214E-07  0.156E-03    0.00       4.1  T
  35   -453.7507630 -0.167149E-05  0.125E-03    0.00       5.1  T
  36   -453.7507655 -0.249898E-05  0.580E-04    0.00      11.1  T
  37   -453.7507657 -0.194437E-06  0.472E-04    0.00      13.6  T
  38   -453.7507658 -0.140805E-06  0.248E-04    0.00      25.9  T
     SCC iter.                  ...        0 min,  6.961 sec
     gradient                   ...        0 min,  0.393 sec
 * total energy  :  -445.4796347 Eh     change       -0.1821745E-01 Eh
   gradient norm :     0.0432025 Eh/α   predicted    -0.1569447E-01 ( -13.85%)
   displ. norm   :     0.8978869 α      lambda       -0.2081713E-01
   maximum displ.:     0.3506533 α      in ANC's #50, #46, #35, ...

........................................................................
.............................. CYCLE   18 ..............................
........................................................................
   1   -453.5892809 -0.453589E+03  0.438E-01    0.01       0.0  T
   2   -427.6433036  0.259460E+02  0.594E+00    0.04       1.0  T
   3   -452.4551507 -0.248118E+02  0.123E+00    0.16       1.0  T
   4   -452.6991492 -0.243998E+00  0.922E-01    0.00       1.0  T
   5   -452.9025062 -0.203357E+00  0.784E-01    0.10       1.0  T
   6   -452.6883104  0.214196E+00  0.851E-01    0.09       1.0  T
   7   -453.2559793 -0.567669E+00  0.635E-01    0.02       1.0  T
   8   -453.0742979  0.181681E+00  0.678E-01    0.05       1.0  T
   9   -453.2072050 -0.132907E+00  0.674E-01    0.03       1.0  T
  10   -453.3848288 -0.177624E+00  0.549E-01    0.01       1.0  T
  11   -452.8376843  0.547144E+00  0.688E-01    0.04       1.0  T
  12   -453.5475054 -0.709821E+00  0.365E-01    0.01       1.0  T
  13   -453.6263786 -0.788731E-01  0.282E-01    0.00       1.0  T
  14   -453.6865456 -0.601670E-01  0.225E-01    0.00       1.0  T
  15   -453.6901360 -0.359042E-02  0.217E-01    0.01       1.0  T
  16   -453.7055893 -0.154533E-01  0.167E-01    0.00       1.0  T
  17   -453.7389550 -0.333657E-01  0.897E-02    0.00       1.0  T
  18   -453.6909632  0.479918E-01  0.187E-01    0.01       1.0  T
  19   -453.7452747 -0.543115E-01  0.601E-02    0.00       1.0  T
  20   -453.7432544  0.202026E-02  0.657E-02    0.00       1.0  T
  21   -453.7457464 -0.249197E-02  0.482E-02    0.00       1.0  T
  22   -453.7445225  0.122389E-02  0.453E-02    0.01       1.0  T
  23   -453.7455734 -0.105085E-02  0.394E-02    0.00       1.0  T
  24   -453.7463592 -0.785842E-03  0.309E-02    0.00       1.0  T
  25   -453.7450704  0.128881E-02  0.405E-02    0.01       1.0  T
  26   -453.7463393 -0.126886E-02  0.285E-02    0.00       1.0  T
  27   -453.7471041 -0.764842E-03  0.227E-02    0.00       1.0  T
  28   -453.7475815 -0.477359E-03  0.162E-02    0.00       1.0  T
  29   -453.7475557  0.257251E-04  0.160E-02    0.00       1.0  T
  30   -453.7476790 -0.123231E-03  0.120E-02    0.00       1.0  T
  31   -453.7477689 -0.899600E-04  0.880E-03    0.00       1.0  T
  32   -453.7477843 -0.153585E-04  0.699E-03    0.00       1.0  T
  33   -453.7478349 -0.506027E-04  0.574E-03    0.00       1.1  T
  34   -453.7478649 -0.300472E-04  0.326E-03    0.00       2.0  T
  35   -453.7478665 -0.155335E-05  0.300E-03    0.00       2.1  T
  36   -453.7478748 -0.829766E-05  0.135E-03    0.00       4.8  T
  37   -453.7478746  0.145209E-06  0.939E-04    0.00       6.8  T
  38   -453.7478745  0.145560E-06  0.950E-04    0.00       6.8  T
     SCC iter.                  ...        0 min,  7.044 sec
     gradient                   ...        0 min,  0.392 sec
 * total energy  :  -445.5040259 Eh     change       -0.2439117E-01 Eh
   gradient norm :     0.0634099 Eh/α   predicted    -0.1879997E-01 ( -22.92%)
   displ. norm   :     0.8431147 α      lambda       -0.3085505E-01
   maximum displ.:     0.2874129 α      in ANC's #35, #34, #46, ...

........................................................................
.............................. CYCLE   19 ..............................
........................................................................
   1   -453.5694406 -0.453569E+03  0.431E-01    0.00       0.0  T
   2   -420.0581779  0.335113E+02  0.612E+00    0.00       1.0  T
   3   -452.4467746 -0.323886E+02  0.120E+00    0.27       1.0  T
   4   -452.4689549 -0.221803E-01  0.896E-01    0.05       1.0  T
   5   -452.9105001 -0.441545E+00  0.812E-01    0.12       1.0  T
   6   -453.1653727 -0.254873E+00  0.645E-01    0.04       1.0  T
   7   -453.2823559 -0.116983E+00  0.596E-01    0.00       1.0  T
   8   -453.3039541 -0.215982E-01  0.641E-01    0.02       1.0  T
   9   -453.2030416  0.100912E+00  0.701E-01    0.07       1.0  T
  10   -452.8263045  0.376737E+00  0.738E-01    0.08       1.0  T
  11   -453.3252188 -0.498914E+00  0.583E-01    0.02       1.0  T
  12   -453.4166090 -0.913903E-01  0.509E-01    0.02       1.0  T
  13   -453.5546659 -0.138057E+00  0.351E-01    0.00       1.0  T
  14   -453.7333057 -0.178640E+00  0.130E-01    0.00       1.0  T
  15   -453.7103807  0.229251E-01  0.175E-01    0.01       1.0  T
  16   -453.7207950 -0.104143E-01  0.163E-01    0.00       1.0  T
  17   -453.7169861  0.380891E-02  0.178E-01    0.01       1.0  T
  18   -453.6989038  0.180823E-01  0.205E-01    0.01       1.0  T
  19   -453.7403276 -0.414238E-01  0.103E-01    0.00       1.0  T
  20   -453.7440423 -0.371466E-02  0.815E-02    0.00       1.0  T
  21   -453.7497134 -0.567109E-02  0.515E-02    0.01       1.0  T
  22   -453.7529426 -0.322921E-02  0.106E-02    0.00       1.0  T
  23   -453.7527622  0.180376E-03  0.153E-02    0.00       1.0  T
  24   -453.7528126 -0.504040E-04  0.143E-02    0.00       1.0  T
  25   -453.7529846 -0.172009E-03  0.771E-03    0.00       1.0  T
  26   -453.7530213 -0.366963E-04  0.630E-03    0.00       1.0  T
  27   -453.7530474 -0.261317E-04  0.430E-03    0.00       1.5  T
  28   -453.7530587 -0.113139E-04  0.303E-03    0.00       2.1  T
  29   -453.7530591 -0.306871E-06  0.301E-03    0.00       2.1  T
  30   -453.7530664 -0.735100E-05  0.190E-03    0.00       3.4  T
  31   -453.7530640  0.244752E-05  0.215E-03    0.00       3.0  T
  32   -453.7530673 -0.329529E-05  0.169E-03    0.00       3.8  T
  33   -453.7530684 -0.112453E-05  0.144E-03    0.00       4.5  T
  34   -453.7530686 -0.233278E-06  0.135E-03    0.00       4.8  T
  35   -453.7530697 -0.110315E-05  0.106E-03    0.00       6.0  T
  36   -453.7530707 -0.976329E-06  0.631E-04    0.00      10.2  T
  37   -453.7530708 -0.132639E-06  0.537E-04    0.00      12.0  T
     SCC iter.                  ...        0 min,  6.786 sec
     gradient                   ...        0 min,  0.392 sec
 * total energy  :  -445.5392646 Eh     change       -0.3523871E-01 Eh
   gradient norm :     0.0822188 Eh/α   predicted    -0.2639407E-01 ( -25.10%)
   displ. norm   :     0.8262907 α      lambda       -0.3961581E-01
   maximum displ.:     0.2752280 α      in ANC's #35, #34, #22, ...

........................................................................
.............................. CYCLE   20 ..............................
........................................................................
   1   -453.6141683 -0.453614E+03  0.359E-01    0.00       0.0  T
   2   -423.4200743  0.301941E+02  0.603E+00    0.08       1.0  T
   3   -452.4401003 -0.290200E+02  0.120E+00    0.30       1.0  T
   4   -452.7443829 -0.304283E+00  0.808E-01    0.01       1.0  T
   5   -452.9416755 -0.197293E+00  0.789E-01    0.10       1.0  T
   6   -453.3644698 -0.422794E+00  0.574E-01    0.01       1.0  T
   7   -453.3471415  0.173283E-01  0.532E-01    0.03       1.0  T
   8   -453.1690195  0.178122E+00  0.685E-01    0.03       1.0  T
   9   -452.7012694  0.467750E+00  0.803E-01    0.10       1.0  T
  10   -453.2532547 -0.551985E+00  0.639E-01    0.02       1.0  T
  11   -453.2085723  0.446824E-01  0.691E-01    0.04       1.0  T
  12   -453.4628500 -0.254278E+00  0.474E-01    0.01       1.0  T
  13   -453.5288420 -0.659920E-01  0.395E-01    0.02       1.0  T
  14   -453.6364749 -0.107633E+00  0.277E-01    0.02       1.0  T
  15   -453.6166867  0.197882E-01  0.326E-01    0.00       1.0  T
  16   -453.7049679 -0.882812E-01  0.181E-01    0.00       1.0  T
  17   -453.6872564  0.177115E-01  0.227E-01    0.01       1.0  T
  18   -453.7386968 -0.514404E-01  0.941E-02    0.00       1.0  T
  19   -453.7440094 -0.531262E-02  0.642E-02    0.00       1.0  T
  20   -453.7399092  0.410022E-02  0.878E-02    0.01       1.0  T
  21   -453.7475291 -0.761994E-02  0.350E-02    0.00       1.0  T
  22   -453.7488040 -0.127491E-02  0.172E-02    0.00       1.0  T
  23   -453.7486788  0.125282E-03  0.174E-02    0.00       1.0  T
  24   -453.7486739  0.485946E-05  0.204E-02    0.00       1.0  T
  25   -453.7485932  0.806536E-04  0.200E-02    0.00       1.0  T
  26   -453.7488226 -0.229314E-03  0.154E-02    0.00       1.0  T
  27   -453.7489667 -0.144168E-03  0.116E-02    0.00       1.0  T
  28   -453.7489662  0.568463E-06  0.118E-02    0.00       1.0  T
  29   -453.7490058 -0.396804E-04  0.103E-02    0.00       1.0  T
  30   -453.7490699 -0.640187E-04  0.786E-03    0.00       1.0  T
  31   -453.7491063 -0.364776E-04  0.540E-03    0.00       1.2  T
  32   -453.7491360 -0.296348E-04  0.239E-03    0.00       2.7  T
  33   -453.7491303  0.562423E-05  0.280E-03    0.00       2.3  T
  34   -453.7491333 -0.300739E-05  0.247E-03    0.00       2.6  T
  35   -453.7491384 -0.506546E-05  0.164E-03    0.00       3.9  T
  36   -453.7491387 -0.298841E-06  0.137E-03    0.00       4.7  T
  37   -453.7491405 -0.176694E-05  0.762E-04    0.00       8.4  T
  38   -453.7491408 -0.286431E-06  0.597E-04    0.00      10.8  T
  39   -453.7491411 -0.324703E-06  0.385E-04    0.00      16.7  T
     SCC iter.                  ...        0 min,  7.229 sec
     gradient                   ...        0 min,  0.392 sec
 * total energy  :  -445.5808652 Eh     change       -0.4160059E-01 Eh
   gradient norm :     0.0877022 Eh/α   predicted    -0.3333191E-01 ( -19.88%)
   displ. norm   :     0.8327627 α      lambda       -0.4253606E-01
   maximum displ.:     0.2886273 α      in ANC's #35, #22, #34, ...
 * RMSD in coord.:     0.8100147 α      energy gain  -0.1900050E+01 Eh

generating ANC from model Hessian ...
Using Lindh-Hessian (1995)
 Shifting diagonal of input Hessian by    1.0036934400138193E-002
 Lowest  eigenvalues of input Hessian
    0.010000    0.010005    0.010011    0.010014    0.010023    0.010024
    0.010025    0.010026    0.010029    0.010030    0.010031    0.010032
    0.010034    0.010035    0.010036    0.000000    0.000000    0.000000
 Highest eigenvalues
    2.731852    2.753448    2.825993    3.067024    3.070728    3.096287


........................................................................
.............................. CYCLE   21 ..............................
........................................................................
   1   -453.6545072 -0.453655E+03  0.319E-01    0.01       0.0  T
   2   -428.2717892  0.253827E+02  0.590E+00    0.11       1.0  T
   3   -452.4578339 -0.241860E+02  0.118E+00    0.33       1.0  T
   4   -452.9190477 -0.461214E+00  0.801E-01    0.06       1.0  T
   5   -453.2292779 -0.310230E+00  0.649E-01    0.02       1.0  T
   6   -452.9080010  0.321277E+00  0.763E-01    0.06       1.0  T
   7   -453.3810768 -0.473076E+00  0.557E-01    0.00       1.0  T
   8   -453.1482704  0.232806E+00  0.717E-01    0.06       1.0  T
   9   -453.2536973 -0.105427E+00  0.627E-01    0.06       1.0  T
  10   -453.1547376  0.989597E-01  0.662E-01    0.01       1.0  T
  11   -453.4450554 -0.290318E+00  0.467E-01    0.03       1.0  T
  12   -453.4178610  0.271943E-01  0.466E-01    0.00       1.0  T
  13   -453.6372416 -0.219381E+00  0.310E-01    0.01       1.0  T
  14   -453.6136216  0.236200E-01  0.331E-01    0.00       1.0  T
  15   -453.6949173 -0.812957E-01  0.226E-01    0.03       1.0  T
  16   -453.7295332 -0.346159E-01  0.136E-01    0.00       1.0  T
  17   -453.7245817  0.495153E-02  0.160E-01    0.01       1.0  T
  18   -453.7318687 -0.728704E-02  0.125E-01    0.01       1.0  T
  19   -453.7282829  0.358589E-02  0.141E-01    0.00       1.0  T
  20   -453.7489308 -0.206480E-01  0.551E-02    0.00       1.0  T
  21   -453.7525116 -0.358075E-02  0.274E-02    0.00       1.0  T
  22   -453.7531762 -0.664681E-03  0.143E-02    0.00       1.0  T
  23   -453.7526818  0.494482E-03  0.222E-02    0.00       1.0  T
  24   -453.7531374 -0.455601E-03  0.125E-02    0.00       1.0  T
  25   -453.7531868 -0.494181E-04  0.108E-02    0.00       1.0  T
  26   -453.7532044 -0.175711E-04  0.925E-03    0.00       1.0  T
  27   -453.7532442 -0.398861E-04  0.816E-03    0.00       1.0  T
  28   -453.7532454 -0.113434E-05  0.751E-03    0.00       1.0  T
  29   -453.7532545 -0.916659E-05  0.706E-03    0.00       1.0  T
  30   -453.7532793 -0.247556E-04  0.558E-03    0.00       1.2  T
  31   -453.7533043 -0.250100E-04  0.362E-03    0.00       1.8  T
  32   -453.7533076 -0.324670E-05  0.276E-03    0.00       2.3  T
  33   -453.7533116 -0.401932E-05  0.190E-03    0.00       3.4  T
  34   -453.7533126 -0.102861E-05  0.136E-03    0.00       4.7  T
  35   -453.7533135 -0.909317E-06  0.976E-04    0.00       6.6  T
  36   -453.7533138 -0.239472E-06  0.681E-04    0.00       9.4  T
     SCC iter.                  ...        0 min,  6.674 sec
     gradient                   ...        0 min,  0.392 sec
 * total energy  :  -445.6186443 Eh     change       -0.3777912E-01 Eh
   gradient norm :     0.0727684 Eh/α   predicted     0.0000000E+00 (-100.00%)
   displ. norm   :     0.7208945 α      lambda       -0.3207613E-01
   maximum displ.:     0.2451646 α      in ANC's #39, #44, #41, ...

........................................................................
[...]
 249:  0.00 250:  0.00 251:  0.00 252:  0.00 253:  0.00 254:  0.00 255:  0.00 256:  0.00
 257:  0.00 258:  0.00 259:  0.00 260:  0.00 261:  0.00 262:  0.00 263:  0.00 264:  0.00
 265:  0.00 266:  0.00 267:  0.00 268:  0.00 269:  0.00 270:  0.00 271:  0.00 272:  0.00
 273:  0.00 274:  0.00 275:  0.00 276:  0.00 277:  0.00 278:  0.00 279:  0.00 280:  0.00
 281:  0.00 282:  0.00 283:  0.00 284:  0.00 285:  0.00 286:  0.00 287:  0.00 288:  0.00
 289:  0.00 290:  0.00 291:  0.00 292:  0.00 293:  0.00 294:  0.00 295:  0.00 296:  0.00
 297:  0.00 298:  0.00 299:  0.00 300:  0.00 301:  0.00 302:  0.00 303:  0.00 304:  0.00
 305:  0.00 306:  0.00 307:  0.00 308:  0.00 309:  0.00 310:  0.00 311:  0.00 312:  0.00
 313:  0.00 314:  0.00 315:  0.00 316:  0.00 317:  0.00 318:  0.00 319:  0.00 320:  0.00
 321:  0.00 322:  0.00 323:  0.00 324:  0.00 325:  0.00 326:  0.00 327:  0.00 328:  0.00
 329:  0.00 330:  0.00 331:  0.00 332:  0.00 333:  0.00 334:  0.00 335:  0.00 336:  0.00
 337:  0.00 338:  0.00 339:  0.00 340:  0.00 341:  0.00 342:  0.00 343:  0.00 344:  0.00
 345:  0.00 346:  0.00 347:  0.00 348:  0.00 349:  0.00 350:  0.00 351:  0.00 352:  0.00
 353:  0.00 354:  0.00 355:  0.00 356:  0.00 357:  0.00 358:  0.00 359:  0.00 360:  0.00
 361:  0.00 362:  0.00 363:  0.00 364:  0.00 365:  0.00 366:  0.00 367:  0.00 368:  0.00
 369:  0.00 370:  0.00 371:  0.00 372:  0.00 373:  0.00 374:  0.00 375:  0.00 376:  0.00
 377:  0.00 378:  0.00 379:  0.00 380:  0.00 381:  0.00 382:  0.00 383:  0.00 384:  0.00
 385:  0.00 386:  0.00 387:  0.00 388:  0.00 389:  0.00 390:  0.00 391:  0.00 392:  0.00
 393:  0.00 394:  0.00 395:  0.00 396:  0.00 397:  0.00 398:  0.00 399:  0.00 400:  0.00
 401:  0.00 402:  0.00 403:  0.00 404:  0.00 405:  0.00 406:  0.00 407:  0.00 408:  0.00
 409:  0.00 410:  0.00 411:  0.00 412:  0.00 413:  0.00 414:  0.00 415:  0.00 416:  0.00
 417:  0.00 418:  0.00 419:  0.00 420:  0.00 421:  0.00 422:  0.00 423:  0.00 424:  0.00
 425:  0.00 426:  0.00 427:  0.00 428:  0.00 429:  0.00 430:  0.00 431:  0.00 432:  0.00
 433:  0.00 434:  0.00 435:  0.00 436:  0.00 437:  0.00 438:  0.00 439:  0.00 440:  0.00
 441:  0.00 442:  0.00 443:  0.00 444:  0.00 445:  0.00 446:  0.00 447:  0.00 448:  0.00
 449:  0.00 450:  0.00 451:  0.00 452:  0.00 453:  0.00 454:  0.00 455:  0.00 456:  0.00
 457:  0.00 458:  0.00 459:  0.00 460:  0.00 461:  0.00 462:  0.00 463:  0.00 464:  0.00
 465:  0.00 466:  0.00 467:  0.00 468:  0.00 469:  0.00 470:  0.00 471:  0.00 472:  0.00
 473:  0.00 474:  0.00 475:  0.00 476:  0.00 477:  0.00 478:  0.00 479:  0.00 480:  0.00
 481:  0.00 482:  0.00 483:  0.00 484:  0.00 485:  0.00 486:  0.00 487:  0.00 488:  0.00
 489:  0.00 490:  0.00 491:  0.00 492:  0.00 493:  0.00 494:  0.00 495:  0.00 496:  0.00
 497:  0.00 498:  0.00 499:  0.00 500:  0.00 501:  0.00 502:  0.00 503:  0.00 504:  0.00
 505:  0.00 506:  0.00 507:  0.00 508:  0.00 509:  0.00 510:  0.00 511:  0.00 512:  0.00
 513:  0.00 514:  0.00 515:  0.00 516:  0.00 517:  0.00 518:  0.00 519:  0.00 520:  0.00
 521:  0.00 522:  0.00 523:  0.00 524:  0.00 525:  0.00 526:  0.00 527:  0.00 528:  0.00
 529:  0.00 530:  0.00 531:  0.00 532:  0.00 533:  0.00 534:  0.00 535:  0.00 536:  0.00
 537:  0.00 538:  0.00 539:  0.00 540:  0.00 541:  0.00 542:  0.00 543:  0.00 544:  0.00
 545:  0.00 546:  0.00 547:  0.00 548:  0.00 549:  0.00 550:  0.00 551:  0.00 552:  0.00
 553:  0.00 554:  0.00 555:  0.00 556:  0.00 557:  0.00 558:  0.00 559:  0.00 560:  0.00
 561:  0.00 562:  0.00 563:  0.00 564:  0.00 565:  0.00 566:  0.00 567:  0.00 568:  0.00
 569:  0.00 570:  0.00 571:  0.00 572:  0.00 573:  0.00 574:  0.00 575:  0.00 576:  0.00
 577:  0.00 578:  0.00 579:  0.00 580:  0.00 581:  0.00 582:  0.00 583:  0.00 584:  0.00
 585:  0.00 586:  0.00 587:  0.00 588:  0.00 589:  0.00 590:  0.00 591:  0.00 592:  0.00
 593:  0.00 594:  0.00 595:  0.00 596:  0.00 597:  0.00 598:  0.00 599:  0.00 600:  0.00
 601:  0.00 602:  0.00 603:  0.00 604:  0.00 605:  0.00 606:  0.00 607:  0.00 608:  0.00
 609:  0.00 610:  0.00 611:  0.00 612:  0.00 613:  0.00 614:  0.00 615:  0.00 616:  0.00
 617:  0.00 618:  0.00 619:  0.00 620:  0.00 621:  0.00 622:  0.00 623:  0.00 624:  0.00
 625:  0.00 626:  0.00 627:  0.00 628:  0.00 629:  0.00 630:  0.00 631:  0.00 632:  0.00
 633:  0.00 634:  0.00 635:  0.00 636:  0.00 637:  0.00 638:  0.00 639:  0.00 640:  0.00
 641:  0.00 642:  0.00 643:  0.00 644:  0.00 645:  0.00 646:  0.00 647:  0.00 648:  0.00
 649:  0.00 650:  0.00 651:  0.00 652:  0.00 653:  0.00 654:  0.00 655:  0.00 656:  0.00
 657:  0.00 658:  0.00 659:  0.00 660:  0.00 661:  0.00 662:  0.00 663:  0.00 664:  0.00
 665:  0.00 666:  0.00 667:  0.00 668:  0.00 669:  0.00 670:  0.00 671:  0.00 672:  0.00
 673:  0.00 674:  0.00 675:  0.00 676:  0.00 677:  0.00 678:  0.00 679:  0.00 680:  0.00
 681:  0.00 682:  0.00 683:  0.00 684:  0.00 685:  0.00 686:  0.00 687:  0.00 688:  0.00
 689:  0.00 690:  0.00 691:  0.00 692:  0.00 693:  0.00 694:  0.00 695:  0.00 696:  0.00
 697:  0.00 698:  0.00 699:  0.00 700:  0.00 701:  0.00 702:  0.00 703:  0.00 704:  0.00
 705:  0.00 706:  0.00 707:  0.00 708:  0.00 709:  0.00 710:  0.00 711:  0.00 712:  0.00
 713:  0.00 714:  0.00 715:  0.00 716:  0.00 717:  0.00 718:  0.00 719:  0.00 720:  0.00
 721:  0.00 722:  0.00 723:  0.00 724:  0.00 725:  0.00 726:  0.00
 output can be read by thermo (or use thermo option).
 writing <g98.out> molden fake output.
 recommended (thermochemical) frequency scaling factor: 1.0
           -------------------------------------------------
          |             Thermodynamic Functions             |
           -------------------------------------------------
 symmetry recognition skipped because # atoms >         200
 inverting freq            2   7.4848528430469186     
 inverting freq            3   3.7715767585375852     
 inverting freq            4   2.3378869646378071     

          ...................................................
          :                      SETUP                      :
          :.................................................:
          :  # frequencies                         715      :
          :  # imaginary freq.                       1      :
          :  linear?                             false      :
          :  only rotor calc.                    false      :
          :  symmetry                               C1      :
          :  rotational number                       1      :
          :  scaling factor                  1.0000000      :
          :  rotor cutoff                   50.0000000 cm⁻¹ :
          :  imag. cutoff                  -20.0000000 cm⁻¹ :
          :.................................................:

    mode    ω/cm⁻¹     T·S(HO)/kcal·mol⁻¹    T·S(FR)/kcal·mol⁻¹   T·S(vib)
   ------------------------------------------------------------------------
       1      7.48    -2.56011 (  0.05%)    -1.61916 ( 99.95%)    -1.61963
       2      3.77    -2.96617 (  0.00%)    -1.82220 (100.00%)    -1.82223
       3      2.34    -3.24952 (  0.00%)    -1.96387 (100.00%)    -1.96388
       4      1.72    -3.43218 (  0.00%)    -2.05520 (100.00%)    -2.05521
       5      1.93    -3.36338 (  0.00%)    -2.02081 (100.00%)    -2.02081
       6      2.93    -3.11486 (  0.00%)    -1.89654 (100.00%)    -1.89656
       7      3.09    -3.08383 (  0.00%)    -1.88103 (100.00%)    -1.88104
       8      5.28    -2.76639 (  0.01%)    -1.72230 ( 99.99%)    -1.72243
       9      7.23    -2.58066 (  0.04%)    -1.62943 ( 99.96%)    -1.62985
      10      7.57    -2.55354 (  0.05%)    -1.61587 ( 99.95%)    -1.61636
      11      8.33    -2.49649 (  0.08%)    -1.58734 ( 99.92%)    -1.58804
      12     11.09    -2.32697 (  0.24%)    -1.50257 ( 99.76%)    -1.50456
      13     14.18    -2.18164 (  0.64%)    -1.42988 ( 99.36%)    -1.43471
      14     14.68    -2.16100 (  0.74%)    -1.41956 ( 99.26%)    -1.42503
      15     17.64    -2.05236 (  1.53%)    -1.36521 ( 98.47%)    -1.37569
      16     18.88    -2.01212 (  1.99%)    -1.34507 ( 98.01%)    -1.35836
      17     20.00    -1.97795 (  2.50%)    -1.32797 ( 97.50%)    -1.34420
      18     21.73    -1.92900 (  3.44%)    -1.30348 ( 96.56%)    -1.32501
      19     23.46    -1.88347 (  4.62%)    -1.28069 ( 95.38%)    -1.30857
      20     25.63    -1.83108 (  6.46%)    -1.25447 ( 93.54%)    -1.29173
      21     27.39    -1.79185 (  8.26%)    -1.23483 ( 91.74%)    -1.28085
      22     29.05    -1.75709 ( 10.23%)    -1.21742 ( 89.77%)    -1.27262
      23     31.84    -1.70284 ( 14.12%)    -1.19024 ( 85.88%)    -1.26263
      24     36.64    -1.61981 ( 22.39%)    -1.14863 ( 77.61%)    -1.25411
      25     36.79    -1.61741 ( 22.67%)    -1.14744 ( 77.33%)    -1.25397
      26     36.91    -1.61550 ( 22.90%)    -1.14648 ( 77.10%)    -1.25386
      27     37.09    -1.61263 ( 23.24%)    -1.14503 ( 76.76%)    -1.25371
      28     37.27    -1.60980 ( 23.58%)    -1.14362 ( 76.42%)    -1.25356
      29     38.19    -1.59542 ( 25.38%)    -1.13641 ( 74.62%)    -1.25292
      30     38.23    -1.59466 ( 25.48%)    -1.13603 ( 74.52%)    -1.25289
      31     41.57    -1.54520 ( 32.34%)    -1.11122 ( 67.66%)    -1.25157
      32     42.58    -1.53112 ( 34.46%)    -1.10416 ( 65.54%)    -1.25129
      33     48.52    -1.45399 ( 47.00%)    -1.06544 ( 53.00%)    -1.24807
      34     53.71    -1.39411 ( 57.11%)    -1.03534 ( 42.89%)    -1.24024
      35     61.99    -1.30974 ( 70.26%)    -0.99289 ( 29.74%)    -1.21550
      36     62.61    -1.30388 ( 71.08%)    -0.98993 ( 28.92%)    -1.21310
      37     68.78    -1.24860 ( 78.17%)    -0.96206 ( 21.83%)    -1.18606
      38     74.12    -1.20474 ( 82.85%)    -0.93991 ( 17.15%)    -1.15932
      39     77.35    -1.17982 ( 85.13%)    -0.92731 ( 14.87%)    -1.14227
      40     78.67    -1.16988 ( 85.97%)    -0.92229 ( 14.03%)    -1.13515
      41     82.77    -1.14014 ( 88.25%)    -0.90723 ( 11.75%)    -1.11277
      42     84.15    -1.13051 ( 88.92%)    -0.90235 ( 11.08%)    -1.10522
      43     84.36    -1.12905 ( 89.01%)    -0.90160 ( 10.99%)    -1.10406
      44     85.60    -1.12050 ( 89.57%)    -0.89727 ( 10.43%)    -1.09723
      45     85.68    -1.11994 ( 89.61%)    -0.89698 ( 10.39%)    -1.09677
      46     87.56    -1.10730 ( 90.39%)    -0.89058 (  9.61%)    -1.08647
      47     87.87    -1.10523 ( 90.51%)    -0.88952 (  9.49%)    -1.08476
      48     90.49    -1.08810 ( 91.47%)    -0.88082 (  8.53%)    -1.07042
      49     91.74    -1.08007 ( 91.89%)    -0.87674 (  8.11%)    -1.06358
      50     93.48    -1.06916 ( 92.43%)    -0.87120 (  7.57%)    -1.05418
      51     95.08    -1.05928 ( 92.89%)    -0.86617 (  7.11%)    -1.04555
      52     97.90    -1.04224 ( 93.63%)    -0.85750 (  6.37%)    -1.03048
      53    104.14    -1.00632 ( 94.96%)    -0.83918 (  5.04%)    -0.99789
      54    107.20    -0.98953 ( 95.48%)    -0.83060 (  4.52%)    -0.98235
      55    113.39    -0.95709 ( 96.36%)    -0.81400 (  3.64%)    -0.95188
      56    115.18    -0.94803 ( 96.57%)    -0.80935 (  3.43%)    -0.94328
      57    116.19    -0.94297 ( 96.68%)    -0.80675 (  3.32%)    -0.93845
      58    116.26    -0.94261 ( 96.69%)    -0.80657 (  3.31%)    -0.93811
      59    116.35    -0.94220 ( 96.70%)    -0.80636 (  3.30%)    -0.93772
      60    119.91    -0.92479 ( 97.07%)    -0.79741 (  2.93%)    -0.92105
      61    120.85    -0.92033 ( 97.15%)    -0.79512 (  2.85%)    -0.91676
      62    120.88    -0.92015 ( 97.16%)    -0.79503 (  2.84%)    -0.91659
      63    125.53    -0.89846 ( 97.54%)    -0.78386 (  2.46%)    -0.89564
      64    129.36    -0.88119 ( 97.82%)    -0.77495 (  2.18%)    -0.87887
      65    129.48    -0.88067 ( 97.82%)    -0.77468 (  2.18%)    -0.87836
      66    131.36    -0.87241 ( 97.94%)    -0.77041 (  2.06%)    -0.87031
      67    148.30    -0.80318 ( 98.72%)    -0.73447 (  1.28%)    -0.80231
      68    160.64    -0.75795 ( 99.07%)    -0.71078 (  0.93%)    -0.75751
      69    160.82    -0.75733 ( 99.07%)    -0.71046 (  0.93%)    -0.75689
      70    160.86    -0.75718 ( 99.08%)    -0.71038 (  0.92%)    -0.75675
      71    161.31    -0.75563 ( 99.09%)    -0.70957 (  0.91%)    -0.75521
      72    161.58    -0.75468 ( 99.09%)    -0.70907 (  0.91%)    -0.75427
      73    164.96    -0.74302 ( 99.16%)    -0.70293 (  0.84%)    -0.74269
      74    164.99    -0.74293 ( 99.16%)    -0.70288 (  0.84%)    -0.74259
      75    165.69    -0.74055 ( 99.18%)    -0.70163 (  0.82%)    -0.74023
      76    165.89    -0.73986 ( 99.18%)    -0.70126 (  0.82%)    -0.73955
      77    166.19    -0.73885 ( 99.19%)    -0.70073 (  0.81%)    -0.73854
      78    166.43    -0.73806 ( 99.19%)    -0.70031 (  0.81%)    -0.73775
      79    168.01    -0.73273 ( 99.22%)    -0.69750 (  0.78%)    -0.73246
      80    178.55    -0.69872 ( 99.39%)    -0.67948 (  0.61%)    -0.69860
      81    180.57    -0.69247 ( 99.42%)    -0.67616 (  0.58%)    -0.69238
      82    180.66    -0.69218 ( 99.42%)    -0.67600 (  0.58%)    -0.69209
      83    183.01    -0.68498 ( 99.45%)    -0.67216 (  0.55%)    -0.68491
      84    183.60    -0.68321 ( 99.45%)    -0.67122 (  0.55%)    -0.68315
      85    184.13    -0.68162 ( 99.46%)    -0.67037 (  0.54%)    -0.68155
      86    184.37    -0.68089 ( 99.46%)    -0.66998 (  0.54%)    -0.68083
      87    185.02    -0.67894 ( 99.47%)    -0.66894 (  0.53%)    -0.67888
      88    185.13    -0.67860 ( 99.47%)    -0.66876 (  0.53%)    -0.67855
      89    185.70    -0.67689 ( 99.48%)    -0.66784 (  0.52%)    -0.67684
      90    187.54    -0.67145 ( 99.50%)    -0.66493 (  0.50%)    -0.67142
      91    188.76    -0.66784 ( 99.51%)    -0.66300 (  0.49%)    -0.66782
      92    197.14    -0.64388 ( 99.59%)    -0.65013 (  0.41%)    -0.64391
      93    197.65    -0.64248 ( 99.59%)    -0.64938 (  0.41%)    -0.64250
      94    201.61    -0.63158 ( 99.62%)    -0.64349 (  0.38%)    -0.63162
      95    203.95    -0.62527 ( 99.64%)    -0.64008 (  0.36%)    -0.62533
      96    204.00    -0.62514 ( 99.64%)    -0.64001 (  0.36%)    -0.62519
      97    204.04    -0.62503 ( 99.64%)    -0.63995 (  0.36%)    -0.62509
      98    204.34    -0.62422 ( 99.64%)    -0.63951 (  0.36%)    -0.62427
      99    204.41    -0.62405 ( 99.64%)    -0.63942 (  0.36%)    -0.62410
     100    204.45    -0.62394 ( 99.64%)    -0.63936 (  0.36%)    -0.62399
     101    205.37    -0.62147 ( 99.65%)    -0.63802 (  0.35%)    -0.62153
     102    208.18    -0.61406 ( 99.67%)    -0.63400 (  0.33%)    -0.61413
     103    208.31    -0.61372 ( 99.67%)    -0.63381 (  0.33%)    -0.61379
     104    209.25    -0.61127 ( 99.68%)    -0.63248 (  0.32%)    -0.61134
     105    209.44    -0.61078 ( 99.68%)    -0.63221 (  0.32%)    -0.61085
     106    213.30    -0.60084 ( 99.70%)    -0.62680 (  0.30%)    -0.60092
     107    214.82    -0.59700 ( 99.71%)    -0.62470 (  0.29%)    -0.59709
     108    215.21    -0.59600 ( 99.71%)    -0.62415 (  0.29%)    -0.59608
     109    216.02    -0.59397 ( 99.71%)    -0.62304 (  0.29%)    -0.59405
     110    216.87    -0.59185 ( 99.72%)    -0.62188 (  0.28%)    -0.59194
     111    217.22    -0.59097 ( 99.72%)    -0.62140 (  0.28%)    -0.59106
     112    217.94    -0.58920 ( 99.72%)    -0.62043 (  0.28%)    -0.58928
     113    219.07    -0.58638 ( 99.73%)    -0.61889 (  0.27%)    -0.58647
     114    220.15    -0.58374 ( 99.73%)    -0.61744 (  0.27%)    -0.58383
     115    220.69    -0.58242 ( 99.74%)    -0.61672 (  0.26%)    -0.58251
     116    221.31    -0.58089 ( 99.74%)    -0.61588 (  0.26%)    -0.58098
     117    221.40    -0.58067 ( 99.74%)    -0.61575 (  0.26%)    -0.58076
     118    223.83    -0.57481 ( 99.75%)    -0.61253 (  0.25%)    -0.57490
     119    226.26    -0.56899 ( 99.76%)    -0.60932 (  0.24%)    -0.56908
     120    227.02    -0.56720 ( 99.77%)    -0.60833 (  0.23%)    -0.56730
     121    228.54    -0.56362 ( 99.77%)    -0.60636 (  0.23%)    -0.56372
     122    230.49    -0.55907 ( 99.78%)    -0.60384 (  0.22%)    -0.55917
     123    238.59    -0.54066 ( 99.81%)    -0.59361 (  0.19%)    -0.54077
     124    258.83    -0.49780 ( 99.86%)    -0.56948 (  0.14%)    -0.49790
     125    258.95    -0.49756 ( 99.86%)    -0.56935 (  0.14%)    -0.49766
     126    259.13    -0.49720 ( 99.86%)    -0.56914 (  0.14%)    -0.49730
     127    259.20    -0.49705 ( 99.86%)    -0.56906 (  0.14%)    -0.49715
     128    259.38    -0.49670 ( 99.86%)    -0.56885 (  0.14%)    -0.49680
     129    259.44    -0.49657 ( 99.86%)    -0.56878 (  0.14%)    -0.49667
     130    271.40    -0.47324 ( 99.88%)    -0.55543 (  0.12%)    -0.47333
     131    275.53    -0.46548 ( 99.89%)    -0.55096 (  0.11%)    -0.46558
     132    281.36    -0.45479 ( 99.90%)    -0.54476 (  0.10%)    -0.45488
     133    288.14    -0.44271 ( 99.91%)    -0.53770 (  0.09%)    -0.44279
     134    288.75    -0.44164 ( 99.91%)    -0.53708 (  0.09%)    -0.44173
     135    295.25    -0.43044 ( 99.92%)    -0.53048 (  0.08%)    -0.43052
     136    299.49    -0.42330 ( 99.92%)    -0.52626 (  0.08%)    -0.42338
   ------------------------------------------------------------------------

   temp. (K)  partition function   enthalpy   heat capacity  entropy
                                   cal/mol     cal/K/mol   cal/K/mol   J/K/mol
 298.15  VIB  0.188E+78            90655.523    572.203    577.625
         ROT  0.150E+11              888.752      2.981     49.551
         INT  0.283E+88            91544.275    575.184    627.177
         TR   0.127E+30             1481.254      4.968     49.386
         TOT                       93025.5289   580.1521   676.5626  2830.7380

       T/K    H(0)-H(T)+PV         H(T)/Eh          T*S/Eh         G(T)/Eh
   ------------------------------------------------------------------------
    298.15    0.148246E+00    0.177624E+01    0.321457E+00    0.145478E+01
   ------------------------------------------------------------------------

         :::::::::::::::::::::::::::::::::::::::::::::::::::::
         ::                  THERMODYNAMIC                  ::
         :::::::::::::::::::::::::::::::::::::::::::::::::::::
         :: total free energy        -444.548372792700 Eh   ::
         ::.................................................::
         :: total energy             -446.003154042974 Eh   ::
         :: zero point energy           1.627992368019 Eh   ::
         :: G(RRHO) w/o ZPVE           -0.173211117745 Eh   ::
         :: G(RRHO) contrib.            1.454781250274 Eh   ::
         :::::::::::::::::::::::::::::::::::::::::::::::::::::
imag cut-off (cm-1) :    5.00
 found            2  significant imaginary frequencies
 writing imag mode distorted coords to xtbhess.xyz
 for further optimization.

optimized geometry written to: xtbopt.xyz


           -------------------------------------------------
          | TOTAL ENERGY             -446.003154042974 Eh   |
          | TOTAL ENTHALPY           -444.226916058460 Eh   |
          | TOTAL FREE ENERGY        -444.548372792700 Eh   |
          | GRADIENT NORM               0.000885698577 Eh/α |
          | HOMO-LUMO GAP               0.000033570524 eV   |
           -------------------------------------------------

------------------------------------------------------------------------
 * finished run on 2021/11/20 at 08:36:39.324     
------------------------------------------------------------------------
 total:
 * wall-time:     0 d,  1 h, 15 min, 52.032 sec
 *  cpu-time:     0 d,  1 h, 15 min, 52.088 sec
 * ratio c/w:     1.000 speedup
 SCF:
 * wall-time:     0 d,  0 h,  0 min, 10.631 sec
 *  cpu-time:     0 d,  0 h,  0 min, 10.631 sec
 * ratio c/w:     1.000 speedup
 ANC optimizer:
 * wall-time:     0 d,  0 h,  6 min, 49.828 sec
 *  cpu-time:     0 d,  0 h,  6 min, 49.830 sec
 * ratio c/w:     1.000 speedup
 analytical hessian:
 * wall-time:     0 d,  1 h,  8 min, 51.229 sec
 *  cpu-time:     0 d,  1 h,  8 min, 51.283 sec
 * ratio c/w:     1.000 speedup

