242
 energy: -446.003154393472 gnorm: 0.000886373836 xtb: 6.4.1 (bd6e46d)
Cu       29.76991085255678   -0.00010371958522   -0.01177536298703
C        32.29981245230978   -3.42298195848650    0.01918909697303
C        33.25196712038517   -2.45995620103072    0.01814468378891
C        32.56246131111669   -1.20185175077548    0.00922807721377
C        33.20901578263160    0.04322689887268    0.00652506002074
C        32.53162258165938    1.27166596743524    0.00104517980007
C        33.18923252875924    2.54667701264385    0.00389243745510
C        32.21317518183429    3.48546773898323   -0.00182698732273
C        30.96257026378061    2.78192369952195   -0.00891052581567
N        31.18970512694033    1.44008029966213   -0.00631376217063
C        29.72577340853454    3.40147342414528   -0.02003103174744
C        28.50610376537815    2.74880005858793   -0.03068598885968
C        27.23291850656237    3.41633672978358   -0.04640829519027
C        26.28663400977275    2.44994819138521   -0.05335732661249
C        26.98053711217683    1.19076147983224   -0.04109601559578
N        28.32050708735364    1.40440359223617   -0.02826762392141
C        26.35419749406131   -0.04317328309164   -0.03989994059763
C        27.01114985690948   -1.26102100376001   -0.02547126725334
C        26.34905198949632   -2.53728679702545   -0.02115111538078
C        27.31932121273300   -3.47951732068751   -0.00678788990264
C        28.57536237798786   -2.78009243098897   -0.00283379420680
N        28.35606388118032   -1.44082983506502   -0.01385914180427
C        29.81112579806564   -3.40170388061858    0.00829367307390
C        31.03189000171423   -2.75108257975671    0.01051915241631
N        31.22519310841275   -1.40391221121953    0.00451059856873
H        32.42527767606943   -4.48832425173812    0.02497494598860
H        34.31907748276283   -2.56930882219003    0.02314586616871
H        34.25328860713395    2.68274332782305    0.00979712210480
H        32.31177886516402    4.55365436432308   -0.00163890268506
H        29.71255319028126    4.48188898906584   -0.02193369905247
H        27.10463937009854    4.48161203966787   -0.05153413364916
H        25.21893947557766    2.55578395332746   -0.06536257859420
H        25.27407879358840   -0.05671435227131   -0.04986765007083
H        25.28435503250180   -2.67002912613643   -0.02811153652306
H        27.21785625244631   -4.54766324680918    0.00033568928751
H        29.82526933222770   -4.48208532152246    0.01479975161605
Cu      109.84277083710339    0.03183539027345   -0.00933130637951
C       107.32034711008679    3.40109781009870    0.62486186423325
C       106.36602446434317    2.45670730745841    0.44775968352645
C       107.05269222528098    1.21824680106266    0.21737125598243
C       106.40343442955481   -0.00546223512488   -0.00427468691021
C       107.07818071483776   -1.21547138929463   -0.22400674120985
C       106.41786793714977   -2.46942600096190   -0.44705920526502
C       107.39190737245461   -3.39397193825177   -0.62167805185704
C       108.64405699357836   -2.70264205421742   -0.50558571816925
N       108.41979394291825   -1.38247260786411   -0.26278719849715
C       109.87944395431246   -3.31232820577577   -0.63098002345611
C       111.10054571965360   -2.67077871489002   -0.52640852870881
C       112.37221648740481   -3.32691109729738   -0.66514010413503
C       113.32066770405376   -2.37738449991330   -0.49707939735567
C       112.62963342941009   -1.14004870288232   -0.25487037654896
N       111.28920251327708   -1.34960038082627   -0.28002532074623
C       113.25869767402432    0.07141998319835   -0.02784824773895
C       112.60433800523325    1.26764116785071    0.20831004318198
C       113.26918970590965    2.51991813988123    0.44699773880844
C       112.30091656129321    3.44630626636687    0.63048878003630
C       111.04335952742889    2.76131060849569    0.50342652822209
N       111.25978056879623    1.44579984800479    0.24965237254798
C       109.80894573075282    3.37433186262646    0.62199240048093
C       108.58673804520045    2.73776326433189    0.50136426378726
N       108.39043407820469    1.41403102473043    0.25366860354278
H       107.19725320969155    4.44862023696146    0.82054346240387
H       105.29911952252974    2.56666896367760    0.46802223788369
H       105.35355318921428   -2.60234942057286   -0.46404047903790
H       107.29102824367024   -4.44489066388831   -0.81192392928746
H       109.89018969930073   -4.37472819202280   -0.82762070045894
H       112.49812392452111   -4.37368666946219   -0.86425800397411
H       114.38806925864579   -2.48150615228330   -0.52930993705550
H       114.33885443568396    0.08404243273768   -0.03442464700483
H       114.33422026769929    2.64882585109098    0.46719557684802
H       112.40466746932078    4.49494604545626    0.83265359851485
H       109.79719938636882    4.43577415344853    0.82366805234699
C        34.60571683332454    0.05929841052582    0.01070816735254
C        35.82575756179484    0.06882348362338    0.00938611386105
C        37.16190073080853    0.07643520910959    0.00742821535933
C        38.38637229114211    0.07799448334575    0.00448018452652
C        39.72236220943054    0.07635875312354    0.00243174896171
C        40.94260355439540    0.07237519243426   -0.00385186330024
C        50.62490644421220    0.03874184977014   -0.02159537253736
C        51.84523666643735    0.03677624912302   -0.02056286239475
C        53.18072266864690    0.03521854071388   -0.01984957447773
C        54.40536250980032    0.03507813064532   -0.01961461612873
C        55.74082421368677    0.03501608569794   -0.01959668817185
C        56.96115155708244    0.03556550772411   -0.01961663601501
C        66.63813444392797    0.03804085253238   -0.02220990799978
C        67.85840936483559    0.03863989792505   -0.02182861881048
C        69.19367329410035    0.03940166600980   -0.01987865775534
C        70.41826053190512    0.03854962181475   -0.01813356499140
C        71.75352510795734    0.03625708632463   -0.02022524725261
C        72.97379613576476    0.03857863734624   -0.01981992569445
C        82.65068837909153    0.04435617095370   -0.02329572738824
C        83.87100365174936    0.04763693270261   -0.02810821327006
C        85.20647722592440    0.04593553775192   -0.02321782016031
C        86.43110475144448    0.04365387866949   -0.01870417702225
C        87.76659894647663    0.04454476076321   -0.01985313602052
C        88.98692793189743    0.04145471477413   -0.02298213181281
C        98.66948734832690   -0.01311624261540   -0.01788297653298
C        99.88969358771345   -0.01951844393234   -0.01581685209532
C       101.22580246203904   -0.02339740724350   -0.01390334167972
C       102.45024143438692   -0.02576453223922   -0.01132612167020
C       103.78652234711006   -0.02348156107452   -0.00770805147470
C       105.00653806198902   -0.01840359666269   -0.00552418186804
Cu       45.78416262673171    0.05503146507706   -0.01864617197346
C        43.28477668028427   -3.36797873433064    0.37323368012599
C        42.32198474654945   -2.42091119324719    0.27037508931352
C        42.99788148913340   -1.16373173468920    0.12668391209839
C        42.33857298496301    0.06771225889577   -0.00937492192135
C        43.00601828035277    1.29409668058254   -0.15122635540702
C        42.33862817168248    2.55589899034975   -0.29426946072119
C        43.30781178372212    3.49542660416579   -0.40602503006551
C        44.56319279381039    2.80493061730941   -0.33018068541917
N        44.34610390996704    1.47028976654296   -0.17587350320478
C        45.79549300340338    3.42857772843142   -0.40386782804852
C        47.02362091624993    2.79655041958314   -0.33220311518104
C        48.28374332443407    3.47831457836244   -0.40909925579185
C        49.24644522763866    2.53165277838178   -0.30133207263085
C        48.57024853632772    1.27438328038388   -0.15941155409980
N        47.23147525142601    1.46010569485997   -0.18060439512940
C        49.22933674117765    0.04294901444396   -0.02187563037644
C        48.56207795756281   -1.18409593043177    0.11471879112607
C        49.22973736271522   -2.44624210645798    0.25310815902302
C        48.26065454459972   -3.38653043655705    0.35941810939621
C        47.00517854973320   -2.69591367352696    0.28582858062352
N        47.22207826495318   -1.36062972347805    0.13702117460199
C        45.77277807520921   -3.31935989986373    0.35916467288823
C        44.54479632027642   -2.68654493478171    0.29236762815733
N        44.33674078250820   -1.34988062309329    0.14309788032801
H        43.17113043566081   -4.42800440634259    0.49265696778562
H        41.25611258911187   -2.54069603306976    0.28746497407263
H        41.27357607135608    2.68352672555311   -0.30553999843554
H        43.20135844384281    4.55586408750371   -0.52820536063818
H        45.79910234958925    4.50222768359380   -0.52699697260087
H        48.39768492013526    4.53825732009024   -0.52910294052602
H        50.31239780357407    2.65176045399735   -0.31437499194282
H        50.29486379535956   -2.57368435367331    0.26465636083124
H        48.36741619193641   -4.44751617807334    0.47673446385438
H        45.76900306099101   -4.39333772751211    0.47939215634874
Cu       61.79998242858753    0.03675140247489   -0.02153737512492
C        59.31295360559157   -3.39691741328707    0.36261220239916
C        58.34741897947351   -2.45335893028993    0.25299473959158
C        59.01979734801609   -1.19356488456814    0.11538893306098
C        58.35669616148949    0.03593382793787   -0.02006020773120
C        59.01908575937614    1.26573623121897   -0.15636455007585
C        58.34601793831961    2.52514526498491   -0.29401906821466
C        59.31100967208037    3.46905619415522   -0.40534924383224
C        60.56936802218672    2.78347792393124   -0.33499247285221
N        60.35825881819855    1.44754643706998   -0.18253762075544
C        61.79901782665436    3.41132413767827   -0.41627457085264
C        63.02912086274691    2.78264431662944   -0.34988393081220
C        64.28722577093872    3.46671573169372   -0.43808218584108
C        65.25264325396144    2.52313040798275   -0.32759422021737
C        64.57997936280208    1.26554215491769   -0.17209189749261
N        63.24076743313462    1.44767564378164   -0.18999715069198
C        65.24277926119521    0.03770256338495   -0.02160127379133
C        64.58068070521864   -1.19057893901808    0.12837406460399
C        65.25403563737783   -2.44787592464167    0.28294765422731
C        64.28915184148148   -3.39205506718137    0.39295011826388
C        63.03067888881420   -2.70863954874493    0.30526505999674
N        63.24157810666755   -1.37347317089211    0.14616234657385
C        61.80093548448257   -3.33801718646722    0.37159304387902
C        60.57093617604960   -2.71070876448519    0.29157292910364
N        60.35907940477465   -1.37476611920213    0.14021469664923
H        59.20237404411117   -4.45746824892983    0.48047250167227
H        57.28186564481410   -2.57713357280777    0.26201258397155
H        57.28040521031592    2.64843557900488   -0.30203896285239
H        59.19983301687147    4.52947300131319   -0.52393012481540
H        61.79863109716327    4.48465601900249   -0.54198420895212
H        64.39809538796588    4.52595616098715   -0.56702680076354
H        66.31826183728020    2.64555059545779   -0.34668525809775
H        66.31971198110470   -2.56970731478283    0.30191670846591
H        64.40060694141501   -4.45129608409885    0.52129912673387
H        61.80113825925805   -4.41144285801277    0.49647470012833
Cu       77.81190632912178    0.04149773629658   -0.02187678808553
C        75.32593422539634   -3.39170752704138    0.37529655319451
C        74.36016556106803   -2.44863430495122    0.26352232040378
C        75.03238251005861   -1.18934379105341    0.12025151513758
C        74.36915144801658    0.03945046452100   -0.02010536852778
C        75.03079005900418    1.26910303878845   -0.16061459241620
C        74.35694396311754    2.52756534269105   -0.30292421693989
C        75.32144655106710    3.47180332444512   -0.41567779842315
C        76.58018655620218    2.78727022740377   -0.34181570158241
N        76.36981359497507    1.45165047394071   -0.18583811353140
C        77.80968856070088    3.41529690136108   -0.42358524973109
C        79.03991938955220    2.78698386027942   -0.35584576896804
C        80.29764816103720    3.47133813216365   -0.44642328612851
C        81.26351590338261    2.52837824914738   -0.33462516685559
C        80.59160470259050    1.27085238514653   -0.17570736537720
N        79.25225947117976    1.45244307764180   -0.19322514346903
C        81.25513581844827    0.04366905568476   -0.02251279082641
C        80.59321227349795   -1.18442522978989    0.13030845728658
C        81.26679375065279   -2.44125956059874    0.28755071684598
C        80.30217394897080   -3.38543050312275    0.39984173592412
C        79.04354096738545   -2.70253690955207    0.31090870426785
N        79.25411170761171   -1.36768904603706    0.14852385446676
C        77.81412690128478   -3.33228789615952    0.37993668746927
C        76.58379089701739   -2.70565545852364    0.29993964968705
N        76.37166622322094   -1.37027443060738    0.14417597687597
H        75.21545080898204   -4.45180526426351    0.49730915461435
H        73.29458471422460   -2.57237530457674    0.27474687068238
H        73.29122788175454    2.65003154727002   -0.31290323818086
H        75.20956374027172    4.53176587211970   -0.53747064693487
H        77.80908039181502    4.48835889915221   -0.55155545094346
H        80.40784529839668    4.53034134070230   -0.57779326928301
H        82.32901402232284    2.65119066170817   -0.35506601432594
H        82.33245399281080   -2.56280105155228    0.30686048105867
H        80.41378451037694   -4.44435641373547    0.53061042138669
H        77.81491315142711   -4.40539778553383    0.50753055500628
Cu       93.82769063347033    0.01422539621110   -0.01992876573653
C        91.32018185384099   -3.40036539969087    0.39452242882563
C        90.35965362124008   -2.45187459497435    0.28355427453312
C        91.03868421726170   -1.19767487125033    0.12883857468742
C        90.38249300205111    0.03385702898461   -0.02133081360308
C        91.05266487339748    1.25783887356390   -0.17031202490635
C        90.38795747957765    2.51973741162027   -0.32439719003951
C        91.35925215799642    3.45725947642177   -0.43487397458822
C        92.61310824138170    2.76525328094774   -0.34776280008476
N        92.39307757143010    1.43172993168869   -0.18812915333674
C        93.84698099308783    3.38632089760679   -0.41646441797930
C        95.07351675115292    2.75204880217419   -0.33733768006707
C        96.33510550394729    3.43130134382230   -0.41197892024840
C        97.29575329416487    2.48308120208259   -0.30013649005700
C        96.61700820957519    1.22727661647999   -0.15762007239951
N        95.27851975211642    1.41560403764324   -0.18224043189619
C        97.27336858459522   -0.00542645620932   -0.01915985725394
C        96.60299611442544   -1.23065672488077    0.11821867738616
C        97.26738603653297   -2.49417711202892    0.26027799637190
C        96.29597814081416   -3.43145489198346    0.37142138238489
C        95.04223655812177   -2.73782940301696    0.29678625901839
N        95.26246745978445   -1.40376283994206    0.14215014316340
C        93.80850648502444   -3.35796239754592    0.37598057843886
C        92.58184744406819   -2.72273274906418    0.30742786442908
N        92.37703035996601   -1.38678874054430    0.14760942495606
H        91.20382308657054   -4.45902146417524    0.52309812496866
H        89.29344761898503   -2.56891005455051    0.30203161045593
H        89.32313646797131    2.64883581819769   -0.34293766785327
H        91.25497841821186    4.51720553844282   -0.56309978850492
H        93.85326304504547    4.45957330295715   -0.54290682070750
H        96.45115163511304    4.49077161793130   -0.53380157817299
H        98.36191644570047    2.60113349053133   -0.31119569797493
H        98.33213280433256   -2.62434455371268    0.27151621291074
H        96.39991078696583   -4.49224965215088    0.49276297337341
H        93.80244800211317   -4.43122106131155    0.50236364899700
