242
 energy: -443.680815000210 gnorm: 1.998064535121 xtb: 6.4.1 (bd6e46d)
Cu       28.97656200000000    0.03786500000000   -0.01212500000000
C        31.30555300000000   -3.10892900000000    1.31056400000000
C        32.22166000000000   -2.16472100000000    1.26028200000000
C        31.81048100000000   -1.11081700000000    0.33899000000000
C        32.42935200000000    0.01352900000000   -0.00742000000000
C        31.72530900000000    1.23347700000000   -0.37152500000000
C        32.05342000000000    2.19353200000000   -1.21899900000000
C        31.01864000000000    3.20981800000000   -1.23589600000000
C        30.08237200000000    2.83335600000000   -0.38900500000000
N        30.48436200000000    1.60034500000000    0.17481200000000
C        28.82129800000000    3.47835500000000   -0.00985300000000
C        27.72608000000000    2.84357200000000    0.34090700000000
C        26.65245500000000    3.16152800000000    1.30993500000000
C        25.81489200000000    2.16477500000000    1.23276900000000
C        26.25319000000000    1.16109100000000    0.25231700000000
N        27.35812800000000    1.59994400000000   -0.23197500000000
C        25.64235500000000   -0.09218000000000   -0.16123100000000
C        26.30651500000000   -1.19668600000000   -0.41565600000000
C        25.93266700000000   -2.25962800000000   -1.37318300000000
C        26.88141400000000   -3.15338300000000   -1.28416400000000
C        27.86713800000000   -2.71593300000000   -0.30128600000000
N        27.51409200000000   -1.57012800000000    0.19551100000000
C        29.09802600000000   -3.37200400000000    0.14443500000000
C        30.22106700000001   -2.72614300000000    0.41155600000000
N        30.54966700000000   -1.47870100000000   -0.18684700000000
H        31.36581500000000   -4.01870900000000    1.92811100000000
H        33.13798800000000   -2.20467000000000    1.83833000000000
H        32.98078500000000    2.21032800000000   -1.82014200000000
H        31.03553900000000    4.11450600000000   -1.84851800000000
H        28.77357500000000    4.57315800000000   -0.01363000000000
H        26.59963300000000    4.04025300000000    1.93492800000000
H        24.90326200000001    2.12910500000000    1.85009300000000
H        24.54410400000000   -0.08926900000000   -0.26050200000000
H        25.06381100000000   -2.31209300000000   -2.02213300000000
H        26.87856800000000   -4.06969200000000   -1.88292300000000
H        29.06254300000000   -4.46780500000000    0.25636000000000
Cu      110.60605400000000   -0.00951100000000   -0.01655800000000
C       108.27706300000000    2.83728100000000    1.86694700000000
C       107.36095600000000    1.91879100000000    1.64237300000000
C       107.77213500000001    1.05409400000000    0.54155900000000
C       107.15326500000002    0.01352900000000   -0.00742000000000
C       107.85730700000002   -1.11769600000000   -0.59152300000000
C       107.52919600000000   -1.90386700000000   -1.60238900000000
C       108.56397600000000   -2.89937700000000   -1.80753000000000
C       109.50024400000000   -2.68656000000000   -0.90549900000000
N       109.09825400000000   -1.57954900000000   -0.12272800000000
C       110.76131800000000   -3.39070100000000   -0.65258600000000
C       111.85653600000001   -2.83200900000000   -0.19015300000000
C       112.93016100000000   -3.32421400000000    0.70306900000000
C       113.76772400000002   -2.33044700000000    0.81215400000000
C       113.32942700000001   -1.16229800000000    0.03491900000000
N       112.22448900000001   -1.50369000000000   -0.52238000000000
C       113.94026100000001    0.14593700000000   -0.13895100000000
C       113.27610100000001    1.27847000000000   -0.18405700000000
C       113.64995000000000    2.50059600000000   -0.92777200000000
C       112.70120199999999    3.36232300000000   -0.67449300000000
C       111.71547800000000    2.75012900000000    0.21017000000000
N       112.06852400000000    1.53205000000000    0.48578000000000
C       110.48459099999999    3.31212300000000    0.76986500000000
C       109.36154900000000    2.62791800000000    0.91253200000000
N       109.03294900000000    1.51314300000000    0.09309800000000
H       108.21680100000000    3.61670500000000    2.64255100000000
H       106.44462799999999    1.85081100000000    2.21779900000000
H       106.60183100000000   -1.80885100000000   -2.19621400000000
H       108.54707700000000   -3.67471100000000   -2.57735000000000
H       110.80904099999999   -4.46579900000000   -0.85940000000000
H       112.98298300000000   -4.30363100000000    1.15419600000000
H       114.67935400000002   -2.40991900000000    1.42538000000000
H       115.03851200000000    0.16149300000000   -0.23703800000000
H       114.51880500000000    2.67254000000000   -1.55572400000000
H       112.70404800000000    4.37380400000000   -1.09287100000000
H       110.52007300000000    4.36813900000000    1.08313400000000
C        35.40136300000000    0.02466000000000   -0.00337800000000
C        36.61689600000000   -0.00068300000000   -0.01385800000000
C        38.03841300000000   -0.02210700000000   -0.01803400000000
C        39.24697500000001   -0.02431800000000   -0.01792900000000
C        40.66805000000000   -0.00535800000000   -0.01855600000000
C        41.87919200000000    0.02466000000000   -0.00337800000000
C        50.97653900000000    0.02466000000000   -0.00337800000000
C        52.19207200000000   -0.00068300000000   -0.01385800000000
C        53.61358900000000   -0.02210700000000   -0.01803400000000
C        54.82215000000000   -0.02431800000000   -0.01792900000000
C        56.24322500000001   -0.00535800000000   -0.01855600000000
C        57.45436800000000    0.02466000000000   -0.00337800000000
C        66.55171400000000    0.02466000000000   -0.00337800000000
C        67.76724700000000   -0.00068300000000   -0.01385800000000
C        69.18876400000001   -0.02210700000000   -0.01803400000000
C        70.39732600000001   -0.02431800000000   -0.01792900000000
C        71.81840099999999   -0.00535800000000   -0.01855600000000
C        73.02954300000000    0.02466000000000   -0.00337800000000
C        82.12689000000000    0.02466000000000   -0.00337800000000
C        83.34242300000000   -0.00068300000000   -0.01385800000000
C        84.76394000000001   -0.02210700000000   -0.01803400000000
C        85.97250099999999   -0.02431800000000   -0.01792900000000
C        87.39357699999999   -0.00535800000000   -0.01855600000000
C        88.60471900000000    0.02466000000000   -0.00337800000000
C        97.70206500000000    0.02466000000000   -0.00337800000000
C        98.91759800000000   -0.00068300000000   -0.01385800000000
C       100.33911500000001   -0.02210700000000   -0.01803400000000
C       101.54767699999999   -0.02431800000000   -0.01792900000000
C       102.96875200000001   -0.00535800000000   -0.01855600000000
C       104.17989400000000    0.02466000000000   -0.00337800000000
Cu       46.46778200000001    0.03627700000000    0.00145000000000
C        44.18797200000000   -3.22517000000000   -0.90821600000000
C        43.23176200000001   -2.32582000000000   -1.01024200000000
C        43.62413600000001   -1.16351500000000   -0.20772600000000
C        42.98902000000000   -0.01224200000000    0.00454000000000
C        43.67447700000001    1.26235700000000    0.23076900000000
C        43.33918700000000    2.34095700000000    0.93500900000000
C        44.36372800000000    3.36027400000000    0.84442800000000
C        45.31432500000000    2.86334900000000    0.07106300000000
N        44.93733100000000    1.54674400000000   -0.34508000000000
C        46.56146500000000    3.47505100000000   -0.34580200000000
C        47.66301700000000    2.80779400000000   -0.67757400000000
C        48.65656300000000    3.05977800000000   -1.71174400000000
C        49.55044600000001    2.09891900000000   -1.61026000000000
C        49.17074800000000    1.18703500000000   -0.50628300000000
N        48.07583300000000    1.63635400000000    0.00108400000000
C        49.82795500000000   -0.01224200000000    0.00454000000000
C        49.20454400000000   -1.08142400000000    0.46605700000000
C        49.58325600000000   -2.01354000000000    1.54153200000000
C        48.64258700000000   -2.92768600000000    1.62739800000000
C        47.63428600000000   -2.63190700000000    0.62997100000000
N        47.97206100000000   -1.57852900000000   -0.01932400000000
C        46.38189300000000   -3.33891400000000    0.29877800000000
C        45.26801600000000   -2.74221700000000   -0.04856400000000
N        44.88590400000000   -1.45946000000000    0.36911900000000
H        44.18831600000000   -4.21624400000000   -1.39945000000000
H        42.32322800000000   -2.44751400000000   -1.59139000000000
H        42.41433500000000    2.45930900000000    1.51193500000000
H        44.39102300000000    4.34943800000000    1.30107800000000
H        46.64740500000000    4.57242900000000   -0.40782500000000
H        48.68923500000000    3.86599400000000   -2.43856800000000
H        50.44350800000000    1.98595100000000   -2.24403400000000
H        50.49800600000000   -1.93913300000000    2.15170200000000
H        48.66163400000001   -3.74129400000000    2.33566600000000
H        46.42037700000000   -4.43887300000000    0.35781400000000
Cu       62.04295800000001    0.03627700000000    0.00145000000000
C        59.76314700000000   -3.22517000000000   -0.90821600000000
C        58.80693800000001   -2.32582000000000   -1.01024200000000
C        59.19931200000001   -1.16351500000000   -0.20772600000000
C        58.56419500000000   -0.01224200000000    0.00454000000000
C        59.24965200000000    1.26235700000000    0.23076900000000
C        58.91436200000000    2.34095700000000    0.93500900000000
C        59.93890300000000    3.36027400000000    0.84442800000000
C        60.88950100000000    2.86334900000000    0.07106300000000
N        60.51250700000000    1.54674400000000   -0.34508000000000
C        62.13664000000000    3.47505100000000   -0.34580200000000
C        63.23819200000000    2.80779400000000   -0.67757400000000
C        64.23173900000000    3.05977800000000   -1.71174400000000
C        65.12562200000001    2.09891900000000   -1.61026000000000
C        64.74592400000000    1.18703500000000   -0.50628300000000
N        63.65100800000000    1.63635400000000    0.00108400000000
C        65.40313100000000   -0.01224200000000    0.00454000000000
C        64.77971900000000   -1.08142400000000    0.46605700000000
C        65.15843200000000   -2.01354000000000    1.54153200000000
C        64.21776300000001   -2.92768600000000    1.62739800000000
C        63.20946200000000   -2.63190700000000    0.62997100000000
N        63.54723700000001   -1.57852900000000   -0.01932400000000
C        61.95706800000000   -3.33891400000000    0.29877800000000
C        60.84319200000000   -2.74221700000000   -0.04856400000000
N        60.46108000000000   -1.45946000000000    0.36911900000000
H        59.76349200000000   -4.21624400000000   -1.39945000000000
H        57.89840300000000   -2.44751400000000   -1.59139000000000
H        57.98951000000000    2.45930900000000    1.51193500000000
H        59.96619800000000    4.34943800000000    1.30107800000000
H        62.22258000000000    4.57242900000000   -0.40782500000000
H        64.26441100000000    3.86599400000000   -2.43856800000000
H        66.01868300000000    1.98595100000000   -2.24403400000000
H        66.07318200000000   -1.93913300000000    2.15170200000000
H        64.23681000000001   -3.74129400000000    2.33566600000000
H        61.99555300000000   -4.43887300000000    0.35781400000000
Cu       77.61813300000001    0.03627700000000    0.00145000000000
C        75.33832300000000   -3.22517000000000   -0.90821600000000
C        74.38211300000002   -2.32582000000000   -1.01024200000000
C        74.77448700000001   -1.16351500000000   -0.20772600000000
C        74.13937100000000   -0.01224200000000    0.00454000000000
C        74.82482800000000    1.26235700000000    0.23076900000000
C        74.48953800000000    2.34095700000000    0.93500900000000
C        75.51407900000001    3.36027400000000    0.84442800000000
C        76.46467600000000    2.86334900000000    0.07106300000000
N        76.08768200000000    1.54674400000000   -0.34508000000000
C        77.71181600000000    3.47505100000000   -0.34580200000000
C        78.81336800000000    2.80779400000000   -0.67757400000000
C        79.80691400000001    3.05977800000000   -1.71174400000000
C        80.70079700000001    2.09891900000000   -1.61026000000000
C        80.32109900000000    1.18703500000000   -0.50628300000000
N        79.22618400000000    1.63635400000000    0.00108400000000
C        80.97830600000000   -0.01224200000000    0.00454000000000
C        80.35489500000000   -1.08142400000000    0.46605700000000
C        80.73360700000001   -2.01354000000000    1.54153200000000
C        79.79293900000000   -2.92768600000000    1.62739800000000
C        78.78463700000000   -2.63190700000000    0.62997100000000
N        79.12241200000000   -1.57852900000000   -0.01932400000000
C        77.53224400000001   -3.33891400000000    0.29877800000000
C        76.41836700000000   -2.74221700000000   -0.04856400000000
N        76.03625500000000   -1.45946000000000    0.36911900000000
H        75.33866700000000   -4.21624400000000   -1.39945000000000
H        73.47357900000000   -2.44751400000000   -1.59139000000000
H        73.56468599999999    2.45930900000000    1.51193500000000
H        75.54137400000000    4.34943800000000    1.30107800000000
H        77.79775600000001    4.57242900000000   -0.40782500000000
H        79.83958600000000    3.86599400000000   -2.43856800000000
H        81.59385899999999    1.98595100000000   -2.24403400000000
H        81.64835700000000   -1.93913300000000    2.15170200000000
H        79.81198500000001   -3.74129400000000    2.33566600000000
H        77.57072800000000   -4.43887300000000    0.35781400000000
Cu       93.19330900000000    0.03627700000000    0.00145000000000
C        90.91349800000002   -3.22517000000000   -0.90821600000000
C        89.95728900000000   -2.32582000000000   -1.01024200000000
C        90.34966300000001   -1.16351500000000   -0.20772600000000
C        89.71454600000000   -0.01224200000000    0.00454000000000
C        90.40000400000001    1.26235700000000    0.23076900000000
C        90.06471300000000    2.34095700000000    0.93500900000000
C        91.08925499999999    3.36027400000000    0.84442800000000
C        92.03985200000000    2.86334900000000    0.07106300000000
N        91.66285800000000    1.54674400000000   -0.34508000000000
C        93.28699100000000    3.47505100000000   -0.34580200000000
C        94.38854300000000    2.80779400000000   -0.67757400000000
C        95.38209000000001    3.05977800000000   -1.71174400000000
C        96.27597299999999    2.09891900000000   -1.61026000000000
C        95.89627500000000    1.18703500000000   -0.50628300000000
N        94.80135900000001    1.63635400000000    0.00108400000000
C        96.55348200000002   -0.01224200000000    0.00454000000000
C        95.93007000000000   -1.08142400000000    0.46605700000000
C        96.30878300000001   -2.01354000000000    1.54153200000000
C        95.36811400000001   -2.92768600000000    1.62739800000000
C        94.35981300000002   -2.63190700000000    0.62997100000000
N        94.69758800000001   -1.57852900000000   -0.01932400000000
C        93.10742000000000   -3.33891400000000    0.29877800000000
C        91.99354300000000   -2.74221700000000   -0.04856400000000
N        91.61143100000000   -1.45946000000000    0.36911900000000
H        90.91384300000001   -4.21624400000000   -1.39945000000000
H        89.04875400000000   -2.44751400000000   -1.59139000000000
H        89.13986100000000    2.45930900000000    1.51193500000000
H        91.11654900000001    4.34943800000000    1.30107800000000
H        93.37293099999999    4.57242900000000   -0.40782500000000
H        95.41476200000000    3.86599400000000   -2.43856800000000
H        97.16903400000000    1.98595100000000   -2.24403400000000
H        97.22353300000000   -1.93913300000000    2.15170200000000
H        95.38716100000002   -3.74129400000000    2.33566600000000
H        93.14590400000000   -4.43887300000000    0.35781400000000
242
 energy: -444.504841250495 gnorm: 0.846453665181 xtb: 6.4.1 (bd6e46d)
Cu       28.98070627480750    0.03799635858688   -0.01144059171227
C        31.30382806253212   -3.11528424186507    1.30748583296073
C        32.22895960001605   -2.16276643706541    1.26022078114896
C        31.80513646278334   -1.11371880654009    0.34232442830094
C        32.41951606917583    0.02474560538389   -0.01148975972007
C        31.71862355651529    1.22737511814048   -0.36309287975548
C        32.06021052507791    2.21139804037968   -1.23172080744384
C        31.03762727090138    3.21098349947497   -1.24648975809532
C        30.07558051504948    2.81998813937301   -0.38147419432015
N        30.47124555504532    1.59157366278015    0.17705654633758
C        28.83267817908095    3.48029850005292   -0.01117121710618
C        27.71677611454720    2.83456289023382    0.34223930167897
C        26.65663397187802    3.16746941808594    1.30230704747167
C        25.80047226753263    2.15812040423594    1.23633578033136
C        26.24845394159032    1.16244117707910    0.26041400059974
N        27.37610320122612    1.59228770355255   -0.22780050620448
C        25.63498877671544   -0.07926216519934   -0.15794663484113
C        26.30933374010706   -1.20217048560423   -0.41840864043041
C        25.92663051146831   -2.25660124300703   -1.36720394939546
C        26.88723456297947   -3.16514322341520   -1.28461977305679
C        27.87278638142559   -2.72250595277072   -0.30459732747690
N        27.51864236910106   -1.55767997463948    0.18640548347853
C        29.08585141726329   -3.37734183926635    0.14041263305308
C        30.22803221043647   -2.71638545547514    0.41096116318050
N        30.54770290245586   -1.47829568639460   -0.17432907725041
H        31.36275822633645   -4.01578871927232    1.92471684521685
H        33.13903088432982   -2.20104544660163    1.83693799656327
H        32.97821134891217    2.21291372424594   -1.81995715100888
H        31.03755670719708    4.11260253402804   -1.84838888679074
H        28.77886074425816    4.57180834635114   -0.01107294179410
H        26.60198868219909    4.03956224380674    1.93309480704604
H        24.90307330341838    2.12569749695658    1.84876154348910
H        24.54582022464510   -0.08686195084584   -0.26287797814034
H        25.06483153647509   -2.30855468025299   -2.01938793358642
H        26.88254387260925   -4.06998253431473   -1.88104948637750
H        29.06091598465823   -4.46543857045373    0.25737005524478
Cu      110.60191288207940   -0.00977978482756   -0.01590055331657
C       108.27880893228088    2.84407819452541    1.86512252700037
C       107.35363118182383    1.91689988436970    1.64191679686922
C       107.77742060042515    1.05645652517165    0.54531986081216
C       107.16273423547025    0.00325121445504   -0.01337388789395
C       107.86397961179934   -1.11322982539156   -0.58217303772983
C       107.52242245332961   -1.91904724271690   -1.61817406787427
C       108.54502089753169   -2.89858970827231   -1.81813284651256
C       109.50702666910384   -2.67486884224527   -0.89562849112847
N       109.11131617659007   -1.57129333581542   -0.11895168910799
C       110.74992212437139   -3.39236859986559   -0.65425756293412
C       111.86584752906120   -2.82338112104933   -0.18716856462603
C       112.92597335834458   -3.32862187345101    0.69448369017951
C       113.78216414035063   -2.32457457298221    0.81686710275987
C       113.33418221941767   -1.16510696298339    0.04262047005105
N       112.20648997163440   -1.49697225472150   -0.51684228724472
C       113.94762791633634    0.13259973831717   -0.13810139246843
C       113.27325245300874    1.28438906392625   -0.18574394498483
C       113.65596551707694    2.49650340250893   -0.92247476573092
C       112.69538406558955    3.37398119317047   -0.67273755041394
C       111.70982959496916    2.75722306901407    0.20814722452042
N       112.06400911663208    1.52148638222083    0.47451536160504
C       110.49678180855051    3.31810881854602    0.76688091485985
C       109.35458705725745    2.61838764686682    0.91019244340359
N       109.03492779842452    1.51041313589221    0.10533135401674
H       108.21986108419667    3.61446089039948    2.63867301027487
H       106.44358176433353    1.84751491351598    2.21576561996187
H       106.60440007104387   -1.81143126692644   -2.19651618557181
H       108.54506221457893   -3.67286640549874   -2.57687347312160
H       110.80375908070138   -4.46494587640394   -0.85665386271142
H       112.98062651305109   -4.30261091027193    1.15252304895128
H       114.67954367459458   -2.40632209522474    1.42470411609783
H       115.03679659985028    0.15956679108326   -0.23979948184828
H       114.51778139624399    2.66855322350509   -1.55368275300362
H       112.70007024095732    4.37374375401155   -1.09097521679145
H       110.52168729261582    4.36563710511919    1.08364646607750
C        35.39974602579394    0.02453471173508   -0.00307221526633
C        36.62731092316405   -0.00097236811521   -0.01381603548708
C        38.02579336604642   -0.02168412449381   -0.01807945245454
C        39.25283997084344   -0.02383302985595   -0.01795213499420
C        40.61945127568542   -0.00575665654097   -0.01835700589151
C        41.81065689515245    0.03215212421677   -0.00450298323659
C        51.03603288612934    0.03038974473730   -0.00305715437692
C        52.23344332401935   -0.00113482448822   -0.01348512782909
C        53.60415769009153   -0.02155810419280   -0.01853871031035
C        54.82960888497408   -0.02377330189284   -0.01795956536940
C        56.19487846300178   -0.00572927666450   -0.01836749720407
C        57.38590599438924    0.03208696274767   -0.00482574554893
C        66.61145626210318    0.03041115014545   -0.00289414464474
C        67.80813999243108   -0.00109216869992   -0.01347955972778
C        69.17970388526182   -0.02156590547454   -0.01857403954074
C        70.40442759613572   -0.02378171722547   -0.01795159513523
C        71.77044226900351   -0.00572174808541   -0.01836695980807
C        72.96090515991258    0.03208482769055   -0.00484977089225
C        82.18648797037170    0.03040341297898   -0.00292704578042
C        83.38358587865409   -0.00110311952161   -0.01347735575653
C        84.75463870060709   -0.02156298840666   -0.01856635547375
C        85.97984906197499   -0.02377852931878   -0.01796015618850
C        87.34529809213205   -0.00573330535645   -0.01836473786218
C        88.53620600793901    0.03207001799433   -0.00481626082616
C        97.76207820156291    0.03047739119234   -0.00282506795875
C        98.95864161129916   -0.00098335908943   -0.01331940491432
C       100.33269298646957   -0.02156972529845   -0.01854821303826
C       101.55859569667676   -0.02390634964927   -0.01815327172779
C       102.95866964844792   -0.00574001178402   -0.01833539376284
C       104.18216794637263    0.02437037057104   -0.00311063489525
Cu       46.46445084744976    0.03727366143156    0.00016596998784
C        44.19090502455095   -3.23697772922601   -0.90630382176643
C        43.22853495640387   -2.32261720287154   -1.00773251051618
C        43.65726826052808   -1.18343635093365   -0.20940579406057
C        43.05279526774630   -0.00154723580438    0.00579691727918
C        43.70262754690822    1.26715422812338    0.22711154134030
C        43.33431110163521    2.35747174268580    0.94328894376676
C        44.34832935161750    3.36185285759225    0.85089556848210
C        45.32265318558160    2.85173007831486    0.06516868638769
N        44.95074485017695    1.54240267442664   -0.34055967208293
C        46.55265120738527    3.47718127811212   -0.34538018938457
C        47.66981198587068    2.80132753859805   -0.67822575975120
C        48.65686026317094    3.06552118653528   -1.70689744084112
C        49.56152963765084    2.09032690800849   -1.61041926600500
C        49.16266459851597    1.19261663708169   -0.51637107049029
N        48.05600808803177    1.63225682813289   -0.00336422530224
C        49.78384615740973   -0.00191042627866   -0.00102337141831
C        49.17941982982984   -1.09933797950328    0.47411782925871
C        49.59046046113421   -2.00862357885979    1.53745200334658
C        48.63828569710737   -2.93796274093232    1.62804992468318
C        47.62717976041291   -2.64110146439746    0.63548765468329
N        47.96494321967253   -1.56088357556703   -0.01759230080425
C        46.39642705661311   -3.34452461438514    0.30489661689908
C        45.25725529060103   -2.73418226700552   -0.05272189935657
N        44.89128678840419   -1.45620849975989    0.35689245409007
H        44.19006818922264   -4.21355974629927   -1.39753537551200
H        42.32395677466506   -2.44339838489339   -1.58955486644453
H        42.41516528676963    2.45999832784193    1.51174911863179
H        44.38730841023578    4.34665881835973    1.30167559784533
H        46.64139152053991    4.56995941603745   -0.40993934877357
H        48.68638942936927    3.86521469842080   -2.43569807323906
H        50.44216837449208    1.98368501115457   -2.24195823970576
H        50.49479047753302   -1.93701014941368    2.14805615425286
H        48.65886947750074   -3.74329098632997    2.33577638010584
H        46.42208244059991   -4.43715962874425    0.35674873490647
Cu       62.03941248670708    0.03732932407818    0.00025422076377
C        59.76559003771219   -3.23703810985207   -0.90632226476904
C        58.80374014537516   -2.32306899536622   -1.00773875356535
C        59.23242522256932   -1.18321196770809   -0.20855493401095
C        58.62806593035076   -0.00200470726240    0.00565176912318
C        59.27815958393102    1.26751188140346    0.22673944879496
C        58.90967736677028    2.35746040671910    0.94343109367886
C        59.92344874259040    3.36204912932357    0.85079175294089
C        60.89794005425262    2.85192542499097    0.06512886499993
N        60.52536126697350    1.54240103699332   -0.34066045908579
C        62.12761914414651    3.47712447946355   -0.34516420014896
C        63.24516821917268    2.80113315696956   -0.67818089954305
C        64.23198962215842    3.06542372726148   -1.70699955425312
C        65.13679052283713    2.09035277808857   -1.61044151104262
C        64.73790270178029    1.19252122320035   -0.51655036044517
N        63.63121417918134    1.63248399222380   -0.00328425854060
C        65.35866420283305   -0.00205439996907   -0.00088271259577
C        64.75492813250365   -1.09905460614601    0.47411079497704
C        65.16592593290724   -2.00885447511262    1.53740853810253
C        64.21350828075987   -2.93762555851747    1.62838159234023
C        63.20270126104005   -2.64045976884420    0.63548070428360
N        63.53993721839883   -1.56158740455433   -0.01768501065792
C        61.97104950739507   -3.34453519497562    0.30446467955646
C        60.83285626155627   -2.73420905280538   -0.05254464932615
N        60.46626476149067   -1.45630816894948    0.35689596553507
H        59.76520820325368   -4.21359700101570   -1.39757345183677
H        57.89912449361033   -2.44342566571657   -1.58960523022589
H        57.99029903423209    2.46001840198689    1.51173375107091
H        59.96248569657580    4.34670949391464    1.30171200668970
H        62.21657455544008    4.56995878896927   -0.40984776543776
H        64.26156525434830    3.86521430827822   -2.43570544522080
H        66.01736534096527    1.98368987702016   -2.24198861791139
H        66.07002768655960   -1.93702875971817    2.14808188752537
H        64.23406818086968   -3.74327751992853    2.33579294175952
H        61.99728188788927   -4.43715907519560    0.35648274421725
Cu       77.61461892947833    0.03727365717276    0.00023598609657
C        75.34080067189926   -3.23694285566974   -0.90642490766387
C        74.37881551740689   -2.32310301603290   -1.00766680858603
C        74.80743393437116   -1.18305317582022   -0.20870269373646
C        74.20344632202266   -0.00202498536338    0.00563131476206
C        74.85319801763346    1.26741403514238    0.22684760356342
C        74.48478556148800    2.35750094044781    0.94341293785938
C        75.49858715546449    3.36198120235305    0.85086057871189
C        76.47308870551872    2.85180243873466    0.06509648078082
N        76.10066513068249    1.54248339072467   -0.34065250779087
C        77.70284092971569    3.47711412033224   -0.34521878199357
C        78.82030097441547    2.80117150971224   -0.67820167024783
C        79.80719725082318    3.06547010576886   -1.70697451897512
C        80.71192854869994    2.09034430422443   -1.61046574317712
C        80.31298867387814    1.19263883022777   -0.51647952065175
N        79.20650342314292    1.63248788018835   -0.00330002782356
C        80.93399704021009   -0.00203828169500   -0.00092583775356
C        80.32996140365141   -1.09920388228857    0.47405059804705
C        80.74098112608571   -2.00878852851983    1.53748781531800
C        79.78873444631665   -2.93777552125238    1.62826416083916
C        78.77780323364496   -2.64059991592853    0.63549001621101
N        79.11529694297045   -1.56145490857777   -0.01765347392261
C        77.54636095757813   -3.34450086192977    0.30460488156998
C        76.40796250035658   -2.73405918222415   -0.05255115337622
N        76.04163548270090   -1.45644003035767    0.35694123169845
H        75.34038197847659   -4.21358518881931   -1.39756860885226
H        73.47429001244112   -2.44343032691289   -1.58961311439322
H        73.56547929177037    2.46002167455539    1.51176036772564
H        75.53764987353681    4.34670536807633    1.30169881618192
H        77.79174527969225    4.56995571541745   -0.40987325397367
H        79.83674217946398    3.86522062769138   -2.43570844666098