 Entering Gaussian System
 *********************************************
 Gaussian 98:
 frequency output generated by the xtb code
 *********************************************
                         Standard orientation:
 --------------------------------------------------------------------
  Center     Atomic     Atomic              Coordinates (Angstroms)
  Number     Number      Type              X           Y           Z
 --------------------------------------------------------------------
    1         27             0       34.814084    0.307994    0.339540
    2          6             0       37.470066   -2.300669    2.279808
    3          6             0       38.355779   -1.623401    1.512624
    4          6             0       37.598922   -0.657645    0.775884
    5          6             0       38.187560    0.327564   -0.024635
    6          6             0       37.454854    1.433125   -0.467468
    7          6             0       38.058176    2.606598   -1.018960
    8          6             0       37.059527    3.499027   -1.212475
    9          6             0       35.847675    2.842999   -0.824666
   10          7             0       36.107049    1.584442   -0.350169
   11          6             0       34.592503    3.375958   -1.033715
   12          6             0       33.432922    2.644611   -0.875478
   13          6             0       32.144201    3.094673   -1.314225
   14          6             0       31.290044    2.065404   -1.119485
   15          6             0       32.051909    1.010633   -0.516327
   16          7             0       33.362828    1.371563   -0.384493
   17          6             0       31.492037   -0.153964   -0.031207
   18          6             0       32.195389   -1.045821    0.753000
   19          6             0       31.583542   -2.126184    1.470730
   20          6             0       32.551098   -2.675570    2.238181
   21          6             0       33.759136   -1.960348    1.946479
   22          7             0       33.527248   -0.960982    1.044277
   23          6             0       34.997891   -2.321282    2.436255
   24          6             0       36.175253   -1.775990    1.967662
   25          7             0       36.271016   -0.755990    1.058150
   26          1             0       37.654317   -3.093900    2.977957
   27          1             0       39.422445   -1.724398    1.465319
   28          1             0       39.109200    2.723164   -1.193508
   29          1             0       37.115742    4.497593   -1.600115
   30          1             0       34.519411    4.379657   -1.424093
   31          1             0       31.948619    4.063309   -1.732000
   32          1             0       30.240026    2.011183   -1.332846
   33          1             0       30.439584   -0.328267   -0.195016
   34          1             0       30.547021   -2.393497    1.398798
   35          1             0       32.482365   -3.498101    2.923572
   36          1             0       35.054206   -3.127937    3.151295
   37         27             0       76.905872   -0.118027    0.326423
   38          6             0       74.179728    2.490005    2.174830
   39          6             0       73.312812    1.770060    1.425525
   40          6             0       74.094680    0.800671    0.720168
   41          6             0       73.531447   -0.215524   -0.058806
   42          6             0       74.292657   -1.304290   -0.492900
   43          6             0       73.719784   -2.488829   -1.053381
   44          6             0       74.737747   -3.361079   -1.235146
   45          6             0       75.931179   -2.682035   -0.830089
   46          7             0       75.642703   -1.427462   -0.362339
   47          6             0       77.197182   -3.199262   -1.010649
   48          6             0       78.343854   -2.453267   -0.831823
   49          6             0       79.647805   -2.895402   -1.232110
   50          6             0       80.485911   -1.854752   -1.029506
   51          6             0       79.697506   -0.799898   -0.461465
   52          7             0       78.387809   -1.173399   -0.355587
   53          6             0       80.231988    0.381402    0.010973
   54          6             0       79.499446    1.283884    0.754906
   55          6             0       80.082245    2.393655    1.451710
   56          6             0       79.091727    2.953146    2.181343
   57          6             0       77.899928    2.211820    1.888122
   58          7             0       78.162988    1.188966    1.021149
   59          6             0       76.648541    2.565913    2.348909
   60          6             0       75.487094    1.984226    1.884691
   61          7             0       75.419160    0.936856    1.004349
   62          1             0       73.975002    3.299774    2.847826
   63          1             0       72.244580    1.847259    1.368976
   64          1             0       72.674604   -2.622213   -1.248552
   65          1             0       74.707100   -4.359814   -1.625198
   66          1             0       77.290819   -4.204923   -1.391465
   67          1             0       79.863649   -3.867471   -1.631532
   68          1             0       81.540385   -1.791479   -1.216796
   69          1             0       81.285714    0.565403   -0.132694
   70          1             0       81.116549    2.672372    1.392339
   71          1             0       79.134863    3.797216    2.842199
   72          1             0       76.568358    3.392007    3.039054
   73          6             0       39.553651    0.236062   -0.311993
   74          6             0       40.727140    0.102579   -0.592334
   75          6             0       50.064066   -0.420712    0.082337
   76          6             0       51.198479   -0.349686    0.510118
   77          6             0       60.484850    0.377873    0.506753
   78          6             0       61.618812    0.418819    0.073821
   79          6             0       70.976869   -0.080045   -0.590990
   80          6             0       72.159465   -0.170080   -0.333613
   81         27             0       45.444126   -0.413023   -1.114303
   82          6             0       42.751327   -3.564073   -0.535752
   83          6             0       41.885021   -2.525342   -0.469327
   84          6             0       42.657375   -1.338920   -0.677949
   85          6             0       42.088607   -0.071909   -0.858734
   86          6             0       42.834517    0.978130   -1.406439
   87          6             0       42.250336    2.170464   -1.937130
   88          6             0       43.257595    2.873311   -2.506935
   89          6             0       44.457060    2.130157   -2.268577
   90          7             0       44.179205    0.960706   -1.611997
   91          6             0       45.723358    2.611858   -2.533839
   92          6             0       46.868746    2.010103   -2.053551
   93          6             0       48.159468    2.628039   -2.065475
   94          6             0       48.981679    1.818330   -1.356865
   95          6             0       48.198429    0.685859   -0.967072
   96          7             0       46.911904    0.813000   -1.389130
   97          6             0       48.744565   -0.459858   -0.374008
   98          6             0       48.028309   -1.662495   -0.341980
   99          6             0       48.629525   -2.934189   -0.084621
  100          6             0       47.664645   -3.863670   -0.280963
  101          6             0       46.468486   -3.146379   -0.601649
  102          7             0       46.712791   -1.799459   -0.657475
  103          6             0       45.221546   -3.731342   -0.688296
  104          6             0       44.051775   -2.999120   -0.728968
  105          7             0       43.976740   -1.635314   -0.828629
  106          1             0       42.549327   -4.613371   -0.442306
  107          1             0       40.820993   -2.543540   -0.336511
  108          1             0       41.204426    2.401597   -1.901057
  109          1             0       43.214246    3.815331   -3.018079
  110          1             0       45.816353    3.556248   -3.048466
  111          1             0       48.383268    3.565318   -2.536613
  112          1             0       50.026332    1.937550   -1.145481
  113          1             0       49.660427   -3.077146    0.171891
  114          1             0       47.732769   -4.930777   -0.196004
  115          1             0       45.151802   -4.806179   -0.615554
  116         27             0       55.839429    0.055609    1.494792
  117          6             0       53.644715   -3.476072    1.933981
  118          6             0       52.662598   -2.667244    1.469588
  119          6             0       53.254070   -1.380613    1.271725
  120          6             0       52.524445   -0.234129    0.932614
  121          6             0       53.071209    1.043085    1.116413
  122          6             0       52.285756    2.238170    1.162845
  123          6             0       53.119686    3.230824    1.555417
  124          6             0       54.418529    2.644761    1.686909
  125          7             0       54.368860    1.300229    1.430747
  126          6             0       55.574487    3.368946    1.901261
  127          6             0       56.834862    2.831015    1.732216
  128          6             0       58.031681    3.611596    1.651945
  129          6             0       59.017096    2.766821    1.264923
  130          6             0       58.426481    1.468109    1.170849
  131          7             0       57.098363    1.515014    1.458225
  132          6             0       59.157956    0.297278    0.934195
  133          6             0       58.610153   -0.959605    1.224497
  134          6             0       59.394939   -2.145837    1.379953
  135          6             0       58.557485   -3.101660    1.849018
  136          6             0       57.257634   -2.507160    1.918687
  137          7             0       57.309967   -1.189379    1.549299
  138          6             0       56.099787   -3.211462    2.183286
  139          6             0       54.840896   -2.690835    1.958244
  140          7             0       54.579903   -1.402773    1.572047
  141          1             0       53.587109   -4.510811    2.210657
  142          1             0       51.626589   -2.890518    1.308547
  143          1             0       51.232830    2.282939    0.963684
  144          1             0       52.897621    4.267208    1.720197
  145          1             0       55.489421    4.426872    2.098615
  146          1             0       58.087128    4.665938    1.841242
  147          1             0       60.054757    2.975847    1.095313
  148          1             0       60.449660   -2.206706    1.195058
  149          1             0       58.777646   -4.120106    2.103707
  150          1             0       56.183326   -4.248818    2.470198
  151         27             0       66.243799    0.332325   -1.110334
  152          6             0       63.555478   -2.816691   -1.745096
  153          6             0       62.724091   -1.944621   -1.127280
  154          6             0       63.496545   -0.770870   -0.855911
  155          6             0       62.938895    0.423839   -0.382711
  156          6             0       63.645199    1.629568   -0.468666
  157          6             0       63.032472    2.915182   -0.339145
  158          6             0       63.991372    3.829116   -0.619300
  159          6             0       65.194797    3.093871   -0.863312
  160          7             0       64.961295    1.745767   -0.790479
  161          6             0       66.437055    3.678644   -1.000740
  162          6             0       67.613269    2.956327   -0.971494
  163          6             0       68.908273    3.549630   -0.834443
  164          6             0       69.785603    2.530144   -0.678434
  165          6             0       69.024769    1.321832   -0.775444
  166          7             0       67.701347    1.589991   -0.945494
  167          6             0       69.607189    0.050581   -0.844887
  168          6             0       68.868067   -1.057177   -1.274071
  169          6             0       69.460621   -2.294909   -1.676049
  170          6             0       68.458075   -3.062996   -2.163324
  171          6             0       67.253092   -2.308301   -2.001112
  172          7             0       67.522021   -1.073842   -1.472470
  173          6             0       65.991201   -2.826916   -2.211442
  174          6             0       64.840558   -2.188943   -1.795558
  175          7             0       64.785405   -0.929497   -1.259825
  176          1             0       63.341885   -3.800381   -2.115567
  177          1             0       61.679680   -2.049870   -0.907655
  178          1             0       61.998622    3.073422   -0.104144
  179          1             0       63.915185    4.898904   -0.638481
  180          1             0       66.497306    4.756105   -1.029562
  181          1             0       69.099449    4.605088   -0.837070
  182          1             0       70.849604    2.570629   -0.549900
  183          1             0       70.507325   -2.515256   -1.612097
  184          1             0       68.507842   -4.054016   -2.570680
  185          1             0       65.906829   -3.820799   -2.624282
 --------------------------------------------------------------------
     1 basis functions        1 primitive gaussians
     1 alpha electrons        1 beta electrons

 Harmonic frequencies (cm**-1), IR intensities (km*mol⁻¹),
 Raman scattering activities (A**4/amu), Raman depolarization ratios,
 reduced masses (AMU), force constants (mDyne/A) and normal coordinates:
                      1                      2                      3
                        a                      a                      a 
 Frequencies --    -6.1244                -2.7016                -1.8816
 Red. masses --    12.4193                17.1323                13.3522
 Frc consts  --     0.0000                 0.0000                 0.0000
 IR Inten    --     6.5402                 5.1945                22.9885
 Raman Activ --     0.0000                 0.0000                 0.0000
 Depolar     --     0.0000                 0.0000                 0.0000
 Atom AN      X      Y      Z        X      Y      Z        X      Y      Z
   1  27     0.00   0.01  -0.02     0.03   0.07  -0.14    -0.04  -0.10   0.04
   2   6    -0.00   0.01  -0.00     0.02   0.09   0.00     0.07   0.11   0.11
   3   6    -0.00   0.01  -0.01     0.02   0.07  -0.01     0.04   0.10   0.07
   4   6     0.00   0.00  -0.01     0.02   0.05  -0.04     0.01   0.04   0.03
   5   6     0.00   0.00  -0.01     0.01   0.03  -0.06    -0.02   0.02  -0.02
   6   6     0.00  -0.00  -0.02     0.01   0.01  -0.10    -0.05  -0.03  -0.08
   7   6     0.00  -0.00  -0.02     0.01  -0.00  -0.14    -0.09  -0.05  -0.16
   8   6     0.00  -0.00  -0.03     0.00  -0.02  -0.18    -0.11  -0.08  -0.20
   9   6     0.00  -0.00  -0.02     0.01  -0.00  -0.16    -0.09  -0.09  -0.14
  10   7     0.00   0.00  -0.02     0.01   0.02  -0.12    -0.06  -0.06  -0.08
  11   6     0.00   0.00  -0.02     0.01  -0.01  -0.17    -0.11  -0.13  -0.15
  12   6     0.00   0.00  -0.02     0.01  -0.01  -0.14    -0.09  -0.14  -0.09
  13   6     0.00   0.00  -0.02     0.00  -0.02  -0.15    -0.10  -0.19  -0.09
  14   6     0.00   0.01  -0.01     0.00  -0.01  -0.11    -0.08  -0.19  -0.01
  15   6    -0.00   0.01  -0.01     0.01   0.01  -0.07    -0.05  -0.15   0.03
  16   7     0.00   0.01  -0.01     0.01   0.01  -0.10    -0.06  -0.12  -0.02
  17   6    -0.00   0.01  -0.00     0.01   0.02  -0.03    -0.02  -0.13   0.10
  18   6    -0.00   0.01   0.00     0.01   0.05  -0.01     0.02  -0.08   0.13
  19   6    -0.00   0.02   0.00     0.01   0.06   0.02     0.05  -0.05   0.20
  20   6    -0.00   0.01   0.00     0.02   0.08   0.02     0.08   0.00   0.21
  21   6    -0.00   0.01  -0.00     0.02   0.07  -0.00     0.06   0.01   0.15
  22   7    -0.00   0.01  -0.00     0.01   0.06  -0.03     0.02  -0.04   0.11
  23   6    -0.00   0.01  -0.00     0.02   0.09   0.00     0.07   0.06   0.15
  24   6    -0.00   0.01  -0.01     0.02   0.08  -0.01     0.05   0.07   0.10
  25   7     0.00   0.01  -0.01     0.02   0.06  -0.04     0.02   0.03   0.06
  26   1    -0.00   0.00  -0.00     0.01   0.03   0.01     0.03   0.04   0.04
  27   1    -0.00   0.00  -0.00     0.01   0.02  -0.00     0.01   0.03   0.02
  28   1     0.00  -0.00  -0.01     0.00  -0.00  -0.04    -0.03  -0.01  -0.06
  29   1     0.00  -0.00  -0.01     0.00  -0.01  -0.06    -0.04  -0.03  -0.08
  30   1     0.00  -0.00  -0.01     0.00  -0.01  -0.06    -0.04  -0.04  -0.06
  31   1     0.00   0.00  -0.01     0.00  -0.01  -0.05    -0.04  -0.06  -0.04
  32   1    -0.00   0.00  -0.00     0.00  -0.01  -0.03    -0.02  -0.07   0.00
  33   1    -0.00   0.00   0.00     0.00   0.01  -0.01    -0.00  -0.05   0.04
  34   1    -0.00   0.01   0.00     0.00   0.02   0.01     0.02  -0.02   0.07
  35   1    -0.00   0.00   0.00     0.01   0.03   0.01     0.03   0.01   0.07
  36   1    -0.00   0.00  -0.00     0.01   0.03   0.01     0.03   0.03   0.05
  37  27     0.03   0.05  -0.06    -0.04   0.07  -0.12     0.02  -0.06   0.06
  38   6    -0.04  -0.10   0.07    -0.01   0.04  -0.05     0.01  -0.04   0.05
  39   6    -0.02  -0.08   0.04    -0.01   0.03  -0.04     0.01  -0.03   0.03
  40   6    -0.00  -0.03  -0.00    -0.02   0.03  -0.04     0.01  -0.03   0.03
  41   6     0.02   0.00  -0.07    -0.02   0.02  -0.03     0.01  -0.02   0.01
  42   6     0.04   0.05  -0.15    -0.02   0.02  -0.03     0.01  -0.01  -0.00
  43   6     0.06   0.09  -0.26    -0.02   0.02  -0.02     0.01  -0.00  -0.02
  44   6     0.07   0.12  -0.32    -0.02   0.02  -0.02     0.01  -0.00  -0.03
  45   6     0.06   0.10  -0.24    -0.02   0.02  -0.04     0.01  -0.01  -0.01
  46   7     0.04   0.06  -0.15    -0.02   0.03  -0.04     0.01  -0.02   0.00
  47   6     0.06   0.11  -0.24    -0.02   0.03  -0.04     0.01  -0.01  -0.01
  48   6     0.06   0.10  -0.15    -0.02   0.03  -0.05     0.01  -0.01   0.00
  49   6     0.07   0.13  -0.13    -0.02   0.03  -0.06     0.01  -0.01   0.00
  50   6     0.06   0.11  -0.03    -0.02   0.03  -0.06     0.01  -0.02   0.02
  51   6     0.04   0.08   0.01    -0.02   0.03  -0.06     0.01  -0.02   0.03
  52   7     0.04   0.07  -0.06    -0.02   0.03  -0.06     0.01  -0.02   0.02
  53   6     0.03   0.05   0.09    -0.02   0.03  -0.07     0.01  -0.03   0.05
  54   6     0.00   0.01   0.11    -0.02   0.03  -0.07     0.01  -0.04   0.05
  55   6    -0.02  -0.02   0.18    -0.01   0.04  -0.08     0.01  -0.05   0.07
  56   6    -0.04  -0.05   0.17    -0.01   0.04  -0.08     0.01  -0.05   0.07
  57   6    -0.03  -0.04   0.11    -0.01   0.04  -0.07     0.01  -0.05   0.06
  58   7    -0.00  -0.01   0.08    -0.02   0.04  -0.07     0.01  -0.04   0.05
  59   6    -0.04  -0.08   0.10    -0.01   0.04  -0.07     0.00  -0.05   0.06
  60   6    -0.03  -0.07   0.06    -0.01   0.04  -0.06     0.01  -0.04   0.04
  61   7    -0.01  -0.03   0.01    -0.02   0.04  -0.06     0.01  -0.03   0.03
  62   1    -0.02  -0.04   0.03    -0.00   0.01  -0.02     0.00  -0.01   0.02
  63   1    -0.01  -0.03   0.01    -0.00   0.01  -0.01     0.00  -0.01   0.01
  64   1     0.02   0.03  -0.09    -0.01   0.00  -0.00     0.00   0.00  -0.01
  65   1     0.03   0.04  -0.12    -0.01   0.00  -0.00     0.00   0.00  -0.01
  66   1     0.02   0.04  -0.09    -0.01   0.01  -0.01     0.00  -0.00  -0.01
  67   1     0.02   0.04  -0.06    -0.01   0.01  -0.02     0.00  -0.00  -0.00
  68   1     0.02   0.04   0.00    -0.01   0.01  -0.02     0.00  -0.00   0.01
  69   1     0.01   0.02   0.04    -0.01   0.01  -0.02     0.00  -0.01   0.02
  70   1    -0.01  -0.00   0.06    -0.00   0.01  -0.02     0.00  -0.01   0.02
  71   1    -0.02  -0.02   0.06    -0.00   0.01  -0.02     0.00  -0.02   0.02
  72   1    -0.02  -0.03   0.04    -0.00   0.01  -0.02     0.00  -0.02   0.02
  73   6     0.00  -0.00  -0.01     0.02   0.03  -0.05    -0.02   0.04  -0.02
  74   6     0.00  -0.00  -0.01     0.02   0.03  -0.03    -0.01   0.05  -0.01
  75   6    -0.00   0.01   0.01     0.01  -0.04   0.07    -0.00   0.03  -0.02
  76   6    -0.00   0.01   0.01     0.01  -0.05   0.07    -0.00   0.02  -0.02
  77   6    -0.01   0.00   0.01    -0.01  -0.04   0.06     0.01   0.01  -0.03
  78   6    -0.01  -0.00   0.01    -0.01  -0.04   0.05     0.01   0.01  -0.02
  79   6     0.00  -0.03  -0.01    -0.02   0.02  -0.03     0.01  -0.01   0.01
  80   6     0.01  -0.01  -0.05    -0.02   0.02  -0.03     0.01  -0.01   0.01
  81  27     0.00  -0.01  -0.01     0.05  -0.01   0.05    -0.02   0.12  -0.00
  82   6     0.00  -0.00   0.01    -0.01   0.02  -0.01    -0.02   0.06  -0.02
  83   6     0.00  -0.00   0.00     0.00   0.02  -0.01    -0.02   0.06  -0.01
  84   6     0.00  -0.00  -0.00     0.01   0.02  -0.01    -0.01   0.06  -0.01
  85   6     0.00  -0.00  -0.01     0.02   0.02  -0.01    -0.01   0.06  -0.00
  86   6     0.00  -0.01  -0.01     0.04   0.02   0.00    -0.01   0.06   0.02
  87   6     0.00  -0.01  -0.02     0.05   0.03   0.00    -0.00   0.08   0.04
  88   6     0.00  -0.01  -0.03     0.06   0.02   0.01    -0.00   0.08   0.05
  89   6     0.00  -0.01  -0.02     0.06   0.01   0.02    -0.00   0.07   0.03
  90   7     0.00  -0.01  -0.01     0.04   0.01   0.01    -0.01   0.07   0.02
  91   6     0.00  -0.01  -0.02     0.06  -0.00   0.03    -0.00   0.07   0.03
  92   6     0.00  -0.01  -0.02     0.05  -0.01   0.04    -0.00   0.06   0.02
  93   6     0.00  -0.01  -0.02     0.06  -0.02   0.06    -0.00   0.05   0.02
  94   6    -0.00  -0.00  -0.01     0.04  -0.03   0.06    -0.00   0.04   0.00
  95   6    -0.00  -0.00  -0.00     0.03  -0.02   0.05    -0.00   0.04  -0.00
  96   7    -0.00  -0.00  -0.01     0.04  -0.02   0.04    -0.01   0.05   0.01
  97   6    -0.00   0.00   0.00     0.02  -0.03   0.06    -0.01   0.04  -0.01
  98   6    -0.00   0.00   0.01     0.01  -0.02   0.05    -0.01   0.04  -0.02
  99   6     0.00   0.00   0.01    -0.01  -0.03   0.05    -0.01   0.04  -0.02
 100   6     0.00   0.00   0.02    -0.01  -0.02   0.04    -0.02   0.04  -0.03
 101   6     0.00  -0.00   0.01    -0.00  -0.01   0.03    -0.02   0.05  -0.02
 102   7     0.00  -0.00   0.01     0.01  -0.01   0.04    -0.01   0.05  -0.01
 103   6     0.00  -0.00   0.01    -0.01  -0.00   0.02    -0.02   0.05  -0.02
 104   6     0.00  -0.00   0.00    -0.00   0.01   0.01    -0.02   0.05  -0.01
 105   7     0.00  -0.00  -0.00     0.01   0.01   0.01    -0.01   0.06  -0.01
 106   1     0.00  -0.00   0.00    -0.00   0.01  -0.00    -0.01   0.02  -0.01
 107   1     0.00  -0.00   0.00    -0.00   0.01  -0.01    -0.00   0.02  -0.00
 108   1     0.00  -0.00  -0.01     0.02   0.01  -0.00    -0.00   0.02   0.01
 109   1     0.00  -0.00  -0.01     0.02   0.01   0.00     0.00   0.03   0.02
 110   1     0.00  -0.00  -0.01     0.02  -0.00   0.01    -0.00   0.02   0.01
 111   1     0.00  -0.00  -0.01     0.02  -0.01   0.02     0.00   0.02   0.01
 112   1    -0.00  -0.00  -0.00     0.01  -0.01   0.02     0.00   0.01  -0.00
 113   1    -0.00   0.00   0.01    -0.00  -0.01   0.02    -0.00   0.01  -0.01
 114   1     0.00   0.00   0.01    -0.01  -0.01   0.01    -0.01   0.01  -0.01
 115   1     0.00  -0.00   0.00    -0.00  -0.00   0.00    -0.01   0.01  -0.01
 116  27    -0.02   0.04   0.05     0.01  -0.13   0.20     0.01   0.01  -0.08
 117   6    -0.01   0.03   0.06     0.01  -0.06   0.05    -0.00   0.00  -0.07
 118   6    -0.01   0.02   0.04     0.01  -0.06   0.05    -0.00   0.01  -0.05
 119   6    -0.01   0.02   0.03     0.01  -0.06   0.07     0.00   0.01  -0.04
 120   6    -0.01   0.01   0.01     0.01  -0.05   0.08     0.00   0.01  -0.03
 121   6    -0.01   0.02   0.01     0.01  -0.06   0.10     0.00   0.01  -0.02
 122   6    -0.01   0.02  -0.01     0.01  -0.06   0.12     0.01   0.01  -0.01
 123   6    -0.01   0.02  -0.01     0.00  -0.07   0.14     0.01   0.01  -0.01
 124   6    -0.01   0.02  -0.00     0.00  -0.07   0.13     0.01   0.01  -0.01
 125   7    -0.01   0.02   0.01     0.01  -0.07   0.12     0.01   0.01  -0.02
 126   6    -0.01   0.02  -0.01     0.00  -0.07   0.15     0.01   0.00  -0.01
 127   6    -0.01   0.02  -0.01     0.00  -0.07   0.14     0.01   0.00  -0.02
 128   6    -0.01   0.02  -0.02     0.00  -0.07   0.15     0.01   0.00  -0.01
 129   6    -0.01   0.01  -0.01     0.00  -0.06   0.12     0.01   0.00  -0.01
 130   6    -0.01   0.01   0.00     0.00  -0.06   0.10     0.01   0.00  -0.02
 131   7    -0.01   0.02   0.01     0.00  -0.07   0.12     0.01   0.00  -0.03
 132   6    -0.01   0.01   0.02    -0.00  -0.05   0.07     0.01   0.00  -0.03
 133   6    -0.01   0.01   0.03     0.00  -0.06   0.06     0.00   0.00  -0.04
 134   6    -0.01   0.02   0.05     0.00  -0.06   0.05     0.00   0.00  -0.05
 135   6    -0.01   0.02   0.07     0.01  -0.06   0.05     0.00  -0.00  -0.06
 136   6    -0.01   0.02   0.06     0.01  -0.06   0.06     0.00  -0.00  -0.06
 137   7    -0.01   0.02   0.04     0.00  -0.06   0.08     0.00   0.00  -0.05
 138   6    -0.01   0.03   0.06     0.01  -0.07   0.06     0.00  -0.00  -0.07
 139   6    -0.01   0.03   0.05     0.01  -0.06   0.06     0.00   0.00  -0.06
 140   7    -0.01   0.02   0.04     0.01  -0.07   0.08     0.00   0.01  -0.05
 141   1    -0.00   0.01   0.02     0.00  -0.02   0.01    -0.00  -0.00  -0.02
 142   1    -0.00   0.01   0.01     0.00  -0.02   0.01    -0.00   0.00  -0.02
 143   1    -0.00   0.00  -0.00     0.00  -0.02   0.03     0.00   0.00  -0.00
 144   1    -0.00   0.01  -0.01     0.00  -0.02   0.05     0.00   0.00   0.00
 145   1    -0.00   0.01  -0.01     0.00  -0.02   0.05     0.00   0.00  -0.00
 146   1    -0.00   0.01  -0.01     0.00  -0.02   0.05     0.00   0.00  -0.00
 147   1    -0.00   0.00  -0.01    -0.00  -0.02   0.03     0.00   0.00  -0.00
 148   1    -0.00   0.00   0.02     0.00  -0.02   0.01     0.00   0.00  -0.01
 149   1    -0.00   0.01   0.02     0.00  -0.02   0.01    -0.00  -0.00  -0.02
 150   1    -0.00   0.01   0.02     0.00  -0.02   0.01    -0.00  -0.00  -0.02
 151  27    -0.02  -0.09   0.05    -0.05   0.00   0.01     0.03   0.02  -0.01
 152   6    -0.02  -0.05   0.08    -0.01  -0.01   0.00     0.01   0.02  -0.04
 153   6    -0.02  -0.03   0.06    -0.01  -0.02   0.02     0.01   0.02  -0.04
 154   6    -0.01  -0.03   0.04    -0.01  -0.02   0.02     0.01   0.01  -0.03
 155   6    -0.01  -0.02   0.02    -0.02  -0.03   0.04     0.01   0.01  -0.02
 156   6    -0.00  -0.02  -0.00    -0.02  -0.02   0.04     0.01   0.01  -0.00
 157   6     0.00  -0.02  -0.02    -0.03  -0.02   0.05     0.02   0.01   0.01
 158   6     0.00  -0.03  -0.04    -0.04  -0.02   0.04     0.02   0.01   0.02
 159   6    -0.00  -0.03  -0.03    -0.04  -0.01   0.03     0.02   0.01   0.01
 160   7    -0.01  -0.03  -0.01    -0.03  -0.01   0.03     0.02   0.01   0.00
 161   6     0.00  -0.04  -0.05    -0.04   0.00   0.02     0.02   0.01   0.02
 162   6    -0.00  -0.04  -0.04    -0.04   0.01   0.01     0.02   0.00   0.02
 163   6     0.00  -0.04  -0.06    -0.04   0.01   0.01     0.02  -0.00   0.03
 164   6     0.00  -0.04  -0.05    -0.03   0.02  -0.01     0.02  -0.00   0.02
 165   6    -0.00  -0.04  -0.02    -0.03   0.01  -0.01     0.01  -0.00   0.01
 166   7    -0.00  -0.04  -0.01    -0.03   0.01   0.00     0.02   0.00   0.01
 167   6    -0.00  -0.04   0.01    -0.02   0.02  -0.02     0.01  -0.00   0.00
 168   6    -0.01  -0.06   0.07    -0.02   0.02  -0.03     0.01   0.00  -0.01
 169   6    -0.02  -0.08   0.13    -0.01   0.03  -0.05     0.01   0.00  -0.02
 170   6    -0.02  -0.09   0.15    -0.01   0.03  -0.06     0.01   0.01  -0.02
 171   6    -0.01  -0.08   0.11    -0.02   0.02  -0.03     0.01   0.01  -0.02
 172   7    -0.01  -0.06   0.07    -0.02   0.01  -0.02     0.01   0.01  -0.01
 173   6    -0.02  -0.07   0.11    -0.02   0.01  -0.03     0.01   0.02  -0.03
 174   6    -0.02  -0.06   0.08    -0.01  -0.00  -0.01     0.01   0.02  -0.03
 175   7    -0.01  -0.05   0.05    -0.02  -0.01   0.01     0.01   0.01  -0.02
 176   1    -0.01  -0.02   0.03    -0.00  -0.00  -0.00     0.00   0.01  -0.02
 177   1    -0.01  -0.00   0.01    -0.00  -0.01   0.01     0.00   0.00  -0.01
 178   1     0.00  -0.00  -0.01    -0.01  -0.01   0.02     0.00   0.00   0.00
 179   1     0.00  -0.01  -0.02    -0.01  -0.00   0.01     0.01   0.00   0.01
 180   1     0.00  -0.01  -0.02    -0.01   0.00   0.01     0.01   0.00   0.01
 181   1     0.00  -0.01  -0.02    -0.01   0.00   0.00     0.01  -0.00   0.01
 182   1     0.00  -0.01  -0.02    -0.01   0.01  -0.00     0.00  -0.00   0.01
 183   1    -0.01  -0.03   0.04    -0.00   0.01  -0.02     0.00   0.00  -0.00
 184   1    -0.01  -0.03   0.06    -0.00   0.01  -0.02     0.00   0.00  -0.01
 185   1    -0.00  -0.03   0.04    -0.00   0.00  -0.01     0.00   0.01  -0.01
                      4                      5                      6
                        a                      a                      a 
 Frequencies --     0.7273                 1.3593                 3.4276
 Red. masses --    16.9889                16.4412                17.3431
 Frc consts  --     0.0000                 0.0000                 0.0000
 IR Inten    --   117.6779                15.2369                 4.1640
 Raman Activ --     0.0000                 0.0000                 0.0000
 Depolar     --     0.0000                 0.0000                 0.0000
 Atom AN      X      Y      Z        X      Y      Z        X      Y      Z
   1  27    -0.01  -0.17  -0.08     0.00   0.04   0.08    -0.06  -0.02  -0.10
   2   6     0.02  -0.07  -0.07     0.03   0.01  -0.01    -0.06  -0.01   0.00
   3   6     0.01  -0.05  -0.05     0.02   0.02  -0.01    -0.04   0.00   0.02
   4   6     0.00  -0.05  -0.04     0.01   0.02   0.00    -0.03   0.00   0.01
   5   6    -0.00  -0.03  -0.02    -0.00   0.03   0.01    -0.02   0.01   0.03
   6   6    -0.02  -0.03  -0.00    -0.01   0.03   0.02    -0.02   0.01   0.03
   7   6    -0.03  -0.01   0.02    -0.02   0.03   0.02    -0.01   0.02   0.05
   8   6    -0.04  -0.02   0.03    -0.02   0.03   0.03    -0.01   0.02   0.04
   9   6    -0.03  -0.04   0.01    -0.02   0.03   0.04    -0.02   0.01   0.01
  10   7    -0.02  -0.05  -0.01    -0.01   0.03   0.03    -0.02   0.00  -0.00
  11   6    -0.04  -0.05   0.02    -0.02   0.03   0.05    -0.01   0.00  -0.02
  12   6    -0.03  -0.07  -0.00    -0.02   0.02   0.06    -0.01  -0.01  -0.06
  13   6    -0.03  -0.08  -0.00    -0.02   0.02   0.08    -0.00  -0.02  -0.08
  14   6    -0.02  -0.10  -0.03    -0.02   0.02   0.08    -0.00  -0.03  -0.12
  15   6    -0.01  -0.10  -0.04    -0.01   0.02   0.07    -0.01  -0.03  -0.11
  16   7    -0.01  -0.09  -0.03    -0.01   0.02   0.06    -0.02  -0.02  -0.08
  17   6     0.00  -0.11  -0.07    -0.00   0.01   0.06    -0.01  -0.03  -0.14
  18   6     0.01  -0.12  -0.08     0.01   0.01   0.05    -0.03  -0.03  -0.12
  19   6     0.02  -0.14  -0.10     0.02   0.00   0.05    -0.04  -0.04  -0.15
  20   6     0.02  -0.14  -0.10     0.03  -0.00   0.03    -0.05  -0.04  -0.12
  21   6     0.01  -0.12  -0.08     0.02   0.00   0.03    -0.05  -0.03  -0.09
  22   7     0.01  -0.11  -0.07     0.01   0.01   0.04    -0.04  -0.03  -0.09
  23   6     0.02  -0.11  -0.08     0.03   0.00   0.01    -0.06  -0.02  -0.06
  24   6     0.01  -0.09  -0.07     0.02   0.01   0.01    -0.05  -0.01  -0.03
  25   7     0.00  -0.08  -0.05     0.01   0.02   0.01    -0.04  -0.01  -0.02
  26   1     0.01  -0.02  -0.02     0.01   0.00  -0.01    -0.02  -0.00   0.00
  27   1     0.00  -0.01  -0.01     0.00   0.01  -0.01    -0.01   0.00   0.01
  28   1    -0.01   0.00   0.01    -0.01   0.01   0.00    -0.00   0.01   0.02
  29   1    -0.01  -0.00   0.01    -0.01   0.01   0.01    -0.00   0.01   0.02
  30   1    -0.01  -0.01   0.01    -0.01   0.01   0.02    -0.00   0.00  -0.00
  31   1    -0.01  -0.02   0.00    -0.01   0.01   0.03    -0.00  -0.00  -0.02
  32   1    -0.00  -0.03  -0.01    -0.01   0.01   0.03     0.00  -0.01  -0.04
  33   1     0.00  -0.04  -0.02    -0.00   0.00   0.02    -0.00  -0.01  -0.05
  34   1     0.01  -0.04  -0.03     0.00   0.00   0.02    -0.01  -0.02  -0.05
  35   1     0.01  -0.04  -0.03     0.01  -0.00   0.01    -0.02  -0.01  -0.04
  36   1     0.01  -0.03  -0.03     0.01  -0.00   0.00    -0.02  -0.01  -0.02
  37  27     0.01  -0.06  -0.11     0.02   0.17   0.04    -0.02   0.02   0.10
  38   6     0.02   0.00  -0.06    -0.03   0.08  -0.03    -0.05   0.00  -0.00
  39   6     0.02  -0.01  -0.05    -0.02   0.05  -0.02    -0.03   0.00  -0.02
  40   6     0.01  -0.02  -0.04    -0.00   0.05   0.00    -0.02   0.01  -0.01
  41   6     0.00  -0.03  -0.02     0.01   0.02   0.02    -0.00   0.01  -0.02
  42   6    -0.01  -0.04  -0.01     0.02   0.03   0.04     0.01   0.01  -0.01
  43   6    -0.01  -0.04   0.01     0.04   0.01   0.07     0.02   0.01  -0.03
  44   6    -0.02  -0.05   0.02     0.05   0.02   0.09     0.02   0.01  -0.01
  45   6    -0.01  -0.05   0.00     0.04   0.04   0.07     0.01   0.01   0.01
  46   7    -0.00  -0.04  -0.02     0.03   0.05   0.05     0.00   0.01   0.02
  47   6    -0.01  -0.05  -0.00     0.05   0.05   0.08     0.02   0.01   0.04
  48   6    -0.01  -0.05  -0.02     0.04   0.07   0.07     0.01   0.01   0.06
  49   6    -0.01  -0.06  -0.03     0.04   0.08   0.07     0.02   0.01   0.09
  50   6    -0.01  -0.06  -0.05     0.03   0.10   0.05     0.02   0.01   0.11
  51   6    -0.00  -0.05  -0.06     0.02   0.10   0.03     0.01   0.01   0.10
  52   7    -0.00  -0.05  -0.05     0.02   0.09   0.04     0.00   0.01   0.08
  53   6     0.00  -0.04  -0.08    -0.00   0.12   0.00    -0.00   0.01   0.11
  54   6     0.01  -0.03  -0.09    -0.01   0.12  -0.01    -0.02   0.01   0.10
  55   6     0.02  -0.02  -0.11    -0.03   0.14  -0.04    -0.03   0.00   0.11
  56   6     0.03  -0.00  -0.11    -0.03   0.14  -0.05    -0.05   0.00   0.09
  57   6     0.02  -0.01  -0.09    -0.02   0.12  -0.03    -0.04   0.01   0.07
  58   7     0.01  -0.02  -0.08    -0.01   0.12  -0.01    -0.02   0.01   0.08
  59   6     0.03   0.00  -0.09    -0.03   0.11  -0.03    -0.05   0.01   0.04
  60   6     0.02  -0.00  -0.07    -0.02   0.09  -0.02    -0.04   0.01   0.02
  61   7     0.01  -0.02  -0.06    -0.01   0.08  -0.00    -0.02   0.01   0.02
  62   1     0.01   0.00  -0.02    -0.01   0.02  -0.01    -0.02   0.00  -0.00
  63   1     0.00  -0.00  -0.01    -0.01   0.01  -0.01    -0.01   0.00  -0.01
  64   1    -0.00  -0.01   0.01     0.01  -0.00   0.02     0.01   0.00  -0.01
  65   1    -0.01  -0.02   0.01     0.02   0.00   0.03     0.01   0.00  -0.01
  66   1    -0.01  -0.02   0.00     0.02   0.01   0.03     0.01   0.00   0.01
  67   1    -0.01  -0.02  -0.00     0.02   0.02   0.03     0.01   0.00   0.03
  68   1    -0.00  -0.02  -0.02     0.01   0.03   0.01     0.01   0.00   0.04
  69   1     0.00  -0.01  -0.03    -0.00   0.04  -0.00     0.00   0.00   0.04
  70   1     0.01  -0.01  -0.04    -0.01   0.05  -0.01    -0.01   0.00   0.04
  71   1     0.01   0.00  -0.04    -0.01   0.05  -0.02    -0.02   0.00   0.03
  72   1     0.01   0.00  -0.03    -0.01   0.04  -0.01    -0.02   0.00   0.01
  73   6    -0.00  -0.01  -0.01    -0.00   0.04  -0.00    -0.01   0.02   0.05
  74   6     0.00   0.01  -0.01    -0.00   0.04  -0.01    -0.01   0.02   0.07
  75   6     0.00   0.09   0.03    -0.01   0.01  -0.04     0.01   0.01   0.07
  76   6     0.00   0.08   0.04    -0.01  -0.01  -0.03     0.01   0.01   0.06
  77   6    -0.00   0.02   0.05    -0.00  -0.09  -0.01     0.02  -0.02  -0.07
  78   6    -0.00   0.01   0.04    -0.00  -0.10  -0.02     0.01  -0.02  -0.08
  79   6    -0.00  -0.03  -0.00     0.01  -0.02   0.02     0.00  -0.00  -0.05
  80   6    -0.00  -0.03  -0.01     0.01   0.00   0.02     0.00   0.00  -0.04
  81  27     0.02   0.15   0.01    -0.01   0.10  -0.07    -0.01   0.06   0.21
  82   6     0.04   0.03  -0.07    -0.01   0.04  -0.09    -0.01   0.03   0.09
  83   6     0.03   0.02  -0.06    -0.01   0.04  -0.07    -0.01   0.02   0.08
  84   6     0.02   0.03  -0.03    -0.01   0.04  -0.04    -0.01   0.03   0.09
  85   6     0.01   0.03  -0.01    -0.00   0.05  -0.01    -0.01   0.02   0.08
  86   6    -0.00   0.05   0.02    -0.00   0.06   0.01    -0.00   0.03   0.09
  87   6    -0.01   0.06   0.04    -0.00   0.07   0.04    -0.00   0.03   0.10
  88   6    -0.01   0.08   0.06     0.00   0.08   0.05    -0.00   0.03   0.11
  89   6    -0.01   0.08   0.05    -0.00   0.07   0.03    -0.00   0.03   0.11
  90   7    -0.00   0.07   0.03    -0.00   0.06   0.00    -0.00   0.03   0.11
  91   6    -0.01   0.10   0.07    -0.00   0.07   0.03    -0.00   0.04   0.11
  92   6    -0.01   0.10   0.06    -0.00   0.06   0.02    -0.00   0.03   0.11
  93   6    -0.01   0.11   0.07     0.00   0.05   0.02    -0.00   0.03   0.10
  94   6    -0.01   0.10   0.06     0.00   0.04   0.01     0.00   0.02   0.09
  95   6     0.00   0.09   0.04    -0.00   0.03  -0.01     0.00   0.02   0.09
  96   7     0.00   0.09   0.04    -0.00   0.05  -0.01    -0.00   0.03   0.11
  97   6     0.01   0.08   0.02    -0.01   0.02  -0.04     0.00   0.02   0.08
  98   6     0.02   0.08  -0.01    -0.01   0.02  -0.06    -0.00   0.02   0.09
  99   6     0.03   0.08  -0.03    -0.01   0.01  -0.09    -0.00   0.02   0.09
 100   6     0.04   0.07  -0.06    -0.01   0.02  -0.11    -0.01   0.02   0.10
 101   6     0.03   0.07  -0.05    -0.01   0.03  -0.09    -0.01   0.02   0.10
 102   7     0.02   0.08  -0.02    -0.01   0.03  -0.07    -0.00   0.03   0.10
 103   6     0.04   0.06  -0.06    -0.01   0.04  -0.10    -0.01   0.03   0.10
 104   6     0.03   0.05  -0.06    -0.01   0.04  -0.08    -0.01   0.03   0.10
 105   7     0.02   0.05  -0.03    -0.01   0.05  -0.06    -0.01   0.03   0.10
 106   1     0.01   0.01  -0.03    -0.00   0.01  -0.03    -0.00   0.01   0.03
 107   1     0.01   0.00  -0.02    -0.00   0.01  -0.02    -0.00   0.01   0.02
 108   1    -0.00   0.01   0.01     0.00   0.02   0.01    -0.00   0.01   0.03
 109   1    -0.01   0.03   0.02     0.00   0.03   0.02     0.00   0.01   0.03
 110   1    -0.01   0.03   0.03     0.00   0.02   0.02    -0.00   0.01   0.03
 111   1    -0.01   0.04   0.03     0.00   0.02   0.01    -0.00   0.01   0.03
 112   1    -0.00   0.03   0.02     0.00   0.01   0.00     0.00   0.01   0.03
 113   1     0.01   0.02  -0.01    -0.00   0.00  -0.03    -0.00   0.01   0.02
 114   1     0.01   0.02  -0.02    -0.00   0.01  -0.04    -0.00   0.01   0.03
 115   1     0.01   0.02  -0.03    -0.01   0.01  -0.04    -0.00   0.01   0.03
 116  27    -0.00   0.13   0.12    -0.01  -0.12  -0.05     0.06  -0.02  -0.02
 117   6    -0.03   0.08   0.07    -0.04  -0.04  -0.05     0.02  -0.01   0.01
 118   6    -0.02   0.08   0.06    -0.03  -0.03  -0.05     0.02  -0.00   0.03
 119   6    -0.01   0.08   0.05    -0.02  -0.03  -0.04     0.02  -0.00   0.02
 120   6    -0.00   0.08   0.04    -0.01  -0.02  -0.03     0.02   0.00   0.04
 121   6     0.01   0.08   0.04     0.01  -0.03  -0.02     0.03  -0.00   0.04
 122   6     0.01   0.08   0.04     0.02  -0.02  -0.01     0.03   0.00   0.06
 123   6     0.02   0.08   0.04     0.02  -0.03  -0.00     0.04  -0.00   0.05
 124   6     0.02   0.07   0.04     0.02  -0.04  -0.01     0.04  -0.01   0.02
 125   7     0.01   0.07   0.05     0.01  -0.05  -0.02     0.03  -0.01   0.02
 126   6     0.02   0.06   0.04     0.03  -0.06   0.00     0.05  -0.01   0.01
 127   6     0.02   0.05   0.04     0.02  -0.07  -0.00     0.04  -0.01  -0.01
 128   6     0.02   0.04   0.03     0.03  -0.08   0.01     0.04  -0.02  -0.03
 129   6     0.02   0.03   0.04     0.02  -0.08   0.00     0.03  -0.02  -0.04
 130   6     0.01   0.04   0.04     0.01  -0.08  -0.01     0.03  -0.02  -0.04
 131   7     0.01   0.05   0.05     0.01  -0.07  -0.01     0.04  -0.02  -0.02
 132   6    -0.00   0.03   0.05    -0.00  -0.08  -0.01     0.02  -0.02  -0.06
 133   6    -0.01   0.04   0.06    -0.01  -0.08  -0.02     0.02  -0.02  -0.05
 134   6    -0.02   0.03   0.07    -0.02  -0.09  -0.02     0.02  -0.02  -0.07
 135   6    -0.03   0.04   0.08    -0.03  -0.08  -0.03     0.02  -0.02  -0.06
 136   6    -0.02   0.05   0.07    -0.03  -0.07  -0.03     0.03  -0.02  -0.04
 137   7    -0.01   0.05   0.07    -0.02  -0.08  -0.03     0.03  -0.02  -0.04
 138   6    -0.03   0.06   0.08    -0.04  -0.06  -0.04     0.03  -0.01  -0.03
 139   6    -0.02   0.07   0.07    -0.03  -0.05  -0.04     0.03  -0.01  -0.01
 140   7    -0.01   0.07   0.06    -0.02  -0.05  -0.04     0.03  -0.01   0.00
 141   1    -0.01   0.02   0.02    -0.01  -0.01  -0.02     0.01  -0.00   0.00
 142   1    -0.01   0.03   0.02    -0.01  -0.00  -0.01     0.00   0.00   0.01
 143   1     0.00   0.03   0.01     0.00  -0.00  -0.00     0.01   0.00   0.02
 144   1     0.01   0.02   0.01     0.01  -0.01   0.00     0.01  -0.00   0.02
 145   1     0.01   0.02   0.01     0.01  -0.02   0.00     0.01  -0.00   0.00
 146   1     0.01   0.01   0.01     0.01  -0.02   0.00     0.01  -0.01  -0.01
 147   1     0.01   0.01   0.01     0.01  -0.03   0.00     0.01  -0.01  -0.02
 148   1    -0.01   0.01   0.02    -0.01  -0.03  -0.00     0.01  -0.01  -0.02
 149   1    -0.01   0.01   0.02    -0.01  -0.02  -0.01     0.01  -0.01  -0.02
 150   1    -0.01   0.02   0.02    -0.01  -0.02  -0.01     0.01  -0.00  -0.01
 151  27    -0.02  -0.06   0.06     0.01  -0.17   0.00     0.02  -0.03  -0.19
 152   6    -0.02  -0.03   0.08     0.03  -0.12   0.06     0.02  -0.02  -0.08
 153   6    -0.02  -0.01   0.07     0.02  -0.11   0.03     0.02  -0.02  -0.08
 154   6    -0.01  -0.01   0.05     0.01  -0.10   0.01     0.01  -0.02  -0.09
 155   6    -0.00  -0.00   0.04    -0.00  -0.09  -0.01     0.01  -0.02  -0.09
 156   6    -0.00  -0.01   0.02    -0.01  -0.09  -0.04     0.01  -0.02  -0.10
 157   6     0.00  -0.00   0.01    -0.03  -0.09  -0.07     0.00  -0.02  -0.11
 158   6     0.01  -0.01  -0.01    -0.03  -0.09  -0.08    -0.00  -0.02  -0.12
 159   6     0.00  -0.02  -0.01    -0.02  -0.08  -0.06     0.00  -0.01  -0.11
 160   7    -0.00  -0.02   0.01    -0.01  -0.09  -0.04     0.01  -0.02  -0.11
 161   6     0.00  -0.02  -0.02    -0.03  -0.07  -0.07    -0.00  -0.01  -0.12
 162   6     0.00  -0.03  -0.02    -0.02  -0.06  -0.05     0.00  -0.01  -0.10
 163   6     0.00  -0.03  -0.04    -0.03  -0.05  -0.07    -0.00  -0.01  -0.10
 164   6     0.00  -0.03  -0.03    -0.02  -0.03  -0.04     0.00  -0.00  -0.08
 165   6    -0.00  -0.03  -0.01    -0.01  -0.04  -0.02     0.00  -0.01  -0.08
 166   7    -0.00  -0.03  -0.00    -0.01  -0.07  -0.03     0.00  -0.01  -0.10
 167   6    -0.01  -0.03   0.01     0.01  -0.04   0.01     0.01  -0.00  -0.07
 168   6    -0.01  -0.04   0.03     0.02  -0.06   0.04     0.01  -0.01  -0.06
 169   6    -0.02  -0.04   0.05     0.03  -0.06   0.07     0.02  -0.01  -0.06
 170   6    -0.02  -0.05   0.07     0.04  -0.08   0.09     0.02  -0.01  -0.06
 171   6    -0.02  -0.04   0.06     0.03  -0.09   0.07     0.02  -0.01  -0.07
 172   7    -0.01  -0.04   0.04     0.02  -0.08   0.04     0.01  -0.01  -0.08
 173   6    -0.02  -0.04   0.08     0.04  -0.11   0.07     0.02  -0.02  -0.08
 174   6    -0.02  -0.03   0.07     0.03  -0.11   0.05     0.02  -0.02  -0.08
 175   7    -0.01  -0.03   0.06     0.02  -0.10   0.03     0.01  -0.02  -0.09
 176   1    -0.01  -0.01   0.03     0.01  -0.04   0.02     0.01  -0.01  -0.02
 177   1    -0.00  -0.00   0.02     0.01  -0.03   0.01     0.00  -0.01  -0.02
 178   1     0.00   0.00   0.00    -0.01  -0.03  -0.02     0.00  -0.01  -0.03
 179   1     0.00  -0.00  -0.01    -0.01  -0.03  -0.03    -0.00  -0.00  -0.04
 180   1     0.00  -0.01  -0.01    -0.01  -0.02  -0.03    -0.00  -0.00  -0.04
 181   1     0.00  -0.01  -0.01    -0.01  -0.01  -0.03    -0.00  -0.00  -0.03
 182   1     0.00  -0.01  -0.01    -0.01  -0.01  -0.01    -0.00   0.00  -0.02
 183   1    -0.01  -0.01   0.01     0.01  -0.01   0.02     0.00  -0.00  -0.01
 184   1    -0.01  -0.02   0.02     0.01  -0.03   0.03     0.01  -0.00  -0.02
 185   1    -0.01  -0.01   0.03     0.01  -0.03   0.03     0.01  -0.01  -0.02
                      7                      8                      9
                        a                      a                      a 
 Frequencies --     5.3476                10.8988                12.5815
 Red. masses --    17.5555                12.5958                12.1968
 Frc consts  --     0.0000                 0.0000                 0.0000
 IR Inten    --     4.2887                23.5704               379.8379
 Raman Activ --     0.0000                 0.0000                 0.0000
 Depolar     --     0.0000                 0.0000                 0.0000
 Atom AN      X      Y      Z        X      Y      Z        X      Y      Z
   1  27     0.12  -0.02   0.07    -0.05   0.01  -0.01     0.07  -0.00   0.04
   2   6     0.08  -0.03  -0.03    -0.02  -0.01  -0.03     0.02   0.09   0.14
   3   6     0.07  -0.03  -0.04    -0.02  -0.01  -0.03     0.03   0.09   0.15
   4   6     0.06  -0.02  -0.02    -0.02  -0.00  -0.02     0.03   0.06   0.11
   5   6     0.05  -0.02  -0.03    -0.02  -0.00  -0.02     0.03   0.06   0.12
   6   6     0.05  -0.02  -0.01    -0.02  -0.00  -0.02     0.03   0.06   0.11
   7   6     0.04  -0.02  -0.02    -0.02  -0.01  -0.03     0.02   0.08   0.15
   8   6     0.04  -0.02  -0.01    -0.02  -0.00  -0.03     0.01   0.06   0.14
   9   6     0.04  -0.01   0.02    -0.02   0.00  -0.02     0.01   0.03   0.09
  10   7     0.05  -0.01   0.01    -0.02   0.00  -0.01     0.02   0.03   0.08
  11   6     0.04  -0.01   0.04    -0.02   0.01  -0.01     0.00  -0.00   0.04
  12   6     0.04   0.00   0.06    -0.02   0.01   0.01     0.02  -0.04  -0.03
  13   6     0.04   0.01   0.09    -0.03   0.02   0.02     0.03  -0.09  -0.10
  14   6     0.03   0.01   0.11    -0.03   0.03   0.04     0.05  -0.12  -0.16
  15   6     0.04   0.01   0.09    -0.03   0.03   0.03     0.06  -0.10  -0.12
  16   7     0.05   0.00   0.07    -0.03   0.02   0.01     0.04  -0.05  -0.05
  17   6     0.04   0.01   0.10    -0.03   0.03   0.03     0.07  -0.12  -0.15
  18   6     0.06   0.00   0.08    -0.03   0.02   0.02     0.06  -0.08  -0.10
  19   6     0.06   0.00   0.09    -0.03   0.02   0.02     0.06  -0.09  -0.12
  20   6     0.08  -0.01   0.07    -0.02   0.01   0.00     0.03  -0.04  -0.05
  21   6     0.08  -0.01   0.05    -0.02   0.00  -0.01     0.02  -0.01  -0.00
  22   7     0.07  -0.01   0.06    -0.03   0.01   0.00     0.04  -0.03  -0.03
  23   6     0.08  -0.02   0.02    -0.02  -0.01  -0.02     0.01   0.04   0.06
  24   6     0.08  -0.02  -0.00    -0.02  -0.01  -0.02     0.02   0.06   0.10
  25   7     0.07  -0.02   0.00    -0.02  -0.00  -0.02     0.03   0.05   0.09
  26   1     0.03  -0.01  -0.01    -0.01  -0.01  -0.01     0.00   0.03   0.05
  27   1     0.02  -0.01  -0.02    -0.01  -0.00  -0.01     0.01   0.03   0.05
  28   1     0.01  -0.01  -0.01    -0.01  -0.00  -0.01     0.01   0.03   0.05
  29   1     0.01  -0.00  -0.00    -0.01  -0.00  -0.01     0.00   0.02   0.05
  30   1     0.01  -0.00   0.01    -0.01   0.00  -0.00    -0.00   0.00   0.01
  31   1     0.01   0.00   0.03    -0.01   0.01   0.01     0.00  -0.03  -0.03
  32   1     0.01   0.01   0.04    -0.01   0.01   0.01     0.02  -0.05  -0.06
  33   1     0.01   0.01   0.04    -0.01   0.01   0.01     0.03  -0.05  -0.06
  34   1     0.02   0.00   0.03    -0.01   0.01   0.01     0.02  -0.04  -0.05
  35   1     0.03  -0.00   0.02    -0.01   0.00  -0.00     0.01  -0.01  -0.01
  36   1     0.03  -0.01   0.00    -0.01  -0.00  -0.01     0.00   0.02   0.02
  37  27    -0.13  -0.04   0.10     0.08  -0.03  -0.03    -0.03   0.00  -0.01
  38   6    -0.08   0.01  -0.03     0.06   0.11  -0.15    -0.01   0.03  -0.05
  39   6    -0.07   0.01  -0.04     0.05   0.11  -0.13    -0.01   0.04  -0.06
  40   6    -0.06   0.00  -0.02     0.04   0.07  -0.09    -0.01   0.03  -0.04
  41   6    -0.05   0.01  -0.03     0.03   0.07  -0.08    -0.01   0.03  -0.05
  42   6    -0.05   0.00  -0.02     0.02   0.06  -0.08    -0.01   0.02  -0.04
  43   6    -0.05   0.01  -0.03     0.00   0.08  -0.11    -0.01   0.03  -0.05
  44   6    -0.05  -0.00  -0.01    -0.02   0.06  -0.10    -0.02   0.02  -0.04
  45   6    -0.05  -0.01   0.02    -0.01   0.02  -0.05    -0.02   0.01  -0.03
  46   7    -0.06  -0.01   0.02     0.01   0.02  -0.05    -0.02   0.02  -0.03
  47   6    -0.05  -0.02   0.05    -0.02  -0.03   0.00    -0.02   0.00  -0.01
  48   6    -0.05  -0.03   0.08    -0.00  -0.08   0.06    -0.02  -0.01   0.02
  49   6    -0.05  -0.04   0.11     0.00  -0.14   0.14    -0.01  -0.03   0.04
  50   6    -0.04  -0.05   0.14     0.04  -0.18   0.18    -0.00  -0.04   0.06
  51   6    -0.05  -0.04   0.12     0.05  -0.14   0.13    -0.00  -0.03   0.05
  52   7    -0.06  -0.03   0.09     0.03  -0.09   0.07    -0.01  -0.02   0.02
  53   6    -0.05  -0.05   0.13     0.08  -0.15   0.13     0.00  -0.04   0.06
  54   6    -0.06  -0.04   0.11     0.08  -0.10   0.07    -0.00  -0.03   0.04
  55   6    -0.07  -0.05   0.12     0.09  -0.10   0.06    -0.00  -0.03   0.05
  56   6    -0.08  -0.03   0.09     0.07  -0.03  -0.02    -0.01  -0.02   0.02
  57   6    -0.08  -0.02   0.06     0.06   0.00  -0.04    -0.01  -0.00   0.00
  58   7    -0.07  -0.03   0.08     0.07  -0.04   0.01    -0.01  -0.01   0.02
  59   6    -0.09  -0.01   0.03     0.06   0.06  -0.10    -0.02   0.01  -0.02
  60   6    -0.08  -0.00   0.00     0.05   0.08  -0.11    -0.01   0.02  -0.03
  61   7    -0.07  -0.00   0.01     0.05   0.05  -0.09    -0.01   0.02  -0.03
  62   1    -0.03   0.00  -0.01     0.02   0.04  -0.05    -0.00   0.01  -0.02
  63   1    -0.02   0.01  -0.02     0.02   0.04  -0.04    -0.00   0.01  -0.02
  64   1    -0.01   0.00  -0.02     0.00   0.03  -0.04    -0.00   0.01  -0.02
  65   1    -0.01   0.00  -0.00    -0.01   0.02  -0.03    -0.01   0.01  -0.01
  66   1    -0.02  -0.01   0.01    -0.01  -0.01   0.00    -0.01   0.00  -0.00
  67   1    -0.01  -0.01   0.03    -0.01  -0.04   0.04    -0.01  -0.01   0.01
  68   1    -0.01  -0.02   0.05     0.01  -0.07   0.07    -0.00  -0.02   0.02
  69   1    -0.01  -0.02   0.05     0.03  -0.06   0.05     0.00  -0.01   0.02
  70   1    -0.02  -0.02   0.04     0.03  -0.04   0.03     0.00  -0.01   0.02
  71   1    -0.03  -0.01   0.03     0.02  -0.00  -0.01    -0.00  -0.00   0.01
  72   1    -0.03  -0.00   0.01     0.02   0.03  -0.04    -0.01   0.00  -0.01
  73   6     0.05  -0.02  -0.04    -0.02   0.00  -0.01     0.03   0.07   0.12
  74   6     0.04  -0.02  -0.05    -0.02   0.00  -0.00     0.03   0.06   0.10
  75   6     0.02   0.01   0.01    -0.01  -0.06  -0.01     0.02   0.01  -0.11
  76   6     0.02   0.02   0.02    -0.00  -0.06  -0.02     0.01   0.00  -0.10
  77   6    -0.01   0.01   0.01     0.00   0.04   0.03     0.01  -0.04   0.09
  78   6    -0.02   0.01  -0.01     0.01   0.05   0.04     0.00  -0.04   0.08
  79   6    -0.04   0.01  -0.07     0.02   0.07  -0.05    -0.01   0.03  -0.05
  80   6    -0.05   0.01  -0.05     0.03   0.07  -0.07    -0.01   0.03  -0.05
  81  27     0.09  -0.01  -0.11    -0.03  -0.02   0.02     0.01   0.03  -0.07
  82   6     0.05  -0.02  -0.10    -0.04  -0.01  -0.06    -0.00   0.05   0.12
  83   6     0.05  -0.02  -0.09    -0.03  -0.00  -0.05     0.01   0.06   0.13
  84   6     0.05  -0.02  -0.07    -0.03  -0.00  -0.02     0.01   0.05   0.08
  85   6     0.04  -0.02  -0.06    -0.02   0.00   0.00     0.02   0.05   0.07
  86   6     0.04  -0.01  -0.05    -0.01   0.01   0.03     0.01   0.03   0.02
  87   6     0.04  -0.01  -0.05     0.00   0.03   0.07    -0.00   0.02   0.00
  88   6     0.04  -0.01  -0.05     0.01   0.04   0.08    -0.01  -0.00  -0.04
  89   6     0.04  -0.00  -0.05     0.00   0.02   0.06    -0.01  -0.00  -0.06
  90   7     0.04  -0.01  -0.05    -0.01   0.01   0.04     0.00   0.01  -0.02
  91   6     0.04   0.00  -0.03     0.00   0.02   0.07    -0.01  -0.02  -0.10
  92   6     0.04   0.01  -0.03     0.00  -0.00   0.05    -0.01  -0.01  -0.11
  93   6     0.03   0.02  -0.01     0.01  -0.02   0.05    -0.00  -0.02  -0.14
  94   6     0.03   0.02   0.00     0.00  -0.04   0.03     0.01  -0.01  -0.14
  95   6     0.03   0.01  -0.01    -0.00  -0.04   0.02     0.01   0.00  -0.11
  96   7     0.04   0.01  -0.03    -0.01  -0.02   0.03     0.00  -0.00  -0.10
  97   6     0.03   0.01  -0.01    -0.01  -0.05  -0.00     0.02   0.01  -0.11
  98   6     0.04   0.00  -0.04    -0.02  -0.04  -0.01     0.01   0.01  -0.09
  99   6     0.04   0.00  -0.05    -0.03  -0.05  -0.01     0.01   0.01  -0.10
 100   6     0.05   0.00  -0.07    -0.04  -0.04  -0.02     0.00   0.01  -0.07
 101   6     0.05  -0.00  -0.07    -0.03  -0.02  -0.02    -0.00   0.01  -0.03
 102   7     0.05  -0.00  -0.06    -0.03  -0.03  -0.01     0.00   0.01  -0.05
 103   6     0.05  -0.01  -0.09    -0.04  -0.02  -0.04    -0.01   0.02   0.02
 104   6     0.05  -0.01  -0.09    -0.03  -0.01  -0.04    -0.00   0.03   0.06
 105   7     0.05  -0.01  -0.08    -0.03  -0.01  -0.02     0.00   0.03   0.04
 106   1     0.02  -0.01  -0.03    -0.01  -0.00  -0.02    -0.00   0.01   0.04
 107   1     0.01  -0.01  -0.03    -0.01   0.00  -0.02     0.00   0.02   0.05
 108   1     0.01  -0.00  -0.02     0.00   0.01   0.02     0.00   0.01   0.01
 109   1     0.01  -0.00  -0.01     0.00   0.02   0.03    -0.01  -0.01  -0.02
 110   1     0.01   0.00  -0.01     0.00   0.01   0.03    -0.01  -0.01  -0.03
 111   1     0.01   0.01   0.00     0.00  -0.00   0.02    -0.00  -0.01  -0.05
 112   1     0.01   0.01   0.01     0.00  -0.01   0.01     0.00  -0.00  -0.05
 113   1     0.01   0.00  -0.01    -0.01  -0.02  -0.00     0.01   0.00  -0.04
 114   1     0.02   0.00  -0.02    -0.01  -0.01  -0.01     0.00   0.00  -0.02
 115   1     0.02  -0.00  -0.03    -0.01  -0.00  -0.01    -0.00   0.01   0.01
 116  27     0.01   0.04   0.12    -0.01  -0.05  -0.03    -0.02  -0.04   0.01
 117   6     0.00   0.03   0.07     0.04  -0.07  -0.10    -0.04  -0.00  -0.03
 118   6     0.00   0.02   0.06     0.04  -0.07  -0.09    -0.02   0.00  -0.06
 119   6     0.01   0.02   0.05     0.02  -0.06  -0.05    -0.01  -0.00  -0.05
 120   6     0.01   0.02   0.04    -0.00  -0.06  -0.02     0.01  -0.00  -0.08
 121   6     0.01   0.02   0.04    -0.02  -0.05   0.00     0.01  -0.00  -0.08
 122   6     0.01   0.02   0.04    -0.04  -0.07   0.03     0.02   0.00  -0.11
 123   6     0.01   0.02   0.05    -0.05  -0.06   0.04     0.01  -0.00  -0.08
 124   6     0.01   0.02   0.06    -0.04  -0.04   0.02     0.00  -0.01  -0.04
 125   7     0.01   0.02   0.06    -0.02  -0.04   0.00     0.00  -0.01  -0.04
 126   6     0.01   0.02   0.06    -0.05  -0.03   0.02    -0.00  -0.02   0.01
 127   6     0.01   0.01   0.05    -0.04  -0.01   0.00     0.00  -0.03   0.05
 128   6     0.01   0.01   0.05    -0.05   0.01   0.00     0.01  -0.03   0.09
 129   6     0.00   0.01   0.04    -0.04   0.03   0.00     0.01  -0.04   0.10
 130   6    -0.00   0.01   0.04    -0.02   0.02   0.00     0.01  -0.03   0.08
 131   7     0.00   0.02   0.05    -0.02  -0.00   0.00    -0.00  -0.03   0.05
 132   6    -0.01   0.01   0.03    -0.00   0.03   0.02     0.00  -0.04   0.08
 133   6    -0.00   0.01   0.04     0.02   0.02   0.01    -0.01  -0.03   0.06
 134   6    -0.00   0.01   0.04     0.03   0.03   0.02    -0.02  -0.04   0.07
 135   6     0.00   0.02   0.05     0.04   0.02   0.00    -0.03  -0.03   0.06
 136   6     0.00   0.02   0.06     0.03  -0.01  -0.02    -0.03  -0.03   0.03
 137   7    -0.00   0.02   0.05     0.01  -0.00  -0.01    -0.02  -0.03   0.04
 138   6     0.00   0.02   0.07     0.03  -0.03  -0.05    -0.04  -0.02   0.01
 139   6     0.00   0.02   0.07     0.03  -0.05  -0.07    -0.03  -0.01  -0.01
 140   7     0.00   0.02   0.06     0.01  -0.04  -0.05    -0.02  -0.01  -0.03
 141   1    -0.00   0.01   0.02     0.02  -0.02  -0.04    -0.01  -0.00  -0.01
 142   1     0.00   0.01   0.02     0.01  -0.02  -0.03    -0.01   0.00  -0.02
 143   1     0.00   0.01   0.01    -0.01  -0.02   0.01     0.01   0.00  -0.04
 144   1     0.00   0.00   0.02    -0.02  -0.02   0.02     0.00  -0.00  -0.03
 145   1     0.00   0.00   0.02    -0.02  -0.01   0.01    -0.00  -0.01   0.00
 146   1     0.00   0.00   0.02    -0.02   0.00   0.00     0.00  -0.01   0.03
 147   1     0.00   0.00   0.01    -0.01   0.01  -0.00     0.01  -0.01   0.04
 148   1    -0.00   0.00   0.01     0.01   0.01   0.01    -0.01  -0.01   0.03
 149   1     0.00   0.01   0.02     0.01   0.01   0.00    -0.01  -0.01   0.02
 150   1     0.00   0.01   0.02     0.01  -0.01  -0.02    -0.02  -0.01   0.01
 151  27    -0.09   0.03  -0.16     0.02   0.08   0.05    -0.03   0.01   0.02
 152   6    -0.04   0.01  -0.03     0.00   0.02   0.10     0.00  -0.02   0.05
 153   6    -0.03   0.01  -0.02     0.00   0.04   0.07     0.01  -0.03   0.07
 154   6    -0.03   0.01  -0.04     0.00   0.04   0.05     0.00  -0.02   0.06
 155   6    -0.03   0.01  -0.04     0.01   0.05   0.04    -0.00  -0.03   0.07
 156   6    -0.03   0.01  -0.06     0.01   0.05   0.03    -0.01  -0.02   0.06
 157   6    -0.04   0.01  -0.07     0.01   0.05   0.02    -0.02  -0.03   0.07
 158   6    -0.04   0.01  -0.09     0.01   0.04  -0.00    -0.03  -0.02   0.05
 159   6    -0.04   0.01  -0.09     0.00   0.04  -0.01    -0.03  -0.01   0.03
 160   7    -0.04   0.01  -0.08     0.01   0.04   0.01    -0.02  -0.01   0.04
 161   6    -0.04   0.01  -0.11     0.00   0.04  -0.06    -0.04   0.00   0.01
 162   6    -0.04   0.01  -0.11     0.00   0.04  -0.07    -0.03   0.01  -0.01
 163   6    -0.04   0.01  -0.11     0.00   0.05  -0.13    -0.04   0.02  -0.02
 164   6    -0.04   0.02  -0.10     0.01   0.06  -0.12    -0.03   0.03  -0.04
 165   6    -0.04   0.02  -0.09     0.01   0.06  -0.06    -0.02   0.02  -0.03
 166   7    -0.05   0.01  -0.10     0.01   0.05  -0.04    -0.02   0.01  -0.01
 167   6    -0.04   0.01  -0.08     0.02   0.05  -0.02    -0.01   0.03  -0.04
 168   6    -0.04   0.01  -0.08     0.01   0.03   0.05    -0.01   0.02  -0.04
 169   6    -0.04   0.01  -0.08     0.01   0.01   0.11    -0.00   0.03  -0.06
 170   6    -0.04   0.01  -0.07     0.00  -0.01   0.15    -0.01   0.03  -0.06
 171   6    -0.04   0.01  -0.07     0.01   0.00   0.12    -0.01   0.02  -0.03
 172   7    -0.05   0.01  -0.08     0.01   0.03   0.06    -0.01   0.02  -0.02
 173   6    -0.05   0.01  -0.06     0.01  -0.00   0.13    -0.01   0.01  -0.00
 174   6    -0.04   0.01  -0.05     0.00   0.02   0.10    -0.01  -0.01   0.03
 175   7    -0.04   0.01  -0.06     0.01   0.03   0.07    -0.01  -0.01   0.04
 176   1    -0.01   0.00  -0.01     0.00   0.00   0.04     0.00  -0.01   0.02
 177   1    -0.01   0.00  -0.00    -0.00   0.01   0.02     0.00  -0.01   0.03
 178   1    -0.01   0.00  -0.02     0.01   0.01   0.01    -0.01  -0.01   0.02
 179   1    -0.01   0.00  -0.03     0.00   0.01  -0.00    -0.01  -0.01   0.02
 180   1    -0.01   0.00  -0.04    -0.00   0.01  -0.02    -0.01   0.00   0.00
 181   1    -0.01   0.00  -0.04     0.00   0.02  -0.05    -0.01   0.01  -0.01
 182   1    -0.01   0.01  -0.03     0.00   0.02  -0.04    -0.01   0.01  -0.01
 183   1    -0.01   0.00  -0.02     0.00   0.00   0.04    -0.00   0.01  -0.02
 184   1    -0.01   0.00  -0.02    -0.00  -0.01   0.06    -0.00   0.01  -0.02
 185   1    -0.01   0.00  -0.02     0.00  -0.01   0.05    -0.00   0.00  -0.00
                     10                     11                     12
                        a                      a                      a 
 Frequencies --    14.8004                15.5363                17.1513
 Red. masses --    12.2737                11.4688                11.4278
 Frc consts  --     0.0000                 0.0000                 0.0000
 IR Inten    --    46.2220                13.7320                 6.8034
 Raman Activ --     0.0000                 0.0000                 0.0000
 Depolar     --     0.0000                 0.0000                 0.0000
 Atom AN      X      Y      Z        X      Y      Z        X      Y      Z
   1  27     0.08   0.02   0.01    -0.02  -0.01  -0.02    -0.00   0.01   0.00
   2   6     0.05   0.06   0.05     0.07   0.02  -0.08    -0.04  -0.02   0.02
   3   6     0.05   0.07   0.05     0.05   0.06  -0.06    -0.03  -0.04   0.02
   4   6     0.04   0.05   0.04     0.02   0.05  -0.05    -0.01  -0.03   0.02
   5   6     0.03   0.06   0.04    -0.01   0.06  -0.05     0.00  -0.03   0.02
   6   6     0.02   0.05   0.04    -0.04   0.05  -0.05     0.01  -0.02   0.02
   7   6     0.01   0.06   0.05    -0.07   0.05  -0.07     0.03  -0.02   0.03
   8   6     0.00   0.05   0.05    -0.08   0.04  -0.04     0.04  -0.02   0.01
   9   6     0.01   0.03   0.03    -0.07   0.03   0.00     0.03  -0.01  -0.01
  10   7     0.02   0.04   0.03    -0.04   0.03  -0.01     0.02  -0.01   0.00
  11   6     0.00   0.01   0.02    -0.08   0.03   0.07     0.03  -0.01  -0.04
  12   6     0.01  -0.01  -0.01    -0.07   0.02   0.10     0.03  -0.01  -0.06
  13   6     0.01  -0.04  -0.03    -0.09   0.03   0.17     0.04  -0.01  -0.09
  14   6     0.03  -0.06  -0.06    -0.07   0.01   0.16     0.03   0.00  -0.08
  15   6     0.04  -0.05  -0.05    -0.04  -0.01   0.09     0.01   0.01  -0.04
  16   7     0.03  -0.02  -0.02    -0.04   0.00   0.07     0.01   0.00  -0.03
  17   6     0.06  -0.06  -0.07    -0.01  -0.04   0.05    -0.00   0.03  -0.01
  18   6     0.06  -0.05  -0.05     0.02  -0.07  -0.01    -0.02   0.04   0.02
  19   6     0.06  -0.06  -0.06     0.06  -0.12  -0.06    -0.04   0.07   0.04
  20   6     0.06  -0.04  -0.04     0.08  -0.13  -0.10    -0.05   0.07   0.05
  21   6     0.05  -0.01  -0.01     0.06  -0.09  -0.08    -0.03   0.04   0.04
  22   7     0.05  -0.02  -0.02     0.03  -0.06  -0.03    -0.02   0.03   0.02
  23   6     0.05   0.02   0.01     0.07  -0.07  -0.09    -0.04   0.03   0.03
  24   6     0.05   0.04   0.03     0.05  -0.02  -0.07    -0.03  -0.00   0.02
  25   7     0.04   0.04   0.03     0.02   0.01  -0.05    -0.02  -0.01   0.02
  26   1     0.02   0.02   0.02     0.03   0.00  -0.03    -0.01  -0.01   0.01
  27   1     0.01   0.02   0.02     0.01   0.03  -0.02    -0.01  -0.02   0.00
  28   1     0.00   0.02   0.02    -0.02   0.02  -0.03     0.01  -0.01   0.01
  29   1    -0.00   0.02   0.02    -0.03   0.01  -0.01     0.01  -0.01   0.00
  30   1    -0.00   0.00   0.01    -0.03   0.01   0.03     0.01  -0.01  -0.02
  31   1     0.00  -0.01  -0.01    -0.03   0.01   0.06     0.01  -0.01  -0.03
  32   1     0.01  -0.02  -0.02    -0.02   0.00   0.06     0.01   0.00  -0.03
  33   1     0.02  -0.02  -0.03    -0.00  -0.01   0.02    -0.00   0.01  -0.00
  34   1     0.02  -0.02  -0.03     0.02  -0.04  -0.02    -0.01   0.02   0.01
  35   1     0.02  -0.01  -0.01     0.03  -0.05  -0.04    -0.02   0.02   0.02
  36   1     0.01   0.01   0.00     0.03  -0.03  -0.03    -0.01   0.01   0.01
  37  27    -0.07  -0.02   0.02     0.01   0.01   0.00     0.01  -0.01   0.02
  38   6    -0.02  -0.05   0.08     0.02   0.01   0.00     0.09   0.05   0.06
  39   6    -0.03  -0.05   0.08     0.02   0.02  -0.01     0.07   0.09   0.05
  40   6    -0.03  -0.04   0.06     0.01   0.02  -0.01     0.03   0.07   0.04
  41   6    -0.03  -0.04   0.06     0.01   0.03  -0.01    -0.00   0.08   0.05
  42   6    -0.03  -0.03   0.06     0.00   0.02  -0.01    -0.04   0.06   0.05
  43   6    -0.03  -0.04   0.07    -0.01   0.02  -0.00    -0.07   0.06   0.08
  44   6    -0.03  -0.03   0.06    -0.01   0.01  -0.00    -0.09   0.04   0.05
  45   6    -0.03  -0.02   0.03    -0.01   0.01  -0.01    -0.07   0.03   0.01
  46   7    -0.03  -0.02   0.04     0.00   0.01  -0.01    -0.04   0.03   0.02
  47   6    -0.02  -0.00   0.00    -0.01   0.01  -0.01    -0.08   0.01  -0.05
  48   6    -0.03   0.01  -0.04    -0.00   0.00  -0.01    -0.07  -0.00  -0.09
  49   6    -0.04   0.04  -0.08    -0.01   0.00  -0.02    -0.09  -0.01  -0.15
  50   6    -0.05   0.05  -0.11    -0.00  -0.00  -0.01    -0.07  -0.03  -0.15
  51   6    -0.05   0.04  -0.08     0.00  -0.01  -0.00    -0.03  -0.03  -0.09
  52   7    -0.04   0.02  -0.04     0.00  -0.00  -0.01    -0.04  -0.02  -0.06
  53   6    -0.05   0.04  -0.09     0.01  -0.01   0.01     0.01  -0.07  -0.05
  54   6    -0.04   0.02  -0.05     0.01  -0.02   0.02     0.05  -0.09   0.01
  55   6    -0.04   0.02  -0.05     0.02  -0.03   0.04     0.09  -0.13   0.06
  56   6    -0.03  -0.00  -0.02     0.02  -0.03   0.04     0.11  -0.14   0.09
  57   6    -0.03  -0.02   0.01     0.02  -0.02   0.02     0.08  -0.09   0.07
  58   7    -0.04   0.00  -0.02     0.01  -0.01   0.02     0.05  -0.06   0.03
  59   6    -0.02  -0.04   0.04     0.02  -0.01   0.02     0.10  -0.05   0.08
  60   6    -0.02  -0.04   0.05     0.01   0.00   0.01     0.08   0.00   0.06
  61   7    -0.03  -0.03   0.05     0.01   0.01   0.00     0.04   0.02   0.04
  62   1    -0.01  -0.02   0.02     0.01   0.00   0.00     0.04   0.01   0.02
  63   1    -0.01  -0.01   0.03     0.00   0.01  -0.00     0.02   0.04   0.01
  64   1    -0.01  -0.02   0.03    -0.00   0.01   0.00    -0.02   0.02   0.03
  65   1    -0.01  -0.01   0.02    -0.00   0.00   0.00    -0.04   0.01   0.02
  66   1    -0.01  -0.00   0.00    -0.00   0.00  -0.00    -0.03   0.00  -0.02
  67   1    -0.01   0.01  -0.03    -0.00   0.00  -0.01    -0.03   0.00  -0.06
  68   1    -0.02   0.02  -0.04    -0.00  -0.00  -0.00    -0.02  -0.01  -0.05
  69   1    -0.02   0.02  -0.03     0.00  -0.01   0.00     0.00  -0.02  -0.02
  70   1    -0.01   0.01  -0.02     0.01  -0.01   0.01     0.03  -0.05   0.02
  71   1    -0.01  -0.00  -0.00     0.01  -0.01   0.01     0.04  -0.05   0.04
  72   1    -0.00  -0.01   0.02     0.01  -0.00   0.01     0.04  -0.02   0.03
  73   6     0.04   0.07   0.05    -0.01   0.09  -0.06     0.00  -0.04   0.03
  74   6     0.04   0.07   0.05    -0.01   0.10  -0.05     0.00  -0.04   0.03
  75   6     0.01  -0.11  -0.01    -0.01  -0.05   0.02     0.00   0.00  -0.01
  76   6     0.01  -0.11  -0.01    -0.00  -0.06   0.02    -0.00   0.00  -0.00
  77   6    -0.02   0.09  -0.04     0.01  -0.05   0.02    -0.01  -0.06  -0.03
  78   6    -0.02   0.09  -0.05     0.01  -0.05   0.02    -0.01  -0.06  -0.04
  79   6    -0.03  -0.03   0.07     0.01   0.04  -0.03    -0.00   0.12   0.05
  80   6    -0.03  -0.04   0.07     0.01   0.03  -0.02    -0.00   0.11   0.06
  81  27     0.04  -0.03  -0.00    -0.01   0.03   0.02     0.01  -0.00  -0.00
  82   6    -0.04   0.03  -0.07    -0.08   0.07  -0.03     0.03  -0.03  -0.05
  83   6    -0.02   0.04  -0.04    -0.06   0.08  -0.07     0.02  -0.03  -0.02
  84   6     0.01   0.03  -0.01    -0.03   0.07  -0.04     0.01  -0.03   0.00
  85   6     0.03   0.05   0.04    -0.00   0.08  -0.03     0.00  -0.03   0.03
  86   6     0.05   0.05   0.07     0.03   0.08   0.00    -0.01  -0.01   0.04
  87   6     0.07   0.09   0.11     0.06   0.10   0.03    -0.02  -0.00   0.07
  88   6     0.08   0.08   0.11     0.07   0.08   0.03    -0.02   0.01   0.08
  89   6     0.06   0.04   0.07     0.05   0.04   0.00    -0.02   0.02   0.06
  90   7     0.05   0.03   0.05     0.03   0.04  -0.01    -0.01   0.00   0.04
  91   6     0.07   0.01   0.05     0.06  -0.01  -0.03    -0.02   0.03   0.07
  92   6     0.06  -0.03   0.02     0.05  -0.04  -0.05    -0.02   0.03   0.05
  93   6     0.08  -0.06   0.01     0.07  -0.09  -0.09    -0.02   0.04   0.06
  94   6     0.06  -0.09  -0.01     0.06  -0.09  -0.08    -0.01   0.03   0.04
  95   6     0.04  -0.07  -0.01     0.03  -0.05  -0.03    -0.00   0.01   0.01
  96   7     0.04  -0.04   0.00     0.03  -0.03  -0.02    -0.01   0.01   0.02
  97   6     0.02  -0.09  -0.01    -0.01  -0.04   0.02     0.01   0.00  -0.01
  98   6    -0.01  -0.07  -0.02    -0.04  -0.02   0.08     0.01  -0.01  -0.05
  99   6    -0.03  -0.09  -0.03    -0.08  -0.02   0.15     0.03  -0.01  -0.09
 100   6    -0.05  -0.07  -0.05    -0.09  -0.01   0.17     0.03  -0.01  -0.11
 101   6    -0.03  -0.04  -0.05    -0.07   0.00   0.10     0.02  -0.01  -0.08
 102   7    -0.01  -0.05  -0.03    -0.04  -0.00   0.06     0.02  -0.01  -0.05
 103   6    -0.04  -0.02  -0.07    -0.07   0.02   0.07     0.03  -0.01  -0.09
 104   6    -0.03   0.01  -0.06    -0.06   0.04   0.01     0.02  -0.02  -0.05
 105   7    -0.00   0.01  -0.02    -0.04   0.05   0.00     0.01  -0.02  -0.02
 106   1    -0.02   0.01  -0.03    -0.03   0.02  -0.01     0.01  -0.01  -0.02
 107   1    -0.01   0.02  -0.01    -0.02   0.03  -0.03     0.01  -0.01  -0.00
 108   1     0.02   0.03   0.04     0.02   0.04   0.01    -0.00  -0.00   0.02
 109   1     0.03   0.03   0.04     0.03   0.03   0.01    -0.01   0.01   0.03
 110   1     0.02   0.00   0.02     0.02  -0.00  -0.01    -0.01   0.01   0.03
 111   1     0.03  -0.02   0.00     0.03  -0.03  -0.03    -0.01   0.01   0.02
 112   1     0.02  -0.03  -0.01     0.02  -0.04  -0.03    -0.00   0.01   0.01
 113   1    -0.01  -0.03  -0.01    -0.03  -0.01   0.05     0.01  -0.00  -0.03
 114   1    -0.02  -0.02  -0.02    -0.03  -0.00   0.06     0.01  -0.00  -0.04
 115   1    -0.02  -0.00  -0.03    -0.03   0.01   0.03     0.01  -0.00  -0.03
 116  27    -0.00  -0.01  -0.01    -0.00  -0.04   0.00    -0.01  -0.03  -0.00
 117   6     0.09  -0.07  -0.04     0.00  -0.00   0.13    -0.03   0.02   0.09
 118   6     0.07  -0.09  -0.05     0.00  -0.02   0.10    -0.02   0.01   0.07
 119   6     0.04  -0.07  -0.02    -0.00  -0.03   0.05    -0.01   0.00   0.03
 120   6     0.01  -0.08  -0.01    -0.00  -0.04   0.01    -0.00  -0.00   0.00
 121   6    -0.03  -0.07   0.02    -0.00  -0.04  -0.05     0.01  -0.00  -0.02
 122   6    -0.06  -0.10   0.04    -0.00  -0.03  -0.10     0.01   0.01  -0.04
 123   6    -0.08  -0.08   0.04    -0.00  -0.02  -0.14     0.02   0.01  -0.06
 124   6    -0.06  -0.04   0.02    -0.00  -0.01  -0.11     0.02   0.00  -0.05
 125   7    -0.03  -0.04   0.01    -0.00  -0.02  -0.06     0.01  -0.00  -0.03
 126   6    -0.08  -0.01  -0.01    -0.01  -0.00  -0.14     0.02  -0.00  -0.07
 127   6    -0.07   0.02  -0.04    -0.00  -0.01  -0.11     0.02  -0.02  -0.06
 128   6    -0.09   0.06  -0.08    -0.00  -0.01  -0.13     0.03  -0.03  -0.07
 129   6    -0.08   0.08  -0.09     0.00  -0.03  -0.08     0.02  -0.04  -0.06
 130   6    -0.04   0.06  -0.05     0.00  -0.03  -0.04     0.01  -0.04  -0.04
 131   7    -0.04   0.03  -0.03    -0.00  -0.02  -0.05     0.01  -0.03  -0.04
 132   6    -0.02   0.07  -0.03     0.00  -0.04   0.01    -0.00  -0.05  -0.02
 133   6     0.02   0.06   0.00     0.00  -0.03   0.05    -0.01  -0.04   0.01
 134   6     0.05   0.09   0.03     0.00  -0.02   0.09    -0.02  -0.04   0.04
 135   6     0.08   0.07   0.04     0.00  -0.01   0.13    -0.03  -0.02   0.06
 136   6     0.06   0.04   0.02     0.00  -0.00   0.10    -0.02  -0.01   0.06
 137   7     0.03   0.04   0.00     0.00  -0.02   0.06    -0.01  -0.02   0.02
 138   6     0.08   0.01   0.01    -0.00   0.01   0.13    -0.03   0.00   0.08
 139   6     0.07  -0.03  -0.01    -0.00  -0.00   0.11    -0.02   0.01   0.07
 140   7     0.04  -0.04  -0.01    -0.00  -0.02   0.06    -0.01  -0.00   0.04
 141   1     0.03  -0.02  -0.01     0.00   0.00   0.05    -0.01   0.01   0.03
 142   1     0.02  -0.03  -0.02     0.00  -0.01   0.03    -0.01   0.00   0.02
 143   1    -0.02  -0.04   0.02    -0.00  -0.01  -0.03     0.00   0.00  -0.01
 144   1    -0.03  -0.02   0.02    -0.00  -0.00  -0.05     0.01   0.00  -0.02
 145   1    -0.03  -0.00  -0.00    -0.00   0.00  -0.05     0.01   0.00  -0.02
 146   1    -0.03   0.02  -0.03    -0.00  -0.00  -0.05     0.01  -0.01  -0.03
 147   1    -0.03   0.03  -0.04     0.00  -0.01  -0.02     0.01  -0.02  -0.02
 148   1     0.02   0.03   0.01     0.00  -0.01   0.03    -0.01  -0.02   0.01
 149   1     0.03   0.02   0.02    -0.00   0.00   0.05    -0.01  -0.01   0.03
 150   1     0.03   0.00   0.01    -0.00   0.01   0.05    -0.01   0.00   0.03
 151  27    -0.04   0.03  -0.02     0.01   0.01  -0.00    -0.01   0.04  -0.02
 152   6    -0.06   0.05   0.01     0.04  -0.03   0.03     0.08  -0.08   0.08
 153   6    -0.05   0.07  -0.02     0.04  -0.05   0.05     0.06  -0.08   0.07
 154   6    -0.04   0.06  -0.02     0.02  -0.03   0.03     0.03  -0.05   0.02
 155   6    -0.02   0.08  -0.04     0.01  -0.04   0.02    -0.01  -0.04  -0.04
 156   6    -0.01   0.06  -0.06    -0.01  -0.03   0.01    -0.04  -0.03  -0.09
 157   6     0.01   0.08  -0.09    -0.02  -0.04   0.01    -0.08  -0.04  -0.16
 158   6     0.02   0.06  -0.10    -0.03  -0.02   0.01    -0.10  -0.03  -0.18
 159   6     0.01   0.04  -0.08    -0.02  -0.01   0.02    -0.07  -0.00  -0.11
 160   7    -0.00   0.04  -0.06    -0.01  -0.01   0.02    -0.04  -0.01  -0.07
 161   6     0.02   0.02  -0.09    -0.03   0.00   0.04    -0.08   0.02  -0.08
 162   6     0.01   0.00  -0.06    -0.02   0.02   0.04    -0.06   0.05  -0.02
 163   6     0.02  -0.01  -0.06    -0.03   0.03   0.06    -0.08   0.08   0.02
 164   6     0.00  -0.02  -0.01    -0.02   0.03   0.04    -0.06   0.10   0.06
 165   6    -0.01  -0.01   0.01    -0.00   0.03   0.01    -0.03   0.08   0.04
 166   7    -0.01  -0.00  -0.02    -0.01   0.02   0.01    -0.04   0.05  -0.00
 167   6    -0.03  -0.03   0.06     0.01   0.04  -0.03    -0.00   0.10   0.03
 168   6    -0.04  -0.03   0.08     0.02   0.04  -0.06     0.03   0.08   0.01
 169   6    -0.05  -0.05   0.13     0.03   0.06  -0.12     0.06   0.10  -0.00
 170   6    -0.05  -0.05   0.13     0.04   0.06  -0.12     0.08   0.08  -0.00
 171   6    -0.04  -0.02   0.08     0.03   0.04  -0.07     0.06   0.04   0.01
 172   7    -0.04  -0.01   0.06     0.02   0.03  -0.04     0.03   0.05   0.02
 173   6    -0.05  -0.01   0.06     0.03   0.02  -0.04     0.08  -0.01   0.04
 174   6    -0.05   0.02   0.02     0.03  -0.01   0.00     0.06  -0.04   0.05
 175   7    -0.04   0.04  -0.00     0.02  -0.01   0.01     0.03  -0.03   0.02
 176   1    -0.02   0.01   0.01     0.02  -0.01   0.01     0.03  -0.03   0.03
 177   1    -0.02   0.03  -0.01     0.01  -0.02   0.02     0.02  -0.03   0.02
 178   1     0.00   0.03  -0.03    -0.01  -0.01  -0.00    -0.03  -0.02  -0.06
 179   1     0.01   0.02  -0.04    -0.01  -0.01   0.00    -0.04  -0.01  -0.07
 180   1     0.01   0.00  -0.03    -0.01   0.00   0.01    -0.03   0.01  -0.03
 181   1     0.01  -0.01  -0.02    -0.01   0.01   0.02    -0.03   0.02   0.01
 182   1     0.00  -0.01   0.00    -0.00   0.01   0.01    -0.02   0.04   0.03
 183   1    -0.02  -0.02   0.05     0.01   0.02  -0.04     0.02   0.04  -0.01
 184   1    -0.02  -0.02   0.05     0.01   0.02  -0.04     0.03   0.02  -0.00
 185   1    -0.02  -0.00   0.02     0.01   0.01  -0.02     0.03  -0.00   0.02
                     13                     14                     15
                        a                      a                      a 
 Frequencies --    17.5555                21.0332                26.3615
 Red. masses --    11.5346                12.3292                11.8910
 Frc consts  --     0.0000                 0.0000                 0.0000
 IR Inten    --    39.7607               475.8284                62.8536
 Raman Activ --     0.0000                 0.0000                 0.0000
 Depolar     --     0.0000                 0.0000                 0.0000
 Atom AN      X      Y      Z        X      Y      Z        X      Y      Z
   1  27    -0.04   0.01  -0.01    -0.07  -0.02  -0.03    -0.02  -0.02  -0.03
   2   6    -0.06  -0.04  -0.00    -0.03  -0.04  -0.05    -0.02  -0.03  -0.01
   3   6    -0.05  -0.05   0.00    -0.03  -0.02  -0.03    -0.01  -0.01   0.03
   4   6    -0.03  -0.03   0.01    -0.03  -0.02  -0.03    -0.00  -0.01   0.02
   5   6    -0.01  -0.03   0.02    -0.02  -0.02  -0.03     0.01  -0.02   0.02
   6   6     0.01  -0.03   0.01    -0.03  -0.03  -0.05     0.00  -0.04  -0.04
   7   6     0.02  -0.04   0.01    -0.02  -0.05  -0.08     0.01  -0.07  -0.10
   8   6     0.03  -0.03  -0.02    -0.02  -0.05  -0.09     0.01  -0.07  -0.14
   9   6     0.02  -0.02  -0.03    -0.02  -0.03  -0.06     0.01  -0.05  -0.09
  10   7     0.00  -0.02  -0.01    -0.03  -0.02  -0.04     0.00  -0.03  -0.05
  11   6     0.03  -0.02  -0.07    -0.02  -0.01  -0.03     0.02  -0.02  -0.07
  12   6     0.02  -0.00  -0.07    -0.03   0.02   0.02     0.00   0.02  -0.00
  13   6     0.03   0.00  -0.09    -0.03   0.05   0.07    -0.00   0.05   0.06
  14   6     0.01   0.02  -0.07    -0.05   0.07   0.10    -0.03   0.09   0.11
  15   6    -0.01   0.03  -0.03    -0.05   0.05   0.07    -0.03   0.06   0.08
  16   7    -0.00   0.01  -0.04    -0.04   0.02   0.03    -0.01   0.02   0.02
  17   6    -0.03   0.06   0.01    -0.06   0.05   0.07    -0.04   0.07   0.08
  18   6    -0.04   0.06   0.03    -0.05   0.02   0.03    -0.03   0.03   0.02
  19   6    -0.07   0.09   0.06    -0.04   0.01   0.01    -0.03   0.01  -0.01
  20   6    -0.07   0.09   0.06    -0.03  -0.02  -0.03    -0.02  -0.04  -0.06
  21   6    -0.06   0.05   0.03    -0.03  -0.03  -0.03    -0.02  -0.05  -0.06
  22   7    -0.04   0.04   0.02    -0.04  -0.00  -0.00    -0.03  -0.01  -0.01
  23   6    -0.06   0.02   0.02    -0.03  -0.05  -0.06    -0.02  -0.06  -0.07
  24   6    -0.05  -0.01   0.00    -0.03  -0.04  -0.05    -0.02  -0.04  -0.04
  25   7    -0.04  -0.01   0.01    -0.03  -0.03  -0.04    -0.01  -0.03  -0.02
  26   1    -0.02  -0.01  -0.00    -0.01  -0.01  -0.02    -0.01  -0.01  -0.01
  27   1    -0.01  -0.02  -0.00    -0.01  -0.00  -0.01    -0.00   0.00   0.02
  28   1     0.01  -0.01   0.01    -0.01  -0.02  -0.03     0.00  -0.03  -0.03
  29   1     0.01  -0.01  -0.01    -0.01  -0.02  -0.03     0.00  -0.03  -0.05
  30   1     0.01  -0.01  -0.03    -0.00  -0.00  -0.01     0.01  -0.01  -0.03
  31   1     0.01  -0.00  -0.04    -0.01   0.02   0.02     0.00   0.02   0.02
  32   1     0.00   0.01  -0.02    -0.02   0.03   0.04    -0.01   0.03   0.05
  33   1    -0.01   0.02   0.00    -0.02   0.02   0.03    -0.02   0.03   0.03
  34   1    -0.02   0.03   0.02    -0.01   0.01   0.01    -0.01   0.01   0.00
  35   1    -0.02   0.03   0.02    -0.01  -0.01  -0.01    -0.01  -0.02  -0.03
  36   1    -0.02   0.01   0.01    -0.01  -0.02  -0.02    -0.01  -0.02  -0.03
  37  27    -0.01   0.01  -0.00    -0.05  -0.02   0.03    -0.03  -0.00  -0.01
  38   6    -0.06  -0.04  -0.03    -0.02  -0.02   0.02     0.00  -0.03   0.08
  39   6    -0.04  -0.05  -0.04    -0.01   0.00  -0.01    -0.01  -0.05   0.11
  40   6    -0.02  -0.04  -0.04    -0.01  -0.01   0.00    -0.02  -0.02   0.07
  41   6     0.01  -0.04  -0.05    -0.01  -0.01   0.01    -0.02   0.00   0.04
  42   6     0.02  -0.03  -0.03    -0.02  -0.04   0.06    -0.02   0.03  -0.03
  43   6     0.05  -0.04  -0.03    -0.02  -0.06   0.11    -0.03   0.07  -0.10
  44   6     0.06  -0.03  -0.01    -0.01  -0.06   0.13    -0.03   0.06  -0.13
  45   6     0.05  -0.02   0.01    -0.01  -0.03   0.07    -0.03   0.03  -0.07
  46   7     0.03  -0.02  -0.01    -0.01  -0.02   0.04    -0.03   0.01  -0.02
  47   6     0.06  -0.00   0.03    -0.00  -0.01   0.02    -0.04   0.00  -0.03
  48   6     0.04   0.01   0.04    -0.02   0.03  -0.05    -0.03  -0.03   0.03
  49   6     0.06   0.03   0.07    -0.02   0.07  -0.12    -0.02  -0.07   0.09
  50   6     0.04   0.04   0.06    -0.04   0.09  -0.15    -0.01  -0.08   0.10
  51   6     0.01   0.04   0.04    -0.04   0.06  -0.09    -0.01  -0.05   0.05
  52   7     0.02   0.02   0.03    -0.03   0.03  -0.04    -0.02  -0.03   0.02
  53   6    -0.01   0.05   0.03    -0.05   0.05  -0.07    -0.00  -0.04   0.01
  54   6    -0.03   0.05   0.01    -0.03   0.01   0.00    -0.01   0.00  -0.05
  55   6    -0.06   0.07   0.00    -0.03  -0.02   0.05    -0.01   0.04  -0.11
  56   6    -0.07   0.06  -0.01    -0.02  -0.07   0.09    -0.00   0.07  -0.13
  57   6    -0.06   0.03  -0.01    -0.02  -0.06   0.08     0.00   0.05  -0.07
  58   7    -0.03   0.03   0.00    -0.03  -0.02   0.03    -0.01   0.01  -0.04
  59   6    -0.06   0.01  -0.01    -0.02  -0.07   0.08     0.01   0.04  -0.04
  60   6    -0.05  -0.02  -0.02    -0.02  -0.04   0.05     0.00  -0.00   0.02
  61   7    -0.03  -0.02  -0.02    -0.02  -0.03   0.03    -0.01  -0.00   0.02
  62   1    -0.02  -0.01  -0.01    -0.01  -0.01   0.01     0.00  -0.01   0.03
  63   1    -0.01  -0.02  -0.01    -0.00   0.01  -0.01    -0.00  -0.02   0.04
[...]
 124   6    -0.00  -0.00  -0.00     0.00   0.00   0.00    -0.00  -0.00  -0.00
 125   7    -0.00   0.00   0.00    -0.00   0.00   0.00    -0.00   0.00  -0.00
 126   6     0.00   0.00   0.00    -0.00   0.00   0.00    -0.00   0.00   0.00
 127   6     0.00  -0.00   0.00     0.00   0.00  -0.00    -0.00   0.00   0.00
 128   6     0.00  -0.00  -0.00     0.00  -0.00  -0.00    -0.00   0.00   0.00
 129   6    -0.00  -0.00   0.00    -0.00  -0.00   0.00     0.00   0.00  -0.00
 130   6     0.00   0.00  -0.00    -0.00   0.00   0.00     0.00  -0.00  -0.00
 131   7    -0.00   0.00   0.00     0.00   0.00   0.00    -0.00  -0.00   0.00
 132   6    -0.00  -0.00  -0.00    -0.00  -0.00   0.00    -0.00   0.00   0.00
 133   6    -0.00  -0.00   0.00     0.00   0.00  -0.00     0.00   0.00  -0.00
 134   6    -0.00   0.00   0.00     0.00   0.00  -0.00     0.00  -0.00  -0.00
 135   6    -0.00   0.00  -0.00     0.00  -0.00   0.00     0.00  -0.00   0.00
 136   6     0.00  -0.00   0.00    -0.00   0.00  -0.00    -0.00  -0.00   0.00
 137   7     0.00  -0.00   0.00     0.00  -0.00   0.00    -0.00  -0.00   0.00
 138   6     0.00   0.00  -0.00    -0.00  -0.00   0.00    -0.00   0.00  -0.00
 139   6    -0.00  -0.00  -0.00     0.00   0.00   0.00    -0.00   0.00  -0.00
 140   7    -0.00  -0.00   0.00     0.00   0.00   0.00    -0.00  -0.00  -0.00
 141   1    -0.00  -0.02   0.01     0.00   0.06  -0.02    -0.00  -0.00   0.00
 142   1    -0.04  -0.01  -0.01     0.15   0.03   0.02    -0.01  -0.00  -0.00
 143   1    -0.00   0.00  -0.00     0.00  -0.00   0.00    -0.00   0.00  -0.00
 144   1    -0.00   0.00   0.00     0.00  -0.00  -0.00    -0.00   0.00   0.00
 145   1    -0.00  -0.00  -0.00     0.00  -0.00  -0.00     0.00  -0.00  -0.00
 146   1     0.00   0.01   0.00     0.00   0.00   0.00    -0.00  -0.00  -0.00
 147   1     0.00   0.00   0.00     0.00   0.00  -0.00    -0.01  -0.00   0.00
 148   1     0.01  -0.00  -0.00    -0.00   0.00   0.00    -0.00   0.00   0.00
 149   1     0.00  -0.00   0.00    -0.00   0.00  -0.00    -0.00   0.00  -0.00
 150   1     0.00  -0.00   0.00    -0.00   0.00  -0.00     0.00  -0.00   0.00
 151  27     0.00  -0.00  -0.00     0.00   0.00  -0.00     0.00  -0.00   0.00
 152   6    -0.00  -0.01  -0.00    -0.00  -0.00  -0.00    -0.00  -0.00  -0.00
 153   6    -0.02  -0.00   0.00    -0.00  -0.00   0.00     0.00   0.00  -0.00
 154   6    -0.00   0.00   0.00    -0.00   0.00   0.00    -0.00   0.00  -0.00
 155   6    -0.00   0.00   0.00     0.00   0.00   0.00     0.00  -0.00  -0.00
 156   6    -0.00  -0.01   0.00    -0.00  -0.00   0.00    -0.00  -0.00  -0.00
 157   6    -0.25   0.03   0.06    -0.00   0.00   0.00    -0.00   0.00   0.00
 158   6    -0.00   0.13  -0.00    -0.00   0.00  -0.00    -0.00   0.00  -0.00
 159   6     0.01   0.00  -0.00     0.00   0.00  -0.00     0.00   0.00   0.00
 160   7     0.00  -0.00  -0.00     0.00  -0.00  -0.00    -0.00   0.00   0.00
 161   6    -0.00   0.00   0.00    -0.00   0.00   0.00     0.00   0.00  -0.00
 162   6    -0.00  -0.00  -0.00    -0.00   0.00  -0.00    -0.00   0.00   0.00
 163   6     0.00   0.00  -0.00     0.00   0.00  -0.00    -0.00  -0.00   0.00
 164   6     0.00  -0.00   0.00     0.00   0.00   0.00    -0.00   0.00  -0.00
 165   6     0.00  -0.00  -0.00     0.00  -0.00   0.00     0.00  -0.00  -0.00
 166   7    -0.00  -0.00   0.00    -0.00  -0.00   0.00     0.00   0.00   0.00
 167   6    -0.00   0.00   0.00     0.00   0.00   0.00    -0.00   0.00  -0.00
 168   6    -0.00  -0.00  -0.00    -0.00  -0.00  -0.00     0.00   0.00   0.00
 169   6    -0.00   0.00  -0.00    -0.00   0.00  -0.00     0.00  -0.00   0.00
 170   6     0.00   0.00   0.00     0.00   0.00   0.00    -0.00  -0.00  -0.00
 171   6    -0.00  -0.00   0.00     0.00  -0.00  -0.00    -0.00  -0.00   0.00
 172   7     0.00   0.00   0.00     0.00  -0.00  -0.00     0.00  -0.00  -0.00
 173   6    -0.00  -0.00  -0.00    -0.00  -0.00  -0.00     0.00  -0.00  -0.00
 174   6     0.00  -0.00  -0.00     0.00  -0.00  -0.00     0.00  -0.00   0.00
 175   7     0.00  -0.00  -0.00     0.00   0.00   0.00    -0.00  -0.00  -0.00
 176   1     0.01   0.03   0.01     0.00   0.00   0.00     0.00   0.00   0.00
 177   1     0.06   0.01  -0.01     0.00   0.00  -0.00    -0.00  -0.00   0.00
 178   1     0.83  -0.13  -0.19     0.02  -0.00  -0.00     0.00  -0.00  -0.00
 179   1     0.03  -0.41   0.01     0.00  -0.01   0.00     0.00  -0.00   0.00
 180   1    -0.00  -0.01   0.00    -0.00  -0.00   0.00    -0.00  -0.00  -0.00
 181   1    -0.00  -0.01   0.00    -0.00  -0.00   0.00     0.00   0.00  -0.00
 182   1    -0.01  -0.00  -0.00    -0.00  -0.00  -0.00     0.00   0.00   0.00
 183   1     0.00  -0.00   0.00     0.01  -0.00   0.00    -0.00   0.00  -0.00
 184   1     0.00  -0.00  -0.00     0.00  -0.00  -0.00    -0.00   0.00   0.00
 185   1     0.00   0.00   0.00     0.00   0.00   0.00     0.00   0.00   0.00
                    547                    548                    549
                        a                      a                      a 
 Frequencies --  3174.9821              3175.7153              3177.3565
 Red. masses --     1.9383                 1.9508                 1.9294
 Frc consts  --     0.0000                 0.0000                 0.0000
 IR Inten    --   184.4063              5127.4197               201.9212
 Raman Activ --     0.0000                 0.0000                 0.0000
 Depolar     --     0.0000                 0.0000                 0.0000
 Atom AN      X      Y      Z        X      Y      Z        X      Y      Z
   1  27     0.00   0.00  -0.00     0.00  -0.00  -0.00     0.00  -0.00   0.00
   2   6    -0.00   0.00  -0.00     0.00  -0.00   0.00    -0.00   0.00  -0.00
   3   6    -0.00   0.00   0.00     0.00  -0.00   0.00    -0.00   0.00   0.00
   4   6     0.00  -0.00   0.00     0.00   0.00  -0.00    -0.00  -0.00   0.00
   5   6    -0.00  -0.00   0.00    -0.00   0.00   0.00    -0.00  -0.00   0.00
   6   6    -0.00   0.00  -0.00     0.00  -0.00   0.00    -0.00   0.00  -0.00
   7   6    -0.15  -0.01   0.02     0.00   0.00  -0.00    -0.00  -0.00   0.00
   8   6     0.00  -0.06   0.02    -0.00   0.00  -0.00     0.00  -0.00   0.00
   9   6     0.00  -0.00  -0.00    -0.00  -0.00  -0.00     0.00  -0.00  -0.00
  10   7     0.00   0.00  -0.00     0.00   0.00  -0.00     0.00   0.00  -0.00
  11   6    -0.00  -0.00   0.00    -0.00   0.00  -0.00    -0.00  -0.00   0.00
  12   6    -0.00   0.00  -0.00     0.00   0.00  -0.00    -0.00  -0.00  -0.00
  13   6     0.00  -0.00   0.00    -0.00   0.00  -0.00     0.00  -0.00   0.00
  14   6     0.00   0.00   0.00    -0.00  -0.00  -0.00     0.00   0.00   0.00
  15   6     0.00   0.00  -0.00    -0.00  -0.00   0.00     0.00   0.00  -0.00
  16   7    -0.00   0.00  -0.00    -0.00   0.00  -0.00    -0.00   0.00  -0.00
  17   6     0.00  -0.00   0.00    -0.00  -0.00  -0.00     0.00   0.00   0.00
  18   6     0.00  -0.00   0.00     0.00   0.00   0.00     0.00  -0.00   0.00
  19   6     0.00   0.00   0.00    -0.00  -0.00  -0.00     0.00   0.00   0.00
  20   6     0.00   0.00  -0.00     0.00   0.00  -0.00     0.00   0.00  -0.00
  21   6    -0.00   0.00  -0.00     0.00  -0.00  -0.00    -0.00   0.00  -0.00
  22   7     0.00  -0.00   0.00    -0.00  -0.00   0.00    -0.00  -0.00   0.00
  23   6    -0.00   0.00  -0.00    -0.00   0.00  -0.00    -0.00   0.00  -0.00
  24   6     0.00   0.00  -0.00    -0.00  -0.00  -0.00     0.00   0.00  -0.00
  25   7     0.00   0.00  -0.00     0.00  -0.00   0.00     0.00  -0.00   0.00
  26   1     0.00  -0.01   0.01    -0.00   0.00  -0.00     0.00  -0.00   0.00
  27   1     0.02  -0.00  -0.00    -0.00   0.00   0.00     0.00  -0.00  -0.00
  28   1     0.50   0.05  -0.09    -0.00  -0.00   0.00     0.00   0.00  -0.00
  29   1     0.01   0.19  -0.07    -0.00  -0.00   0.00     0.00   0.00  -0.00
  30   1    -0.00   0.00  -0.00     0.00  -0.00   0.00    -0.00   0.00  -0.00
  31   1    -0.00   0.00  -0.00     0.00  -0.00   0.00    -0.00   0.00  -0.00
  32   1    -0.00  -0.00  -0.00     0.00   0.00   0.00    -0.00  -0.00  -0.00
  33   1    -0.00  -0.00  -0.00     0.00   0.00   0.00    -0.00  -0.00  -0.00
  34   1    -0.00  -0.00  -0.00     0.00   0.00   0.00    -0.00  -0.00  -0.00
  35   1    -0.00  -0.00   0.00     0.00  -0.00   0.00    -0.00  -0.00   0.00
  36   1     0.00  -0.00   0.00     0.00  -0.00   0.00     0.00  -0.00   0.00
  37  27    -0.00   0.00   0.00    -0.00  -0.00  -0.00    -0.00  -0.00  -0.00
  38   6     0.00  -0.00  -0.00     0.00  -0.00  -0.00     0.00  -0.00  -0.00
  39   6     0.00  -0.00   0.00     0.01  -0.00   0.00     0.00  -0.00   0.00
  40   6     0.00   0.00   0.00     0.00   0.00   0.00    -0.00   0.00   0.00
  41   6     0.00  -0.00  -0.00     0.00   0.00   0.00     0.00   0.00   0.00
  42   6    -0.00   0.00   0.00     0.00  -0.01  -0.00     0.00  -0.01  -0.00
  43   6    -0.00  -0.00  -0.00     0.20   0.02   0.04     0.17   0.02   0.03
  44   6     0.00  -0.00  -0.00    -0.00   0.08   0.03    -0.00   0.07   0.03
  45   6     0.00   0.00   0.00    -0.00  -0.00  -0.00    -0.00  -0.00  -0.00
  46   7     0.00  -0.00  -0.00    -0.00  -0.00  -0.00    -0.00  -0.00  -0.00
  47   6    -0.00   0.00   0.00     0.00   0.00   0.00     0.00   0.00   0.00
  48   6     0.00   0.00  -0.00     0.00  -0.00  -0.00    -0.00  -0.00  -0.00
  49   6    -0.00   0.00   0.00    -0.00   0.00   0.00    -0.00   0.00   0.00
  50   6    -0.00  -0.00   0.00    -0.00  -0.00   0.00    -0.00  -0.00   0.00
  51   6    -0.00  -0.00  -0.00    -0.00  -0.00  -0.00    -0.00  -0.00  -0.00
  52   7     0.00  -0.00  -0.00    -0.00  -0.00   0.00     0.00  -0.00  -0.00
  53   6    -0.00  -0.00   0.00    -0.00   0.00   0.00    -0.00   0.00   0.00
  54   6    -0.00   0.00   0.00     0.00   0.00   0.00     0.00   0.00   0.00
  55   6    -0.00  -0.00   0.00    -0.00  -0.00   0.00    -0.00  -0.00   0.00
  56   6     0.00  -0.00  -0.00    -0.00  -0.00  -0.00    -0.00  -0.00  -0.00
  57   6     0.00  -0.00  -0.00     0.00   0.00   0.00     0.00  -0.00  -0.00
  58   7     0.00   0.00   0.00    -0.00   0.00   0.00    -0.00   0.00   0.00
  59   6     0.00  -0.00  -0.00    -0.00  -0.00  -0.00     0.00  -0.00  -0.00
  60   6    -0.00  -0.00  -0.00    -0.00   0.00   0.00    -0.00  -0.00  -0.00
  61   7    -0.00   0.00   0.00    -0.00  -0.00  -0.00    -0.00  -0.00  -0.00
  62   1    -0.00   0.00   0.00    -0.00   0.01   0.01    -0.00   0.01   0.00
  63   1    -0.00   0.00  -0.00    -0.02   0.00  -0.00    -0.01   0.00  -0.00
  64   1     0.00   0.00   0.00    -0.65  -0.08  -0.12    -0.58  -0.07  -0.11
  65   1     0.00   0.00   0.00    -0.01  -0.25  -0.10    -0.01  -0.20  -0.08
  66   1     0.00  -0.00  -0.00     0.00  -0.00  -0.00     0.00  -0.00  -0.00
  67   1     0.00  -0.00  -0.00     0.00  -0.00  -0.00     0.00  -0.00  -0.00
  68   1     0.00   0.00  -0.00     0.00   0.00  -0.00     0.00   0.00  -0.00
  69   1     0.00   0.00  -0.00     0.00  -0.00   0.00     0.00   0.00  -0.00
  70   1     0.00   0.00  -0.00     0.00   0.00  -0.00     0.00   0.00  -0.00
  71   1     0.00   0.00   0.00     0.00   0.00   0.00     0.00   0.00   0.00
  72   1    -0.00   0.00   0.00    -0.00   0.00   0.00    -0.00   0.00   0.00
  73   6     0.00   0.00  -0.00     0.00  -0.00  -0.00     0.00  -0.00  -0.00
  74   6    -0.00   0.00   0.00    -0.00   0.00   0.00    -0.00   0.00   0.00
  75   6    -0.00  -0.00  -0.00     0.00   0.00   0.00    -0.00  -0.00  -0.00
  76   6     0.00   0.00   0.00    -0.00  -0.00  -0.00     0.00   0.00   0.00
  77   6    -0.00  -0.00   0.00     0.00   0.00  -0.00    -0.00  -0.00   0.00
  78   6     0.00   0.00  -0.00    -0.00  -0.00   0.00    -0.00   0.00  -0.00
  79   6     0.00   0.00  -0.00    -0.00  -0.00  -0.00     0.00  -0.00  -0.00
  80   6    -0.00   0.00  -0.00    -0.00   0.00   0.00    -0.00  -0.00  -0.00
  81  27    -0.00   0.00  -0.00    -0.00   0.00   0.00     0.00  -0.00  -0.00
  82   6     0.00   0.01  -0.00     0.00   0.00  -0.00     0.00   0.00  -0.00
  83   6     0.01  -0.00  -0.00     0.00  -0.00  -0.00     0.00  -0.00  -0.00
  84   6     0.00  -0.00   0.00    -0.00   0.00  -0.00     0.00  -0.00   0.00
  85   6     0.00  -0.00   0.00     0.00  -0.00  -0.00     0.00  -0.00   0.00
  86   6     0.00   0.01  -0.00     0.00   0.00  -0.00     0.00   0.00  -0.00
  87   6     0.21  -0.04  -0.01     0.00  -0.00  -0.00     0.00  -0.00  -0.00
  88   6    -0.00  -0.09   0.05    -0.00  -0.00   0.00    -0.00  -0.00   0.00
  89   6    -0.00   0.00   0.00    -0.00   0.00   0.00    -0.00  -0.00   0.00
  90   7    -0.00   0.00  -0.00    -0.00   0.00  -0.00    -0.00   0.00  -0.00
  91   6     0.00  -0.00   0.00     0.00   0.00  -0.00    -0.00  -0.00   0.00
  92   6     0.00   0.00  -0.00    -0.00   0.00   0.00     0.00  -0.00   0.00
  93   6    -0.00  -0.00   0.00     0.00   0.00  -0.00    -0.00  -0.00   0.00
  94   6    -0.00  -0.00  -0.00    -0.00  -0.00  -0.00    -0.00  -0.00  -0.00
  95   6    -0.00   0.00  -0.00     0.00  -0.00  -0.00    -0.00   0.00  -0.00
  96   7     0.00   0.00  -0.00     0.00   0.00  -0.00    -0.00  -0.00   0.00
  97   6     0.00  -0.00   0.00    -0.00  -0.00  -0.00    -0.00   0.00  -0.00
  98   6    -0.00  -0.00   0.00     0.00   0.00  -0.00    -0.00  -0.00   0.00
  99   6    -0.00   0.00  -0.00     0.00  -0.00   0.00    -0.00   0.00  -0.00
 100   6    -0.00   0.00  -0.00     0.00  -0.00   0.00    -0.00   0.00  -0.00
 101   6     0.00   0.00   0.00    -0.00  -0.00   0.00     0.00   0.00   0.00
 102   7     0.00  -0.00   0.00     0.00  -0.00   0.00     0.00  -0.00   0.00
 103   6     0.00   0.00  -0.00    -0.00  -0.00   0.00     0.00   0.00  -0.00
 104   6    -0.00   0.00   0.00     0.00  -0.00   0.00    -0.00   0.00  -0.00
 105   7    -0.00   0.00   0.00    -0.00  -0.00   0.00     0.00   0.00  -0.00
 106   1    -0.00  -0.02   0.00    -0.00  -0.00   0.00    -0.00  -0.00   0.00
 107   1    -0.03  -0.00   0.00    -0.00  -0.00   0.00    -0.00  -0.00   0.00
 108   1    -0.70   0.16   0.03    -0.00   0.00   0.00    -0.00   0.00   0.00
 109   1    -0.01   0.26  -0.14    -0.00   0.00  -0.00    -0.00   0.00  -0.00
 110   1     0.00   0.00  -0.00     0.00  -0.00   0.00     0.00   0.00  -0.00
 111   1     0.00   0.00  -0.00    -0.00  -0.00   0.00     0.00   0.00  -0.00
 112   1     0.00   0.00   0.00     0.00   0.00   0.00     0.00   0.00   0.00
 113   1     0.01  -0.00   0.00    -0.00   0.00  -0.00     0.00  -0.00   0.00
 114   1     0.00  -0.00   0.00    -0.00   0.00  -0.00     0.00  -0.00   0.00
 115   1    -0.00  -0.00   0.00     0.00   0.00  -0.00    -0.00  -0.00   0.00
 116  27     0.00  -0.00   0.00     0.00   0.00  -0.00    -0.00   0.00  -0.00
 117   6     0.00   0.00  -0.00     0.00  -0.00   0.00    -0.00   0.00  -0.00
 118   6     0.00   0.00   0.00    -0.00  -0.00  -0.00     0.00   0.00   0.00
 119   6     0.00  -0.00   0.00    -0.00   0.00  -0.00     0.00  -0.00   0.00
 120   6    -0.00  -0.00  -0.00     0.00  -0.00   0.00     0.00   0.00   0.00
 121   6     0.00   0.00   0.00    -0.00  -0.00  -0.00     0.00   0.00   0.00
 122   6     0.00  -0.00   0.00    -0.00   0.00  -0.00     0.00  -0.00   0.00
 123   6     0.00  -0.00  -0.00    -0.00   0.00   0.00     0.00  -0.00  -0.00
 124   6    -0.00   0.00  -0.00     0.00   0.00   0.00    -0.00  -0.00  -0.00
 125   7    -0.00   0.00   0.00     0.00   0.00   0.00    -0.00   0.00  -0.00
 126   6     0.00  -0.00  -0.00     0.00   0.00   0.00    -0.00  -0.00  -0.00
 127   6     0.00  -0.00  -0.00     0.00  -0.00  -0.00     0.00   0.00  -0.00
 128   6     0.00  -0.00  -0.00     0.00  -0.00  -0.00    -0.00  -0.00  -0.00
 129   6    -0.00  -0.00   0.00    -0.00  -0.00   0.00    -0.00  -0.00   0.00
 130   6    -0.00   0.00   0.00    -0.00   0.00   0.00     0.00   0.00   0.00
 131   7     0.00   0.00  -0.00     0.00   0.00  -0.00    -0.00   0.00   0.00
 132   6    -0.00  -0.00  -0.00    -0.00  -0.00   0.00     0.00   0.00  -0.00
 133   6    -0.00  -0.00   0.00    -0.00  -0.00   0.00     0.00  -0.00   0.00
 134   6    -0.00   0.00   0.00    -0.00   0.00   0.00    -0.00   0.00   0.00
 135   6    -0.00   0.00  -0.00    -0.00   0.00  -0.00    -0.00   0.00  -0.00
 136   6     0.00   0.00  -0.00    -0.00   0.00  -0.00     0.00  -0.00  -0.00
 137   7     0.00  -0.00   0.00     0.00  -0.00  -0.00     0.00  -0.00   0.00
 138   6     0.00   0.00  -0.00     0.00  -0.00   0.00    -0.00   0.00  -0.00
 139   6    -0.00  -0.00  -0.00     0.00  -0.00   0.00    -0.00   0.00  -0.00
 140   7     0.00  -0.00   0.00     0.00   0.00   0.00    -0.00  -0.00   0.00
 141   1    -0.00  -0.00   0.00     0.00   0.00  -0.00    -0.00  -0.00   0.00
 142   1    -0.00  -0.00  -0.00     0.01   0.00   0.00    -0.01  -0.00  -0.00
 143   1    -0.00   0.00  -0.00     0.00  -0.00   0.00    -0.00   0.00  -0.00
 144   1    -0.00   0.00   0.00     0.00  -0.00  -0.00    -0.00   0.00   0.00
 145   1    -0.00   0.00   0.00    -0.00  -0.00  -0.00    -0.00   0.00   0.00
 146   1     0.00   0.01   0.00     0.00   0.00   0.00     0.00   0.00   0.00
 147   1     0.01   0.00  -0.00     0.00   0.00  -0.00     0.00   0.00  -0.00
 148   1     0.00  -0.00  -0.00     0.00  -0.00  -0.00     0.00  -0.00  -0.00
 149   1     0.00  -0.00   0.00     0.00  -0.00   0.00     0.00  -0.00   0.00
 150   1     0.00  -0.00   0.00    -0.00   0.00  -0.00     0.00  -0.00   0.00
 151  27    -0.00   0.00  -0.00    -0.00   0.00   0.00     0.00  -0.00  -0.00
 152   6     0.00   0.00   0.00    -0.00  -0.00  -0.00     0.00   0.00   0.00
 153   6     0.00   0.00  -0.00    -0.00  -0.00   0.00     0.00   0.00  -0.00
 154   6     0.00  -0.00  -0.00    -0.00   0.00   0.00     0.00  -0.00  -0.00
 155   6     0.00  -0.00  -0.00     0.00  -0.00  -0.00    -0.00   0.00   0.00
 156   6     0.00   0.00  -0.00    -0.00  -0.00  -0.00    -0.00   0.00   0.00
 157   6     0.00  -0.00  -0.00    -0.00   0.00   0.00     0.00  -0.00  -0.00
 158   6     0.00  -0.00   0.00    -0.00   0.00  -0.00     0.00  -0.00   0.00
 159   6    -0.00  -0.00   0.00     0.00  -0.00  -0.00    -0.00  -0.00   0.00
 160   7    -0.00   0.00   0.00     0.00  -0.00  -0.00     0.00   0.00   0.00
 161   6     0.00  -0.00   0.00     0.00   0.00  -0.00    -0.00  -0.00  -0.00
 162   6     0.00  -0.00  -0.00    -0.00   0.00  -0.00     0.00  -0.00   0.00
 163   6    -0.00  -0.00   0.00     0.00   0.00  -0.00    -0.00  -0.00   0.00
 164   6    -0.00  -0.00  -0.00     0.01   0.00   0.00    -0.01  -0.00  -0.00
 165   6    -0.00   0.00   0.00     0.00  -0.00  -0.00     0.00   0.00   0.00
 166   7    -0.00  -0.00  -0.00    -0.00   0.00  -0.00     0.00  -0.00   0.00
 167   6    -0.00  -0.00  -0.00     0.00  -0.00  -0.00    -0.00   0.00   0.00
 168   6     0.00   0.00   0.00     0.00   0.01   0.00    -0.00  -0.01  -0.00
 169   6     0.00  -0.00   0.00     0.17  -0.03   0.01    -0.20   0.04  -0.01
 170   6    -0.00  -0.00  -0.00    -0.00  -0.07  -0.03     0.00   0.07   0.03
 171   6    -0.00   0.00  -0.00    -0.00   0.00  -0.00     0.00  -0.00   0.00
 172   7    -0.00   0.00   0.00    -0.00   0.00   0.00     0.00  -0.00  -0.00
 173   6     0.00   0.00   0.00     0.00  -0.00  -0.00    -0.00   0.00   0.00
 174   6    -0.00   0.00   0.00    -0.00   0.00   0.00     0.00  -0.00  -0.00
 175   7     0.00   0.00   0.00     0.00   0.00   0.00    -0.00  -0.00  -0.00
 176   1    -0.00  -0.00  -0.00     0.00   0.00   0.00    -0.00  -0.00  -0.00
 177   1    -0.00  -0.00   0.00     0.00   0.00  -0.00    -0.00  -0.00   0.00
 178   1    -0.01   0.00   0.00     0.00  -0.00  -0.00    -0.00   0.00   0.00
 179   1    -0.00   0.00  -0.00     0.00  -0.00   0.00    -0.00   0.00  -0.00
 180   1     0.00   0.00  -0.00    -0.00  -0.00   0.00     0.00   0.00   0.00
 181   1     0.00   0.00  -0.00    -0.00  -0.01   0.00     0.00   0.01  -0.00
 182   1     0.00   0.00   0.00    -0.02  -0.00  -0.00     0.02   0.00   0.00
 183   1    -0.01   0.00  -0.00    -0.57   0.12  -0.04     0.66  -0.14   0.04
 184   1    -0.00   0.00   0.00    -0.01   0.22   0.09     0.01  -0.22  -0.09
 185   1    -0.00  -0.00  -0.00     0.00   0.00   0.00    -0.00  -0.00  -0.00
