      -----------------------------------------------------------      
     |                   =====================                   |     
     |                           x T B                           |     
     |                   =====================                   |     
     |                         S. Grimme                         |     
     |          Mulliken Center for Theoretical Chemistry        |     
     |                    University of Bonn                     |     
      -----------------------------------------------------------      

   * xtb version 6.4.1 (bd6e46d) compiled by 'conda@4901f00b25ba' on 2021-06-10

   xtb is free software: you can redistribute it and/or modify it under
   the terms of the GNU Lesser General Public License as published by
   the Free Software Foundation, either version 3 of the License, or
   (at your option) any later version.
   
   xtb is distributed in the hope that it will be useful,
   but WITHOUT ANY WARRANTY; without even the implied warranty of
   MERCHANTABILITY or FITNESS FOR A PARTICULAR PURPOSE.  See the
   GNU Lesser General Public License for more details.
   
   Cite this work as:
   * C. Bannwarth, E. Caldeweyher, S. Ehlert, A. Hansen, P. Pracht,
     J. Seibert, S. Spicher, S. Grimme, WIREs Comput. Mol. Sci., 2020, 11,
     e01493. DOI: 10.1002/wcms.1493
   
   for GFN2-xTB:
   * C. Bannwarth, S. Ehlert and S. Grimme., J. Chem. Theory Comput., 2019,
     15, 1652-1671. DOI: 10.1021/acs.jctc.8b01176
   for GFN1-xTB:
   * S. Grimme, C. Bannwarth, P. Shushkov, J. Chem. Theory Comput., 2017,
     13, 1989-2009. DOI: 10.1021/acs.jctc.7b00118
   for GFN0-xTB:
   * P. Pracht, E. Caldeweyher, S. Ehlert, S. Grimme, ChemRxiv, 2019, preprint.
     DOI: 10.26434/chemrxiv.8326202.v1
   for GFN-FF:
   * S. Spicher and S. Grimme, Angew. Chem. Int. Ed., 2020, 59, 15665-15673.
     DOI: 10.1002/anie.202004239
   
   for DFT-D4:
   * E. Caldeweyher, C. Bannwarth and S. Grimme, J. Chem. Phys., 2017,
     147, 034112. DOI: 10.1063/1.4993215
   * E. Caldeweyher, S. Ehlert, A. Hansen, H. Neugebauer, S. Spicher,
     C. Bannwarth and S. Grimme, J. Chem. Phys., 2019, 150, 154122.
     DOI: 10.1063/1.5090222
   * E. Caldeweyher, J.-M. Mewes, S. Ehlert and S. Grimme, Phys. Chem. Chem. Phys.
     2020, 22, 8499-8512. DOI: 10.1039/D0CP00502A
   
   for sTDA-xTB:
   * S. Grimme and C. Bannwarth, J. Chem. Phys., 2016, 145, 054103.
     DOI: 10.1063/1.4959605
   
   in the mass-spec context:
   * V. Asgeirsson, C. Bauer and S. Grimme, Chem. Sci., 2017, 8, 4879.
     DOI: 10.1039/c7sc00601b
   * J. Koopman and S. Grimme, ACS Omega 2019, 4, 12, 15120-15133.
     DOI: 10.1021/acsomega.9b02011
   
   for metadynamics refer to:
   * S. Grimme, J. Chem. Theory Comput., 2019, 155, 2847-2862
     DOI: 10.1021/acs.jctc.9b00143
   
   for SPH calculations refer to:
   * S. Spicher and S. Grimme, J. Chem. Theory Comput., 2021, 17, 1701-1714
     DOI: 10.1021/acs.jctc.0c01306
   
   with help from (in alphabetical order)
   P. Atkinson, C. Bannwarth, F. Bohle, G. Brandenburg, E. Caldeweyher
   M. Checinski, S. Dohm, S. Ehlert, S. Ehrlich, I. Gerasimov, J. Koopman
   C. Lavigne, S. Lehtola, F. März, M. Müller, F. Musil, H. Neugebauer
   J. Pisarek, C. Plett, P. Pracht, J. Seibert, P. Shushkov, S. Spicher
   M. Stahn, M. Steiner, T. Strunk, J. Stückrath, T. Rose, and J. Unsleber
   
 * started run on 2021/11/19 at 15:50:20.233     

           -------------------------------------------------
          |                Calculation Setup                |
           -------------------------------------------------

          program call               : /home/jeff/miniconda3/bin/xtb input_structure_1.xyz --gfn 2 --ohess normal --parallel 1 --etemp 300 --chrg 0 --uhf 0 -I det_control.in
          hostname                   : jelfscompute1
          coordinate file            : input_structure_1.xyz
          omp threads                :                     1
          number of atoms            :                   185
          number of electrons        :                   629
          charge                     :                     0
          spin                       :                   0.5
          first test random number   :      0.97595705991599

   ID    Z sym.   atoms
    1   27 Co     1, 37, 81, 116, 151
    2    6 C      2-9, 11-15, 17-21, 23, 24, 38-45, 47-51, 53-57, 59, 60,
                  73-80, 82-89, 91-95, 97-101, 103, 104, 117-124, 126-130,
                  132-136, 138, 139, 152-159, 161-165, 167-171, 173, 174
    3    7 N      10, 16, 22, 25, 46, 52, 58, 61, 90, 96, 102, 105, 125, 131,
                  137, 140, 160, 166, 172, 175
    4    1 H      26-36, 62-72, 106-115, 141-150, 176-185

molecular fragmentation (1/2 indicates fragments):
111111111111111111111111111111111111222222222222222222222222222222222222
222222222222222222222222222222222222222222222222222222222222222222222222
22222222222222222222222222222222222222222
# atoms in fragment 1/2:    36   149
 fragment masses (1/2) :      366.26     1558.11
CMA distance (Bohr)    :  53.461
constraining FC (au)   :  0.0500

           -------------------------------------------------
          |                 G F N 2 - x T B                 |
           -------------------------------------------------

        Reference                      10.1021/acs.jctc.8b01176
      * Hamiltonian:
        H0-scaling (s, p, d)           1.850000    2.230000    2.230000
        zeta-weighting                 0.500000
      * Dispersion:
        s8                             2.700000
        a1                             0.520000
        a2                             5.000000
        s9                             5.000000
      * Repulsion:
        kExp                           1.500000    1.000000
        rExp                           1.000000
      * Coulomb:
        alpha                          2.000000
        third order                    shell-resolved
        anisotropic                    true
        a3                             3.000000
        a5                             4.000000
        cn-shift                       1.200000
        cn-exp                         4.000000
        max-rad                        5.000000


          ...................................................
          :                      SETUP                      :
          :.................................................:
          :  # basis functions                 614          :
          :  # atomic orbitals                 609          :
          :  # shells                          323          :
          :  # electrons                       629          :
          :  max. iterations                   250          :
          :  Hamiltonian                  GFN2-xTB          :
          :  restarted?                      false          :
          :  GBSA solvation                  false          :
          :  PC potential                    false          :
          :  electronic temp.          300.0000000     K    :
          :  accuracy                    1.0000000          :
          :  -> integral cutoff          0.2500000E+02      :
          :  -> integral neglect         0.1000000E-07      :
          :  -> SCF convergence          0.1000000E-05 Eh   :
          :  -> wf. convergence          0.1000000E-03 e    :
          :  Broyden damping             0.4000000          :
          ...................................................

 iter      E             dE          RMSdq      gap      omega  full diag
   1   -336.3254716 -0.336325E+03  0.860E+00    0.04       0.0  T
   2   -297.9536955  0.383718E+02  0.131E+01    0.09       1.0  T
   3   -323.1396801 -0.251860E+02  0.764E+00    0.24       1.0  T
   4   -276.5632955  0.465764E+02  0.894E+00    0.02       1.0  T
   5   -228.4150104  0.481483E+02  0.954E+00    0.04       1.0  T
   6   -301.6932548 -0.732782E+02  0.861E+00    0.05       1.0  T
   7   -322.7586748 -0.210654E+02  0.674E+00    0.06       1.0  T
   8   -335.8529871 -0.130943E+02  0.449E+00    0.24       1.0  T
   9   -329.7861332  0.606685E+01  0.468E+00    0.05       1.0  T
  10   -337.4369835 -0.765085E+01  0.360E+00    0.12       1.0  T
  11   -337.5809529 -0.143969E+00  0.340E+00    0.06       1.0  T
  12   -337.7675522 -0.186599E+00  0.324E+00    0.04       1.0  T
  13   -337.9207381 -0.153186E+00  0.318E+00    0.11       1.0  T
  14   -337.8678760  0.528621E-01  0.318E+00    0.10       1.0  T
  15   -337.8623795  0.549645E-02  0.310E+00    0.07       1.0  T
  16   -336.7804755  0.108190E+01  0.327E+00    0.02       1.0  T
  17   -334.5679966  0.221248E+01  0.364E+00    0.06       1.0  T
  18   -336.7971462 -0.222915E+01  0.302E+00    0.04       1.0  T
  19   -335.0038872  0.179326E+01  0.338E+00    0.05       1.0  T
  20   -336.7388733 -0.173499E+01  0.272E+00    0.00       1.0  T
  21   -336.7183775  0.204958E-01  0.273E+00    0.00       1.0  T
  22   -333.8887224  0.282966E+01  0.365E+00    0.04       1.0  T
  23   -332.5872035  0.130152E+01  0.433E+00    0.05       1.0  T
  24   -329.5948104  0.299239E+01  0.514E+00    0.01       1.0  T
  25   -330.8844742 -0.128966E+01  0.483E+00    0.05       1.0  T
  26   -331.1631748 -0.278701E+00  0.490E+00    0.02       1.0  T
  27   -331.0376871  0.125488E+00  0.492E+00    0.03       1.0  T
  28   -330.5756820  0.462005E+00  0.507E+00    0.03       1.0  T
  29   -330.3179661  0.257716E+00  0.512E+00    0.02       1.0  T
  30   -333.3696053 -0.305164E+01  0.372E+00    0.04       1.0  T
  31   -336.2911687 -0.292156E+01  0.283E+00    0.01       1.0  T
  32   -335.7407468  0.550422E+00  0.311E+00    0.01       1.0  T
  33   -336.3840104 -0.643264E+00  0.264E+00    0.02       1.0  T
  34   -336.3223948  0.616156E-01  0.273E+00    0.00       1.0  T
  35   -336.2636247  0.587701E-01  0.273E+00    0.01       1.0  T
  36   -337.9307057 -0.166708E+01  0.192E+00    0.00       1.0  T
  37   -337.8994418  0.312639E-01  0.222E+00    0.02       1.0  T
  38   -337.8982627  0.117911E-02  0.222E+00    0.02       1.0  T
  39   -337.4685701  0.429693E+00  0.260E+00    0.03       1.0  T
  40   -336.9305616  0.538008E+00  0.288E+00    0.03       1.0  T
  41   -336.3906826  0.539879E+00  0.276E+00    0.01       1.0  T
  42   -335.2887126  0.110197E+01  0.331E+00    0.01       1.0  T
  43   -335.6894156 -0.400703E+00  0.316E+00    0.00       1.0  T
  44   -336.2621702 -0.572755E+00  0.288E+00    0.02       1.0  T
  45   -336.7590807 -0.496910E+00  0.292E+00    0.03       1.0  T
  46   -336.2735681  0.485513E+00  0.318E+00    0.03       1.0  T
  47   -336.7265536 -0.452986E+00  0.325E+00    0.03       1.0  T
  48   -338.4892047 -0.176265E+01  0.186E+00    0.00       1.0  T
  49   -338.7855983 -0.296394E+00  0.148E+00    0.00       1.0  T
  50   -338.8784292 -0.928310E-01  0.134E+00    0.00       1.0  T
  51   -338.8107861  0.676431E-01  0.139E+00    0.01       1.0  T
  52   -338.8068107  0.397536E-02  0.134E+00    0.01       1.0  T
  53   -338.4645401  0.342271E+00  0.169E+00    0.00       1.0  T
  54   -338.6394470 -0.174907E+00  0.151E+00    0.01       1.0  T
  55   -338.6803706 -0.409236E-01  0.146E+00    0.01       1.0  T
  56   -338.9715772 -0.291207E+00  0.108E+00    0.00       1.0  T
  57   -338.9222044  0.493728E-01  0.123E+00    0.01       1.0  T
  58   -337.6713916  0.125081E+01  0.228E+00    0.02       1.0  T
  59   -337.7834891 -0.112097E+00  0.217E+00    0.02       1.0  T
  60   -338.4832213 -0.699732E+00  0.157E+00    0.02       1.0  T
  61   -338.5733360 -0.901147E-01  0.148E+00    0.02       1.0  T
  62   -337.6232557  0.950080E+00  0.225E+00    0.02       1.0  T
  63   -338.1904821 -0.567226E+00  0.179E+00    0.02       1.0  T
  64   -338.5351342 -0.344652E+00  0.144E+00    0.02       1.0  T
  65   -338.7965787 -0.261444E+00  0.111E+00    0.01       1.0  T
  66   -338.9478738 -0.151295E+00  0.888E-01    0.00       1.0  T
  67   -338.9725977 -0.247239E-01  0.869E-01    0.01       1.0  T
  68   -338.9850478 -0.124501E-01  0.863E-01    0.01       1.0  T
  69   -339.0050674 -0.200196E-01  0.846E-01    0.01       1.0  T
  70   -338.9413319  0.637355E-01  0.989E-01    0.00       1.0  T
  71   -338.9790630 -0.377311E-01  0.967E-01    0.00       1.0  T
  72   -338.9739833  0.507964E-02  0.973E-01    0.00       1.0  T
  73   -338.9334268  0.405565E-01  0.105E+00    0.00       1.0  T
  74   -338.9175440  0.158828E-01  0.108E+00    0.00       1.0  T
  75   -338.9433867 -0.258427E-01  0.103E+00    0.00       1.0  T
  76   -338.9814622 -0.380755E-01  0.960E-01    0.00       1.0  T
  77   -338.9826354 -0.117320E-02  0.950E-01    0.00       1.0  T
  78   -339.0054031 -0.227677E-01  0.899E-01    0.00       1.0  T
  79   -339.1242631 -0.118860E+00  0.641E-01    0.01       1.0  T
  80   -339.1355746 -0.113115E-01  0.614E-01    0.01       1.0  T
  81   -339.1374217 -0.184710E-02  0.603E-01    0.01       1.0  T
  82   -339.1705640 -0.331423E-01  0.497E-01    0.01       1.0  T
  83   -339.1716738 -0.110981E-02  0.474E-01    0.01       1.0  T
  84   -339.2092907 -0.376170E-01  0.325E-01    0.00       1.0  T
  85   -339.2009287  0.836200E-02  0.352E-01    0.00       1.0  T
  86   -339.1972986  0.363007E-02  0.372E-01    0.00       1.0  T
  87   -339.1970729  0.225769E-03  0.371E-01    0.00       1.0  T
  88   -339.1904478  0.662503E-02  0.397E-01    0.00       1.0  T
  89   -339.1950612 -0.461337E-02  0.367E-01    0.00       1.0  T
  90   -339.2119272 -0.168660E-01  0.269E-01    0.00       1.0  T
  91   -339.2169784 -0.505119E-02  0.230E-01    0.00       1.0  T
  92   -339.2204323 -0.345385E-02  0.197E-01    0.00       1.0  T
  93   -339.2199094  0.522926E-03  0.197E-01    0.00       1.0  T
  94   -339.2222405 -0.233112E-02  0.170E-01    0.00       1.0  T
  95   -339.2218115  0.428944E-03  0.175E-01    0.00       1.0  T
  96   -339.2225385 -0.726966E-03  0.166E-01    0.00       1.0  T
  97   -339.2241237 -0.158522E-02  0.149E-01    0.00       1.0  T
  98   -339.2259614 -0.183763E-02  0.123E-01    0.00       1.0  T
  99   -339.2273497 -0.138832E-02  0.998E-02    0.00       1.0  T
 100   -339.2276215 -0.271799E-03  0.913E-02    0.00       1.0  T
 101   -339.2279508 -0.329298E-03  0.807E-02    0.00       1.0  T
 102   -339.2286529 -0.702180E-03  0.616E-02    0.00       1.0  T
 103   -339.2288000 -0.147045E-03  0.559E-02    0.00       1.0  T
 104   -339.2290741 -0.274098E-03  0.456E-02    0.00       1.0  T
 105   -339.2294106 -0.336487E-03  0.286E-02    0.00       1.0  T
 106   -339.2294526 -0.420291E-04  0.252E-02    0.00       1.0  T
 107   -339.2295912 -0.138561E-03  0.122E-02    0.00       1.0  T
 108   -339.2295991 -0.794897E-05  0.105E-02    0.00       1.0  T
 109   -339.2296158 -0.166929E-04  0.673E-03    0.00       1.1  T
 110   -339.2296192 -0.342879E-05  0.564E-03    0.00       1.3  T
 111   -339.2296209 -0.169961E-05  0.475E-03    0.00       1.5  T
 112   -339.2296228 -0.185319E-05  0.341E-03    0.00       2.2  T
 113   -339.2296244 -0.161795E-05  0.237E-03    0.00       3.1  T
 114   -339.2296245 -0.805218E-07  0.185E-03    0.00       4.0  T
 115   -339.2296247 -0.193537E-06  0.140E-03    0.00       5.3  T
 116   -339.2296249 -0.171143E-06  0.981E-04    0.00       7.5  T
 117   -339.2296249 -0.652676E-08  0.970E-04    0.00       7.6  T

   *** convergence criteria satisfied after 117 iterations ***

         #    Occupation            Energy/Eh            Energy/eV
      -------------------------------------------------------------
         1        2.0000           -0.6812389             -18.5375
       ...           ...                  ...                  ...
       309        1.7533           -0.3441823              -9.3657
       310        1.7022           -0.3439739              -9.3600
       311        1.6936           -0.3439418              -9.3591
       312        1.6784           -0.3438865              -9.3576
       313        1.5621           -0.3435213              -9.3477
       314        1.5478           -0.3434817              -9.3466
       315        1.3846           -0.3430779              -9.3356 (HOMO)
       316        1.3138           -0.3429223              -9.3314 (LUMO)
       317        1.2605           -0.3428101              -9.3283
       318        0.0000           -0.3284975              -8.9389
       319        0.0000           -0.3275620              -8.9134
       320                         -0.3210512              -8.7362
       ...                                ...                  ...
       609                          1.4318616              38.9629
      -------------------------------------------------------------
                  HL-Gap            0.0001556 Eh            0.0042 eV
             Fermi-level           -0.3422949 Eh           -9.3143 eV

 SCC (total)                   0 d,  0 h,  0 min, 11.551 sec
 SCC setup                      ...        0 min,  0.006 sec (  0.051%)
 Dispersion                     ...        0 min,  0.013 sec (  0.109%)
 classical contributions        ...        0 min,  0.001 sec (  0.013%)
 integral evaluation            ...        0 min,  0.105 sec (  0.913%)
 iterations                     ...        0 min, 11.081 sec ( 95.933%)
 molecular gradient             ...        0 min,  0.333 sec (  2.880%)
 printout                       ...        0 min,  0.012 sec (  0.101%)

         :::::::::::::::::::::::::::::::::::::::::::::::::::::
         ::                     SUMMARY                     ::
         :::::::::::::::::::::::::::::::::::::::::::::::::::::
         :: total energy            -333.411294603079 Eh    ::
         :: gradient norm              0.809443837320 Eh/a0 ::
         :: HOMO-LUMO gap              0.004234632602 eV    ::
         ::.................................................::
         :: SCC energy              -339.229624861857 Eh    ::
         :: -> isotropic ES            0.127641883643 Eh    ::
         :: -> anisotropic ES          0.037508195839 Eh    ::
         :: -> anisotropic XC          0.208987974283 Eh    ::
         :: -> dispersion             -0.293612451897 Eh    ::
         :: repulsion energy           5.817619811592 Eh    ::
         :: add. restraining           0.000000000000 Eh    ::
         :: total charge               0.000000000002 e     ::
         :::::::::::::::::::::::::::::::::::::::::::::::::::::

      ----------------------------------------------------------- 
     |                   =====================                   |
     |                        A N C O P T                        |
     |                   =====================                   |
     |               Approximate Normal Coordinate               |
     |                Rational Function Optimizer                |
      ----------------------------------------------------------- 

          ...................................................
          :                      SETUP                      :
          :.................................................:
          :   optimization level            normal          :
          :   max. optcycles                   555          :
          :   ANC micro-cycles                  20          :
          :   degrees of freedom               549          :
          :.................................................:
          :   RF solver                   davidson          :
          :   write xtbopt.log                true          :
          :   linear?                        false          :
          :   energy convergence         0.5000000E-05 Eh   :
          :   grad. convergence          0.1000000E-02 Eh/α :
          :   maximium RF displ.         1.0000000          :
          :   Hlow (freq-cutoff)         0.1000000E-01      :
          :   Hmax (freq-cutoff)         5.0000000          :
          :   S6 in model hess.         20.0000000          :
          ...................................................

generating ANC from model Hessian ...
Using Lindh-Hessian (1995)
 Shifting diagonal of input Hessian by    1.0025756514957714E-002
 Lowest  eigenvalues of input Hessian
    0.010000    0.010001    0.010003    0.010004    0.010010    0.010011
    0.010016    0.010017    0.010020    0.010023    0.000000    0.000000
    0.000000    0.000000    0.000000    0.000000    0.010027    0.010035
 Highest eigenvalues
    2.210448    2.211512    2.393221    2.512585    2.732929    2.732929


........................................................................
.............................. CYCLE    1 ..............................
........................................................................
   1   -339.2296250 -0.339230E+03  0.668E-04    0.00       0.0  T
   2   -339.2287337  0.891278E-03  0.561E-02    0.00       1.0  T
   3   -339.2296211 -0.887433E-03  0.360E-03    0.00       2.0  T
   4   -339.2295046  0.116563E-03  0.194E-02    0.00       1.0  T
   5   -339.2294977  0.690555E-05  0.207E-02    0.01       1.0  T
   6   -339.2296225 -0.124800E-03  0.292E-03    0.00       2.5  T
   7   -339.2295994  0.230322E-04  0.975E-03    0.00       1.0  T
   8   -339.2296243 -0.248382E-04  0.159E-03    0.00       4.6  T
   9   -339.2296243  0.104569E-07  0.160E-03    0.00       4.6  T
  10   -339.2296249 -0.667837E-06  0.712E-04    0.00      10.3  T
  11   -339.2296249  0.246637E-07  0.736E-04    0.00      10.0  T
     SCC iter.                  ...        0 min,  1.040 sec
     gradient                   ...        0 min,  0.333 sec
 * total energy  :  -333.4112947 Eh     change       -0.4723000E-07 Eh
   gradient norm :     0.8094453 Eh/α   predicted     0.0000000E+00 (-100.00%)
   displ. norm   :     0.6013113 α      lambda       -0.3846002E+00
   maximum displ.:     0.1716009 α      in ANC's #189, #188, #537, ...

........................................................................
.............................. CYCLE    2 ..............................
........................................................................
   1   -339.2199489 -0.339220E+03  0.377E-01    0.00       0.0  T
   2   -335.8322104  0.338774E+01  0.331E+00    0.02       1.0  T
   3   -335.9128364 -0.806260E-01  0.327E+00    0.02       1.0  T
   4   -336.7205640 -0.807728E+00  0.287E+00    0.02       1.0  T
   5   -337.5407062 -0.820142E+00  0.237E+00    0.02       1.0  T
   6   -335.9045245  0.163618E+01  0.336E+00    0.03       1.0  T
   7   -338.7384392 -0.283391E+01  0.129E+00    0.01       1.0  T
   8   -338.0630646  0.675375E+00  0.197E+00    0.03       1.0  T
   9   -338.0345691  0.284955E-01  0.197E+00    0.03       1.0  T
  10   -338.9181565 -0.883587E+00  0.107E+00    0.01       1.0  T
  11   -339.0327966 -0.114640E+00  0.864E-01    0.00       1.0  T
  12   -339.1385214 -0.105725E+00  0.619E-01    0.02       1.0  T
  13   -339.1250699  0.134515E-01  0.663E-01    0.02       1.0  T
  14   -339.1296104 -0.454055E-02  0.647E-01    0.02       1.0  T
  15   -339.0919040  0.377064E-01  0.697E-01    0.00       1.0  T
  16   -339.1371644 -0.452604E-01  0.598E-01    0.02       1.0  T
  17   -339.2252276 -0.880632E-01  0.225E-01    0.00       1.0  T
  18   -339.2196301  0.559743E-02  0.257E-01    0.01       1.0  T
  19   -339.1953591  0.242710E-01  0.384E-01    0.01       1.0  T
  20   -339.2235059 -0.281468E-01  0.222E-01    0.00       1.0  T
  21   -339.2163319  0.717400E-02  0.275E-01    0.00       1.0  T
  22   -339.2163519 -0.199933E-04  0.275E-01    0.00       1.0  T
  23   -339.2213251 -0.497317E-02  0.240E-01    0.00       1.0  T
  24   -339.2277179 -0.639286E-02  0.188E-01    0.00       1.0  T
  25   -339.2295230 -0.180505E-02  0.169E-01    0.00       1.0  T
  26   -339.2320587 -0.253578E-02  0.140E-01    0.00       1.0  T
  27   -339.2339693 -0.191054E-02  0.111E-01    0.00       1.0  T
  28   -339.2371310 -0.316175E-02  0.407E-02    0.00       1.0  T
  29   -339.2372209 -0.898668E-04  0.357E-02    0.00       1.0  T
  30   -339.2375583 -0.337386E-03  0.111E-02    0.00       1.0  T
  31   -339.2375733 -0.149732E-04  0.697E-03    0.01       1.1  T
  32   -339.2375662  0.710423E-05  0.869E-03    0.01       1.0  T
  33   -339.2375793 -0.131356E-04  0.519E-03    0.01       1.4  T
  34   -339.2375846 -0.525058E-05  0.257E-03    0.01       2.9  T
  35   -339.2375861 -0.155915E-05  0.862E-04    0.01       8.5  T
  36   -339.2375861  0.776697E-08  0.835E-04    0.01       8.8  T
  37   -339.2375862 -0.706377E-07  0.683E-04    0.01      10.8  T
     SCC iter.                  ...        0 min,  3.491 sec
     gradient                   ...        0 min,  0.333 sec
 * total energy  :  -333.7215173 Eh     change       -0.3102227E+00 Eh
   gradient norm :     0.4619217 Eh/α   predicted    -0.2618960E+00 ( -15.58%)
   displ. norm   :     0.7035776 α      lambda       -0.2615164E+00
   maximum displ.:     0.2192740 α      in ANC's #189, #188, #183, ...

........................................................................
.............................. CYCLE    3 ..............................
........................................................................
   1   -339.2794636 -0.339279E+03  0.400E-01    0.00       0.0  T
   2   -335.7822304  0.349723E+01  0.336E+00    0.02       1.0  T
   3   -335.5546284  0.227602E+00  0.347E+00    0.02       1.0  T
   4   -336.2616543 -0.707026E+00  0.314E+00    0.02       1.0  T
   5   -337.7985891 -0.153693E+01  0.224E+00    0.02       1.0  T
   6   -336.0743012  0.172429E+01  0.326E+00    0.02       1.0  T
   7   -338.4031750 -0.232887E+01  0.172E+00    0.00       1.0  T
   8   -338.5997333 -0.196558E+00  0.158E+00    0.02       1.0  T
   9   -338.9201938 -0.320460E+00  0.114E+00    0.00       1.0  T
  10   -339.1624463 -0.242253E+00  0.688E-01    0.00       1.0  T
  11   -339.2728755 -0.110429E+00  0.334E-01    0.01       1.0  T
  12   -339.2333692  0.395063E-01  0.448E-01    0.00       1.0  T
  13   -339.2839371 -0.505680E-01  0.245E-01    0.00       1.0  T
  14   -339.2209467  0.629905E-01  0.500E-01    0.00       1.0  T
  15   -339.2233790 -0.243230E-02  0.512E-01    0.01       1.0  T
  16   -339.2549364 -0.315574E-01  0.390E-01    0.01       1.0  T
  17   -339.2887597 -0.338233E-01  0.188E-01    0.01       1.0  T
  18   -339.2870345  0.172513E-02  0.199E-01    0.01       1.0  T
  19   -339.2928171 -0.578255E-02  0.145E-01    0.01       1.0  T
  20   -339.2943841 -0.156700E-02  0.125E-01    0.01       1.0  T
  21   -339.2949411 -0.557041E-03  0.118E-01    0.01       1.0  T
  22   -339.2950528 -0.111689E-03  0.116E-01    0.01       1.0  T
  23   -339.2964729 -0.142009E-02  0.938E-02    0.01       1.0  T
  24   -339.2984472 -0.197428E-02  0.435E-02    0.01       1.0  T
  25   -339.2988475 -0.400333E-03  0.215E-02    0.00       1.0  T
  26   -339.2987638  0.837702E-04  0.270E-02    0.00       1.0  T
  27   -339.2987896 -0.257968E-04  0.248E-02    0.00       1.0  T
  28   -339.2988310 -0.414932E-04  0.215E-02    0.00       1.0  T
  29   -339.2989078 -0.767960E-04  0.143E-02    0.00       1.0  T
  30   -339.2989424 -0.345816E-04  0.896E-03    0.00       1.0  T
  31   -339.2989615 -0.190596E-04  0.429E-03    0.01       1.7  T
  32   -339.2989667 -0.521967E-05  0.792E-04    0.01       9.3  T
  33   -339.2989669 -0.148663E-06  0.387E-04    0.01      19.0  T
  34   -339.2989669 -0.834916E-09  0.352E-04    0.01      20.9  T
     SCC iter.                  ...        0 min,  3.213 sec
     gradient                   ...        0 min,  0.333 sec
 * total energy  :  -333.9229415 Eh     change       -0.2014242E+00 Eh
   gradient norm :     0.2120480 Eh/α   predicted    -0.1954863E+00 (  -2.95%)
   displ. norm   :     0.7769958 α      lambda       -0.1445546E+00
   maximum displ.:     0.2501502 α      in ANC's #189, #188, #183, ...

........................................................................
.............................. CYCLE    4 ..............................
........................................................................
   1   -339.3941790 -0.339394E+03  0.336E-01    0.00       0.0  T
   2   -337.6875842  0.170659E+01  0.240E+00    0.01       1.0  T
   3   -338.5853490 -0.897765E+00  0.168E+00    0.01       1.0  T
   4   -338.2659351  0.319414E+00  0.192E+00    0.01       1.0  T
   5   -336.5007778  0.176516E+01  0.306E+00    0.02       1.0  T
   6   -338.2400778 -0.173930E+01  0.193E+00    0.01       1.0  T
   7   -338.4087445 -0.168667E+00  0.184E+00    0.02       1.0  T
   8   -338.3619347  0.468098E-01  0.184E+00    0.02       1.0  T
   9   -338.9656848 -0.603750E+00  0.124E+00    0.01       1.0  T
  10   -339.2347742 -0.269089E+00  0.745E-01    0.00       1.0  T
  11   -339.3041967 -0.694225E-01  0.590E-01    0.00       1.0  T
  12   -339.1923982  0.111799E+00  0.810E-01    0.01       1.0  T
  13   -339.3194090 -0.127011E+00  0.537E-01    0.00       1.0  T
  14   -339.2975153  0.218937E-01  0.570E-01    0.00       1.0  T
  15   -339.3392286 -0.417134E-01  0.445E-01    0.00       1.0  T
  16   -339.3385607  0.667984E-03  0.468E-01    0.01       1.0  T
  17   -339.3834364 -0.448757E-01  0.262E-01    0.01       1.0  T
  18   -339.3991316 -0.156953E-01  0.126E-01    0.01       1.0  T
  19   -339.3988447  0.286901E-03  0.129E-01    0.00       1.0  T
  20   -339.3984504  0.394363E-03  0.138E-01    0.01       1.0  T
  21   -339.4011700 -0.271965E-02  0.964E-02    0.01       1.0  T
  22   -339.4027410 -0.157095E-02  0.637E-02    0.00       1.0  T
  23   -339.4016077  0.113327E-02  0.852E-02    0.00       1.0  T
  24   -339.4026114 -0.100373E-02  0.646E-02    0.01       1.0  T
  25   -339.4033313 -0.719901E-03  0.438E-02    0.01       1.0  T
  26   -339.4038300 -0.498697E-03  0.177E-02    0.01       1.0  T
  27   -339.4038859 -0.558171E-04  0.113E-02    0.01       1.0  T
  28   -339.4038953 -0.940785E-05  0.957E-03    0.01       1.0  T
  29   -339.4039099 -0.146847E-04  0.619E-03    0.01       1.2  T
  30   -339.4039111 -0.120257E-05  0.542E-03    0.01       1.4  T
  31   -339.4039122 -0.104580E-05  0.498E-03    0.01       1.5  T
  32   -339.4039189 -0.669514E-05  0.195E-03    0.01       3.8  T
  33   -339.4039192 -0.353545E-06  0.155E-03    0.00       4.7  T
  34   -339.4039198 -0.561172E-06  0.825E-04    0.00       8.9  T
  35   -339.4039200 -0.206055E-06  0.276E-04    0.00      26.6  T
     SCC iter.                  ...        0 min,  3.307 sec
     gradient                   ...        0 min,  0.333 sec
 * total energy  :  -334.0437614 Eh     change       -0.1208199E+00 Eh
   gradient norm :     0.1329529 Eh/α   predicted    -0.1159129E+00 (  -4.06%)
   displ. norm   :     0.8327261 α      lambda       -0.1051918E+00
   maximum displ.:     0.2455357 α      in ANC's #189, #188, #183, ...

........................................................................
.............................. CYCLE    5 ..............................
........................................................................
   1   -339.5022379 -0.339502E+03  0.335E-01    0.00       0.0  T
   2   -337.6241317  0.187811E+01  0.246E+00    0.02       1.0  T
   3   -338.2146336 -0.590502E+00  0.197E+00    0.02       1.0  T
   4   -338.3552134 -0.140580E+00  0.192E+00    0.01       1.0  T
   5   -336.3104914  0.204472E+01  0.322E+00    0.02       1.0  T
   6   -336.3270498 -0.165584E-01  0.325E+00    0.02       1.0  T
   7   -339.0907340 -0.276368E+01  0.121E+00    0.00       1.0  T
   8   -339.2951450 -0.204411E+00  0.837E-01    0.01       1.0  T
   9   -339.2751157  0.200293E-01  0.903E-01    0.00       1.0  T
  10   -339.3798820 -0.104766E+00  0.622E-01    0.01       1.0  T
  11   -339.5002392 -0.120357E+00  0.162E-01    0.00       1.0  T
  12   -339.4678448  0.323945E-01  0.354E-01    0.00       1.0  T
  13   -339.4832272 -0.153824E-01  0.276E-01    0.00       1.0  T
  14   -339.5000555 -0.168283E-01  0.158E-01    0.01       1.0  T
  15   -339.5041101 -0.405454E-02  0.104E-01    0.01       1.0  T
  16   -339.5066810 -0.257098E-02  0.508E-02    0.01       1.0  T
  17   -339.5040741  0.260695E-02  0.104E-01    0.01       1.0  T
  18   -339.5064850 -0.241093E-02  0.550E-02    0.01       1.0  T
  19   -339.5070477 -0.562657E-03  0.355E-02    0.01       1.0  T
  20   -339.5074057 -0.358016E-03  0.865E-03    0.00       1.0  T
  21   -339.5073951  0.105677E-04  0.104E-02    0.00       1.0  T
  22   -339.5073674  0.277308E-04  0.139E-02    0.00       1.0  T
  23   -339.5074028 -0.354640E-04  0.881E-03    0.00       1.0  T
  24   -339.5074173 -0.144468E-04  0.533E-03    0.00       1.4  T
  25   -339.5074222 -0.487728E-05  0.324E-03    0.00       2.3  T
  26   -339.5074240 -0.182537E-05  0.203E-03    0.00       3.6  T
  27   -339.5074248 -0.775937E-06  0.132E-03    0.00       5.6  T
  28   -339.5074251 -0.289006E-06  0.859E-04    0.00       8.6  T
  29   -339.5074252 -0.158743E-06  0.435E-04    0.00      16.9  T
     SCC iter.                  ...        0 min,  2.735 sec
     gradient                   ...        0 min,  0.334 sec
 * total energy  :  -334.1358100 Eh     change       -0.9204862E-01 Eh
   gradient norm :     0.1105573 Eh/α   predicted    -0.8906852E-01 (  -3.24%)
   displ. norm   :     0.8589688 α      lambda       -0.8379568E-01
   maximum displ.:     0.2587298 α      in ANC's #93, #189, #95, ...

........................................................................
.............................. CYCLE    6 ..............................
........................................................................
   1   -339.6006206 -0.339601E+03  0.347E-01    0.00       0.0  T
   2   -339.1287636  0.471857E+00  0.125E+00    0.00       1.0  T
   3   -338.3404652  0.788298E+00  0.209E+00    0.01       1.0  T
   4   -336.8356737  0.150479E+01  0.301E+00    0.02       1.0  T
   5   -335.8310496  0.100462E+01  0.348E+00    0.02       1.0  T
   6   -336.5505174 -0.719468E+00  0.307E+00    0.02       1.0  T
   7   -339.2430402 -0.269252E+01  0.102E+00    0.01       1.0  T
   8   -338.9389903  0.304050E+00  0.145E+00    0.01       1.0  T
   9   -338.3520885  0.586902E+00  0.194E+00    0.02       1.0  T
  10   -339.4985047 -0.114642E+01  0.592E-01    0.01       1.0  T
  11   -339.4340990  0.644058E-01  0.723E-01    0.00       1.0  T
  12   -339.5186276 -0.845287E-01  0.523E-01    0.00       1.0  T
  13   -339.5839339 -0.653063E-01  0.257E-01    0.01       1.0  T
  14   -339.5802065  0.372740E-02  0.280E-01    0.01       1.0  T
  15   -339.5789715  0.123509E-02  0.284E-01    0.01       1.0  T
  16   -339.6009341 -0.219626E-01  0.962E-02    0.00       1.0  T
  17   -339.6025869 -0.165282E-02  0.554E-02    0.00       1.0  T
  18   -339.6027649 -0.178036E-03  0.511E-02    0.00       1.0  T
  19   -339.6025898  0.175075E-03  0.520E-02    0.00       1.0  T
  20   -339.6031299 -0.540020E-03  0.329E-02    0.00       1.0  T
  21   -339.6022333  0.896526E-03  0.603E-02    0.00       1.0  T
  22   -339.6033399 -0.110658E-02  0.181E-02    0.00       1.0  T
  23   -339.6031701  0.169822E-03  0.286E-02    0.00       1.0  T
  24   -339.6033306 -0.160525E-03  0.182E-02    0.00       1.0  T
  25   -339.6034192 -0.885416E-04  0.704E-03    0.00       1.0  T
  26   -339.6034291 -0.989942E-05  0.415E-03    0.00       1.8  T
  27   -339.6034304 -0.136742E-05  0.354E-03    0.00       2.1  T
  28   -339.6034324 -0.201597E-05  0.249E-03    0.00       3.0  T
  29   -339.6034336 -0.119549E-05  0.157E-03    0.00       4.7  T
  30   -339.6034342 -0.597895E-06  0.709E-04    0.00      10.4  T
  31   -339.6034343 -0.194019E-07  0.640E-04    0.00      11.5  T
     SCC iter.                  ...        0 min,  2.925 sec
     gradient                   ...        0 min,  0.334 sec
 * total energy  :  -334.2103205 Eh     change       -0.7451047E-01 Eh
   gradient norm :     0.0906931 Eh/α   predicted    -0.7281121E-01 (  -2.28%)
   displ. norm   :     0.8777662 α      lambda       -0.6811510E-01
   maximum displ.:     0.2818796 α      in ANC's #93, #21, #95, ...

........................................................................
.............................. CYCLE    7 ..............................
........................................................................
   1   -339.6796989 -0.339680E+03  0.354E-01    0.01       0.0  T
   2   -338.4576786  0.122202E+01  0.208E+00    0.00       1.0  T
   3   -336.7527436  0.170493E+01  0.315E+00    0.01       1.0  T
   4   -337.4072597 -0.654516E+00  0.267E+00    0.02       1.0  T
   5   -336.1569435  0.125032E+01  0.342E+00    0.01       1.0  T
   6   -336.5991578 -0.442214E+00  0.319E+00    0.02       1.0  T
   7   -339.4316154 -0.283246E+01  0.935E-01    0.01       1.0  T
   8   -339.3225217  0.109094E+00  0.113E+00    0.01       1.0  T
   9   -338.8506023  0.471919E+00  0.167E+00    0.02       1.0  T
  10   -339.4811608 -0.630558E+00  0.812E-01    0.01       1.0  T
  11   -339.5659345 -0.847737E-01  0.652E-01    0.01       1.0  T
  12   -339.5796357 -0.137013E-01  0.604E-01    0.01       1.0  T
  13   -339.5195164  0.601193E-01  0.706E-01    0.00       1.0  T
  14   -339.6010372 -0.815207E-01  0.515E-01    0.00       1.0  T
  15   -339.6283365 -0.272994E-01  0.428E-01    0.00       1.0  T
  16   -339.6505721 -0.222356E-01  0.334E-01    0.00       1.0  T
  17   -339.6555018 -0.492973E-02  0.303E-01    0.00       1.0  T
  18   -339.6565263 -0.102445E-02  0.299E-01    0.00       1.0  T
  19   -339.6625261 -0.599982E-02  0.268E-01    0.00       1.0  T
  20   -339.6823913 -0.198652E-01  0.119E-01    0.01       1.0  T
  21   -339.6801742  0.221712E-02  0.142E-01    0.01       1.0  T
  22   -339.6791161  0.105813E-02  0.153E-01    0.01       1.0  T
  23   -339.6787785  0.337614E-03  0.156E-01    0.01       1.0  T
  24   -339.6818004 -0.302193E-02  0.121E-01    0.01       1.0  T
  25   -339.6838103 -0.200987E-02  0.906E-02    0.01       1.0  T
  26   -339.6850227 -0.121240E-02  0.649E-02    0.01       1.0  T
  27   -339.6859354 -0.912698E-03  0.375E-02    0.01       1.0  T
  28   -339.6863391 -0.403689E-03  0.119E-02    0.01       1.0  T
  29   -339.6863797 -0.406165E-04  0.344E-03    0.01       2.1  T
  30   -339.6863815 -0.183479E-05  0.230E-03    0.01       3.2  T
  31   -339.6863827 -0.112985E-05  0.120E-03    0.01       6.1  T
  32   -339.6863828 -0.176349E-06  0.844E-04    0.01       8.7  T
  33   -339.6863829 -0.431220E-07  0.745E-04    0.01       9.9  T
     SCC iter.                  ...        0 min,  3.115 sec
     gradient                   ...        0 min,  0.334 sec
 * total energy  :  -334.2718722 Eh     change       -0.6155165E-01 Eh
   gradient norm :     0.0726134 Eh/α   predicted    -0.6029800E-01 (  -2.04%)
   displ. norm   :     0.9090388 α      lambda       -0.5797059E-01
   maximum displ.:     0.3249411 α      in ANC's #21, #93, #59, ...

........................................................................
.............................. CYCLE    8 ..............................
........................................................................
   1   -339.7288860 -0.339729E+03  0.386E-01    0.01       0.0  T
   2   -338.1044610  0.162442E+01  0.243E+00    0.00       1.0  T
   3   -337.2555210  0.848940E+00  0.294E+00    0.01       1.0  T
   4   -336.6301510  0.625370E+00  0.324E+00    0.02       1.0  T
   5   -337.1526440 -0.522493E+00  0.289E+00    0.02       1.0  T
   6   -336.9215568  0.231087E+00  0.301E+00    0.02       1.0  T
   7   -338.5931872 -0.167163E+01  0.193E+00    0.01       1.0  T
   8   -337.3726635  0.122052E+01  0.278E+00    0.02       1.0  T
   9   -338.2103630 -0.837700E+00  0.221E+00    0.02       1.0  T
  10   -337.0729287  0.113743E+01  0.297E+00    0.02       1.0  T
  11   -337.1057005 -0.327718E-01  0.294E+00    0.02       1.0  T
  12   -339.1130746 -0.200737E+01  0.148E+00    0.01       1.0  T
  13   -339.2295378 -0.116463E+00  0.134E+00    0.01       1.0  T
  14   -339.0678955  0.161642E+00  0.149E+00    0.00       1.0  T
  15   -339.4091915 -0.341296E+00  0.107E+00    0.00       1.0  T
  16   -339.4443022 -0.351107E-01  0.101E+00    0.01       1.0  T
  17   -339.4412313  0.307097E-02  0.994E-01    0.00       1.0  T
  18   -339.5614834 -0.120252E+00  0.789E-01    0.00       1.0  T
  19   -339.5207869  0.406966E-01  0.824E-01    0.01       1.0  T
  20   -339.4513190  0.694678E-01  0.942E-01    0.01       1.0  T
  21   -339.4492608  0.205824E-02  0.946E-01    0.01       1.0  T
  22   -339.5065233 -0.572626E-01  0.854E-01    0.01       1.0  T
  23   -339.5329976 -0.264742E-01  0.814E-01    0.01       1.0  T
  24   -339.6018582 -0.688606E-01  0.700E-01    0.00       1.0  T
  25   -339.6355379 -0.336797E-01  0.645E-01    0.01       1.0  T
  26   -339.6723545 -0.368166E-01  0.541E-01    0.00       1.0  T
  27   -339.6781435 -0.578900E-02  0.519E-01    0.00       1.0  T
  28   -339.6839695 -0.582602E-02  0.496E-01    0.00       1.0  T
  29   -339.6952644 -0.112949E-01  0.443E-01    0.00       1.0  T
  30   -339.7184472 -0.231829E-01  0.323E-01    0.00       1.0  T
  31   -339.7325359 -0.140886E-01  0.234E-01    0.00       1.0  T
  32   -339.7414412 -0.890534E-02  0.150E-01    0.01       1.0  T
  33   -339.7419866 -0.545368E-03  0.139E-01    0.01       1.0  T
  34   -339.7445538 -0.256725E-02  0.994E-02    0.01       1.0  T
  35   -339.7460750 -0.152118E-02  0.682E-02    0.01       1.0  T
  36   -339.7465101 -0.435024E-03  0.563E-02    0.01       1.0  T
  37   -339.7472870 -0.776956E-03  0.242E-02    0.01       1.0  T
  38   -339.7473216 -0.345624E-04  0.219E-02    0.01       1.0  T
  39   -339.7473910 -0.694168E-04  0.150E-02    0.01       1.0  T
  40   -339.7474347 -0.437178E-04  0.881E-03    0.01       1.0  T
  41   -339.7474391 -0.442095E-05  0.769E-03    0.01       1.0  T
  42   -339.7474448 -0.571444E-05  0.608E-03    0.01       1.2  T
  43   -339.7474522 -0.739923E-05  0.364E-03    0.01       2.0  T
  44   -339.7474526 -0.328055E-06  0.317E-03    0.01       2.3  T
  45   -339.7474545 -0.195591E-05  0.190E-03    0.01       3.9  T
  46   -339.7474553 -0.799926E-06  0.101E-03    0.01       7.3  T
  47   -339.7474554 -0.937712E-07  0.888E-04    0.01       8.3  T
  48   -339.7474555 -0.128475E-06  0.550E-04    0.01      13.4  T
     SCC iter.                  ...        0 min,  4.523 sec
     gradient                   ...        0 min,  0.335 sec
 * total energy  :  -334.3263622 Eh     change       -0.5449003E-01 Eh
   gradient norm :     0.0646865 Eh/α   predicted    -0.5293746E-01 (  -2.85%)
   displ. norm   :     0.9541393 α      lambda       -0.5541164E-01
   maximum displ.:     0.4035626 α      in ANC's #21, #59, #15, ...

........................................................................
.............................. CYCLE    9 ..............................
........................................................................
   1   -339.7594418 -0.339759E+03  0.424E-01    0.01       0.0  T
   2   -338.0289596  0.173048E+01  0.256E+00    0.01       1.0  T
   3   -336.6048223  0.142414E+01  0.339E+00    0.04       1.0  T
   4   -336.5659382  0.388841E-01  0.334E+00    0.01       1.0  T
   5   -338.9370259 -0.237109E+01  0.168E+00    0.01       1.0  T
   6   -336.7281897  0.220884E+01  0.314E+00    0.02       1.0  T
   7   -338.4154764 -0.168729E+01  0.217E+00    0.00       1.0  T
   8   -337.9485734  0.466903E+00  0.244E+00    0.02       1.0  T
   9   -338.2192264 -0.270653E+00  0.228E+00    0.00       1.0  T
  10   -338.2521374 -0.329110E-01  0.225E+00    0.00       1.0  T
  11   -338.4281744 -0.176037E+00  0.212E+00    0.01       1.0  T
  12   -336.9841441  0.144403E+01  0.307E+00    0.02       1.0  T
  13   -337.3987012 -0.414557E+00  0.283E+00    0.02       1.0  T
  14   -339.0068263 -0.160813E+01  0.160E+00    0.02       1.0  T
  15   -339.1923280 -0.185502E+00  0.136E+00    0.02       1.0  T
  16   -339.1994693 -0.714129E-02  0.135E+00    0.02       1.0  T
  17   -339.4955306 -0.296061E+00  0.950E-01    0.02       1.0  T
  18   -339.4221762  0.733544E-01  0.108E+00    0.02       1.0  T
  19   -339.5283821 -0.106206E+00  0.100E+00    0.03       1.0  T
  20   -339.5417271 -0.133450E-01  0.970E-01    0.02       1.0  T
  21   -339.6487729 -0.107046E+00  0.687E-01    0.00       1.0  T
  22   -339.6840225 -0.352497E-01  0.578E-01    0.00       1.0  T
  23   -339.7063655 -0.223430E-01  0.500E-01    0.01       1.0  T
  24   -339.7606350 -0.542695E-01  0.313E-01    0.00       1.0  T
  25   -339.7775747 -0.169396E-01  0.201E-01    0.01       1.0  T
  26   -339.7839346 -0.635988E-02  0.143E-01    0.01       1.0  T
  27   -339.7820625  0.187209E-02  0.166E-01    0.01       1.0  T
  28   -339.7811326  0.929874E-03  0.170E-01    0.01       1.0  T
  29   -339.7840813 -0.294869E-02  0.133E-01    0.00       1.0  T
  30   -339.7878764 -0.379512E-02  0.652E-02    0.00       1.0  T
  31   -339.7883631 -0.486691E-03  0.470E-02    0.00       1.0  T
  32   -339.7878119  0.551188E-03  0.608E-02    0.01       1.0  T
  33   -339.7882896 -0.477740E-03  0.448E-02    0.01       1.0  T
  34   -339.7886246 -0.334928E-03  0.322E-02    0.01       1.0  T
  35   -339.7887985 -0.173937E-03  0.199E-02    0.01       1.0  T
  36   -339.7888959 -0.973771E-04  0.667E-03    0.01       1.1  T
  37   -339.7888935  0.242175E-05  0.718E-03    0.01       1.0  T
  38   -339.7889026 -0.908931E-05  0.423E-03    0.01       1.7  T
  39   -339.7889053 -0.277650E-05  0.283E-03    0.01       2.6  T
  40   -339.7889061 -0.752561E-06  0.218E-03    0.01       3.4  T
  41   -339.7889067 -0.628458E-06  0.152E-03    0.01       4.8  T
  42   -339.7889071 -0.392213E-06  0.967E-04    0.01       7.6  T
  43   -339.7889072 -0.126774E-06  0.702E-04    0.01      10.5  T
     SCC iter.                  ...        0 min,  4.049 sec
     gradient                   ...        0 min,  0.335 sec
 * total energy  :  -334.3806989 Eh     change       -0.5433673E-01 Eh
   gradient norm :     0.0652682 Eh/α   predicted    -0.5292881E-01 (  -2.59%)
   displ. norm   :     0.9740661 α      lambda       -0.5634490E-01
   maximum displ.:     0.4431904 α      in ANC's #21, #59, #15, ...

........................................................................
.............................. CYCLE   10 ..............................
........................................................................
   1   -339.7960203 -0.339796E+03  0.395E-01    0.01       0.0  T
   2   -337.9491115  0.184691E+01  0.265E+00    0.01       1.0  T
   3   -337.4043511  0.544760E+00  0.296E+00    0.03       1.0  T
   4   -336.6148826  0.789469E+00  0.335E+00    0.01       1.0  T
   5   -338.8967929 -0.228191E+01  0.177E+00    0.01       1.0  T
   6   -339.0011962 -0.104403E+00  0.165E+00    0.01       1.0  T
   7   -336.4782559  0.252294E+01  0.332E+00    0.01       1.0  T
   8   -338.7846718 -0.230642E+01  0.194E+00    0.05       1.0  T
   9   -338.6898919  0.947799E-01  0.197E+00    0.04       1.0  T
  10   -338.9287058 -0.238814E+00  0.168E+00    0.04       1.0  T
  11   -339.1988745 -0.270169E+00  0.146E+00    0.03       1.0  T
  12   -339.1817352  0.171393E-01  0.144E+00    0.03       1.0  T
  13   -339.3935448 -0.211810E+00  0.120E+00    0.02       1.0  T
  14   -339.4732922 -0.797474E-01  0.109E+00    0.01       1.0  T
  15   -339.4402864  0.330058E-01  0.114E+00    0.01       1.0  T
  16   -339.4380622  0.222419E-02  0.115E+00    0.01       1.0  T
  17   -339.2922000  0.145862E+00  0.133E+00    0.02       1.0  T
  18   -339.6515337 -0.359334E+00  0.791E-01    0.01       1.0  T
  19   -339.7923496 -0.140816E+00  0.330E-01    0.01       1.0  T
  20   -339.8031395 -0.107899E-01  0.265E-01    0.01       1.0  T
  21   -339.7792263  0.239132E-01  0.403E-01    0.01       1.0  T
  22   -339.8027794 -0.235531E-01  0.247E-01    0.00       1.0  T
  23   -339.8094754 -0.669603E-02  0.206E-01    0.00       1.0  T
  24   -339.8169951 -0.751966E-02  0.122E-01    0.00       1.0  T
  25   -339.8153918  0.160334E-02  0.141E-01    0.00       1.0  T
  26   -339.8154231 -0.313689E-04  0.139E-01    0.00       1.0  T
  27   -339.8191664 -0.374331E-02  0.883E-02    0.00       1.0  T
  28   -339.8211533 -0.198682E-02  0.339E-02    0.00       1.0  T
  29   -339.8212476 -0.943824E-04  0.289E-02    0.00       1.0  T
  30   -339.8213057 -0.580864E-04  0.249E-02    0.00       1.0  T
  31   -339.8214014 -0.956779E-04  0.163E-02    0.00       1.0  T
  32   -339.8214500 -0.486318E-04  0.937E-03    0.00       1.0  T
  33   -339.8214635 -0.134652E-04  0.608E-03    0.00       1.2  T
  34   -339.8214677 -0.419832E-05  0.441E-03    0.00       1.7  T
  35   -339.8214675  0.184879E-06  0.437E-03    0.00       1.7  T
  36   -339.8214684 -0.904946E-06  0.414E-03    0.00       1.8  T
  37   -339.8214706 -0.222930E-05  0.305E-03    0.00       2.4  T
  38   -339.8214730 -0.232737E-05  0.929E-04    0.00       7.9  T
  39   -339.8214730 -0.277638E-07  0.888E-04    0.00       8.3  T
  40   -339.8214731 -0.134184E-06  0.567E-04    0.00      13.0  T
     SCC iter.                  ...        0 min,  3.773 sec
     gradient                   ...        0 min,  0.335 sec
 * total energy  :  -334.4360136 Eh     change       -0.5531465E-01 Eh
   gradient norm :     0.0659489 Eh/α   predicted    -0.5490263E-01 (  -0.74%)
   displ. norm   :     0.9576701 α      lambda       -0.5537748E-01
   maximum displ.:     0.4702037 α      in ANC's #21, #15, #59, ...

........................................................................
.............................. CYCLE   11 ..............................
........................................................................
   1   -339.8359097 -0.339836E+03  0.324E-01    0.01       0.0  T
   2   -337.7075444  0.212837E+01  0.280E+00    0.01       1.0  T
   3   -337.1899881  0.517556E+00  0.306E+00    0.02       1.0  T
   4   -336.6754307  0.514557E+00  0.339E+00    0.02       1.0  T
   5   -338.9817867 -0.230636E+01  0.175E+00    0.00       1.0  T
   6   -337.1933717  0.178842E+01  0.294E+00    0.02       1.0  T
   7   -339.5519891 -0.235862E+01  0.999E-01    0.01       1.0  T
   8   -339.5626444 -0.106553E-01  0.101E+00    0.00       1.0  T
   9   -339.7322843 -0.169640E+00  0.667E-01    0.01       1.0  T
  10   -339.6560719  0.762123E-01  0.822E-01    0.00       1.0  T
  11   -339.7260009 -0.699290E-01  0.691E-01    0.01       1.0  T
  12   -339.7975714 -0.715705E-01  0.431E-01    0.01       1.0  T
  13   -339.8385021 -0.409307E-01  0.205E-01    0.00       1.0  T
  14   -339.8364926  0.200946E-02  0.224E-01    0.00       1.0  T
  15   -339.8492573 -0.127647E-01  0.827E-02    0.00       1.0  T
  16   -339.8503131 -0.105580E-02  0.495E-02    0.00       1.0  T
  17   -339.8492723  0.104075E-02  0.764E-02    0.00       1.0  T
  18   -339.8499094 -0.637059E-03  0.602E-02    0.00       1.0  T
  19   -339.8500575 -0.148098E-03  0.547E-02    0.00       1.0  T
  20   -339.8501550 -0.975115E-04  0.515E-02    0.00       1.0  T
  21   -339.8503344 -0.179399E-03  0.450E-02    0.00       1.0  T
  22   -339.8504311 -0.967199E-04  0.408E-02    0.00       1.0  T
  23   -339.8506598 -0.228630E-03  0.291E-02    0.00       1.0  T
  24   -339.8508206 -0.160844E-03  0.166E-02    0.00       1.0  T
  25   -339.8508626 -0.419684E-04  0.108E-02    0.00       1.0  T
  26   -339.8508856 -0.230609E-04  0.517E-03    0.00       1.4  T
  27   -339.8508905 -0.489910E-05  0.271E-03    0.00       2.7  T
  28   -339.8508922 -0.165099E-05  0.737E-04    0.00      10.0  T
  29   -339.8508923 -0.969998E-07  0.526E-04    0.00      14.0  T
  30   -339.8508923 -0.416986E-07  0.212E-04    0.00      34.7  T
     SCC iter.                  ...        0 min,  2.828 sec
     gradient                   ...        0 min,  0.335 sec
 * total energy  :  -334.4832721 Eh     change       -0.4725852E-01 Eh
   gradient norm :     0.0633722 Eh/α   predicted    -0.5308300E-01 (  12.32%)
   displ. norm   :     0.8639933 α      lambda       -0.3984228E-01
   maximum displ.:     0.4893244 α      in ANC's #21, #15, #59, ...

........................................................................
.............................. CYCLE   12 ..............................
........................................................................
   1   -339.8671549 -0.339867E+03  0.214E-01    0.00       0.0  T
   2   -338.9272592  0.939896E+00  0.183E+00    0.00       1.0  T
   3   -339.2221332 -0.294874E+00  0.152E+00    0.00       1.0  T
   4   -339.4487337 -0.226600E+00  0.119E+00    0.02       1.0  T
   5   -339.4126162  0.361175E-01  0.129E+00    0.01       1.0  T
   6   -339.2099234  0.202693E+00  0.158E+00    0.02       1.0  T
   7   -339.0438352  0.166088E+00  0.170E+00    0.00       1.0  T
   8   -339.6125979 -0.568763E+00  0.918E-01    0.02       1.0  T
   9   -339.6873411 -0.747432E-01  0.804E-01    0.01       1.0  T
  10   -339.8645620 -0.177221E+00  0.146E-01    0.00       1.0  T
  11   -339.8600559  0.450609E-02  0.193E-01    0.00       1.0  T
  12   -339.8615851 -0.152925E-02  0.188E-01    0.00       1.0  T
  13   -339.8592525  0.233264E-02  0.200E-01    0.00       1.0  T
  14   -339.8663875 -0.713500E-02  0.119E-01    0.00       1.0  T
  15   -339.8702360 -0.384852E-02  0.275E-02    0.00       1.0  T
  16   -339.8699530  0.282972E-03  0.423E-02    0.00       1.0  T
  17   -339.8700133 -0.603089E-04  0.365E-02    0.00       1.0  T
  18   -339.8703201 -0.306707E-03  0.180E-02    0.00       1.0  T
  19   -339.8703790 -0.589667E-04  0.109E-02    0.00       1.0  T
  20   -339.8703642  0.148068E-04  0.131E-02    0.00       1.0  T
  21   -339.8704114 -0.471763E-04  0.376E-03    0.00       2.0  T
  22   -339.8704114 -0.348369E-07  0.357E-03    0.00       2.1  T
  23   -339.8704109  0.508385E-06  0.374E-03    0.00       2.0  T
  24   -339.8704146 -0.364952E-05  0.142E-03    0.00       5.2  T
  25   -339.8704148 -0.271901E-06  0.108E-03    0.00       6.8  T
  26   -339.8704151 -0.294344E-06  0.345E-04    0.00      21.3  T
  27   -339.8704152 -0.295460E-07  0.160E-04    0.00      46.1  T
     SCC iter.                  ...        0 min,  2.547 sec
     gradient                   ...        0 min,  0.335 sec
 * total energy  :  -334.5174114 Eh     change       -0.3413933E-01 Eh
   gradient norm :     0.0565825 Eh/α   predicted    -0.3479198E-01 (   1.91%)
   displ. norm   :     0.8255072 α      lambda       -0.3427788E-01
   maximum displ.:     0.5050763 α      in ANC's #21, #15, #25, ...

........................................................................
.............................. CYCLE   13 ..............................
........................................................................
   1   -339.9370372 -0.339937E+03  0.195E-01    0.00       0.0  T
   2   -338.2515369  0.168550E+01  0.233E+00    0.02       1.0  T
   3   -338.8637774 -0.612241E+00  0.204E+00    0.06       1.0  T
   4   -339.4936451 -0.629868E+00  0.131E+00    0.02       1.0  T
   5   -339.0538741  0.439771E+00  0.183E+00    0.04       1.0  T
   6   -339.4270855 -0.373211E+00  0.129E+00    0.04       1.0  T
   7   -337.9573713  0.146971E+01  0.256E+00    0.03       1.0  T
   8   -339.8473402 -0.188997E+01  0.579E-01    0.00       1.0  T
   9   -339.9064829 -0.591427E-01  0.355E-01    0.00       1.0  T
  10   -339.8957624  0.107205E-01  0.405E-01    0.00       1.0  T
  11   -339.9116006 -0.158383E-01  0.323E-01    0.00       1.0  T
  12   -339.9319658 -0.203652E-01  0.163E-01    0.00       1.0  T
  13   -339.9278953  0.407043E-02  0.203E-01    0.00       1.0  T
  14   -339.9325232 -0.462789E-02  0.157E-01    0.00       1.0  T
  15   -339.9390600 -0.653672E-02  0.376E-02    0.00       1.0  T
  16   -339.9384832  0.576734E-03  0.583E-02    0.00       1.0  T
  17   -339.9391327 -0.649473E-03  0.314E-02    0.00       1.0  T
  18   -339.9393730 -0.240338E-03  0.116E-02    0.00       1.0  T
  19   -339.9394060 -0.329416E-04  0.415E-03    0.00       1.8  T
  20   -339.9394027  0.327355E-05  0.520E-03    0.00       1.4  T
  21   -339.9394036 -0.908883E-06  0.483E-03    0.00       1.5  T
  22   -339.9394036  0.455663E-07  0.478E-03    0.00       1.5  T
  23   -339.9394063 -0.268720E-05  0.362E-03    0.00       2.0  T
  24   -339.9394089 -0.263958E-05  0.179E-03    0.00       4.1  T
  25   -339.9394096 -0.742753E-06  0.692E-04    0.00      10.6  T
  26   -339.9394097 -0.969725E-07  0.371E-04    0.00      19.8  T
     SCC iter.                  ...        0 min,  2.455 sec
     gradient                   ...        0 min,  0.335 sec
 * total energy  :  -334.5475776 Eh     change       -0.3016622E-01 Eh
   gradient norm :     0.0472283 Eh/α   predicted    -0.2881849E-01 (  -4.47%)
   displ. norm   :     0.8842718 α      lambda       -0.3007596E-01
   maximum displ.:     0.5492408 α      in ANC's #21, #15, #25, ...

........................................................................
.............................. CYCLE   14 ..............................
........................................................................
   1   -340.0027874 -0.340003E+03  0.176E-01    0.01       0.0  T
   2   -339.1288166  0.873971E+00  0.177E+00    0.03       1.0  T
   3   -337.3795851  0.174923E+01  0.303E+00    0.04       1.0  T
   4   -339.1604423 -0.178086E+01  0.175E+00    0.02       1.0  T
   5   -339.8292702 -0.668828E+00  0.809E-01    0.00       1.0  T
   6   -337.4172308  0.241204E+01  0.292E+00    0.03       1.0  T
   7   -339.6938910 -0.227666E+01  0.106E+00    0.03       1.0  T
   8   -339.7675193 -0.736283E-01  0.962E-01    0.04       1.0  T
   9   -339.9855766 -0.218057E+00  0.280E-01    0.00       1.0  T
  10   -339.8911618  0.944148E-01  0.642E-01    0.02       1.0  T
  11   -339.9954032 -0.104241E+00  0.201E-01    0.00       1.0  T
  12   -339.9658627  0.295405E-01  0.383E-01    0.01       1.0  T
  13   -340.0063303 -0.404675E-01  0.459E-02    0.00       1.0  T
  14   -340.0024395  0.389077E-02  0.126E-01    0.00       1.0  T
  15   -340.0058148 -0.337532E-02  0.620E-02    0.00       1.0  T
  16   -340.0062147 -0.399924E-03  0.488E-02    0.00       1.0  T
  17   -340.0066045 -0.389712E-03  0.292E-02    0.00       1.0  T
  18   -340.0065760  0.285007E-04  0.296E-02    0.00       1.0  T
  19   -340.0066386 -0.626070E-04  0.253E-02    0.00       1.0  T
  20   -340.0066973 -0.586984E-04  0.205E-02    0.00       1.0  T
  21   -340.0066493  0.479976E-04  0.241E-02    0.00       1.0  T
  22   -340.0067403 -0.910291E-04  0.161E-02    0.00       1.0  T
  23   -340.0068079 -0.676478E-04  0.444E-03    0.00       1.7  T
  24   -340.0068121 -0.419530E-05  0.179E-03    0.00       4.1  T
  25   -340.0068120  0.156809E-06  0.150E-03    0.00       4.9  T
  26   -340.0068125 -0.489311E-06  0.640E-04    0.00      11.5  T
  27   -340.0068124  0.144080E-07  0.672E-04    0.00      10.9  T
     SCC iter.                  ...        0 min,  2.551 sec
     gradient                   ...        0 min,  0.336 sec
 * total energy  :  -334.5750932 Eh     change       -0.2751553E-01 Eh
   gradient norm :     0.0446508 Eh/α   predicted    -0.2679670E-01 (  -2.61%)
   displ. norm   :     0.9160076 α      lambda       -0.2768124E-01
   maximum displ.:     0.5409338 α      in ANC's #21, #15, #25, ...

........................................................................
.............................. CYCLE   15 ..............................
........................................................................
   1   -340.0554423 -0.340055E+03  0.145E-01    0.00       0.0  T
   2   -337.7182762  0.233717E+01  0.288E+00    0.01       1.0  T
   3   -339.0049404 -0.128666E+01  0.201E+00    0.04       1.0  T
   4   -339.4426910 -0.437751E+00  0.150E+00    0.03       1.0  T
   5   -339.7568665 -0.314175E+00  0.100E+00    0.01       1.0  T
   6   -339.3799447  0.376922E+00  0.148E+00    0.05       1.0  T
   7   -339.9317528 -0.551808E+00  0.659E-01    0.01       1.0  T
   8   -340.0263653 -0.946125E-01  0.336E-01    0.00       1.0  T
   9   -340.0334929 -0.712755E-02  0.284E-01    0.00       1.0  T
  10   -340.0442531 -0.107603E-01  0.217E-01    0.01       1.0  T
  11   -340.0484461 -0.419301E-02  0.172E-01    0.00       1.0  T
  12   -340.0552594 -0.681326E-02  0.831E-02    0.00       1.0  T
  13   -340.0568987 -0.163931E-02  0.313E-02    0.00       1.0  T
  14   -340.0570255 -0.126797E-03  0.239E-02    0.00       1.0  T
  15   -340.0571185 -0.930184E-04  0.141E-02    0.00       1.0  T
  16   -340.0571492 -0.307137E-04  0.907E-03    0.00       1.0  T
  17   -340.0571520 -0.279983E-05  0.813E-03    0.00       1.0  T
  18   -340.0571625 -0.104447E-04  0.548E-03    0.00       1.3  T
  19   -340.0571716 -0.913418E-05  0.110E-03    0.00       6.7  T
  20   -340.0571718 -0.218385E-06  0.709E-04    0.00      10.4  T
  21   -340.0571719 -0.112940E-06  0.302E-04    0.00      24.4  T
     SCC iter.                  ...        0 min,  1.982 sec
     gradient                   ...        0 min,  0.336 sec
 * total energy  :  -334.6004255 Eh     change       -0.2533235E-01 Eh
   gradient norm :     0.0428098 Eh/α   predicted    -0.2545388E-01 (   0.48%)
   displ. norm   :     0.9441293 α      lambda       -0.2676544E-01
   maximum displ.:     0.5531181 α      in ANC's #15, #21, #25, ...

........................................................................
.............................. CYCLE   16 ..............................
........................................................................
   1   -340.0961012 -0.340096E+03  0.166E-01    0.00       0.0  T
   2   -337.3115260  0.278458E+01  0.314E+00    0.01       1.0  T
   3   -338.4298299 -0.111830E+01  0.245E+00    0.02       1.0  T
   4   -339.5522221 -0.112239E+01  0.142E+00    0.01       1.0  T
   5   -339.8596973 -0.307475E+00  0.942E-01    0.04       1.0  T
   6   -338.6004954  0.125920E+01  0.220E+00    0.01       1.0  T
   7   -339.9426818 -0.134219E+01  0.743E-01    0.00       1.0  T
   8   -340.0187074 -0.760255E-01  0.534E-01    0.01       1.0  T
   9   -340.0824053 -0.636979E-01  0.238E-01    0.01       1.0  T
  10   -340.0876287 -0.522342E-02  0.192E-01    0.00       1.0  T
  11   -340.0823212  0.530745E-02  0.238E-01    0.01       1.0  T
  12   -340.0920066 -0.968532E-02  0.147E-01    0.01       1.0  T
  13   -340.0934390 -0.143246E-02  0.127E-01    0.01       1.0  T
  14   -340.0955071 -0.206809E-02  0.934E-02    0.01       1.0  T
  15   -340.0966263 -0.111917E-02  0.688E-02    0.01       1.0  T
  16   -340.0974270 -0.800710E-03  0.432E-02    0.00       1.0  T
  17   -340.0977891 -0.362156E-03  0.240E-02    0.00       1.0  T
  18   -340.0978749 -0.857333E-04  0.163E-02    0.00       1.0  T
  19   -340.0979017 -0.268527E-04  0.130E-02    0.00       1.0  T
  20   -340.0979257 -0.239331E-04  0.914E-03    0.00       1.0  T
  21   -340.0979462 -0.204858E-04  0.310E-03    0.00       2.4  T
  22   -340.0979473 -0.112909E-05  0.238E-03    0.00       3.1  T
  23   -340.0979482 -0.892246E-06  0.155E-03    0.00       4.8  T
  24   -340.0979487 -0.507884E-06  0.743E-04    0.00       9.9  T
  25   -340.0979488 -0.107156E-06  0.403E-04    0.00      18.3  T
     SCC iter.                  ...        0 min,  2.359 sec
     gradient                   ...        0 min,  0.336 sec
 * total energy  :  -334.6233261 Eh     change       -0.2290060E-01 Eh
   gradient norm :     0.0363326 Eh/α   predicted    -0.2531182E-01 (  10.53%)
   displ. norm   :     0.9157447 α      lambda       -0.2445246E-01
   maximum displ.:     0.5424905 α      in ANC's #15, #21, #25, ...

........................................................................
.............................. CYCLE   17 ..............................
........................................................................
   1   -340.1237189 -0.340124E+03  0.189E-01    0.00       0.0  T
   2   -336.9198912  0.320383E+01  0.339E+00    0.00       1.0  T
   3   -337.1206325 -0.200741E+00  0.324E+00    0.04       1.0  T
   4   -339.1538168 -0.203318E+01  0.192E+00    0.02       1.0  T
   5   -339.5840442 -0.430227E+00  0.133E+00    0.02       1.0  T
   6   -340.0191779 -0.435134E+00  0.606E-01    0.01       1.0  T
   7   -339.6354471  0.383731E+00  0.130E+00    0.02       1.0  T
   8   -340.0432180 -0.407771E+00  0.552E-01    0.00       1.0  T
   9   -340.0859152 -0.426972E-01  0.382E-01    0.00       1.0  T
  10   -340.1022512 -0.163361E-01  0.301E-01    0.00       1.0  T
  11   -340.1165701 -0.143188E-01  0.207E-01    0.00       1.0  T
  12   -340.1106873  0.588280E-02  0.251E-01    0.01       1.0  T
  13   -340.1179213 -0.723401E-02  0.194E-01    0.00       1.0  T
  14   -340.1228038 -0.488248E-02  0.144E-01    0.00       1.0  T
  15   -340.1251747 -0.237093E-02  0.112E-01    0.00       1.0  T
  16   -340.1260948 -0.920062E-03  0.962E-02    0.00       1.0  T
  17   -340.1268526 -0.757858E-03  0.811E-02    0.00       1.0  T
  18   -340.1284506 -0.159795E-02  0.320E-02    0.00       1.0  T
  19   -340.1287143 -0.263778E-03  0.113E-02    0.00       1.0  T
  20   -340.1287329 -0.185712E-04  0.807E-03    0.00       1.0  T
  21   -340.1287252  0.774527E-05  0.955E-03    0.00       1.0  T
  22   -340.1287368 -0.116409E-04  0.714E-03    0.00       1.0  T
  23   -340.1287497 -0.129073E-04  0.254E-03    0.00       2.9  T
  24   -340.1287514 -0.167608E-05  0.726E-04    0.00      10.1  T
  25   -340.1287515 -0.966283E-07  0.411E-04    0.00      17.9  T
  26   -340.1287515 -0.399879E-07  0.161E-04    0.00      45.7  T
     SCC iter.                  ...        0 min,  2.465 sec
     gradient                   ...        0 min,  0.338 sec
 * total energy  :  -334.6441015 Eh     change       -0.2077542E-01 Eh
   gradient norm :     0.0382538 Eh/α   predicted    -0.2247903E-01 (   8.20%)
   displ. norm   :     0.9033147 α      lambda       -0.2166539E-01
   maximum displ.:     0.5259948 α      in ANC's #15, #21, #25, ...

........................................................................
.............................. CYCLE   18 ..............................
........................................................................
   1   -340.1468499 -0.340147E+03  0.178E-01    0.00       0.0  T
   2   -337.1037174  0.304313E+01  0.329E+00    0.00       1.0  T
   3   -336.9778164  0.125901E+00  0.324E+00    0.02       1.0  T
   4   -338.0323053 -0.105449E+01  0.272E+00    0.04       1.0  T
   5   -339.5680662 -0.153576E+01  0.147E+00    0.00       1.0  T
   6   -339.6538756 -0.858095E-01  0.131E+00    0.02       1.0  T
   7   -339.8534672 -0.199592E+00  0.979E-01    0.01       1.0  T
   8   -340.1328830 -0.279416E+00  0.267E-01    0.01       1.0  T
   9   -340.0866797  0.462033E-01  0.459E-01    0.01       1.0  T
  10   -340.0895018 -0.282213E-02  0.463E-01    0.00       1.0  T
  11   -340.1272494 -0.377475E-01  0.284E-01    0.01       1.0  T
  12   -340.1244845  0.276482E-02  0.303E-01    0.00       1.0  T
  13   -340.1280241 -0.353953E-02  0.281E-01    0.00       1.0  T
  14   -340.1370825 -0.905845E-02  0.219E-01    0.00       1.0  T
  15   -340.1478596 -0.107771E-01  0.108E-01    0.00       1.0  T
  16   -340.1500700 -0.221044E-02  0.643E-02    0.00       1.0  T
  17   -340.1509550 -0.884952E-03  0.326E-02    0.00       1.0  T
  18   -340.1512150 -0.260005E-03  0.115E-02    0.00       1.0  T
  19   -340.1512041  0.108912E-04  0.119E-02    0.00       1.0  T
  20   -340.1512153 -0.111833E-04  0.980E-03    0.00       1.0  T
  21   -340.1512158 -0.510455E-06  0.951E-03    0.00       1.0  T
  22   -340.1512231 -0.730481E-05  0.764E-03    0.00       1.0  T
  23   -340.1512303 -0.721787E-05  0.536E-03    0.00       1.4  T
  24   -340.1512351 -0.481888E-05  0.321E-03    0.00       2.3  T
  25   -340.1512373 -0.217830E-05  0.128E-03    0.00       5.8  T
  26   -340.1512374 -0.403483E-07  0.124E-03    0.00       5.9  T
  27   -340.1512375 -0.108048E-06  0.107E-03    0.00       6.9  T
  28   -340.1512376 -0.167973E-06  0.729E-04    0.00      10.1  T
  29   -340.1512377 -0.793951E-07  0.502E-04    0.00      14.7  T
     SCC iter.                  ...        0 min,  2.751 sec
     gradient                   ...        0 min,  0.338 sec
 * total energy  :  -334.6626087 Eh     change       -0.1850717E-01 Eh
   gradient norm :     0.0401834 Eh/α   predicted    -0.1967194E-01 (   6.29%)
   displ. norm   :     0.8996706 α      lambda       -0.1968989E-01
   maximum displ.:     0.5507022 α      in ANC's #15, #21, #25, ...

........................................................................
.............................. CYCLE   19 ..............................
........................................................................
   1   -340.1905866 -0.340191E+03  0.129E-01    0.00       0.0  T
   2   -339.5088761  0.681710E+00  0.149E+00    0.00       1.0  T
   3   -339.8686038 -0.359728E+00  0.108E+00    0.01       1.0  T
   4   -339.4048596  0.463744E+00  0.162E+00    0.01       1.0  T
   5   -339.2387729  0.166087E+00  0.188E+00    0.06       1.0  T
   6   -340.1175450 -0.878772E+00  0.488E-01    0.01       1.0  T
   7   -339.5903793  0.527166E+00  0.147E+00    0.01       1.0  T
   8   -340.1490295 -0.558650E+00  0.386E-01    0.01       1.0  T
   9   -340.1377369  0.112926E-01  0.413E-01    0.01       1.0  T
  10   -340.1831777 -0.454408E-01  0.168E-01    0.01       1.0  T
  11   -340.1855342 -0.235649E-02  0.143E-01    0.01       1.0  T
  12   -340.1906643 -0.513013E-02  0.627E-02    0.01       1.0  T
  13   -340.1904068  0.257524E-03  0.633E-02    0.01       1.0  T
  14   -340.1914226 -0.101576E-02  0.252E-02    0.01       1.0  T
  15   -340.1912382  0.184320E-03  0.347E-02    0.00       1.0  T
  16   -340.1915054 -0.267148E-03  0.176E-02    0.01       1.0  T
  17   -340.1915181 -0.127415E-04  0.155E-02    0.00       1.0  T
  18   -340.1915698 -0.516460E-04  0.650E-03    0.01       1.1  T
  19   -340.1915686  0.115832E-05  0.626E-03    0.01       1.2  T
  20   -340.1915805 -0.118470E-04  0.134E-03    0.01       5.5  T
  21   -340.1915809 -0.444459E-06  0.382E-04    0.01      19.2  T
  22   -340.1915809  0.196836E-07  0.408E-04    0.01      18.0  T
     SCC iter.                  ...        0 min,  2.090 sec
     gradient                   ...        0 min,  0.339 sec
 * total energy  :  -334.6800294 Eh     change       -0.1742067E-01 Eh
   gradient norm :     0.0378505 Eh/α   predicted    -0.1781351E-01 (   2.25%)
   displ. norm   :     0.9142578 α      lambda       -0.1898898E-01
   maximum displ.:     0.5423836 α      in ANC's #15, #21, #25, ...

........................................................................
.............................. CYCLE   20 ..............................
........................................................................
   1   -340.2078029 -0.340208E+03  0.196E-01    0.00       0.0  T
   2   -338.2617239  0.194608E+01  0.259E+00    0.00       1.0  T
   3   -338.0322898  0.229434E+00  0.277E+00    0.02       1.0  T
   4   -337.8158514  0.216438E+00  0.290E+00    0.04       1.0  T
   5   -338.9756651 -0.115981E+01  0.211E+00    0.03       1.0  T
   6   -340.1598413 -0.118418E+01  0.449E-01    0.00       1.0  T
   7   -339.9654846  0.194357E+00  0.903E-01    0.00       1.0  T
   8   -339.8761128  0.893718E-01  0.105E+00    0.01       1.0  T
   9   -339.9085254 -0.324126E-01  0.983E-01    0.02       1.0  T
  10   -340.1275537 -0.219028E+00  0.549E-01    0.01       1.0  T
  11   -340.1324330 -0.487930E-02  0.512E-01    0.00       1.0  T
  12   -340.2078961 -0.754631E-01  0.153E-01    0.00       1.0  T
  13   -340.1706615  0.372345E-01  0.378E-01    0.00       1.0  T
  14   -340.1757642 -0.510269E-02  0.353E-01    0.00       1.0  T
  15   -340.2077177 -0.319535E-01  0.152E-01    0.00       1.0  T
  16   -340.2126672 -0.494946E-02  0.868E-02    0.00       1.0  T
  17   -340.2124247  0.242452E-03  0.862E-02    0.00       1.0  T
  18   -340.2132617 -0.836957E-03  0.673E-02    0.01       1.0  T
  19   -340.2137162 -0.454512E-03  0.547E-02    0.01       1.0  T
  20   -340.2141707 -0.454446E-03  0.391E-02    0.01       1.0  T
  21   -340.2145863 -0.415680E-03  0.134E-02    0.01       1.0  T
  22   -340.2146293 -0.429269E-04  0.578E-03    0.01       1.3  T
  23   -340.2146317 -0.248181E-05  0.479E-03    0.01       1.5  T
  24   -340.2146375 -0.574058E-05  0.168E-03    0.01       4.4  T
  25   -340.2146375  0.594372E-08  0.168E-03    0.01       4.4  T
  26   -340.2146372  0.256621E-06  0.190E-03    0.01       3.9  T
  27   -340.2146376 -0.330786E-06  0.155E-03    0.01       4.8  T
  28   -340.2146373  0.239387E-06  0.175E-03    0.01       4.2  T
  29   -340.2146371  0.223951E-06  0.189E-03    0.01       3.9  T
  30   -340.2146375 -0.386308E-06  0.147E-03    0.01       5.0  T
  31   -340.2146378 -0.317509E-06  0.106E-03    0.01       6.9  T
  32   -340.2146380 -0.228667E-06  0.620E-04    0.01      11.9  T
  33   -340.2146381 -0.565692E-07  0.438E-04    0.01      16.8  T
     SCC iter.                  ...        0 min,  3.132 sec
     gradient                   ...        0 min,  0.337 sec
 * total energy  :  -334.6959372 Eh     change       -0.1590787E-01 Eh
   gradient norm :     0.0373167 Eh/α   predicted    -0.1743064E-01 (   9.57%)
   displ. norm   :     0.8992290 α      lambda       -0.1718593E-01
   maximum displ.:     0.5368024 α      in ANC's #15, #21, #25, ...
 * RMSD in coord.:     0.9873893 α      energy gain  -0.1284643E+01 Eh

generating ANC from model Hessian ...
Using Lindh-Hessian (1995)
 Shifting diagonal of input Hessian by    1.0004211976245538E-002
 Lowest  eigenvalues of input Hessian
    0.010000    0.010001    0.010002    0.010003    0.000000    0.000000
    0.000000    0.000000    0.000000    0.000000    0.010006    0.010008
    0.010011    0.010012    0.010013    0.010016    0.010030    0.010055
 Highest eigenvalues
    2.125514    2.128216    2.485453    2.503279    2.548260    2.551596


........................................................................
.............................. CYCLE   21 ..............................
........................................................................
   1   -340.2369199 -0.340237E+03  0.185E-01    0.00       0.0  T
   2   -337.0062666  0.323065E+01  0.339E+00    0.00       1.0  T
   3   -338.7003723 -0.169411E+01  0.237E+00    0.02       1.0  T
   4   -339.0189499 -0.318578E+00  0.197E+00    0.05       1.0  T
   5   -340.1312401 -0.111229E+01  0.632E-01    0.02       1.0  T
   6   -338.8721497  0.125909E+01  0.214E+00    0.01       1.0  T
   7   -338.3109540  0.561196E+00  0.251E+00    0.02       1.0  T
   8   -340.1487090 -0.183775E+01  0.558E-01    0.00       1.0  T
   9   -340.1989706 -0.502616E-01  0.403E-01    0.01       1.0  T
  10   -340.2233711 -0.244005E-01  0.257E-01    0.00       1.0  T
  11   -340.2297450 -0.637391E-02  0.207E-01    0.00       1.0  T
  12   -340.2252767  0.446827E-02  0.242E-01    0.00       1.0  T
  13   -340.2358048 -0.105281E-01  0.143E-01    0.00       1.0  T
  14   -340.2375155 -0.171062E-02  0.119E-01    0.00       1.0  T
  15   -340.2386705 -0.115503E-02  0.992E-02    0.00       1.0  T
  16   -340.2394641 -0.793570E-03  0.834E-02    0.00       1.0  T
  17   -340.2397201 -0.256074E-03  0.767E-02    0.01       1.0  T
  18   -340.2392872  0.432955E-03  0.838E-02    0.01       1.0  T
  19   -340.2397970 -0.509845E-03  0.717E-02    0.01       1.0  T
  20   -340.2400933 -0.296266E-03  0.642E-02    0.01       1.0  T
  21   -340.2405085 -0.415194E-03  0.523E-02    0.01       1.0  T
  22   -340.2408721 -0.363603E-03  0.380E-02    0.01       1.0  T
  23   -340.2411662 -0.294146E-03  0.187E-02    0.01       1.0  T
  24   -340.2412436 -0.773557E-04  0.752E-03    0.01       1.0  T
  25   -340.2412564 -0.127809E-04  0.295E-03    0.01       2.5  T
  26   -340.2412587 -0.228890E-05  0.813E-04    0.01       9.0  T
  27   -340.2412586  0.609890E-07  0.922E-04    0.01       8.0  T
  28   -340.2412586 -0.361851E-07  0.840E-04    0.01       8.8  T
     SCC iter.                  ...        0 min,  2.645 sec
     gradient                   ...        0 min,  0.337 sec
 * total energy  :  -334.7108772 Eh     change       -0.1493993E-01 Eh
   gradient norm :     0.0264343 Eh/α   predicted     0.0000000E+00 (-100.00%)
   displ. norm   :     0.6639020 α      lambda       -0.1101855E-01
   maximum displ.:     0.3614580 α      in ANC's #26, #37, #16, ...

........................................................................
.............................. CYCLE   22 ..............................
........................................................................
   1   -340.2661530 -0.340266E+03  0.882E-02    0.00       0.0  T
   2   -339.7350113  0.531142E+00  0.131E+00    0.03       1.0  T
   3   -339.9766717 -0.241660E+00  0.976E-01    0.02       1.0  T
   4   -340.2388468 -0.262175E+00  0.312E-01    0.01       1.0  T
   5   -339.6525993  0.586247E+00  0.144E+00    0.01       1.0  T
   6   -339.2310340  0.421565E+00  0.196E+00    0.03       1.0  T
   7   -340.2441786 -0.101314E+01  0.280E-01    0.00       1.0  T
   8   -340.2597544 -0.155759E-01  0.150E-01    0.00       1.0  T
   9   -340.2651059 -0.535144E-02  0.666E-02    0.00       1.0  T
  10   -340.2661621 -0.105621E-02  0.245E-02    0.01       1.0  T
  11   -340.2660641  0.979618E-04  0.321E-02    0.00       1.0  T
  12   -340.2663090 -0.244886E-03  0.102E-02    0.00       1.0  T
  13   -340.2663196 -0.106403E-04  0.818E-03    0.00       1.0  T
  14   -340.2663263 -0.661546E-05  0.643E-03    0.00       1.1  T
  15   -340.2663321 -0.586474E-05  0.435E-03    0.00       1.7  T
  16   -340.2663336 -0.147396E-05  0.367E-03    0.00       2.0  T
  17   -340.2663366 -0.297862E-05  0.150E-03    0.00       4.9  T
  18   -340.2663370 -0.433488E-06  0.819E-04    0.00       9.0  T
  19   -340.2663372 -0.165230E-06  0.219E-04    0.00      33.6  T
     SCC iter.                  ...        0 min,  1.796 sec
     gradient                   ...        0 min,  0.342 sec
 * total energy  :  -334.7212966 Eh     change       -0.1041947E-01 Eh
   gradient norm :     0.0176626 Eh/α   predicted    -0.7937594E-02 ( -23.82%)
   displ. norm   :     0.9214906 α      lambda       -0.1369017E-01
   maximum displ.:     0.5008689 α      in ANC's #26, #37, #27, ...

........................................................................
.............................. CYCLE   23 ..............................
........................................................................
   1   -340.2933564 -0.340293E+03  0.117E-01    0.00       0.0  T
   2   -339.0151311  0.127823E+01  0.199E+00    0.02       1.0  T
   3   -340.2039477 -0.118882E+01  0.563E-01    0.00       1.0  T
   4   -339.9753920  0.228556E+00  0.105E+00    0.00       1.0  T
   5   -339.2236636  0.751728E+00  0.199E+00    0.01       1.0  T
   6   -338.0597916  0.116387E+01  0.272E+00    0.01       1.0  T
   7   -340.2304883 -0.217070E+01  0.463E-01    0.00       1.0  T
   8   -340.2699732 -0.394849E-01  0.296E-01    0.01       1.0  T
   9   -340.2892410 -0.192678E-01  0.123E-01    0.00       1.0  T
  10   -340.2890726  0.168400E-03  0.127E-01    0.00       1.0  T
  11   -340.2921623 -0.308965E-02  0.744E-02    0.00       1.0  T
  12   -340.2923895 -0.227258E-03  0.687E-02    0.00       1.0  T
  13   -340.2930115 -0.622037E-03  0.448E-02    0.00       1.0  T
  14   -340.2933061 -0.294583E-03  0.299E-02    0.00       1.0  T
  15   -340.2933470 -0.408931E-04  0.286E-02    0.00       1.0  T
  16   -340.2934375 -0.904801E-04  0.221E-02    0.00       1.0  T
  17   -340.2935272 -0.897151E-04  0.118E-02    0.00       1.0  T
  18   -340.2935582 -0.309834E-04  0.427E-03    0.00       1.7  T
  19   -340.2935609 -0.270652E-05  0.293E-03    0.00       2.5  T
  20   -340.2935619 -0.100048E-05  0.212E-03    0.00       3.5  T
  21   -340.2935622 -0.292490E-06  0.175E-03    0.00       4.2  T
  22   -340.2935625 -0.277595E-06  0.131E-03    0.00       5.6  T
  23   -340.2935626 -0.716632E-07  0.102E-03    0.00       7.2  T
  24   -340.2935626 -0.903254E-07  0.732E-04    0.00      10.0  T
  25   -340.2935628 -0.129710E-06  0.240E-04    0.00      30.7  T
     SCC iter.                  ...        0 min,  2.363 sec
     gradient                   ...        0 min,  0.338 sec
[...]
 393:  1.15 394: 37.12 395:396.60 396: 14.53 397:114.69 398: 40.72 399:138.47 400: 77.68
 401: 29.19 402:155.11 403:552.86 404: 45.07 405: 70.43 406: 58.46 407:463.91 408: 26.34
 409: 29.78 410: 19.69 411:369.98 412: 14.46 413: 60.41 414: 49.61 415:354.97 416:  6.62
 417:  2.55 418:120.82 419:991.92 420:****** 421: 46.41 422:175.58 423:  4.45 424:188.14
 425:917.24 426:  0.92 427:****** 428: 81.39 429:603.43 430:  2.70 431:165.62 432:163.18
 433:103.80 434:348.68 435:100.76 436:345.77 437:217.80 438:  4.60 439:****** 440:  6.79
 441:****** 442:447.40 443: 27.15 444:263.44 445:  4.12 446:234.38 447:739.16 448:******
 449:****** 450: 63.13 451:636.56 452: 44.70 453: 20.69 454: 16.38 455:192.30 456:******
 457: 44.19 458: 97.16 459:  2.07 460: 12.88 461:****** 462: 10.88 463: 34.17 464:  0.94
 465: 13.57 466:  0.94 467: 13.72 468: 16.15 469:127.00 470:  5.90 471:665.27 472:552.64
 473:151.70 474:206.63 475: 41.63 476: 14.68 477:****** 478:256.31 479: 77.08 480: 36.49
 481: 44.26 482: 86.63 483: 49.55 484:446.20 485: 47.53 486: 40.76 487:515.64 488: 21.99
 489: 12.65 490:  5.16 491:  3.75 492: 75.55 493:196.75 494:404.88 495: 11.68 496:  1.40
 497:  0.14 498:  0.28 499: 16.61 500: 11.74 501:469.28 502: 13.18 503: 58.04 504:******
 505:****** 506:****** 507:****** 508:****** 509:****** 510:****** 511:****** 512:******
 513:224.04 514:****** 515:****** 516: 77.57 517:124.10 518:183.39 519:573.32 520:549.67
 521: 67.95 522:179.32 523:214.21 524:975.35 525:553.66 526:****** 527:  3.74 528:339.90
 529:460.12 530:100.34 531:486.05 532: 30.77 533:257.38 534:****** 535:****** 536: 53.14
 537: 83.12 538:****** 539:275.26 540: 83.58 541: 80.87 542:695.33 543:****** 544:******
 545:****** 546: 26.47 547:****** 548: 35.43 549: 26.57 550:233.08 551:135.20 552:******
 553:184.41 554:****** 555:201.92
 Raman intensities (amu)
   1:  0.00   2:  0.00   3:  0.00   4:  0.00   5:  0.00   6:  0.00   7:  0.00   8:  0.00
   9:  0.00  10:  0.00  11:  0.00  12:  0.00  13:  0.00  14:  0.00  15:  0.00  16:  0.00
  17:  0.00  18:  0.00  19:  0.00  20:  0.00  21:  0.00  22:  0.00  23:  0.00  24:  0.00
  25:  0.00  26:  0.00  27:  0.00  28:  0.00  29:  0.00  30:  0.00  31:  0.00  32:  0.00
  33:  0.00  34:  0.00  35:  0.00  36:  0.00  37:  0.00  38:  0.00  39:  0.00  40:  0.00
  41:  0.00  42:  0.00  43:  0.00  44:  0.00  45:  0.00  46:  0.00  47:  0.00  48:  0.00
  49:  0.00  50:  0.00  51:  0.00  52:  0.00  53:  0.00  54:  0.00  55:  0.00  56:  0.00
  57:  0.00  58:  0.00  59:  0.00  60:  0.00  61:  0.00  62:  0.00  63:  0.00  64:  0.00
  65:  0.00  66:  0.00  67:  0.00  68:  0.00  69:  0.00  70:  0.00  71:  0.00  72:  0.00
  73:  0.00  74:  0.00  75:  0.00  76:  0.00  77:  0.00  78:  0.00  79:  0.00  80:  0.00
  81:  0.00  82:  0.00  83:  0.00  84:  0.00  85:  0.00  86:  0.00  87:  0.00  88:  0.00
  89:  0.00  90:  0.00  91:  0.00  92:  0.00  93:  0.00  94:  0.00  95:  0.00  96:  0.00
  97:  0.00  98:  0.00  99:  0.00 100:  0.00 101:  0.00 102:  0.00 103:  0.00 104:  0.00
 105:  0.00 106:  0.00 107:  0.00 108:  0.00 109:  0.00 110:  0.00 111:  0.00 112:  0.00
 113:  0.00 114:  0.00 115:  0.00 116:  0.00 117:  0.00 118:  0.00 119:  0.00 120:  0.00
 121:  0.00 122:  0.00 123:  0.00 124:  0.00 125:  0.00 126:  0.00 127:  0.00 128:  0.00
 129:  0.00 130:  0.00 131:  0.00 132:  0.00 133:  0.00 134:  0.00 135:  0.00 136:  0.00
 137:  0.00 138:  0.00 139:  0.00 140:  0.00 141:  0.00 142:  0.00 143:  0.00 144:  0.00
 145:  0.00 146:  0.00 147:  0.00 148:  0.00 149:  0.00 150:  0.00 151:  0.00 152:  0.00
 153:  0.00 154:  0.00 155:  0.00 156:  0.00 157:  0.00 158:  0.00 159:  0.00 160:  0.00
 161:  0.00 162:  0.00 163:  0.00 164:  0.00 165:  0.00 166:  0.00 167:  0.00 168:  0.00
 169:  0.00 170:  0.00 171:  0.00 172:  0.00 173:  0.00 174:  0.00 175:  0.00 176:  0.00
 177:  0.00 178:  0.00 179:  0.00 180:  0.00 181:  0.00 182:  0.00 183:  0.00 184:  0.00
 185:  0.00 186:  0.00 187:  0.00 188:  0.00 189:  0.00 190:  0.00 191:  0.00 192:  0.00
 193:  0.00 194:  0.00 195:  0.00 196:  0.00 197:  0.00 198:  0.00 199:  0.00 200:  0.00
 201:  0.00 202:  0.00 203:  0.00 204:  0.00 205:  0.00 206:  0.00 207:  0.00 208:  0.00
 209:  0.00 210:  0.00 211:  0.00 212:  0.00 213:  0.00 214:  0.00 215:  0.00 216:  0.00
 217:  0.00 218:  0.00 219:  0.00 220:  0.00 221:  0.00 222:  0.00 223:  0.00 224:  0.00
 225:  0.00 226:  0.00 227:  0.00 228:  0.00 229:  0.00 230:  0.00 231:  0.00 232:  0.00
 233:  0.00 234:  0.00 235:  0.00 236:  0.00 237:  0.00 238:  0.00 239:  0.00 240:  0.00
 241:  0.00 242:  0.00 243:  0.00 244:  0.00 245:  0.00 246:  0.00 247:  0.00 248:  0.00
 249:  0.00 250:  0.00 251:  0.00 252:  0.00 253:  0.00 254:  0.00 255:  0.00 256:  0.00
 257:  0.00 258:  0.00 259:  0.00 260:  0.00 261:  0.00 262:  0.00 263:  0.00 264:  0.00
 265:  0.00 266:  0.00 267:  0.00 268:  0.00 269:  0.00 270:  0.00 271:  0.00 272:  0.00
 273:  0.00 274:  0.00 275:  0.00 276:  0.00 277:  0.00 278:  0.00 279:  0.00 280:  0.00
 281:  0.00 282:  0.00 283:  0.00 284:  0.00 285:  0.00 286:  0.00 287:  0.00 288:  0.00
 289:  0.00 290:  0.00 291:  0.00 292:  0.00 293:  0.00 294:  0.00 295:  0.00 296:  0.00
 297:  0.00 298:  0.00 299:  0.00 300:  0.00 301:  0.00 302:  0.00 303:  0.00 304:  0.00
 305:  0.00 306:  0.00 307:  0.00 308:  0.00 309:  0.00 310:  0.00 311:  0.00 312:  0.00
 313:  0.00 314:  0.00 315:  0.00 316:  0.00 317:  0.00 318:  0.00 319:  0.00 320:  0.00
 321:  0.00 322:  0.00 323:  0.00 324:  0.00 325:  0.00 326:  0.00 327:  0.00 328:  0.00
 329:  0.00 330:  0.00 331:  0.00 332:  0.00 333:  0.00 334:  0.00 335:  0.00 336:  0.00
 337:  0.00 338:  0.00 339:  0.00 340:  0.00 341:  0.00 342:  0.00 343:  0.00 344:  0.00
 345:  0.00 346:  0.00 347:  0.00 348:  0.00 349:  0.00 350:  0.00 351:  0.00 352:  0.00
 353:  0.00 354:  0.00 355:  0.00 356:  0.00 357:  0.00 358:  0.00 359:  0.00 360:  0.00
 361:  0.00 362:  0.00 363:  0.00 364:  0.00 365:  0.00 366:  0.00 367:  0.00 368:  0.00
 369:  0.00 370:  0.00 371:  0.00 372:  0.00 373:  0.00 374:  0.00 375:  0.00 376:  0.00
 377:  0.00 378:  0.00 379:  0.00 380:  0.00 381:  0.00 382:  0.00 383:  0.00 384:  0.00
 385:  0.00 386:  0.00 387:  0.00 388:  0.00 389:  0.00 390:  0.00 391:  0.00 392:  0.00
 393:  0.00 394:  0.00 395:  0.00 396:  0.00 397:  0.00 398:  0.00 399:  0.00 400:  0.00
 401:  0.00 402:  0.00 403:  0.00 404:  0.00 405:  0.00 406:  0.00 407:  0.00 408:  0.00
 409:  0.00 410:  0.00 411:  0.00 412:  0.00 413:  0.00 414:  0.00 415:  0.00 416:  0.00
 417:  0.00 418:  0.00 419:  0.00 420:  0.00 421:  0.00 422:  0.00 423:  0.00 424:  0.00
 425:  0.00 426:  0.00 427:  0.00 428:  0.00 429:  0.00 430:  0.00 431:  0.00 432:  0.00
 433:  0.00 434:  0.00 435:  0.00 436:  0.00 437:  0.00 438:  0.00 439:  0.00 440:  0.00
 441:  0.00 442:  0.00 443:  0.00 444:  0.00 445:  0.00 446:  0.00 447:  0.00 448:  0.00
 449:  0.00 450:  0.00 451:  0.00 452:  0.00 453:  0.00 454:  0.00 455:  0.00 456:  0.00
 457:  0.00 458:  0.00 459:  0.00 460:  0.00 461:  0.00 462:  0.00 463:  0.00 464:  0.00
 465:  0.00 466:  0.00 467:  0.00 468:  0.00 469:  0.00 470:  0.00 471:  0.00 472:  0.00
 473:  0.00 474:  0.00 475:  0.00 476:  0.00 477:  0.00 478:  0.00 479:  0.00 480:  0.00
 481:  0.00 482:  0.00 483:  0.00 484:  0.00 485:  0.00 486:  0.00 487:  0.00 488:  0.00
 489:  0.00 490:  0.00 491:  0.00 492:  0.00 493:  0.00 494:  0.00 495:  0.00 496:  0.00
 497:  0.00 498:  0.00 499:  0.00 500:  0.00 501:  0.00 502:  0.00 503:  0.00 504:  0.00
 505:  0.00 506:  0.00 507:  0.00 508:  0.00 509:  0.00 510:  0.00 511:  0.00 512:  0.00
 513:  0.00 514:  0.00 515:  0.00 516:  0.00 517:  0.00 518:  0.00 519:  0.00 520:  0.00
 521:  0.00 522:  0.00 523:  0.00 524:  0.00 525:  0.00 526:  0.00 527:  0.00 528:  0.00
 529:  0.00 530:  0.00 531:  0.00 532:  0.00 533:  0.00 534:  0.00 535:  0.00 536:  0.00
 537:  0.00 538:  0.00 539:  0.00 540:  0.00 541:  0.00 542:  0.00 543:  0.00 544:  0.00
 545:  0.00 546:  0.00 547:  0.00 548:  0.00 549:  0.00 550:  0.00 551:  0.00 552:  0.00
Refinement of some symmetry elements was terminated before convergence was reached.
Some symmetry elements may remain unidentified.
Molecule has no symmetry elements
It seems to be the C1 point group
 553:  0.00 554:  0.00 555:  0.00
 output can be read by thermo (or use thermo option).
 writing <g98.out> molden fake output.
 recommended (thermochemical) frequency scaling factor: 1.0
           -------------------------------------------------
          |             Thermodynamic Functions             |
           -------------------------------------------------

c1  symmetry found (for desy threshold:  0.10E+00) used in thermo
 inverting freq            1   6.1244002988227333     
 inverting freq            2   2.7016124344437342     
 inverting freq            3   1.8816150548225279     

          ...................................................
          :                      SETUP                      :
          :.................................................:
          :  # frequencies                         548      :
          :  # imaginary freq.                       0      :
          :  linear?                             false      :
          :  only rotor calc.                    false      :
          :  symmetry                               c1      :
          :  rotational number                       1      :
          :  scaling factor                  1.0000000      :
          :  rotor cutoff                   50.0000000 cm⁻¹ :
          :  imag. cutoff                  -20.0000000 cm⁻¹ :
          :.................................................:

    mode    ω/cm⁻¹     T·S(HO)/kcal·mol⁻¹    T·S(FR)/kcal·mol⁻¹   T·S(vib)
   ------------------------------------------------------------------------
       1      6.12    -2.67895 (  0.02%)    -1.67858 ( 99.98%)    -1.67881
       2      2.70    -3.16384 (  0.00%)    -1.92103 (100.00%)    -1.92104
       3      1.88    -3.37815 (  0.00%)    -2.02818 (100.00%)    -2.02819
       4      1.36    -3.57081 (  0.00%)    -2.12451 (100.00%)    -2.12451
       5      3.43    -3.02283 (  0.00%)    -1.85052 (100.00%)    -1.85055
       6      5.35    -2.75931 (  0.01%)    -1.71876 ( 99.99%)    -1.71890
       7     10.90    -2.33751 (  0.23%)    -1.50784 ( 99.77%)    -1.50970
       8     12.58    -2.25246 (  0.40%)    -1.46530 ( 99.60%)    -1.46845
       9     14.80    -2.15627 (  0.76%)    -1.41719 ( 99.24%)    -1.42282
      10     15.54    -2.12753 (  0.92%)    -1.40281 ( 99.08%)    -1.40950
      11     17.15    -2.06896 (  1.37%)    -1.37351 ( 98.63%)    -1.38301
      12     17.56    -2.05517 (  1.50%)    -1.36661 ( 98.50%)    -1.37692
      13     21.03    -1.94817 (  3.04%)    -1.31307 ( 96.96%)    -1.33236
      14     26.36    -1.81453 (  7.17%)    -1.24618 ( 92.83%)    -1.28694
      15     28.89    -1.76040 ( 10.02%)    -1.21908 ( 89.98%)    -1.27334
      16     29.98    -1.73850 ( 11.44%)    -1.20811 ( 88.56%)    -1.26879
      17     34.95    -1.64770 ( 19.28%)    -1.16262 ( 80.72%)    -1.25612
      18     36.83    -1.61680 ( 22.74%)    -1.14713 ( 77.26%)    -1.25393
      19     38.23    -1.59477 ( 25.47%)    -1.13608 ( 74.53%)    -1.25289
      20     44.13    -1.51001 ( 37.76%)    -1.09356 ( 62.24%)    -1.25081
      21     45.80    -1.48807 ( 41.31%)    -1.08255 ( 58.69%)    -1.25008
      22     48.81    -1.45056 ( 47.58%)    -1.06372 ( 52.42%)    -1.24779
      23     50.39    -1.43166 ( 50.79%)    -1.05422 ( 49.21%)    -1.24591
      24     54.78    -1.38253 ( 59.02%)    -1.02952 ( 40.98%)    -1.23788
      25     58.30    -1.34579 ( 64.90%)    -1.01103 ( 35.10%)    -1.22828
      26     65.04    -1.28146 ( 74.12%)    -0.97863 ( 25.88%)    -1.20308
      27     66.02    -1.27269 ( 75.25%)    -0.97421 ( 24.75%)    -1.19880
      28     67.63    -1.25852 ( 77.00%)    -0.96706 ( 23.00%)    -1.19148
      29     71.65    -1.22461 ( 80.84%)    -0.94995 ( 19.16%)    -1.17198
      30     78.55    -1.17075 ( 85.90%)    -0.92272 ( 14.10%)    -1.13577
      31     84.25    -1.12976 ( 88.97%)    -0.90197 ( 11.03%)    -1.10463
      32     92.11    -1.07774 ( 92.01%)    -0.87556 (  7.99%)    -1.06159
      33     96.56    -1.05027 ( 93.29%)    -0.86159 (  6.71%)    -1.03762
      34     96.87    -1.04841 ( 93.37%)    -0.86064 (  6.63%)    -1.03596
      35    102.80    -1.01388 ( 94.70%)    -0.84304 (  5.30%)    -1.00482
      36    105.65    -0.99800 ( 95.22%)    -0.83493 (  4.78%)    -0.99021
      37    108.12    -0.98458 ( 95.63%)    -0.82807 (  4.37%)    -0.97774
      38    108.31    -0.98357 ( 95.66%)    -0.82756 (  4.34%)    -0.97680
      39    117.68    -0.93565 ( 96.84%)    -0.80299 (  3.16%)    -0.93146
      40    119.33    -0.92760 ( 97.01%)    -0.79886 (  2.99%)    -0.92375
      41    120.49    -0.92202 ( 97.12%)    -0.79599 (  2.88%)    -0.91839
      42    121.22    -0.91854 ( 97.19%)    -0.79420 (  2.81%)    -0.91505
      43    122.01    -0.91481 ( 97.26%)    -0.79228 (  2.74%)    -0.91144
      44    122.02    -0.91478 ( 97.26%)    -0.79226 (  2.74%)    -0.91142
      45    124.87    -0.90147 ( 97.49%)    -0.78541 (  2.51%)    -0.89856
      46    130.06    -0.87809 ( 97.86%)    -0.77335 (  2.14%)    -0.87585
      47    138.56    -0.84188 ( 98.33%)    -0.75460 (  1.67%)    -0.84042
      48    147.89    -0.80475 ( 98.71%)    -0.73528 (  1.29%)    -0.80385
      49    185.09    -0.67871 ( 99.47%)    -0.66882 (  0.53%)    -0.67866
      50    194.72    -0.65069 ( 99.57%)    -0.65380 (  0.43%)    -0.65071
      51    195.26    -0.64915 ( 99.57%)    -0.65297 (  0.43%)    -0.64917
      52    197.64    -0.64251 ( 99.59%)    -0.64939 (  0.41%)    -0.64254
      53    197.96    -0.64161 ( 99.59%)    -0.64891 (  0.41%)    -0.64164
      54    198.41    -0.64037 ( 99.60%)    -0.64824 (  0.40%)    -0.64040
      55    199.23    -0.63809 ( 99.60%)    -0.64701 (  0.40%)    -0.63812
      56    203.39    -0.62676 ( 99.64%)    -0.64089 (  0.36%)    -0.62682
      57    207.94    -0.61468 ( 99.67%)    -0.63433 (  0.33%)    -0.61474
      58    209.24    -0.61130 ( 99.67%)    -0.63249 (  0.33%)    -0.61137
      59    215.01    -0.59651 ( 99.71%)    -0.62443 (  0.29%)    -0.59659
      60    221.36    -0.58077 ( 99.74%)    -0.61581 (  0.26%)    -0.58086
      61    222.27    -0.57857 ( 99.74%)    -0.61460 (  0.26%)    -0.57867
      62    222.97    -0.57687 ( 99.75%)    -0.61366 (  0.25%)    -0.57696
      63    223.98    -0.57444 ( 99.75%)    -0.61233 (  0.25%)    -0.57454
      64    224.34    -0.57357 ( 99.75%)    -0.61185 (  0.25%)    -0.57367
      65    227.03    -0.56717 ( 99.77%)    -0.60832 (  0.23%)    -0.56727
      66    228.86    -0.56286 ( 99.77%)    -0.60594 (  0.23%)    -0.56296
      67    237.93    -0.54212 ( 99.81%)    -0.59442 (  0.19%)    -0.54222
      68    237.96    -0.54206 ( 99.81%)    -0.59439 (  0.19%)    -0.54216
      69    241.79    -0.53358 ( 99.82%)    -0.58966 (  0.18%)    -0.53368
      70    245.17    -0.52624 ( 99.83%)    -0.58554 (  0.17%)    -0.52634
      71    245.60    -0.52532 ( 99.83%)    -0.58503 (  0.17%)    -0.52542
      72    246.52    -0.52336 ( 99.83%)    -0.58392 (  0.17%)    -0.52346
      73    246.90    -0.52254 ( 99.83%)    -0.58346 (  0.17%)    -0.52264
      74    247.42    -0.52144 ( 99.83%)    -0.58285 (  0.17%)    -0.52154
      75    247.75    -0.52072 ( 99.83%)    -0.58244 (  0.17%)    -0.52083
      76    250.71    -0.51449 ( 99.84%)    -0.57893 (  0.16%)    -0.51459
      77    251.81    -0.51218 ( 99.84%)    -0.57763 (  0.16%)    -0.51228
      78    252.08    -0.51162 ( 99.85%)    -0.57731 (  0.15%)    -0.51172
      79    254.16    -0.50731 ( 99.85%)    -0.57488 (  0.15%)    -0.50741
      80    255.08    -0.50542 ( 99.85%)    -0.57380 (  0.15%)    -0.50552
      81    256.85    -0.50180 ( 99.86%)    -0.57175 (  0.14%)    -0.50190
      82    261.68    -0.49211 ( 99.87%)    -0.56624 (  0.13%)    -0.49221
      83    273.50    -0.46928 ( 99.89%)    -0.55315 (  0.11%)    -0.46937
      84    274.61    -0.46721 ( 99.89%)    -0.55195 (  0.11%)    -0.46730
      85    275.06    -0.46637 ( 99.89%)    -0.55147 (  0.11%)    -0.46646
      86    276.01    -0.46459 ( 99.89%)    -0.55044 (  0.11%)    -0.46468
      87    276.30    -0.46405 ( 99.89%)    -0.55013 (  0.11%)    -0.46415
      88    277.03    -0.46271 ( 99.89%)    -0.54936 (  0.11%)    -0.46281
      89    278.74    -0.45956 ( 99.90%)    -0.54753 (  0.10%)    -0.45965
      90    279.07    -0.45896 ( 99.90%)    -0.54718 (  0.10%)    -0.45905
      91    279.52    -0.45813 ( 99.90%)    -0.54670 (  0.10%)    -0.45822
      92    280.20    -0.45689 ( 99.90%)    -0.54598 (  0.10%)    -0.45698
      93    280.48    -0.45638 ( 99.90%)    -0.54568 (  0.10%)    -0.45647
      94    281.52    -0.45450 ( 99.90%)    -0.54459 (  0.10%)    -0.45459
      95    284.74    -0.44872 ( 99.91%)    -0.54122 (  0.09%)    -0.44881
      96    285.49    -0.44738 ( 99.91%)    -0.54044 (  0.09%)    -0.44747
      97    290.41    -0.43875 ( 99.91%)    -0.53538 (  0.09%)    -0.43884
   ------------------------------------------------------------------------

   temp. (K)  partition function   enthalpy   heat capacity  entropy
                                   cal/mol     cal/K/mol   cal/K/mol   J/K/mol
 298.15  VIB  0.159E+53            62695.450    413.392    393.970
         ROT  0.346E+10              888.752      2.981     46.632
         INT  0.550E+62            63584.202    416.373    440.602
         TR   0.817E+29             1481.254      4.968     48.511
         TOT                       65065.4563   421.3411   489.1126  2046.4472

       T/K    H(0)-H(T)+PV         H(T)/Eh          T*S/Eh         G(T)/Eh
   ------------------------------------------------------------------------
    298.15    0.103688E+00    0.139026E+01    0.232393E+00    0.115786E+01
   ------------------------------------------------------------------------

         :::::::::::::::::::::::::::::::::::::::::::::::::::::
         ::                  THERMODYNAMIC                  ::
         :::::::::::::::::::::::::::::::::::::::::::::::::::::
         :: total free energy        -333.686038026655 Eh   ::
         ::.................................................::
         :: total energy             -334.843901990700 Eh   ::
         :: zero point energy           1.286568748156 Eh   ::
         :: G(RRHO) w/o ZPVE           -0.128704784112 Eh   ::
         :: G(RRHO) contrib.            1.157863964044 Eh   ::
         :::::::::::::::::::::::::::::::::::::::::::::::::::::
imag cut-off (cm-1) :    5.00
 found            1  significant imaginary frequency
 writing imag mode distorted coords to xtbhess.xyz
 for further optimization.

optimized geometry written to: xtbopt.xyz


           -------------------------------------------------
          | TOTAL ENERGY             -334.843901990700 Eh   |
          | TOTAL ENTHALPY           -333.453644837884 Eh   |
          | TOTAL FREE ENERGY        -333.686038026655 Eh   |
          | GRADIENT NORM               0.000688830258 Eh/α |
          | HOMO-LUMO GAP               0.007586174055 eV   |
           -------------------------------------------------

------------------------------------------------------------------------
 * finished run on 2021/11/19 at 16:29:22.692     
------------------------------------------------------------------------
 total:
 * wall-time:     0 d,  0 h, 39 min,  2.458 sec
 *  cpu-time:     0 d,  0 h, 39 min,  2.461 sec
 * ratio c/w:     1.000 speedup
 SCF:
 * wall-time:     0 d,  0 h,  0 min, 11.553 sec
 *  cpu-time:     0 d,  0 h,  0 min, 11.553 sec
 * ratio c/w:     1.000 speedup
 ANC optimizer:
 * wall-time:     0 d,  0 h,  9 min, 52.879 sec
 *  cpu-time:     0 d,  0 h,  9 min, 52.864 sec
 * ratio c/w:     1.000 speedup
 analytical hessian:
 * wall-time:     0 d,  0 h, 28 min, 57.611 sec
 *  cpu-time:     0 d,  0 h, 28 min, 57.629 sec
 * ratio c/w:     1.000 speedup

