185
 energy: -333.411294650309 gnorm: 0.809445261055 xtb: 6.4.1 (bd6e46d)
Co       32.94370100000000    0.04460800000000   -0.01411300000000
C        35.27269200000000   -3.10218500000000    1.30857600000000
C        36.18879900000000   -2.15797800000000    1.25829400000000
C        35.77762000000000   -1.10407400000000    0.33700200000000
C        36.39649000000000    0.02027200000000   -0.00940800000000
C        35.69244800000000    1.24022000000000   -0.37351300000000
C        36.02055900000001    2.20027500000000   -1.22098700000000
C        34.98577900000000    3.21656100000000   -1.23788400000000
C        34.04951100000000    2.84009900000000   -0.39099300000000
N        34.45150100000000    1.60708800000000    0.17282400000000
C        32.78843700000000    3.48509800000000   -0.01184100000000
C        31.69321900000000    2.85031600000000    0.33891900000000
C        30.61959400000000    3.16827200000000    1.30794700000000
C        29.78203100000000    2.17151800000000    1.23078100000000
C        30.22032800000000    1.16783500000000    0.25032900000000
N        31.32526700000000    1.60668800000000   -0.23396300000000
C        29.60949400000000   -0.08543600000000   -0.16321900000000
C        30.27365400000000   -1.18994300000000   -0.41764300000000
C        29.89980600000000   -2.25288400000000   -1.37517100000000
C        30.84855300000000   -3.14664000000000   -1.28615100000000
C        31.83427700000000   -2.70919000000000   -0.30327400000000
N        31.48123100000000   -1.56338500000000    0.19352300000000
C        33.06516400000000   -3.36526100000000    0.14244700000000
C        34.18820600000000   -2.71939900000000    0.40956800000000
N        34.51680600000000   -1.47195800000000   -0.18883500000000
H        35.33295400000000   -4.01196600000000    1.92612300000000
H        37.10512700000000   -2.19792700000000    1.83634200000000
H        36.94792400000000    2.21707100000000   -1.82213000000000
H        35.00267800000000    4.12124900000000   -1.85050600000000
H        32.74071400000000    4.57990100000000   -0.01561800000000
H        30.56677200000000    4.04699700000000    1.93294000000000
H        28.87040100000000    2.13584800000000    1.84810500000000
H        28.51124300000000   -0.08252600000000   -0.26249000000000
H        29.03095000000000   -2.30534900000000   -2.02412100000000
H        30.84570700000000   -4.06294800000000   -1.88491100000000
H        33.02968200000000   -4.46106200000000    0.25437200000000
Co       78.73524700000000   -0.00276800000000   -0.01854600000000
C        76.40625600000000    2.84402400000000    1.86495900000000
C        75.49014900000000    1.92553400000000    1.64038600000000
C        75.90132800000001    1.06083700000000    0.53957100000000
C        75.28245800000001    0.02027200000000   -0.00940800000000
C        75.98650000000001   -1.11095300000000   -0.59351100000000
C        75.65838900000000   -1.89712400000000   -1.60437700000000
C        76.69316900000000   -2.89263400000000   -1.80951800000000
C        77.62943700000000   -2.67981700000000   -0.90748700000000
N        77.22744700000001   -1.57280500000000   -0.12471600000000
C        78.89051200000000   -3.38395800000000   -0.65457400000000
C        79.98572900000001   -2.82526600000000   -0.19214100000000
C        81.05935400000000   -3.31747100000000    0.70108100000000
C        81.89691700000000   -2.32370400000000    0.81016600000000
C        81.45862000000000   -1.15555500000000    0.03293100000000
N        80.35368200000001   -1.49694700000000   -0.52436800000000
C        82.06945399999999    0.15268000000000   -0.14093900000000
C        81.40529400000000    1.28521300000000   -0.18604500000000
C        81.77914300000002    2.50733900000000   -0.92976000000000
C        80.83039500000001    3.36906600000000   -0.67648100000000
C        79.84467200000000    2.75687200000000    0.20818200000000
N        80.19771700000000    1.53879300000000    0.48379200000000
C        78.61378400000001    3.31886600000000    0.76787700000000
C        77.49074200000000    2.63466200000000    0.91054400000000
N        77.16214200000000    1.51988700000000    0.09111000000000
H        76.34599400000000    3.62344800000000    2.64056300000000
H        74.57382100000000    1.85755400000000    2.21581100000000
H        74.73102400000002   -1.80210700000000   -2.19820200000000
H        76.67627000000000   -3.66796800000000   -2.57933800000000
H        78.93823400000001   -4.45905600000000   -0.86138800000000
H        81.11217600000002   -4.29688800000000    1.15220800000000
H        82.80854800000000   -2.40317600000000    1.42339200000000
H        83.16770500000000    0.16823600000000   -0.23902600000000
H        82.64799800000000    2.67928300000000   -1.55771200000000
H        80.83324100000000    4.38054800000000   -1.09485900000000
H        78.64926600000001    4.37488300000000    1.08114600000000
C        39.01093900000000    0.02027200000000   -0.00940800000000
C        40.22714400000000    0.02027200000000   -0.00940800000000
C        49.82456000000000    0.02027200000000   -0.00940800000000
C        51.04076600000000    0.02027200000000   -0.00940800000000
C        60.63818200000000    0.02027200000000   -0.00940800000000
C        61.85438800000001    0.02027200000000   -0.00940800000000
C        71.45180400000001    0.02027200000000   -0.00940800000000
C        72.66801000000000    0.02027200000000   -0.00940800000000
Co       45.05734800000000    0.03307400000000    0.00407800000000
C        42.77753700000000   -3.22837400000000   -0.90558800000000
C        41.82132800000001   -2.32902300000000   -1.00761400000000
C        42.21370200000000   -1.16671800000000   -0.20509800000000
C        41.57858600000000   -0.01544600000000    0.00716800000000
C        42.26404300000001    1.25915400000000    0.23339700000000
C        41.92875300000000    2.33775400000000    0.93763700000000
C        42.95329400000000    3.35707100000000    0.84705600000000
C        43.90389100000000    2.86014600000000    0.07369100000000
N        43.52689700000000    1.54354100000000   -0.34245200000000
C        45.15103100000001    3.47184700000000   -0.34317400000000
C        46.25258200000000    2.80459000000000   -0.67494600000000
C        47.24612900000000    3.05657500000000   -1.70911600000000
C        48.14001200000001    2.09571600000000   -1.60763200000000
C        47.76031400000000    1.18383200000000   -0.50365500000000
N        46.66539900000000    1.63315100000000    0.00371200000000
C        48.41752100000000   -0.01544600000000    0.00716800000000
C        47.79410900000000   -1.08462800000000    0.46868500000000
C        48.17282200000000   -2.01674300000000    1.54416000000000
C        47.23215300000000   -2.93088900000000    1.63002600000000
C        46.22385200000000   -2.63511000000000    0.63259900000000
N        46.56162700000001   -1.58173300000000   -0.01669600000000
C        44.97145900000000   -3.34211800000000    0.30140600000000
C        43.85758200000000   -2.74542100000000   -0.04593600000000
N        43.47547000000000   -1.46266400000000    0.37174700000000
H        42.77788200000000   -4.21944700000000   -1.39682200000000
H        40.91279400000000   -2.45071700000000   -1.58876200000000
H        41.00390100000000    2.45610500000000    1.51456300000000
H        42.98058900000000    4.34623500000000    1.30370600000000
H        45.23697100000000    4.56922500000000   -0.40519700000000
H        47.27880100000000    3.86279100000000   -2.43594000000000
H        49.03307400000000    1.98274700000000   -2.24140600000000
H        49.08757200000000   -1.94233700000000    2.15433000000000
H        47.25120000000000   -3.74449700000000    2.33829300000000
H        45.00994300000000   -4.44207700000000    0.36044200000000
Co       55.87097000000000    0.03307400000000    0.00407800000000
C        53.59115900000000   -3.22837400000000   -0.90558800000000
C        52.63495000000000   -2.32902300000000   -1.00761400000000
C        53.02732400000001   -1.16671800000000   -0.20509800000000
C        52.39220800000000   -0.01544600000000    0.00716800000000
C        53.07766500000001    1.25915400000000    0.23339700000000
C        52.74237400000000    2.33775400000000    0.93763700000000
C        53.76691600000000    3.35707100000000    0.84705600000000
C        54.71751300000000    2.86014600000000    0.07369100000000
N        54.34051900000000    1.54354100000000   -0.34245200000000
C        55.96465300000000    3.47184700000000   -0.34317400000000
C        57.06620400000000    2.80459000000000   -0.67494600000000
C        58.05975100000000    3.05657500000000   -1.70911600000000
C        58.95363400000001    2.09571600000000   -1.60763200000000
C        58.57393600000001    1.18383200000000   -0.50365500000000
N        57.47902100000000    1.63315100000000    0.00371200000000
C        59.23114300000000   -0.01544600000000    0.00716800000000
C        58.60773100000000   -1.08462800000000    0.46868500000000
C        58.98644400000001   -2.01674300000000    1.54416000000000
C        58.04577500000000   -2.93088900000000    1.63002600000000
C        57.03747400000000   -2.63511000000000    0.63259900000000
N        57.37524900000000   -1.58173300000000   -0.01669600000000
C        55.78508100000001   -3.34211800000000    0.30140600000000
C        54.67120400000000   -2.74542100000000   -0.04593600000000
N        54.28909200000000   -1.46266400000000    0.37174700000000
H        53.59150400000000   -4.21944700000000   -1.39682200000000
H        51.72641600000000   -2.45071700000000   -1.58876200000000
H        51.81752200000000    2.45610500000000    1.51456300000000
H        53.79421100000000    4.34623500000000    1.30370600000000
H        56.05059300000001    4.56922500000000   -0.40519700000000
H        58.09242300000000    3.86279100000000   -2.43594000000000
H        59.84669500000000    1.98274700000000   -2.24140600000000
H        59.90119400000000   -1.94233700000000    2.15433000000000
H        58.06482200000000   -3.74449700000000    2.33829300000000
H        55.82356500000000   -4.44207700000000    0.36044200000000
Co       66.68459199999999    0.03307400000000    0.00407800000000
C        64.40478100000000   -3.22837400000000   -0.90558800000000
C        63.44857200000000   -2.32902300000000   -1.00761400000000
C        63.84094600000000   -1.16671800000000   -0.20509800000000
C        63.20583000000000   -0.01544600000000    0.00716800000000
C        63.89128700000000    1.25915400000000    0.23339700000000
C        63.55599600000000    2.33775400000000    0.93763700000000
C        64.58053800000000    3.35707100000000    0.84705600000000
C        65.53113500000001    2.86014600000000    0.07369100000000
N        65.15414100000000    1.54354100000000   -0.34245200000000
C        66.77827499999999    3.47184700000000   -0.34317400000000
C        67.87982599999999    2.80459000000000   -0.67494600000000
C        68.87337300000000    3.05657500000000   -1.70911600000000
C        69.76725600000000    2.09571600000000   -1.60763200000000
C        69.38755800000000    1.18383200000000   -0.50365500000000
N        68.29264200000000    1.63315100000000    0.00371200000000
C        70.04476500000001   -0.01544600000000    0.00716800000000
C        69.42135300000000   -1.08462800000000    0.46868500000000
C        69.80006600000000   -2.01674300000000    1.54416000000000
C        68.85939700000000   -2.93088900000000    1.63002600000000
C        67.85109600000000   -2.63511000000000    0.63259900000000
N        68.18887100000002   -1.58173300000000   -0.01669600000000
C        66.59870300000000   -3.34211800000000    0.30140600000000
C        65.48482600000000   -2.74542100000000   -0.04593600000000
N        65.10271400000001   -1.46266400000000    0.37174700000000
H        64.40512600000000   -4.21944700000000   -1.39682200000000
H        62.54003800000000   -2.45071700000000   -1.58876200000000
H        62.63114400000000    2.45610500000000    1.51456300000000
H        64.60783200000000    4.34623500000000    1.30370600000000
H        66.86421400000000    4.56922500000000   -0.40519700000000
H        68.90604500000001    3.86279100000000   -2.43594000000000
H        70.66031700000001    1.98274700000000   -2.24140600000000
H        70.71481600000000   -1.94233700000000    2.15433000000000
H        68.87844400000002   -3.74449700000000    2.33829300000000
H        66.63718700000000   -4.44207700000000    0.36044200000000
185
 energy: -333.721517316223 gnorm: 0.461921686864 xtb: 6.4.1 (bd6e46d)
Co       32.95473975988411    0.04189868270383   -0.01341474527996
C        35.27320580444007   -3.11089651641940    1.29960630860568
C        36.20418148742259   -2.15792214845585    1.25397947110063
C        35.77637137943841   -1.10659306354693    0.34190792041572
C        36.38771678665287    0.04193922312555   -0.00812612001119
C        35.68146260979989    1.23498490565272   -0.36533250433247
C        36.03289258302509    2.22850702791188   -1.23827616698239
C        35.01623608045034    3.21842015540300   -1.25072297706578
C        34.04270125538735    2.81439145018567   -0.38383893651594
N        34.42136106801519    1.57716850968463    0.16928893299804
C        32.80816722556492    3.48307726172508   -0.01221766388422
C        31.68362516010907    2.83329144801839    0.33946988870763
C        30.62048495516520    3.17597450976951    1.29045165617370
C        29.75597961140018    2.16424807634251    1.23311526890585
C        30.21599275685284    1.16726333545025    0.26696931844552
N        31.36666101113744    1.57880720054544   -0.21126006379034
C        29.59746648921490   -0.06336486223103   -0.15636148454761
C        30.27847384036000   -1.19272031246343   -0.42273906394983
C        29.89150456097069   -2.25280873286561   -1.36089553430150
C        30.85570999513120   -3.16817133553676   -1.28250467505504
C        31.84509709269005   -2.71708679537052   -0.31133979260606
N        31.49962749182851   -1.53250593718805    0.16410097178633
C        33.04712692471397   -3.37104169626358    0.13466395424418
C        34.19349528611132   -2.70152211141190    0.41284349452097
N        34.50394585908961   -1.45708946275103   -0.15569698853896
H        35.32430086534173   -4.00642509787806    1.91769759921642
H        37.11009093430734   -2.18865931656158    1.83354515685636
H        36.94563872719679    2.22614384302859   -1.82393682572968
H        35.00972274356457    4.11770142493877   -1.85145020635627
H        32.75702648289121    4.57508491488615   -0.00895577936392
H        30.57388807640090    4.04528130246081    1.92626754907626
H        28.86566910377942    2.12662586094203    1.84686183288569
H        28.51253601521623   -0.07406295544907   -0.26782934449689
H        29.03299671303568   -2.29595250142375   -2.01621921123595
H        30.85670312968230   -4.06714778152524   -1.88115129446364
H        33.02510226804250   -4.45658690877578    0.25410046582210
Co       78.72422375297775   -0.00018450370677   -0.01737119642792
C        76.40574734267884    2.85425580871295    1.85777008964938
C        75.47482140357901    1.92628342785343    1.63616355557602
C        75.90273165626621    1.06239491025859    0.54496076717358
C        75.29198025761634   -0.00148313632944   -0.01168576851032
C        75.99766487877363   -1.10730591923741   -0.58445774559762
C        75.64611401094368   -1.92165310236972   -1.62659518555849
C        76.66267075000189   -2.89206021865354   -1.82248882407481
C        77.63625980392933   -2.65582407276676   -0.89569136180519
N        77.25761493634992   -1.54291620490335   -0.12254237372683
C        78.87080670938184   -3.38188770762260   -0.65458592958927
C        79.99532537999940   -2.80862217439202   -0.18846008492465
C        81.05847568020647   -3.32179563540651    0.68246827881063
C        81.92297029578711   -2.31701108261780    0.81379979422422
C        81.46292638958674   -1.15807172092820    0.04936388974558
N        80.31230370841764   -1.47377170913038   -0.49692327692406
C        82.08145967152269    0.12971814665664   -0.13829756325501
C        81.40044915221958    1.28889286802339   -0.19054083814351
C        81.78744338605995    2.50462808682591   -0.91576299860755
C        80.82324565760297    3.38955108963694   -0.66892489191040
C        79.83385243580221    2.76610114868244    0.20170869974709
N        80.17934827497537    1.51393119336489    0.44917267104013
C        78.63181624706969    3.32597869195242    0.76129659274569
C        77.48544900907967    2.61648269950271    0.91042574532143
N        77.17510023515402    1.49911416669889    0.12090943512378
H        76.35463922774953    3.61957592724295    2.63125321682645
H        74.56887797524384    1.84899762808156    2.21133397441597
H        74.73332373321823   -1.81068773171917   -2.20168865821064
H        76.66922098837817   -3.66430442995821   -2.57963991170363
H        78.92192169691663   -4.45555971675999   -0.85395354573151
H        81.10506892982102   -4.29397364602305    1.14596556750024
H        82.81328160916874   -2.39388771026186    1.42387664140735
H        83.16640063198376    0.16090777101301   -0.24584894755549
H        82.64595429603473    2.66858730392714   -1.55170234066056
H        80.82224563707479    4.38398259404294   -1.09039566404033
H        78.65383546195716    4.37053164046216    1.08003629358399
C        38.97690502768501    0.01912668829520   -0.00991237820066
C        40.19829556615771    0.02887816567014   -0.01208713411964
C        49.82166712565621    0.02737289889818   -0.00737926295481
C        51.03404062686233    0.02837152616276   -0.01097976565794
C        60.63516049143745    0.02740322627410   -0.00712358228108
C        61.84765911789360    0.02837526797026   -0.01097014561615
C        71.47546433142010    0.02733031969177   -0.00533090646508
C        72.69530293989212    0.02001160701219   -0.00981474833420
Co       45.04759526956521    0.03444854702324    0.00370307021352
C        42.77845145459658   -3.24600423085598   -0.89793706729673
C        41.81476939577293   -2.32817842497782   -0.99810204292147
C        42.23641461987022   -1.17811265046425   -0.20837014308063
C        41.58561667566898    0.00493805435374    0.00511126317000
C        42.29143707256650    1.26042446214889    0.22982943221539
C        41.91934935498632    2.36449567491499    0.94833852328915
C        42.92814437042713    3.35790117704918    0.85403910856387
C        43.91532954197626    2.83752628126631    0.06895933946603
N        43.55825007676827    1.52186969202332   -0.32511192255251
C        45.13593856955288    3.47076696243408   -0.34475792351453
C        46.26054040287814    2.79108534429585   -0.67542360134665
C        47.25308393040074    3.06400093497362   -1.69551779118127
C        48.16128259004022    2.08409517349519   -1.60538387291105
C        47.76185426755970    1.18180580919765   -0.51957294148293
N        46.62444180852727    1.60651912240727   -0.01703067845062
C        48.42668466492943    0.00262667678727   -0.00183262832769
C        47.78012413679545   -1.09615900126196    0.47549388361195
C        48.18521963103681   -2.01592187610249    1.53320378519051
C        47.22844189671068   -2.94739447144044    1.62815619927867
C        46.21176316784899   -2.64083612058575    0.64140208997045
N        46.53954114309901   -1.53900347352079   -0.00179353444171
C        44.99226505244373   -3.34878983598754    0.31130146291449
C        43.84636674455697   -2.73082777775912   -0.05370468338516
N        43.49560401276477   -1.44226326123326    0.33534990234163
H        42.78310714665292   -4.21583637335125   -1.39262680964481
H        40.91362396101236   -2.44044185008082   -1.58366142974933
H        41.00343764502228    2.46056079794586    1.51563586993920
H        42.96946503601281    4.33995197234384    1.30581636560010
H        45.21930211580815    4.56264118543623   -0.41094706340759
H        47.27152018928999    3.86092074607489   -2.42726026331508
H        49.03395836576016    1.97598359688967   -2.23782999480815
H        49.08200283492190   -1.93708159696863    2.14559847392250
H        47.24358771591414   -3.75062140796661    2.33857156756610
H        45.01600987439551   -4.43912230056148    0.35837745639540
Co       55.86092210614265    0.03450035821792    0.00364350758062
C        53.59165622181118   -3.24651057002863   -0.89800830885026
C        52.62854826792911   -2.32887498447054   -0.99769195272472
C        53.05292765004090   -1.17983120073692   -0.20656387465515
C        52.40549523786350    0.00438515146709    0.00548922683811
C        53.10750309304039    1.26213846369829    0.22934101410631
C        52.73337705598705    2.36447378928621    0.94817954119093
C        53.74191274696649    3.35832311749315    0.85390435856020
C        54.72931761834221    2.83796400703118    0.06895806240020
N        54.37282611415471    1.52247672677705   -0.32479857775130
C        55.94955919929825    3.47084236266111   -0.34455385824432
C        57.07432728711234    2.79100451329624   -0.67544698287821
C        58.06666424012024    3.06403901352559   -1.69556409399007
C        58.97490818973345    2.08406128186184   -1.60548466781857
C        58.57519097744991    1.18199842097291   -0.51977919263494
N        57.43817683878424    1.60655512189377   -0.01735563455490
C        59.24034750679737    0.00240143202704   -0.00167981696664
C        58.59395229104744   -1.09628257442643    0.47537833857653
C        58.99907482416735   -2.01600631768946    1.53323336697482
C        58.04214120418887   -2.94724313451569    1.62837085874601
C        57.02571298775175   -2.64017348505714    0.64169748852042
N        57.35323479896645   -1.53934714909953   -0.00159800319395
C        55.80542814431705   -3.34891218732209    0.31079775664822
C        54.66071865331495   -2.73130414192322   -0.05357966053977
N        54.31034554880400   -1.44263945021648    0.33517845326887
H        53.59654041256071   -4.21604519158205   -1.39273876132219
H        51.72738945382272   -2.44045966296908   -1.58370574465441
H        51.81718228703211    2.46043005151253    1.51562168661864
H        53.78300867327579    4.34018345118503    1.30574835145444
H        56.03299345443421    4.56270582046739   -0.41085499695304
H        58.08515224611754    3.86095571841926   -2.42726391449649
H        59.84760104127253    1.97598645208083   -2.23782074437388
H        59.89572355992447   -1.93711889589825    2.14561462168552
H        58.05719637460972   -3.75058379036715    2.33860917759131
H        55.82970782979273   -4.43918222127289    0.35782395701707
Co       66.67445337399981    0.03452864230387    0.00349093989948
C        64.40509663120103   -3.24659775230398   -0.89791077874787
C        63.44225438028672   -2.32901319562096   -0.99768491650148
C        63.86659122629619   -1.17966685710137   -0.20648253039742
C        63.21905243748029    0.00432265092680    0.00539715348248
C        63.92099593660735    1.26222987904584    0.22935164426987
C        63.54704734279912    2.36441337166696    0.94817139586927
C        64.55557595826747    3.35830644564304    0.85389241795226
C        65.54301819614005    2.83806690502583    0.06888720774166
N        65.18643322027077    1.52249087199432   -0.32486110256102
C        66.76324670485656    3.47057987626462   -0.34439139809506
C        67.88841157458634    2.79048408265525   -0.67513628167452
C        68.88034567036823    3.06373661824864   -1.69552999330937
C        69.78876397256654    2.08390864000977   -1.60589885395840
C        69.39086305974701    1.17990654396328   -0.52104853986285
N        68.25343247178515    1.60590834592055   -0.01691215570556
C        70.06005345910239    0.00197313652155   -0.00174638711881
C        69.41083921897814   -1.09394276144494    0.47558616415178
C        69.81310184529714   -2.01580274956087    1.53335002293835
C        68.85582276401668   -2.94652235082570    1.62839812186020
C        67.84010202809981   -2.63914315664871    0.64162058715990
N        68.16755682097821   -1.53882614723856   -0.00156925733163
C        66.61870526164348   -3.34884068429821    0.31040494283340
C        65.47454405319030   -2.73160527795801   -0.05324927411513
N        65.12402517680475   -1.44236931025313    0.33538863115493
H        64.41012679209180   -4.21605912458173   -1.39276050978762
H        62.54106369032657   -2.44046696915757   -1.58375921399820
H        62.63082737861865    2.46041960637747    1.51563891819181
H        64.59661938573554    4.34020516616722    1.30571863898328
H        66.84669625770051    4.56256209996374   -0.41082923475147
H        68.89870623987740    3.86088022375280   -2.42719497663954
H        70.66136613605873    1.97604278965562   -2.23793852222924
H        70.70953490272591   -1.93728693122497    2.14562398784286
H        68.87072897114385   -3.75032631958274    2.33848823519512
H        66.64347101239666   -4.43913113933154    0.35728994069448
185
 energy: -333.922941482779 gnorm: 0.212048046518 xtb: 6.4.1 (bd6e46d)
Co       32.96379520232719    0.04140267181488   -0.01117425114100
C        35.27112416744796   -3.11517914561743    1.28778966909705
C        36.21773577553357   -2.15701902894668    1.24660948870205
C        35.77233828128171   -1.10701109656934    0.35104699869567
C        36.37620339887767    0.06351911125194   -0.01334487413762
C        35.67130936178246    1.22529397778693   -0.36114726944647
C        36.04029439802203    2.25735464860311   -1.24744686701240
C        35.04821692705017    3.21535523664832   -1.25266965053967
C        34.03469199561816    2.78444887942901   -0.37569701942403
N        34.39132570128741    1.54391945442453    0.14841096842659
C        32.83126477173739    3.47360567862796   -0.01324262992415
C        31.68292155358268    2.80685001623997    0.34696724069994
C        30.62668809174530    3.17679082929463    1.26710050747037
C        29.73372307663093    2.16023440323983    1.22606174119494
C        30.21231342635139    1.16469496931892    0.28574754020891
N        31.41457149742058    1.54592920665360   -0.17563804898589
C        29.59140895461788   -0.04157562560687   -0.14754164058964
C        30.28983515721932   -1.18918432012814   -0.43563210971103
C        29.88933329946568   -2.24988310437337   -1.34282268715592
C        30.85961993095540   -3.18610581677068   -1.27115411079240
C        31.85725271242543   -2.72220716322141   -0.32102857441053
N        31.52222766657523   -1.49120280620872    0.12201809516358
C        33.03016209329535   -3.37023237821086    0.12567356058884
C        34.19412934764321   -2.67655764066037    0.42022852517258
N        34.48811388812782   -1.43964477830806   -0.11480243924924
H        35.31412835156610   -4.00028162923326    1.90513075375423
H        37.11728395067254   -2.17830221304317    1.82702669355499
H        36.94340370513252    2.23378913919755   -1.82285745533126
H        35.01331049166926    4.11202317963008   -1.84693848379831
H        32.77418395261387    4.56326996274392   -0.00806102348172
H        30.58132580993919    4.04004248591565    1.91343698729185
H        28.86039235944913    2.11675587692370    1.84134992955045
H        28.51581285380864   -0.06843650758976   -0.26711942830632
H        29.03723667932547   -2.28609283606850   -2.00357542733471
H        30.86819982398626   -4.07208937294720   -1.87314647240733
H        33.02506282597430   -4.44882654765722    0.24901380227425
Co       78.71515757028122   -0.00014022559429   -0.01506090471930
C        76.40786068619019    2.86063919081849    1.84694837576660
C        75.46138314244696    1.92664431866312    1.62871920827328
C        75.90710048497348    1.06118462972340    0.55378393824596
C        75.30446990326156   -0.02119809431870   -0.02222928931451
C        76.00810206769485   -1.09849543143979   -0.57875321040628
C        75.63883269568841   -1.94832460462710   -1.64100941417242
C        76.63072889221321   -2.88874165586551   -1.82381849339626
C        77.64431535925722   -2.62802294967317   -0.88208027276741
N        77.28780361913051   -1.50649176753135   -0.13688510224827
C        78.84773117202874   -3.37246043353061   -0.65381665299280
C        79.99603134395514   -2.78404407578187   -0.17616448706309
C        81.05227041697228   -3.31825402026207    0.65939695883076
C        81.94523238581303   -2.31174071882834    0.80762897644750
C        81.46663576294283   -1.15902344316616    0.06829309698881
N        80.26438142398587   -1.44807621815328   -0.45579988227731
C        82.08753500444526    0.10666316189282   -0.13367183263968
C        81.38909598220870    1.28780780462080   -0.20388079718932
C        81.78961295643091    2.49838665335004   -0.89856745706231
C        80.81933128226062    3.40506762019774   -0.65447350897820
C        79.82170325915217    2.77296862518633    0.19313395561685
N        80.15674285370855    1.48114913184513    0.40013038302707
C        78.64883949238482    3.32693359318575    0.75232020563788
C        77.48487823553002    2.59068695924295    0.91305234971896
N        77.19123030275566    1.47458639675203    0.15784076397984
H        76.36479334049076    3.61589207395532    2.61772520214209
H        74.56172446529000    1.84003895961361    2.20290529126893
H        74.73565386191520   -1.81840299874621   -2.20202676415598
H        76.66565341937381   -3.65959771081349   -2.57412967941817
H        78.90478591026243   -4.44415570073093   -0.85087674293903
H        81.09762800541955   -4.28643571801668    1.13435871651026
H        82.81856276221139   -2.38314837526413    1.42030698934442
H        83.16313213228371    0.15524688347496   -0.24618524685780
H        82.64171505235453    2.65653562284751   -1.54112827754503
H        80.81074587608066    4.38734846539615   -1.08164363052295
H        78.65389372401512    4.36390576955945    1.07357644855745
C        38.94566449824271    0.02394563713772   -0.00710150504595
C        40.16906331090517    0.03735714163543   -0.01126492806996