185
 energy: -334.843902268470 gnorm: 0.000688571311 xtb: 6.4.1 (bd6e46d)
Co       34.81408432199769    0.30799352725256    0.33953992115078
C        37.47006628890090   -2.30066901492329    2.27980764194246
C        38.35577853247955   -1.62340087357100    1.51262423288576
C        37.59892167723183   -0.65764469088595    0.77588406543922
C        38.18755998004480    0.32756391755910   -0.02463469348402
C        37.45485382103266    1.43312455810266   -0.46746804312951
C        38.05817561363147    2.60659794222193   -1.01895969162614
C        37.05952665707635    3.49902733565476   -1.21247524922004
C        35.84767473761494    2.84299922758534   -0.82466626169360
N        36.10704937076177    1.58444156009843   -0.35016896377392
C        34.59250319234728    3.37595761228730   -1.03371457837832
C        33.43292156876561    2.64461128294953   -0.87547751761619
C        32.14420107184472    3.09467319047613   -1.31422511988621
C        31.29004408215444    2.06540399891360   -1.11948512204826
C        32.05190924298302    1.01063303700460   -0.51632708601363
N        33.36282794558603    1.37156267160446   -0.38449311288754
C        31.49203659159888   -0.15396360786949   -0.03120688425264
C        32.19538866887253   -1.04582105782107    0.75299990621015
C        31.58354159483784   -2.12618357817435    1.47073046531500
C        32.55109758325715   -2.67556977618791    2.23818102688666
C        33.75913621763492   -1.96034797212734    1.94647854501475
N        33.52724806456301   -0.96098249617286    1.04427742695447
C        34.99789101942951   -2.32128199275014    2.43625533787491
C        36.17525277595696   -1.77599017650957    1.96766249268846
N        36.27101648048976   -0.75598967688464    1.05814986776698
H        37.65431668403230   -3.09389959175910    2.97795720618899
H        39.42244498767953   -1.72439769790118    1.46531920902247
H        39.10919967533493    2.72316435847136   -1.19350830253797
H        37.11574223182326    4.49759294723195   -1.60011484002915
H        34.51941104544969    4.37965651299969   -1.42409314601626
H        31.94861927209623    4.06330863698870   -1.73200042242307
H        30.24002559342153    2.01118292216437   -1.33284646497194
H        30.43958413333530   -0.32826692237006   -0.19501589990653
H        30.54702093373447   -2.39349684774854    1.39879839615683
H        32.48236470242021   -3.49810145301521    2.92357160671259
H        35.05420555128850   -3.12793680460460    3.15129491477748
Co       76.90587196061730   -0.11802713857615    0.32642294449868
C        74.17972793800716    2.49000451715821    2.17483025438495
C        73.31281179423848    1.77005998969786    1.42552534518662
C        74.09467993579088    0.80067126644914    0.72016809004775
C        73.53144734861402   -0.21552399056473   -0.05880615998737
C        74.29265666126800   -1.30428956993535   -0.49290020244684
C        73.71978403003919   -2.48882852392562   -1.05338115435904
C        74.73774676427756   -3.36107911649594   -1.23514566851441
C        75.93117926818447   -2.68203487834854   -0.83008866899080
N        75.64270327712995   -1.42746154623769   -0.36233872426903
C        77.19718217899316   -3.19926159109770   -1.01064932002233
C        78.34385357746112   -2.45326657997975   -0.83182279323856
C        79.64780544844669   -2.89540186739343   -1.23210973355520
C        80.48591066178066   -1.85475202188851   -1.02950630032347
C        79.69750596692123   -0.79989823816640   -0.46146500069518
N        78.38780862173313   -1.17339864440606   -0.35558679031482
C        80.23198798341046    0.38140249651915    0.01097250268260
C        79.49944558622394    1.28388431504679    0.75490576644301
C        80.08224468581686    2.39365527985736    1.45171032838074
C        79.09172700645149    2.95314564466870    2.18134255837734
C        77.89992751324503    2.21181987994935    1.88812176321222
N        78.16298795893159    1.18896585574345    1.02114936904901
C        76.64854080654975    2.56591290547360    2.34890882230151
C        75.48709360992864    1.98422641952046    1.88469100228869
N        75.41916011438207    0.93685630884383    1.00434906875679
H        73.97500203370642    3.29977420578622    2.84782628330333
H        72.24458000401056    1.84725880640546    1.36897649575443
H        72.67460435627463   -2.62221275965074   -1.24855189929101
H        74.70710018002409   -4.35981398057870   -1.62519790082556
H        77.29081945627729   -4.20492316528298   -1.39146468059095
H        79.86364919894930   -3.86747119521949   -1.63153235728654
H        81.54038470298012   -1.79147928827628   -1.21679644665779
H        81.28571441772696    0.56540270386490   -0.13269351039008
H        81.11654895024778    2.67237153344431    1.39233861787197
H        79.13486268097819    3.79721576368552    2.84219901407582
H        76.56835834474087    3.39200702981740    3.03905399323671
C        39.55365081104242    0.23606225103182   -0.31199301231369
C        40.72713979876091    0.10257905704139   -0.59233421092067
C        50.06406558952954   -0.42071198026314    0.08233734370179
C        51.19847918460285   -0.34968644214738    0.51011823650991
C        60.48485006260776    0.37787316223989    0.50675271196349
C        61.61881216934584    0.41881887543241    0.07382132798014
C        70.97686946474690   -0.08004472622477   -0.59099001426416
C        72.15946516819952   -0.17008020262927   -0.33361336452758
Co       45.44412571706544   -0.41302347775173   -1.11430310424849
C        42.75132717554709   -3.56407333585343   -0.53575207891065
C        41.88502079649724   -2.52534168218922   -0.46932708129250
C        42.65737519680963   -1.33892003540658   -0.67794920403893
C        42.08860741944119   -0.07190869453273   -0.85873423030258
C        42.83451653312544    0.97813034968639   -1.40643913390230
C        42.25033644318216    2.17046390948177   -1.93713012892204
C        43.25759472046035    2.87331053643749   -2.50693515665040
C        44.45706032824303    2.13015723479262   -2.26857699874889
N        44.17920474757260    0.96070574297063   -1.61199749771247
C        45.72335849535471    2.61185836243344   -2.53383868013853
C        46.86874621137300    2.01010329921470   -2.05355090791138
C        48.15946817568634    2.62803882700586   -2.06547455104973
C        48.98167865627266    1.81832977943753   -1.35686501593299
C        48.19842946936515    0.68585921978990   -0.96707192517626
N        46.91190373465387    0.81300002048978   -1.38913018125017
C        48.74456517624418   -0.45985840654336   -0.37400828874990
C        48.02830867116992   -1.66249494955953   -0.34198000654044
C        48.62952508768662   -2.93418911690571   -0.08462137022187
C        47.66464491744981   -3.86366981618699   -0.28096276796960
C        46.46848575140610   -3.14637885653033   -0.60164900717467
N        46.71279139990728   -1.79945915024914   -0.65747530346043
C        45.22154600792296   -3.73134248303156   -0.68829580658071
C        44.05177499400979   -2.99912001541635   -0.72896793839365
N        43.97673974582911   -1.63531379339289   -0.82862947835660
H        42.54932682570719   -4.61337077093081   -0.44230647038648
H        40.82099273371286   -2.54353999996365   -0.33651103248196
H        41.20442640438085    2.40159722108125   -1.90105711733063
H        43.21424629294617    3.81533143888577   -3.01807872296906
H        45.81635268606527    3.55624802337874   -3.04846579944630
H        48.38326773215656    3.56531777008408   -2.53661328713074
H        50.02633166447774    1.93754956773975   -1.14548057605062
H        49.66042656883305   -3.07714558495004    0.17189063881798
H        47.73276905824629   -4.93077697732069   -0.19600406080167
H        45.15180205473810   -4.80617919994959   -0.61555365636384
Co       55.83942869685652    0.05560891559676    1.49479249540484
C        53.64471531695823   -3.47607226947153    1.93398065865699
C        52.66259780127050   -2.66724428491819    1.46958783372183
C        53.25407037209669   -1.38061288859780    1.27172504063247
C        52.52444528780083   -0.23412917387592    0.93261393902053
C        53.07120868299271    1.04308498688720    1.11641325938282
C        52.28575584089894    2.23816964046402    1.16284480434539
C        53.11968584449549    3.23082420101180    1.55541697217050
C        54.41852855753208    2.64476054132321    1.68690932222134
N        54.36885993488296    1.30022909758791    1.43074675214125
C        55.57448729015894    3.36894567890112    1.90126136076850
C        56.83486228382100    2.83101513657518    1.73221610745208
C        58.03168136685857    3.61159633995307    1.65194513948767
C        59.01709571042531    2.76682137346486    1.26492277051788
C        58.42648086749726    1.46810864421057    1.17084870222426
N        57.09836318366641    1.51501394446316    1.45822545252252
C        59.15795634522644    0.29727832870848    0.93419545776708
C        58.61015254419617   -0.95960549995270    1.22449657866798
C        59.39493906369266   -2.14583732400071    1.37995325486084
C        58.55748508465143   -3.10165977489941    1.84901803957687
C        57.25763371993828   -2.50716042477830    1.91868707068886
N        57.30996696295146   -1.18937874853879    1.54929913579459
C        56.09978694371218   -3.21146234660946    2.18328616672745
C        54.84089573346328   -2.69083489037002    1.95824358941049
N        54.57990280798811   -1.40277336358536    1.57204738981885
H        53.58710872127224   -4.51081143096559    2.21065661534243
H        51.62658902345480   -2.89051832276240    1.30854738305760
H        51.23283002134539    2.28293850960128    0.96368357726310
H        52.89762079568726    4.26720840073384    1.72019717553880
H        55.48942070106644    4.42687213649617    2.09861519567703
H        58.08712836804806    4.66593824605055    1.84124179279332
H        60.05475720300572    2.97584709973238    1.09531301753818
H        60.44966016136583   -2.20670579152028    1.19505797477806
H        58.77764580491816   -4.12010641877087    2.10370659415178
H        56.18332580934060   -4.24881783142626    2.47019754280382
Co       66.24379874089216    0.33232514349333   -1.11033360620583
C        63.55547810436744   -2.81669129474616   -1.74509612993433
C        62.72409103964777   -1.94462121735208   -1.12727955689319
C        63.49654525039266   -0.77087029151972   -0.85591135021604
C        62.93889510863648    0.42383923180754   -0.38271144048338
C        63.64519927344951    1.62956757918999   -0.46866643780747
C        63.03247152127518    2.91518240466522   -0.33914516355227
C        63.99137158891449    3.82911581733912   -0.61929964339166
C        65.19479698738166    3.09387071242595   -0.86331158147077
N        64.96129462590262    1.74576703972051   -0.79047905502837
C        66.43705502671983    3.67864358505602   -1.00074045119858
C        67.61326896619066    2.95632703802746   -0.97149389477201
C        68.90827339181243    3.54963049048607   -0.83444336501792
C        69.78560292578959    2.53014435104793   -0.67843353505130
C        69.02476867876018    1.32183208096911   -0.77544380854220
N        67.70134663699736    1.58999064393909   -0.94549373159398
C        69.60718872920533    0.05058102804121   -0.84488676532439
C        68.86806673763219   -1.05717651009608   -1.27407058152930
C        69.46062142207739   -2.29490876040464   -1.67604921175122
C        68.45807549271804   -3.06299551386439   -2.16332438121315
C        67.25309220198764   -2.30830073781258   -2.00111200594089
N        67.52202088814909   -1.07384207174953   -1.47246995312099
C        65.99120052572303   -2.82691590515896   -2.21144185812873
C        64.84055781205943   -2.18894299339054   -1.79555830409718
N        64.78540515515553   -0.92949725897924   -1.25982491140388
H        63.34188547990784   -3.80038114876063   -2.11556743385777
H        61.67968001156838   -2.04987038590135   -0.90765517277199
H        61.99862217813143    3.07342163234443   -0.10414419152155
H        63.91518494255914    4.89890358254790   -0.63848090307495
H        66.49730591862293    4.75610478082496   -1.02956232572193
H        69.09944919118962    4.60508794035014   -0.83706986545879
H        70.84960355916057    2.57062854535150   -0.54990041060277
H        70.50732454283794   -2.51525634932720   -1.61209709693073
H        68.50784189228403   -4.05401631016038   -2.57067967562914
H        65.90682875075807   -3.82079906271813   -2.62428191439395
