      -----------------------------------------------------------      
     |                   =====================                   |     
     |                           x T B                           |     
     |                   =====================                   |     
     |                         S. Grimme                         |     
     |          Mulliken Center for Theoretical Chemistry        |     
     |                    University of Bonn                     |     
      -----------------------------------------------------------      

   * xtb version 6.4.1 (bd6e46d) compiled by 'conda@4901f00b25ba' on 2021-06-10

   xtb is free software: you can redistribute it and/or modify it under
   the terms of the GNU Lesser General Public License as published by
   the Free Software Foundation, either version 3 of the License, or
   (at your option) any later version.
   
   xtb is distributed in the hope that it will be useful,
   but WITHOUT ANY WARRANTY; without even the implied warranty of
   MERCHANTABILITY or FITNESS FOR A PARTICULAR PURPOSE.  See the
   GNU Lesser General Public License for more details.
   
   Cite this work as:
   * C. Bannwarth, E. Caldeweyher, S. Ehlert, A. Hansen, P. Pracht,
     J. Seibert, S. Spicher, S. Grimme, WIREs Comput. Mol. Sci., 2020, 11,
     e01493. DOI: 10.1002/wcms.1493
   
   for GFN2-xTB:
   * C. Bannwarth, S. Ehlert and S. Grimme., J. Chem. Theory Comput., 2019,
     15, 1652-1671. DOI: 10.1021/acs.jctc.8b01176
   for GFN1-xTB:
   * S. Grimme, C. Bannwarth, P. Shushkov, J. Chem. Theory Comput., 2017,
     13, 1989-2009. DOI: 10.1021/acs.jctc.7b00118
   for GFN0-xTB:
   * P. Pracht, E. Caldeweyher, S. Ehlert, S. Grimme, ChemRxiv, 2019, preprint.
     DOI: 10.26434/chemrxiv.8326202.v1
   for GFN-FF:
   * S. Spicher and S. Grimme, Angew. Chem. Int. Ed., 2020, 59, 15665-15673.
     DOI: 10.1002/anie.202004239
   
   for DFT-D4:
   * E. Caldeweyher, C. Bannwarth and S. Grimme, J. Chem. Phys., 2017,
     147, 034112. DOI: 10.1063/1.4993215
   * E. Caldeweyher, S. Ehlert, A. Hansen, H. Neugebauer, S. Spicher,
     C. Bannwarth and S. Grimme, J. Chem. Phys., 2019, 150, 154122.
     DOI: 10.1063/1.5090222
   * E. Caldeweyher, J.-M. Mewes, S. Ehlert and S. Grimme, Phys. Chem. Chem. Phys.
     2020, 22, 8499-8512. DOI: 10.1039/D0CP00502A
   
   for sTDA-xTB:
   * S. Grimme and C. Bannwarth, J. Chem. Phys., 2016, 145, 054103.
     DOI: 10.1063/1.4959605
   
   in the mass-spec context:
   * V. Asgeirsson, C. Bauer and S. Grimme, Chem. Sci., 2017, 8, 4879.
     DOI: 10.1039/c7sc00601b
   * J. Koopman and S. Grimme, ACS Omega 2019, 4, 12, 15120-15133.
     DOI: 10.1021/acsomega.9b02011
   
   for metadynamics refer to:
   * S. Grimme, J. Chem. Theory Comput., 2019, 155, 2847-2862
     DOI: 10.1021/acs.jctc.9b00143
   
   for SPH calculations refer to:
   * S. Spicher and S. Grimme, J. Chem. Theory Comput., 2021, 17, 1701-1714
     DOI: 10.1021/acs.jctc.0c01306
   
   with help from (in alphabetical order)
   P. Atkinson, C. Bannwarth, F. Bohle, G. Brandenburg, E. Caldeweyher
   M. Checinski, S. Dohm, S. Ehlert, S. Ehrlich, I. Gerasimov, J. Koopman
   C. Lavigne, S. Lehtola, F. März, M. Müller, F. Musil, H. Neugebauer
   J. Pisarek, C. Plett, P. Pracht, J. Seibert, P. Shushkov, S. Spicher
   M. Stahn, M. Steiner, T. Strunk, J. Stückrath, T. Rose, and J. Unsleber
   
 * started run on 2021/11/21 at 19:19:29.382     

           -------------------------------------------------
          |                Calculation Setup                |
           -------------------------------------------------

          program call               : /home/jeff/miniconda3/bin/xtb /home/jeff/chem/final-year-proejct/free_base/_4_7_outenergy/input_structure.xyz --gfn 2 --parallel 1 --etemp 300 --chrg 0 --uhf 0 -I det_control.in
          coordinate file            : /home/jeff/chem/final-year-proejct/free_base/_4_7_outenergy/input_structure.xyz
          omp threads                :                     1
          number of atoms            :                   278
          number of electrons        :                   882
          charge                     :                     0
          spin                       :                   0.0
          first test random number   :      0.20935122373731

   ID    Z sym.   atoms
    1    6 C      1-8, 10-14, 16-20, 22, 23, 38-45, 47-51, 53-57, 59, 60,
                  75-106, 108-112, 114-118, 120, 121, 135-142, 144-148,
                  150-154, 156, 157, 171-178, 180-184, 186-190, 192, 193,
                  207-214, 216-220, 222-226, 228, 229, 243-250, 252-256,
                  258-262, 264, 265
    2    7 N      9, 15, 21, 24, 46, 52, 58, 61, 107, 113, 119, 122, 143,
                  149, 155, 158, 179, 185, 191, 194, 215, 221, 227, 230, 251,
                  257, 263, 266
    3    1 H      25-37, 62-74, 123-134, 159-170, 195-206, 231-242, 267-278

           -------------------------------------------------
          |                 G F N 2 - x T B                 |
           -------------------------------------------------

        Reference                      10.1021/acs.jctc.8b01176
      * Hamiltonian:
        H0-scaling (s, p, d)           1.850000    2.230000    2.230000
        zeta-weighting                 0.500000
      * Dispersion:
        s8                             2.700000
        a1                             0.520000
        a2                             5.000000
        s9                             5.000000
      * Repulsion:
        kExp                           1.500000    1.000000
        rExp                           1.000000
      * Coulomb:
        alpha                          2.000000
        third order                    shell-resolved
        anisotropic                    true
        a3                             3.000000
        a5                             4.000000
        cn-shift                       1.200000
        cn-exp                         4.000000
        max-rad                        5.000000


          ...................................................
          :                      SETUP                      :
          :.................................................:
          :  # basis functions                 854          :
          :  # atomic orbitals                 854          :
          :  # shells                          470          :
          :  # electrons                       882          :
          :  max. iterations                   250          :
          :  Hamiltonian                  GFN2-xTB          :
          :  restarted?                      false          :
          :  GBSA solvation                  false          :
          :  PC potential                    false          :
          :  electronic temp.          300.0000000     K    :
          :  accuracy                    1.0000000          :
          :  -> integral cutoff          0.2500000E+02      :
          :  -> integral neglect         0.1000000E-07      :
          :  -> SCF convergence          0.1000000E-05 Eh   :
          :  -> wf. convergence          0.1000000E-03 e    :
          :  Broyden damping             0.4000000          :
          ...................................................

 iter      E             dE          RMSdq      gap      omega  full diag
   1   -484.4976654 -0.484498E+03  0.566E+00    0.48       0.0  T
   2   -485.2004281 -0.702763E+00  0.365E+00    0.74       1.0  T
   3   -485.0056648  0.194763E+00  0.155E+00    0.56       1.0  T
   4   -485.2030100 -0.197345E+00  0.620E-01    0.74       1.0  T
   5   -485.3363987 -0.133389E+00  0.204E-01    0.71       1.0  T
   6   -485.3507268 -0.143280E-01  0.824E-02    0.72       1.0  T
   7   -485.3515324 -0.805605E-03  0.545E-02    0.72       1.0  T
   8   -485.3523770 -0.844666E-03  0.214E-02    0.72       1.0  T
   9   -485.3524586 -0.815288E-04  0.111E-02    0.72       1.0  T
  10   -485.3524674 -0.886407E-05  0.612E-03    0.72       1.0  T
  11   -485.3524802 -0.127369E-04  0.157E-03    0.72       3.8  T
  12   -485.3524810 -0.808117E-06  0.779E-04    0.72       7.7  T
  13   -485.3524812 -0.203873E-06  0.363E-04    0.72      16.5  T

   *** convergence criteria satisfied after 13 iterations ***

         #    Occupation            Energy/Eh            Energy/eV
      -------------------------------------------------------------
         1        2.0000           -0.6855777             -18.6555
       ...           ...                  ...                  ...
       435        2.0000           -0.3671350              -9.9903
       436        2.0000           -0.3644689              -9.9177
       437        2.0000           -0.3606064              -9.8126
       438        2.0000           -0.3560401              -9.6883
       439        2.0000           -0.3513424              -9.5605
       440        2.0000           -0.3470905              -9.4448
       441        2.0000           -0.3441681              -9.3653 (HOMO)
       442        0.0000           -0.3178092              -8.6480 (LUMO)
       443                         -0.3142226              -8.5504
       444                         -0.3096316              -8.4255
       445                         -0.3046699              -8.2905
       446                         -0.3003245              -8.1722
       ...                                ...                  ...
       854                          1.6330266              44.4369
      -------------------------------------------------------------
                  HL-Gap            0.0263588 Eh            0.7173 eV
             Fermi-level           -0.3309779 Eh           -9.0064 eV

 SCC (total)                   0 d,  0 h,  0 min,  3.740 sec
 SCC setup                      ...        0 min,  0.013 sec (  0.335%)
 Dispersion                     ...        0 min,  0.026 sec (  0.699%)
 classical contributions        ...        0 min,  0.002 sec (  0.062%)
 integral evaluation            ...        0 min,  0.191 sec (  5.114%)
 iterations                     ...        0 min,  2.958 sec ( 79.107%)
 molecular gradient             ...        0 min,  0.518 sec ( 13.857%)
 printout                       ...        0 min,  0.031 sec (  0.826%)

         :::::::::::::::::::::::::::::::::::::::::::::::::::::
         ::                     SUMMARY                     ::
         :::::::::::::::::::::::::::::::::::::::::::::::::::::
         :: total energy            -476.214315614271 Eh    ::
         :: gradient norm              0.000525370975 Eh/a0 ::
         :: HOMO-LUMO gap              0.717260596645 eV    ::
         ::.................................................::
         :: SCC energy              -485.352481169365 Eh    ::
         :: -> isotropic ES            0.237994136521 Eh    ::
         :: -> anisotropic ES         -0.024813622276 Eh    ::
         :: -> anisotropic XC          0.333110703020 Eh    ::
         :: -> dispersion             -0.397161479078 Eh    ::
         :: repulsion energy           9.145430704848 Eh    ::
         :: add. restraining           0.000000000000 Eh    ::
         :: total charge               0.000000000002 e     ::
         :::::::::::::::::::::::::::::::::::::::::::::::::::::

           -------------------------------------------------
          |                Property Printout                |
           -------------------------------------------------

    * Orbital Energies and Occupations

         #    Occupation            Energy/Eh            Energy/eV
      -------------------------------------------------------------
         1        2.0000           -0.6855777             -18.6555
       ...           ...                  ...                  ...
       429        2.0000           -0.3706025             -10.0846
       430        2.0000           -0.3705873             -10.0842
       431        2.0000           -0.3703336             -10.0773
       432        2.0000           -0.3703236             -10.0770
       433        2.0000           -0.3691406             -10.0448
       434        2.0000           -0.3691105             -10.0440
       435        2.0000           -0.3671350              -9.9903
       436        2.0000           -0.3644689              -9.9177
       437        2.0000           -0.3606064              -9.8126
       438        2.0000           -0.3560401              -9.6883
       439        2.0000           -0.3513424              -9.5605
       440        2.0000           -0.3470905              -9.4448
       441        2.0000           -0.3441681              -9.3653 (HOMO)
       442        0.0000           -0.3178092              -8.6480 (LUMO)
       443                         -0.3142226              -8.5504
       444                         -0.3096316              -8.4255
       445                         -0.3046699              -8.2905
       446                         -0.3003245              -8.1722
       447                         -0.2991749              -8.1410
       448                         -0.2991683              -8.1408
       449                         -0.2990846              -8.1385
       450                         -0.2989179              -8.1340
       451                         -0.2985906              -8.1251
       452                         -0.2980309              -8.1098
       ...                                ...                  ...
       854                          1.6330266              44.4369
      -------------------------------------------------------------
                  HL-Gap            0.0263588 Eh            0.7173 eV
             Fermi-level           -0.3309779 Eh           -9.0064 eV

     #   Z          covCN         q      C6AA      α(0)
     1   6 C        3.016    -0.055    29.338     8.885
     2   6 C        3.009    -0.053    29.300     8.879
     3   6 C        3.196     0.087    25.567     8.243
     4   6 C        2.952     0.012    27.752     8.640
     5   6 C        3.097     0.064    26.450     8.429
     6   6 C        3.026    -0.050    29.207     8.865
     7   6 C        3.034    -0.052    29.251     8.871
     8   6 C        3.073     0.064    26.486     8.438
     9   7 N        2.785    -0.081    22.815     7.094
    10   6 C        2.899    -0.055    29.363     8.885
    11   6 C        3.170     0.087    25.717     8.285
    12   6 C        3.012    -0.054    29.315     8.881
    13   6 C        3.009    -0.054    29.317     8.882
    14   6 C        3.174     0.086    25.707     8.281
    15   7 N        1.870    -0.321    29.170     8.006
    16   6 C        2.899    -0.057    29.407     8.891
    17   6 C        3.074     0.065    26.469     8.435
    18   6 C        3.026    -0.051    29.239     8.870
    19   6 C        3.031    -0.051    29.230     8.868
    20   6 C        3.069     0.066    26.461     8.435
    21   7 N        2.787    -0.081    22.812     7.094
    22   6 C        2.899    -0.055    29.363     8.885
    23   6 C        3.175     0.086    25.723     8.283
    24   7 N        1.870    -0.325    29.273     8.020
    25   1 H        0.926     0.019     2.755     2.595
    26   1 H        0.926     0.021     2.723     2.580
    27   1 H        0.926     0.043     2.406     2.426
    28   1 H        0.926     0.041     2.429     2.437
    29   1 H        0.860     0.214     1.037     1.595
    30   1 H        0.925     0.047     2.357     2.401
    31   1 H        0.926     0.020     2.740     2.589
    32   1 H        0.926     0.020     2.740     2.588
    33   1 H        0.926     0.046     2.367     2.406
    34   1 H        0.926     0.042     2.422     2.434
    35   1 H        0.926     0.042     2.423     2.434
    36   1 H        0.860     0.214     1.035     1.594
    37   1 H        0.925     0.047     2.357     2.401
    38   6 C        3.016    -0.055    29.338     8.885
    39   6 C        3.009    -0.053    29.300     8.879
    40   6 C        3.196     0.087    25.567     8.243
    41   6 C        2.952     0.012    27.752     8.640
    42   6 C        3.097     0.064    26.450     8.429
    43   6 C        3.026    -0.050    29.208     8.865
    44   6 C        3.034    -0.052    29.250     8.871
    45   6 C        3.073     0.064    26.486     8.438
    46   7 N        2.785    -0.081    22.815     7.094
    47   6 C        2.899    -0.055    29.363     8.885
    48   6 C        3.170     0.087    25.717     8.285
    49   6 C        3.012    -0.054    29.315     8.881
    50   6 C        3.009    -0.054    29.317     8.882
    51   6 C        3.174     0.086    25.706     8.281
    52   7 N        1.870    -0.321    29.170     8.006
    53   6 C        2.899    -0.057    29.406     8.891
    54   6 C        3.074     0.065    26.469     8.435
    55   6 C        3.026    -0.051    29.239     8.870
    56   6 C        3.031    -0.051    29.231     8.868
    57   6 C        3.069     0.066    26.461     8.435
    58   7 N        2.787    -0.081    22.811     7.094
    59   6 C        2.899    -0.055    29.363     8.885
    60   6 C        3.175     0.086    25.723     8.283
    61   7 N        1.870    -0.325    29.274     8.020
    62   1 H        0.926     0.019     2.755     2.595
    63   1 H        0.926     0.021     2.723     2.580
    64   1 H        0.926     0.043     2.406     2.426
    65   1 H        0.926     0.041     2.429     2.437
    66   1 H        0.860     0.214     1.037     1.595
    67   1 H        0.925     0.047     2.357     2.401
    68   1 H        0.926     0.020     2.740     2.589
    69   1 H        0.926     0.020     2.740     2.588
    70   1 H        0.926     0.046     2.367     2.406
    71   1 H        0.926     0.042     2.422     2.434
    72   1 H        0.926     0.042     2.423     2.434
    73   1 H        0.860     0.214     1.035     1.594
    74   1 H        0.925     0.047     2.357     2.401
    75   6 C        1.995    -0.022    31.619     9.081
    76   6 C        1.963    -0.011    31.371     9.045
    77   6 C        1.963    -0.010    31.346     9.041
    78   6 C        1.994    -0.023    31.643     9.084
    79   6 C        1.994    -0.022    31.623     9.082
    80   6 C        1.964    -0.011    31.355     9.043
    81   6 C        1.964    -0.010    31.348     9.042
    82   6 C        1.994    -0.022    31.629     9.082
    83   6 C        1.994    -0.022    31.624     9.082
    84   6 C        1.964    -0.011    31.351     9.042
    85   6 C        1.964    -0.011    31.349     9.042
    86   6 C        1.994    -0.022    31.625     9.082
    87   6 C        1.994    -0.022    31.626     9.082
    88   6 C        1.964    -0.011    31.349     9.042
    89   6 C        1.964    -0.011    31.351     9.042
    90   6 C        1.994    -0.022    31.624     9.082
    91   6 C        1.994    -0.022    31.629     9.082
    92   6 C        1.964    -0.010    31.348     9.042
    93   6 C        1.964    -0.011    31.354     9.043
    94   6 C        1.994    -0.022    31.623     9.082
    95   6 C        1.994    -0.023    31.644     9.084
    96   6 C        1.963    -0.010    31.346     9.041
    97   6 C        1.963    -0.011    31.371     9.045
    98   6 C        1.995    -0.022    31.619     9.081
    99   6 C        3.017    -0.055    29.332     8.884
   100   6 C        3.009    -0.053    29.297     8.879
   101   6 C        3.196     0.087    25.568     8.243
   102   6 C        2.952     0.012    27.739     8.638
   103   6 C        3.100     0.064    26.457     8.429
   104   6 C        3.025    -0.050    29.215     8.866
   105   6 C        3.037    -0.052    29.249     8.871
   106   6 C        3.073     0.064    26.492     8.439
   107   7 N        2.786    -0.081    22.818     7.095
   108   6 C        2.899    -0.053    29.307     8.876
   109   6 C        3.173     0.085    25.737     8.286
   110   6 C        3.017    -0.055    29.331     8.884
   111   6 C        3.009    -0.053    29.298     8.879
   112   6 C        3.196     0.087    25.567     8.243
   113   7 N        1.870    -0.324    29.253     8.017
   114   6 C        2.952     0.012    27.750     8.640
   115   6 C        3.100     0.064    26.454     8.429
   116   6 C        3.025    -0.050    29.219     8.867
   117   6 C        3.037    -0.052    29.248     8.871
   118   6 C        3.073     0.064    26.494     8.439
   119   7 N        2.786    -0.081    22.818     7.095
   120   6 C        2.899    -0.053    29.306     8.876
   121   6 C        3.174     0.085    25.736     8.286
   122   7 N        1.870    -0.324    29.250     8.017
   123   1 H        0.926     0.019     2.752     2.594
   124   1 H        0.926     0.021     2.721     2.580
   125   1 H        0.926     0.043     2.409     2.427
   126   1 H        0.926     0.041     2.431     2.438
   127   1 H        0.860     0.214     1.035     1.594
   128   1 H        0.925     0.048     2.347     2.396
   129   1 H        0.926     0.019     2.752     2.594
   130   1 H        0.926     0.021     2.724     2.581
   131   1 H        0.926     0.043     2.410     2.427
   132   1 H        0.926     0.041     2.431     2.438
   133   1 H        0.860     0.214     1.035     1.594
   134   1 H        0.925     0.048     2.347     2.396
   135   6 C        3.017    -0.055    29.331     8.884
   136   6 C        3.009    -0.053    29.297     8.879
   137   6 C        3.196     0.087    25.566     8.243
   138   6 C        2.952     0.012    27.742     8.639
   139   6 C        3.100     0.064    26.454     8.429
   140   6 C        3.025    -0.050    29.217     8.866
   141   6 C        3.037    -0.052    29.248     8.871
   142   6 C        3.073     0.064    26.493     8.439
   143   7 N        2.786    -0.081    22.814     7.094
   144   6 C        2.899    -0.053    29.303     8.876
   145   6 C        3.174     0.085    25.736     8.286
   146   6 C        3.017    -0.055    29.331     8.884
   147   6 C        3.009    -0.053    29.298     8.879
   148   6 C        3.196     0.087    25.564     8.242
   149   7 N        1.870    -0.324    29.250     8.017
   150   6 C        2.952     0.012    27.746     8.639
   151   6 C        3.100     0.064    26.454     8.429
   152   6 C        3.025    -0.050    29.217     8.866
   153   6 C        3.037    -0.052    29.248     8.870
   154   6 C        3.073     0.064    26.494     8.439
   155   7 N        2.786    -0.081    22.816     7.094
   156   6 C        2.899    -0.053    29.303     8.876
   157   6 C        3.174     0.085    25.737     8.286
   158   7 N        1.870    -0.324    29.250     8.017
   159   1 H        0.926     0.019     2.751     2.594
   160   1 H        0.926     0.021     2.722     2.580
   161   1 H        0.926     0.043     2.408     2.427
   162   1 H        0.926     0.041     2.430     2.438
   163   1 H        0.860     0.214     1.035     1.594
   164   1 H        0.925     0.048     2.346     2.395
   165   1 H        0.926     0.019     2.751     2.594
   166   1 H        0.926     0.021     2.722     2.580
   167   1 H        0.926     0.043     2.409     2.427
   168   1 H        0.926     0.041     2.430     2.438
   169   1 H        0.860     0.214     1.035     1.594
   170   1 H        0.925     0.048     2.346     2.395
   171   6 C        3.017    -0.054    29.331     8.884
   172   6 C        3.009    -0.053    29.298     8.879
   173   6 C        3.196     0.087    25.564     8.242
   174   6 C        2.952     0.012    27.744     8.639
   175   6 C        3.100     0.064    26.454     8.429
   176   6 C        3.025    -0.050    29.217     8.866
   177   6 C        3.036    -0.052    29.248     8.870
   178   6 C        3.073     0.064    26.494     8.439
   179   7 N        2.786    -0.081    22.814     7.094
   180   6 C        2.899    -0.053    29.303     8.876
   181   6 C        3.174     0.085    25.736     8.286
   182   6 C        3.017    -0.054    29.331     8.884
   183   6 C        3.009    -0.053    29.297     8.879
   184   6 C        3.196     0.087    25.565     8.243
   185   7 N        1.870    -0.324    29.250     8.017
   186   6 C        2.952     0.012    27.744     8.639
   187   6 C        3.100     0.064    26.453     8.428
   188   6 C        3.025    -0.050    29.217     8.866
   189   6 C        3.036    -0.052    29.248     8.871
   190   6 C        3.073     0.064    26.494     8.439
   191   7 N        2.786    -0.081    22.814     7.094
   192   6 C        2.899    -0.052    29.303     8.876
   193   6 C        3.174     0.085    25.736     8.286
   194   7 N        1.870    -0.324    29.250     8.017
   195   1 H        0.926     0.019     2.750     2.593
   196   1 H        0.926     0.021     2.722     2.580
   197   1 H        0.926     0.043     2.408     2.427
   198   1 H        0.926     0.041     2.430     2.437
   199   1 H        0.860     0.214     1.036     1.594
   200   1 H        0.925     0.048     2.345     2.395
   201   1 H        0.926     0.019     2.751     2.593
   202   1 H        0.926     0.021     2.722     2.580
   203   1 H        0.926     0.043     2.408     2.427
   204   1 H        0.926     0.041     2.429     2.437
   205   1 H        0.860     0.214     1.035     1.594
   206   1 H        0.925     0.048     2.345     2.395
   207   6 C        3.017    -0.054    29.331     8.884
   208   6 C        3.009    -0.053    29.297     8.879
   209   6 C        3.196     0.087    25.565     8.243
   210   6 C        2.952     0.012    27.746     8.639
   211   6 C        3.100     0.064    26.454     8.429
   212   6 C        3.025    -0.050    29.218     8.866
   213   6 C        3.037    -0.052    29.248     8.871
   214   6 C        3.073     0.064    26.494     8.439
   215   7 N        2.786    -0.081    22.815     7.094
   216   6 C        2.899    -0.052    29.303     8.876
   217   6 C        3.174     0.085    25.736     8.286
   218   6 C        3.017    -0.055    29.331     8.884
   219   6 C        3.009    -0.053    29.298     8.879
   220   6 C        3.196     0.087    25.566     8.243
   221   7 N        1.870    -0.324    29.249     8.017
   222   6 C        2.952     0.012    27.742     8.639
   223   6 C        3.100     0.064    26.454     8.429
   224   6 C        3.025    -0.050    29.217     8.866
   225   6 C        3.037    -0.052    29.248     8.871
   226   6 C        3.073     0.064    26.493     8.439
   227   7 N        2.786    -0.081    22.815     7.094
   228   6 C        2.899    -0.053    29.304     8.876
   229   6 C        3.174     0.085    25.736     8.286
   230   7 N        1.870    -0.324    29.251     8.017
   231   1 H        0.926     0.019     2.751     2.594
   232   1 H        0.926     0.021     2.723     2.580
   233   1 H        0.926     0.043     2.409     2.427
   234   1 H        0.926     0.041     2.430     2.438
   235   1 H        0.860     0.214     1.035     1.594
   236   1 H        0.925     0.048     2.346     2.395
   237   1 H        0.926     0.019     2.751     2.594
   238   1 H        0.926     0.021     2.722     2.580
   239   1 H        0.926     0.043     2.408     2.427
   240   1 H        0.926     0.041     2.430     2.438
   241   1 H        0.860     0.214     1.035     1.594
   242   1 H        0.925     0.048     2.346     2.395
   243   6 C        3.017    -0.055    29.331     8.884
   244   6 C        3.009    -0.053    29.298     8.879
   245   6 C        3.196     0.087    25.566     8.243
   246   6 C        2.952     0.012    27.750     8.640
   247   6 C        3.100     0.064    26.454     8.429
   248   6 C        3.025    -0.050    29.218     8.867
   249   6 C        3.037    -0.052    29.248     8.871
   250   6 C        3.073     0.064    26.494     8.439
   251   7 N        2.786    -0.081    22.818     7.095
   252   6 C        2.899    -0.053    29.305     8.876
   253   6 C        3.173     0.085    25.737     8.286
   254   6 C        3.017    -0.055    29.332     8.884
   255   6 C        3.009    -0.053    29.297     8.879
   256   6 C        3.196     0.087    25.568     8.243
   257   7 N        1.870    -0.324    29.249     8.017
   258   6 C        2.952     0.012    27.739     8.638
   259   6 C        3.100     0.064    26.457     8.429
   260   6 C        3.025    -0.050    29.215     8.866
   261   6 C        3.037    -0.052    29.249     8.871
   262   6 C        3.073     0.064    26.492     8.439
   263   7 N        2.786    -0.081    22.818     7.095
   264   6 C        2.899    -0.053    29.307     8.876
   265   6 C        3.173     0.085    25.737     8.286
   266   7 N        1.870    -0.324    29.253     8.017
   267   1 H        0.926     0.019     2.752     2.594
   268   1 H        0.926     0.021     2.724     2.581
   269   1 H        0.926     0.043     2.410     2.428
   270   1 H        0.926     0.041     2.431     2.438
   271   1 H        0.860     0.214     1.035     1.594
   272   1 H        0.925     0.048     2.347     2.396
   273   1 H        0.926     0.019     2.752     2.594
   274   1 H        0.926     0.021     2.722     2.580
   275   1 H        0.926     0.043     2.409     2.427
   276   1 H        0.926     0.041     2.431     2.438
   277   1 H        0.860     0.214     1.035     1.594
   278   1 H        0.925     0.048     2.347     2.396

 Mol. C6AA /au·bohr⁶  :    1308672.899442
 Mol. C8AA /au·bohr⁸  :   33768578.333512
 Mol. α(0) /au        :       1840.649143


Wiberg/Mayer (AO) data.
largest (>0.10) Wiberg bond orders for each atom

 ---------------------------------------------------------------------------
     #   Z sym  total        # sym  WBO       # sym  WBO       # sym  WBO
 ---------------------------------------------------------------------------
     1   6 C    3.960 --     2 C    1.716    23 C    1.115    25 H    0.973
     2   6 C    3.961 --     1 C    1.716     3 C    1.122    26 H    0.972
     3   6 C    3.916 --    24 N    1.362     4 C    1.243     2 C    1.122
     4   6 C    3.939 --     5 C    1.248     3 C    1.243    75 C    1.192
     5   6 C    3.902 --     4 C    1.248     6 C    1.237     9 N    1.226
     6   6 C    3.955 --     7 C    1.592     5 C    1.237    27 H    0.972
     7   6 C    3.948 --     6 C    1.592     8 C    1.224    28 H    0.973
     8   6 C    3.918 --    10 C    1.344     7 C    1.224     9 N    1.202
     9   7 N    3.590 --     5 C    1.226     8 C    1.202    29 H    0.900
    10   6 C    3.920 --    11 C    1.357     8 C    1.344    30 H    0.964
    11   6 C    3.939 --    10 C    1.357    15 N    1.324    12 C    1.107
    12   6 C    3.963 --    13 C    1.731    11 C    1.107    31 H    0.973
    13   6 C    3.962 --    12 C    1.731    14 C    1.109    32 H    0.973
    14   6 C    3.938 --    16 C    1.354    15 N    1.325    13 C    1.109
    15   7 N    3.001 --    14 C    1.325    11 C    1.324
    16   6 C    3.922 --    14 C    1.354    17 C    1.346    33 H    0.965
    17   6 C    3.921 --    16 C    1.346    18 C    1.216    21 N    1.210
    18   6 C    3.949 --    19 C    1.608    17 C    1.216    34 H    0.973
    19   6 C    3.953 --    18 C    1.608    20 C    1.215    35 H    0.973
    20   6 C    3.916 --    22 C    1.342    19 C    1.215    21 N    1.211
    21   7 N    3.586 --    20 C    1.211    17 C    1.210    36 H    0.900
    22   6 C    3.937 --    23 C    1.367    20 C    1.342    37 H    0.964
    23   6 C    3.924 --    22 C    1.367    24 N    1.298     1 C    1.115
    24   7 N    3.009 --     3 C    1.362    23 C    1.298
    25   1 H    0.999 --     1 C    0.973
    26   1 H    0.999 --     2 C    0.972
    27   1 H    0.998 --     6 C    0.972
    28   1 H    0.998 --     7 C    0.973
    29   1 H    0.954 --     9 N    0.900
    30   1 H    0.997 --    10 C    0.964
    31   1 H    0.999 --    12 C    0.973
    32   1 H    0.999 --    13 C    0.973
    33   1 H    0.997 --    16 C    0.965
    34   1 H    0.998 --    18 C    0.973
    35   1 H    0.998 --    19 C    0.973
    36   1 H    0.954 --    21 N    0.900
    37   1 H    0.997 --    22 C    0.964
    38   6 C    3.960 --    39 C    1.716    60 C    1.115    62 H    0.973
    39   6 C    3.961 --    38 C    1.716    40 C    1.122    63 H    0.972
    40   6 C    3.916 --    61 N    1.363    41 C    1.243    39 C    1.122
    41   6 C    3.939 --    42 C    1.248    40 C    1.243    98 C    1.192
    42   6 C    3.902 --    41 C    1.248    43 C    1.237    46 N    1.226
    43   6 C    3.955 --    44 C    1.592    42 C    1.237    64 H    0.972
    44   6 C    3.948 --    43 C    1.592    45 C    1.224    65 H    0.973
    45   6 C    3.918 --    47 C    1.344    44 C    1.224    46 N    1.202
    46   7 N    3.590 --    42 C    1.226    45 C    1.202    66 H    0.900
    47   6 C    3.920 --    48 C    1.357    45 C    1.344    67 H    0.964
    48   6 C    3.939 --    47 C    1.357    52 N    1.324    49 C    1.107
    49   6 C    3.963 --    50 C    1.731    48 C    1.107    68 H    0.973
    50   6 C    3.962 --    49 C    1.731    51 C    1.109    69 H    0.973
    51   6 C    3.938 --    53 C    1.354    52 N    1.325    50 C    1.109
    52   7 N    3.001 --    51 C    1.325    48 C    1.324
    53   6 C    3.922 --    51 C    1.354    54 C    1.346    70 H    0.965
    54   6 C    3.921 --    53 C    1.346    55 C    1.216    58 N    1.210
    55   6 C    3.949 --    56 C    1.608    54 C    1.216    71 H    0.973
    56   6 C    3.953 --    55 C    1.608    57 C    1.215    72 H    0.973
    57   6 C    3.916 --    59 C    1.341    56 C    1.215    58 N    1.211
    58   7 N    3.586 --    57 C    1.211    54 C    1.210    73 H    0.900
    59   6 C    3.937 --    60 C    1.367    57 C    1.341    74 H    0.964
    60   6 C    3.924 --    59 C    1.367    61 N    1.298    38 C    1.115
    61   7 N    3.009 --    40 C    1.363    60 C    1.298
    62   1 H    0.999 --    38 C    0.973
    63   1 H    0.999 --    39 C    0.972
    64   1 H    0.998 --    43 C    0.972
    65   1 H    0.998 --    44 C    0.973
    66   1 H    0.954 --    46 N    0.900
    67   1 H    0.997 --    47 C    0.964
    68   1 H    0.999 --    49 C    0.973
    69   1 H    0.999 --    50 C    0.973
    70   1 H    0.997 --    53 C    0.965
    71   1 H    0.998 --    55 C    0.973
    72   1 H    0.998 --    56 C    0.973
    73   1 H    0.954 --    58 N    0.900
    74   1 H    0.997 --    59 C    0.964
    75   6 C    3.916 --    76 C    2.461     4 C    1.192    78 C    0.202
    76   6 C    3.925 --    75 C    2.461    77 C    1.311
    77   6 C    3.921 --    78 C    2.458    76 C    1.311
    78   6 C    3.918 --    77 C    2.458   102 C    1.196    75 C    0.202
    79   6 C    3.916 --    80 C    2.454   114 C    1.198    82 C    0.201
    80   6 C    3.921 --    79 C    2.454    81 C    1.315
    81   6 C    3.920 --    82 C    2.454    80 C    1.315
    82   6 C    3.916 --    81 C    2.454   138 C    1.198    79 C    0.201
    83   6 C    3.916 --    84 C    2.454   150 C    1.198    86 C    0.201
    84   6 C    3.920 --    83 C    2.454    85 C    1.315
    85   6 C    3.920 --    86 C    2.454    84 C    1.315
    86   6 C    3.916 --    85 C    2.454   174 C    1.198    83 C    0.201
    87   6 C    3.916 --    88 C    2.454   186 C    1.198    90 C    0.201
    88   6 C    3.920 --    87 C    2.454    89 C    1.315
    89   6 C    3.920 --    90 C    2.454    88 C    1.315
    90   6 C    3.916 --    89 C    2.454   210 C    1.198    87 C    0.201
    91   6 C    3.916 --    92 C    2.454   222 C    1.198    94 C    0.201
    92   6 C    3.920 --    91 C    2.454    93 C    1.315
    93   6 C    3.921 --    94 C    2.454    92 C    1.315
    94   6 C    3.916 --    93 C    2.454   246 C    1.198    91 C    0.201
    95   6 C    3.918 --    96 C    2.458   258 C    1.196    98 C    0.202
    96   6 C    3.921 --    95 C    2.458    97 C    1.311
    97   6 C    3.925 --    98 C    2.461    96 C    1.311
    98   6 C    3.916 --    97 C    2.461    41 C    1.192    95 C    0.202
    99   6 C    3.961 --   100 C    1.715   121 C    1.115   123 H    0.973
   100   6 C    3.960 --    99 C    1.715   101 C    1.124   124 H    0.972
   101   6 C    3.917 --   122 N    1.363   102 C    1.241   100 C    1.124
   102   6 C    3.925 --   103 C    1.243   101 C    1.241    78 C    1.196
   103   6 C    3.903 --   102 C    1.243   104 C    1.242   107 N    1.226
   104   6 C    3.952 --   105 C    1.587   103 C    1.242   125 H    0.972
   105   6 C    3.949 --   104 C    1.587   106 C    1.228   126 H    0.973
   106   6 C    3.914 --   108 C    1.335   105 C    1.228   107 N    1.204
   107   7 N    3.586 --   103 C    1.226   106 C    1.204   127 H    0.898
   108   6 C    3.922 --   109 C    1.373   106 C    1.335   128 H    0.963
   109   6 C    3.926 --   108 C    1.373   113 N    1.294   110 C    1.115
   110   6 C    3.960 --   111 C    1.716   109 C    1.115   129 H    0.973
   111   6 C    3.960 --   110 C    1.716   112 C    1.123   130 H    0.972
   112   6 C    3.917 --   113 N    1.364   114 C    1.240   111 C    1.123
   113   7 N    3.000 --   112 C    1.364   109 C    1.294
   114   6 C    3.925 --   115 C    1.242   112 C    1.240    79 C    1.198
   115   6 C    3.903 --   114 C    1.242   116 C    1.242   119 N    1.227
   116   6 C    3.952 --   117 C    1.587   115 C    1.242   131 H    0.972
   117   6 C    3.948 --   116 C    1.587   118 C    1.228   132 H    0.973
   118   6 C    3.914 --   120 C    1.336   117 C    1.228   119 N    1.203
   119   7 N    3.585 --   115 C    1.227   118 C    1.203   133 H    0.898
   120   6 C    3.922 --   121 C    1.371   118 C    1.336   134 H    0.963
   121   6 C    3.926 --   120 C    1.371   122 N    1.295    99 C    1.115
   122   7 N    3.000 --   101 C    1.363   121 C    1.295
   123   1 H    0.999 --    99 C    0.973
   124   1 H    0.999 --   100 C    0.972
   125   1 H    0.998 --   104 C    0.972
   126   1 H    0.998 --   105 C    0.973
   127   1 H    0.954 --   107 N    0.898
   128   1 H    0.997 --   108 C    0.963
   129   1 H    0.999 --   110 C    0.973
   130   1 H    0.999 --   111 C    0.972
   131   1 H    0.998 --   116 C    0.972
   132   1 H    0.998 --   117 C    0.973
   133   1 H    0.954 --   119 N    0.898
   134   1 H    0.997 --   120 C    0.963
   135   6 C    3.960 --   136 C    1.715   157 C    1.115   159 H    0.973
   136   6 C    3.960 --   135 C    1.715   137 C    1.124   160 H    0.972
   137   6 C    3.917 --   158 N    1.364   138 C    1.240   136 C    1.124
   138   6 C    3.924 --   139 C    1.242   137 C    1.240    82 C    1.198
   139   6 C    3.903 --   138 C    1.242   140 C    1.242   143 N    1.227
   140   6 C    3.952 --   141 C    1.587   139 C    1.242   161 H    0.972
   141   6 C    3.948 --   140 C    1.587   142 C    1.229   162 H    0.973
   142   6 C    3.914 --   144 C    1.335   141 C    1.229   143 N    1.203
   143   7 N    3.585 --   139 C    1.227   142 C    1.203   163 H    0.898
   144   6 C    3.922 --   145 C    1.373   142 C    1.335   164 H    0.963
   145   6 C    3.926 --   144 C    1.373   149 N    1.294   146 C    1.115
   146   6 C    3.961 --   147 C    1.715   145 C    1.115   165 H    0.973
   147   6 C    3.960 --   146 C    1.715   148 C    1.123   166 H    0.972
   148   6 C    3.917 --   149 N    1.364   150 C    1.240   147 C    1.123
   149   7 N    2.999 --   148 C    1.364   145 C    1.294
   150   6 C    3.924 --   151 C    1.242   148 C    1.240    83 C    1.198
   151   6 C    3.903 --   150 C    1.242   152 C    1.242   155 N    1.227
   152   6 C    3.952 --   153 C    1.587   151 C    1.242   167 H    0.972
   153   6 C    3.948 --   152 C    1.587   154 C    1.228   168 H    0.973
   154   6 C    3.914 --   156 C    1.335   153 C    1.228   155 N    1.203
   155   7 N    3.585 --   151 C    1.227   154 C    1.203   169 H    0.898
   156   6 C    3.922 --   157 C    1.372   154 C    1.335   170 H    0.963
   157   6 C    3.926 --   156 C    1.372   158 N    1.294   135 C    1.115
   158   7 N    2.999 --   137 C    1.364   157 C    1.294
   159   1 H    0.999 --   135 C    0.973
   160   1 H    0.999 --   136 C    0.972
   161   1 H    0.998 --   140 C    0.972
   162   1 H    0.998 --   141 C    0.973
   163   1 H    0.954 --   143 N    0.898
   164   1 H    0.997 --   144 C    0.963
   165   1 H    0.999 --   146 C    0.973
   166   1 H    0.999 --   147 C    0.972
   167   1 H    0.998 --   152 C    0.972
   168   1 H    0.998 --   153 C    0.973
   169   1 H    0.954 --   155 N    0.898
   170   1 H    0.997 --   156 C    0.963
   171   6 C    3.961 --   172 C    1.715   193 C    1.115   195 H    0.973
   172   6 C    3.960 --   171 C    1.715   173 C    1.123   196 H    0.972
   173   6 C    3.917 --   194 N    1.364   174 C    1.240   172 C    1.123
   174   6 C    3.924 --   175 C    1.242   173 C    1.240    86 C    1.198
   175   6 C    3.903 --   174 C    1.242   176 C    1.242   179 N    1.227
   176   6 C    3.952 --   177 C    1.587   175 C    1.242   197 H    0.972
   177   6 C    3.948 --   176 C    1.587   178 C    1.229   198 H    0.973
   178   6 C    3.914 --   180 C    1.335   177 C    1.229   179 N    1.203
   179   7 N    3.585 --   175 C    1.227   178 C    1.203   199 H    0.898
   180   6 C    3.922 --   181 C    1.372   178 C    1.335   200 H    0.963
   181   6 C    3.926 --   180 C    1.372   185 N    1.294   182 C    1.115
   182   6 C    3.961 --   183 C    1.715   181 C    1.115   201 H    0.973
   183   6 C    3.960 --   182 C    1.715   184 C    1.123   202 H    0.972
   184   6 C    3.917 --   185 N    1.364   186 C    1.240   183 C    1.123
   185   7 N    2.999 --   184 C    1.364   181 C    1.294
   186   6 C    3.924 --   187 C    1.242   184 C    1.240    87 C    1.198
   187   6 C    3.903 --   186 C    1.242   188 C    1.242   191 N    1.227
   188   6 C    3.952 --   189 C    1.587   187 C    1.242   203 H    0.972
   189   6 C    3.948 --   188 C    1.587   190 C    1.229   204 H    0.973
   190   6 C    3.914 --   192 C    1.335   189 C    1.229   191 N    1.203
   191   7 N    3.585 --   187 C    1.227   190 C    1.203   205 H    0.898
   192   6 C    3.922 --   193 C    1.372   190 C    1.335   206 H    0.963
   193   6 C    3.926 --   192 C    1.372   194 N    1.294   171 C    1.115
   194   7 N    2.999 --   173 C    1.364   193 C    1.294
   195   1 H    0.999 --   171 C    0.973
   196   1 H    0.999 --   172 C    0.972
   197   1 H    0.998 --   176 C    0.972
   198   1 H    0.998 --   177 C    0.973
   199   1 H    0.954 --   179 N    0.898
   200   1 H    0.997 --   180 C    0.963
   201   1 H    0.999 --   182 C    0.973
   202   1 H    0.999 --   183 C    0.972
   203   1 H    0.998 --   188 C    0.972
   204   1 H    0.998 --   189 C    0.973
   205   1 H    0.954 --   191 N    0.898
   206   1 H    0.997 --   192 C    0.963
   207   6 C    3.961 --   208 C    1.715   229 C    1.115   231 H    0.973
   208   6 C    3.960 --   207 C    1.715   209 C    1.123   232 H    0.972
   209   6 C    3.917 --   230 N    1.364   210 C    1.240   208 C    1.123
   210   6 C    3.924 --   211 C    1.242   209 C    1.240    90 C    1.198
   211   6 C    3.903 --   210 C    1.242   212 C    1.242   215 N    1.227
   212   6 C    3.952 --   213 C    1.587   211 C    1.242   233 H    0.972
   213   6 C    3.948 --   212 C    1.587   214 C    1.229   234 H    0.973
   214   6 C    3.914 --   216 C    1.335   213 C    1.229   215 N    1.203
   215   7 N    3.585 --   211 C    1.227   214 C    1.203   235 H    0.898
   216   6 C    3.922 --   217 C    1.372   214 C    1.335   236 H    0.963
   217   6 C    3.926 --   216 C    1.372   221 N    1.294   218 C    1.115
   218   6 C    3.961 --   219 C    1.715   217 C    1.115   237 H    0.973
   219   6 C    3.960 --   218 C    1.715   220 C    1.124   238 H    0.972
   220   6 C    3.917 --   221 N    1.364   222 C    1.240   219 C    1.124
   221   7 N    2.999 --   220 C    1.364   217 C    1.294
   222   6 C    3.924 --   223 C    1.242   220 C    1.240    91 C    1.198
   223   6 C    3.903 --   222 C    1.242   224 C    1.242   227 N    1.227
   224   6 C    3.952 --   225 C    1.587   223 C    1.242   239 H    0.972
   225   6 C    3.948 --   224 C    1.587   226 C    1.229   240 H    0.973
   226   6 C    3.914 --   228 C    1.335   225 C    1.229   227 N    1.203
   227   7 N    3.585 --   223 C    1.227   226 C    1.203   241 H    0.898
   228   6 C    3.922 --   229 C    1.372   226 C    1.335   242 H    0.963
   229   6 C    3.926 --   228 C    1.372   230 N    1.294   207 C    1.115
   230   7 N    2.999 --   209 C    1.364   229 C    1.294
   231   1 H    0.999 --   207 C    0.973
   232   1 H    0.999 --   208 C    0.972
   233   1 H    0.998 --   212 C    0.972
   234   1 H    0.998 --   213 C    0.973
   235   1 H    0.954 --   215 N    0.898
   236   1 H    0.997 --   216 C    0.963
   237   1 H    0.999 --   218 C    0.973
   238   1 H    0.999 --   219 C    0.972
   239   1 H    0.998 --   224 C    0.972
   240   1 H    0.998 --   225 C    0.973
   241   1 H    0.954 --   227 N    0.898
   242   1 H    0.997 --   228 C    0.963
   243   6 C    3.960 --   244 C    1.716   265 C    1.115   267 H    0.973
   244   6 C    3.960 --   243 C    1.716   245 C    1.123   268 H    0.972
   245   6 C    3.917 --   266 N    1.364   246 C    1.240   244 C    1.123
   246   6 C    3.925 --   247 C    1.242   245 C    1.240    94 C    1.198
   247   6 C    3.903 --   246 C    1.242   248 C    1.242   251 N    1.227
   248   6 C    3.952 --   249 C    1.587   247 C    1.242   269 H    0.972
   249   6 C    3.948 --   248 C    1.587   250 C    1.228   270 H    0.973
   250   6 C    3.914 --   252 C    1.336   249 C    1.228   251 N    1.203
   251   7 N    3.585 --   247 C    1.227   250 C    1.203   271 H    0.898
   252   6 C    3.922 --   253 C    1.371   250 C    1.336   272 H    0.963
   253   6 C    3.926 --   252 C    1.371   257 N    1.295   254 C    1.115
   254   6 C    3.961 --   255 C    1.715   253 C    1.115   273 H    0.973
   255   6 C    3.960 --   254 C    1.715   256 C    1.124   274 H    0.972
   256   6 C    3.917 --   257 N    1.363   258 C    1.241   255 C    1.124
   257   7 N    2.999 --   256 C    1.363   253 C    1.295
   258   6 C    3.924 --   259 C    1.243   256 C    1.241    95 C    1.196
   259   6 C    3.903 --   258 C    1.243   260 C    1.242   263 N    1.227
   260   6 C    3.952 --   261 C    1.587   259 C    1.242   275 H    0.972
   261   6 C    3.949 --   260 C    1.587   262 C    1.228   276 H    0.973
   262   6 C    3.914 --   264 C    1.335   261 C    1.228   263 N    1.204
   263   7 N    3.586 --   259 C    1.227   262 C    1.204   277 H    0.898
   264   6 C    3.922 --   265 C    1.373   262 C    1.335   278 H    0.963
   265   6 C    3.926 --   264 C    1.373   266 N    1.294   243 C    1.115
   266   7 N    3.000 --   245 C    1.364   265 C    1.294
   267   1 H    0.999 --   243 C    0.973
   268   1 H    0.999 --   244 C    0.972
   269   1 H    0.998 --   248 C    0.972
   270   1 H    0.998 --   249 C    0.973
   271   1 H    0.954 --   251 N    0.898
   272   1 H    0.997 --   252 C    0.963
   273   1 H    0.999 --   254 C    0.973
   274   1 H    0.999 --   255 C    0.972
   275   1 H    0.998 --   260 C    0.972
   276   1 H    0.998 --   261 C    0.973
   277   1 H    0.954 --   263 N    0.898
   278   1 H    0.997 --   264 C    0.963
 ---------------------------------------------------------------------------

Topologies differ in total number of bonds
Writing topology from bond orders to xtbtopo.mol

molecular dipole:
                 x           y           z       tot (Debye)
 q only:        0.001       0.000      -0.007
   full:        0.001       0.000      -0.012       0.032
molecular quadrupole (traceless):
                xx          xy          yy          xz          yz          zz
 q only:      119.463     -75.422     -30.317       3.915      -5.043     -89.146
  q+dip:      212.174     -38.862      -3.993      -0.722     -17.746    -208.180
   full:      158.694     -37.286     -19.870      -0.812     -10.337    -138.825


           -------------------------------------------------
          | TOTAL ENERGY             -476.214315614271 Eh   |
          | GRADIENT NORM               0.000525370975 Eh/α |
          | HOMO-LUMO GAP               0.717260596645 eV   |
           -------------------------------------------------

------------------------------------------------------------------------
 * finished run on 2021/11/21 at 19:19:33.281     
------------------------------------------------------------------------
 total:
 * wall-time:     0 d,  0 h,  0 min,  3.898 sec
 *  cpu-time:     0 d,  0 h,  0 min,  3.898 sec
 * ratio c/w:     1.000 speedup
 SCF:
 * wall-time:     0 d,  0 h,  0 min,  3.744 sec
 *  cpu-time:     0 d,  0 h,  0 min,  3.744 sec
 * ratio c/w:     1.000 speedup

