 Entering Gaussian System
 *********************************************
 Gaussian 98:
 frequency output generated by the xtb code
 *********************************************
                         Standard orientation:
 --------------------------------------------------------------------
  Center     Atomic     Atomic              Coordinates (Angstroms)
  Number     Number      Type              X           Y           Z
 --------------------------------------------------------------------
    1         29             0       21.711534    0.003286   -0.008381
    2          6             0       24.239519   -3.421857    0.048558
    3          6             0       25.191452   -2.458656    0.047212
    4          6             0       24.501759   -1.200763    0.022537
    5          6             0       25.147911    0.044002    0.006134
    6          6             0       24.472425    1.273087   -0.009320
    7          6             0       25.132220    2.547290   -0.018372
    8          6             0       24.157568    3.487558   -0.019800
    9          6             0       22.905758    2.785772   -0.012629
   10          7             0       23.130900    1.443617   -0.007794
   11          6             0       21.669413    3.406428   -0.008150
   12          6             0       20.449359    2.754235   -0.008397
   13          6             0       19.176144    3.422010   -0.006980
   14          6             0       18.229711    2.455798   -0.018903
   15          6             0       18.923586    1.196398   -0.026363
   16          7             0       20.263510    1.409868   -0.017655
   17          6             0       18.297184   -0.037523   -0.043600
   18          6             0       18.953178   -1.256064   -0.044090
   19          6             0       18.289799   -2.531725   -0.059385
   20          6             0       19.258959   -3.475076   -0.043318
   21          6             0       20.515610   -2.776995   -0.019289
   22          7             0       20.297705   -1.437448   -0.022462
   23          6             0       21.750496   -3.400011    0.007432
   24          6             0       22.971492   -2.750129    0.024273
   25          7             0       23.164759   -1.403086    0.011746
   26          1             0       24.365158   -4.487259    0.063667
   27          1             0       26.258633   -2.567146    0.060902
   28          1             0       26.196606    2.681161   -0.021941
   29          1             0       24.257801    4.555620   -0.025572
   30          1             0       21.656873    4.486863   -0.006291
   31          1             0       19.047981    4.487311    0.001512
   32          1             0       17.161989    2.561967   -0.021962
   33          1             0       17.217063   -0.050492   -0.055814
   34          1             0       17.225079   -2.663404   -0.079259
   35          1             0       19.156412   -4.543205   -0.047316
   36          1             0       21.763577   -4.480417    0.013710
   37         29             0       62.065428    0.034348   -0.008076
   38          6             0       59.545296    3.403182    0.644796
   39          6             0       58.591021    2.458964    0.466752
   40          6             0       59.277774    1.222481    0.225343
   41          6             0       58.628785    0.000234   -0.002881
   42          6             0       59.301289   -1.209841   -0.226882
   43          6             0       58.638444   -2.461417   -0.457762
   44          6             0       59.610827   -3.387998   -0.630587
   45          6             0       60.864375   -2.700407   -0.505616
   46          7             0       60.642462   -1.380227   -0.260900
   47          6             0       62.099181   -3.313050   -0.622148
   48          6             0       63.320793   -2.673281   -0.511290
   49          6             0       64.592350   -3.331873   -0.639373
   50          6             0       65.541138   -2.382052   -0.474789
   51          6             0       64.850383   -1.142002   -0.245345
   52          7             0       63.509941   -1.350722   -0.272724
   53          6             0       65.479870    0.071716   -0.031308
   54          6             0       64.826945    1.270735    0.194920
   55          6             0       65.493534    2.524755    0.419922
   56          6             0       64.526610    3.452224    0.605112
   57          6             0       63.268133    2.766312    0.492199
   58          7             0       63.482765    1.449518    0.243513
   59          6             0       62.034542    3.378971    0.621694
   60          6             0       60.811825    2.741619    0.510684
   61          7             0       60.615366    1.418955    0.257761
   62          1             0       59.422194    4.449437    0.847829
   63          1             0       57.524086    2.567105    0.493782
   64          1             0       57.573693   -2.590691   -0.480832
   65          1             0       59.508025   -4.438022   -0.825205
   66          1             0       62.109108   -4.375801   -0.816984
   67          1             0       64.717945   -4.380363   -0.829752
   68          1             0       66.608585   -2.487687   -0.501552
   69          1             0       66.560039    0.083822   -0.039939
   70          1             0       66.558670    2.654024    0.430664
   71          1             0       64.631790    4.502218    0.799549
   72          1             0       62.024000    4.440390    0.823618
   73          6             0       26.545063    0.059068    0.006149
   74          6             0       27.763310    0.067186    0.001131
   75          6             0       29.104738    0.073073   -0.001551
   76          6             0       30.323064    0.068446   -0.003465
   77          6             0       39.999258    0.045063   -0.020754
   78          6             0       41.217671    0.041743   -0.020516
   79          6             0       42.558490    0.036915   -0.020078
   80          6             0       43.776903    0.032900   -0.018704
   81          6             0       53.453394   -0.011302   -0.010427
   82          6             0       54.671594   -0.011835   -0.010241
   83          6             0       56.013219   -0.012075   -0.007099
   84          6             0       57.231288   -0.010935   -0.006179
   85         29             0       35.161535    0.057030   -0.015276
   86          6             0       32.665049   -3.369087    0.378254
   87          6             0       31.702461   -2.422157    0.272732
   88          6             0       32.378783   -1.164998    0.128458
   89          6             0       31.719617    0.066109   -0.008069
   90          6             0       32.384267    1.293698   -0.147992
   91          6             0       31.713965    2.554171   -0.289643
   92          6             0       32.680962    3.495914   -0.401440
   93          6             0       33.937947    2.808032   -0.326856
   94          7             0       33.723792    1.472910   -0.172820
   95          6             0       35.169247    3.433198   -0.403440
   96          6             0       36.397582    2.801325   -0.334399
   97          6             0       37.657784    3.482365   -0.416754
   98          6             0       38.620323    2.535580   -0.308994
   99          6             0       37.944005    1.279051   -0.161132
  100          7             0       36.605410    1.465240   -0.179804
  101          6             0       38.603136    0.048561   -0.018943
  102          6             0       37.938414   -1.178961    0.123654
  103          6             0       38.608874   -2.439103    0.268595
  104          6             0       37.641857   -3.381239    0.377110
  105          6             0       36.384885   -2.693909    0.297974
  106          7             0       36.598974   -1.358673    0.144525
  107          6             0       35.153486   -3.319513    0.369782
  108          6             0       33.925226   -2.687692    0.298784
  109          7             0       33.717399   -1.351289    0.147220
  110          1             0       32.551297   -4.428961    0.498747
  111          1             0       30.636506   -2.541201    0.288494
  112          1             0       30.648548    2.678814   -0.300717
  113          1             0       32.572120    4.556300   -0.523023
  114          1             0       35.171865    4.506744   -0.527472
  115          1             0       37.771640    4.541967   -0.540211
  116          1             0       39.686301    2.654554   -0.325444
  117          1             0       39.674289   -2.563384    0.283040
  118          1             0       37.750750   -4.441493    0.499260
  119          1             0       35.150814   -4.393209    0.492471
  120         29             0       48.614689    0.010581   -0.017572
  121          6             0       46.110116   -3.407637    0.393365
  122          6             0       45.149797   -2.459110    0.281197
  123          6             0       45.829127   -1.204698    0.128866
  124          6             0       45.173026    0.026770   -0.018837
  125          6             0       45.840778    1.252174   -0.165170
  126          6             0       45.173369    2.513175   -0.316023
  127          6             0       46.142625    3.452885   -0.425569
  128          6             0       47.397959    2.763154   -0.341327
  129          7             0       47.180647    1.428894   -0.184092
  130          6             0       48.630844    3.386096   -0.410812
  131          6             0       49.857642    2.752146   -0.333075
  132          6             0       51.119476    3.431079   -0.408062
  133          6             0       52.079801    2.482658   -0.295578
  134          6             0       51.400581    1.226986   -0.152611
  135          7             0       50.062297    1.415713   -0.177854
  136          6             0       52.056550   -0.005625   -0.015501
  137          6             0       51.388853   -1.232088    0.119063
  138          6             0       52.056183   -2.494285    0.261260
  139          6             0       51.086886   -3.433618    0.373016
  140          6             0       49.831536   -2.742678    0.298443
  141          7             0       50.048862   -1.408234    0.142983
  142          6             0       48.598814   -3.364596    0.378308
  143          6             0       47.371936   -2.729915    0.308516
  144          7             0       47.167299   -1.393934    0.149036
  145          1             0       45.993666   -4.466424    0.521153
  146          1             0       44.083512   -2.575561    0.297465
  147          1             0       44.108258    2.639637   -0.332987
  148          1             0       46.036305    4.512974   -0.551306
  149          1             0       48.636059    4.459448   -0.536382
  150          1             0       51.235807    4.490517   -0.530666
  151          1             0       53.146064    2.599838   -0.307323
  152          1             0       53.121275   -2.621366    0.272670
  153          1             0       51.193077   -4.494169    0.495010
  154          1             0       48.593774   -4.437747    0.505610
 --------------------------------------------------------------------
     1 basis functions        1 primitive gaussians
     1 alpha electrons        1 beta electrons

 Harmonic frequencies (cm**-1), IR intensities (km*mol⁻¹),
 Raman scattering activities (A**4/amu), Raman depolarization ratios,
 reduced masses (AMU), force constants (mDyne/A) and normal coordinates:
                      1                      2                      3
                        a                      a                      a 
 Frequencies --    -5.1157                -2.0998                -0.5974
 Red. masses --    15.9298                12.1019                19.4822
 Frc consts  --     0.0000                 0.0000                 0.0000
 IR Inten    --  1099.7737                37.6957                 0.0374
 Raman Activ --     0.0000                 0.0000                 0.0000
 Depolar     --     0.0000                 0.0000                 0.0000
 Atom AN      X      Y      Z        X      Y      Z        X      Y      Z
   1  29    -0.00   0.16   0.01     0.00   0.07  -0.01    -0.00   0.00  -0.20
   2   6    -0.04   0.03   0.03    -0.02   0.01  -0.11    -0.00  -0.00  -0.06
   3   6    -0.03   0.02   0.02    -0.01   0.01  -0.08    -0.00  -0.00  -0.04
   4   6    -0.02   0.03   0.01    -0.01   0.01  -0.04    -0.00  -0.00  -0.05
   5   6    -0.00   0.02  -0.00     0.00   0.01  -0.00    -0.00  -0.00  -0.04
   6   6     0.02   0.03  -0.01     0.01   0.01   0.04     0.00  -0.00  -0.04
   7   6     0.03   0.03  -0.02     0.02   0.01   0.08     0.00  -0.00  -0.03
   8   6     0.04   0.04  -0.03     0.02   0.02   0.11     0.00  -0.00  -0.04
   9   6     0.03   0.05  -0.02     0.02   0.02   0.08     0.00   0.00  -0.06
  10   7     0.02   0.06  -0.01     0.01   0.02   0.05     0.00   0.00  -0.07
  11   6     0.04   0.07  -0.03     0.02   0.03   0.10     0.00   0.00  -0.08
  12   6     0.03   0.09  -0.02     0.02   0.04   0.08     0.00   0.00  -0.10
  13   6     0.04   0.10  -0.02     0.02   0.04   0.10     0.00   0.00  -0.11
  14   6     0.03   0.11  -0.01     0.01   0.05   0.08     0.00   0.00  -0.13
  15   6     0.01   0.11   0.00     0.01   0.04   0.04     0.00   0.00  -0.13
  16   7     0.02   0.10  -0.01     0.01   0.04   0.04     0.00   0.00  -0.11
  17   6    -0.00   0.11   0.01    -0.00   0.05  -0.00     0.00   0.00  -0.14
  18   6    -0.02   0.10   0.02    -0.01   0.04  -0.04    -0.00   0.00  -0.13
  19   6    -0.04   0.11   0.04    -0.01   0.05  -0.08    -0.00   0.00  -0.15
  20   6    -0.05   0.10   0.04    -0.02   0.04  -0.11    -0.00   0.00  -0.13
  21   6    -0.04   0.08   0.03    -0.02   0.04  -0.09    -0.00   0.00  -0.11
  22   7    -0.02   0.09   0.02    -0.01   0.04  -0.05    -0.00   0.00  -0.12
  23   6    -0.05   0.07   0.03    -0.02   0.03  -0.11    -0.00   0.00  -0.10
  24   6    -0.04   0.05   0.02    -0.02   0.02  -0.09    -0.00   0.00  -0.08
  25   7    -0.02   0.05   0.01    -0.01   0.02  -0.05    -0.00   0.00  -0.08
  26   1    -0.02   0.01   0.01    -0.01   0.00  -0.04    -0.00  -0.00  -0.02
  27   1    -0.01   0.00   0.00    -0.00  -0.00  -0.03    -0.00  -0.00  -0.01
  28   1     0.01   0.00  -0.01     0.00   0.00   0.02     0.00  -0.00  -0.00
  29   1     0.02   0.01  -0.01     0.01   0.00   0.04     0.00  -0.00  -0.01
  30   1     0.02   0.02  -0.01     0.01   0.01   0.04     0.00   0.00  -0.02
  31   1     0.02   0.03  -0.01     0.01   0.01   0.04     0.00   0.00  -0.03
  32   1     0.01   0.04  -0.00     0.00   0.02   0.02     0.00   0.00  -0.04
  33   1    -0.00   0.04   0.01    -0.00   0.02  -0.00     0.00   0.00  -0.04
  34   1    -0.01   0.04   0.01    -0.00   0.02  -0.02    -0.00   0.00  -0.05
  35   1    -0.02   0.03   0.02    -0.01   0.01  -0.04    -0.00   0.00  -0.04
  36   1    -0.02   0.02   0.01    -0.01   0.01  -0.04    -0.00   0.00  -0.03
  37  29     0.00   0.14   0.01    -0.00   0.06  -0.01     0.00   0.00  -0.20
  38   6    -0.02   0.02   0.14    -0.02   0.05  -0.16     0.01  -0.00  -0.04
  39   6    -0.01   0.02   0.10    -0.01   0.03  -0.12     0.01  -0.00  -0.03
  40   6    -0.01   0.03   0.05    -0.01   0.02  -0.06     0.00  -0.00  -0.04
  41   6     0.00   0.04   0.00    -0.00   0.01  -0.00     0.00  -0.00  -0.04
  42   6     0.01   0.05  -0.05     0.01   0.00   0.06    -0.00   0.00  -0.05
  43   6     0.02   0.06  -0.10     0.01  -0.01   0.11    -0.00   0.00  -0.05
  44   6     0.03   0.07  -0.13     0.02  -0.01   0.16    -0.01   0.00  -0.07
  45   6     0.02   0.08  -0.11     0.01  -0.00   0.12    -0.01   0.00  -0.08
  46   7     0.01   0.07  -0.06     0.01   0.01   0.07    -0.00   0.00  -0.08
  47   6     0.02   0.09  -0.13     0.01  -0.00   0.15    -0.01   0.00  -0.10
  48   6     0.02   0.09  -0.11     0.01   0.01   0.12    -0.01   0.00  -0.12
  49   6     0.02   0.11  -0.13     0.02   0.01   0.15    -0.01   0.01  -0.14
  50   6     0.02   0.10  -0.09     0.01   0.02   0.10    -0.00   0.01  -0.15
  51   6     0.01   0.09  -0.04     0.00   0.03   0.05    -0.00   0.00  -0.13
  52   7     0.01   0.09  -0.06     0.01   0.02   0.06    -0.00   0.00  -0.12
  53   6     0.00   0.08   0.01    -0.00   0.04  -0.01     0.00   0.00  -0.13
  54   6    -0.01   0.07   0.05    -0.01   0.05  -0.07     0.00   0.00  -0.12
  55   6    -0.02   0.07   0.10    -0.01   0.06  -0.13     0.00   0.00  -0.12
  56   6    -0.02   0.05   0.14    -0.02   0.07  -0.17     0.01   0.00  -0.11
  57   6    -0.02   0.05   0.11    -0.01   0.06  -0.13     0.01  -0.00  -0.09
  58   7    -0.01   0.06   0.07    -0.01   0.05  -0.08     0.00   0.00  -0.11
  59   6    -0.02   0.03   0.14    -0.02   0.06  -0.16     0.01  -0.00  -0.07
  60   6    -0.02   0.03   0.11    -0.01   0.05  -0.13     0.01  -0.00  -0.06
  61   7    -0.01   0.04   0.06    -0.01   0.04  -0.07     0.00  -0.00  -0.06
  62   1    -0.01   0.00   0.05    -0.01   0.02  -0.06     0.00  -0.00  -0.01
  63   1    -0.00   0.00   0.03    -0.00   0.01  -0.03     0.00  -0.00  -0.00
  64   1     0.01   0.02  -0.03     0.00  -0.00   0.03    -0.00   0.00  -0.01
  65   1     0.01   0.02  -0.05     0.01  -0.01   0.06    -0.00   0.00  -0.02
  66   1     0.01   0.03  -0.05     0.01  -0.00   0.06    -0.00   0.00  -0.03
  67   1     0.01   0.03  -0.05     0.01   0.00   0.06    -0.00   0.00  -0.04
  68   1     0.00   0.03  -0.03     0.00   0.01   0.03    -0.00   0.00  -0.05
  69   1     0.00   0.03   0.00    -0.00   0.01  -0.00    -0.00   0.00  -0.04
  70   1    -0.01   0.02   0.03    -0.00   0.02  -0.04     0.00   0.00  -0.04
  71   1    -0.01   0.01   0.05    -0.01   0.02  -0.06     0.00  -0.00  -0.03
  72   1    -0.01   0.01   0.05    -0.01   0.02  -0.06     0.00  -0.00  -0.02
  73   6    -0.00   0.01  -0.00     0.00   0.00  -0.00    -0.00  -0.00  -0.02
  74   6    -0.00  -0.01  -0.00     0.00  -0.01  -0.00    -0.00  -0.00  -0.00
  75   6    -0.00  -0.02  -0.00     0.00  -0.01  -0.00    -0.00  -0.00   0.02
  76   6    -0.00  -0.04  -0.00     0.00  -0.02  -0.00    -0.00  -0.00   0.03
  77   6     0.00  -0.10  -0.00     0.00  -0.04   0.00    -0.00  -0.00   0.11
  78   6     0.00  -0.10  -0.00     0.00  -0.04   0.01    -0.00  -0.00   0.11
  79   6     0.00  -0.10  -0.00     0.00  -0.04   0.01    -0.00  -0.00   0.11
  80   6     0.00  -0.09  -0.00     0.00  -0.04   0.01    -0.00  -0.00   0.10
  81   6     0.00  -0.01  -0.00    -0.00  -0.01   0.00     0.00  -0.00   0.03
  82   6     0.00   0.01  -0.00    -0.00  -0.01   0.00     0.00  -0.00   0.01
  83   6     0.00   0.02   0.00    -0.00  -0.00   0.00     0.00  -0.00  -0.00
  84   6     0.00   0.03   0.00    -0.00   0.00   0.00     0.00  -0.00  -0.02
  85  29    -0.00  -0.16  -0.01     0.00  -0.06   0.00    -0.00  -0.00   0.19
  86   6    -0.02  -0.05   0.01    -0.01  -0.04  -0.15    -0.00   0.00   0.09
  87   6    -0.02  -0.04   0.01    -0.01  -0.03  -0.11    -0.00   0.00   0.07
  88   6    -0.01  -0.05   0.00    -0.00  -0.03  -0.05    -0.00   0.00   0.06
  89   6    -0.00  -0.05  -0.01     0.00  -0.02   0.00    -0.00  -0.00   0.05
  90   6     0.01  -0.05  -0.01     0.00  -0.01   0.05     0.00  -0.00   0.05
  91   6     0.02  -0.05  -0.02     0.01  -0.01   0.11     0.00  -0.00   0.04
  92   6     0.02  -0.05  -0.02     0.01  -0.00   0.15     0.00  -0.00   0.04
  93   6     0.02  -0.06  -0.02     0.01  -0.01   0.12     0.00  -0.00   0.06
  94   7     0.01  -0.06  -0.01     0.00  -0.02   0.07     0.00  -0.00   0.07
  95   6     0.02  -0.07  -0.02     0.01  -0.01   0.14     0.00  -0.00   0.06
  96   6     0.02  -0.08  -0.02     0.01  -0.02   0.12     0.00  -0.00   0.08
  97   6     0.02  -0.09  -0.02     0.01  -0.01   0.15     0.00  -0.00   0.08
  98   6     0.02  -0.09  -0.02     0.01  -0.02   0.11     0.00  -0.00   0.09
  99   6     0.01  -0.09  -0.01     0.00  -0.03   0.05     0.00  -0.00   0.09
 100   7     0.01  -0.08  -0.01     0.00  -0.02   0.07     0.00  -0.00   0.09
 101   6     0.00  -0.09  -0.00     0.00  -0.03   0.00    -0.00  -0.00   0.10
 102   6    -0.01  -0.08   0.00    -0.00  -0.04  -0.05    -0.00  -0.00   0.11
 103   6    -0.02  -0.09   0.01    -0.00  -0.05  -0.10    -0.00   0.00   0.12
 104   6    -0.02  -0.08   0.01    -0.01  -0.05  -0.14    -0.00   0.00   0.12
 105   6    -0.02  -0.07   0.01    -0.01  -0.04  -0.11    -0.00   0.00   0.11
 106   7    -0.01  -0.08   0.00    -0.00  -0.04  -0.06    -0.00   0.00   0.11
 107   6    -0.02  -0.07   0.01    -0.01  -0.04  -0.14    -0.00   0.00   0.11
 108   6    -0.02  -0.06   0.01    -0.01  -0.04  -0.12    -0.00   0.00   0.09
 109   7    -0.01  -0.06   0.00    -0.00  -0.03  -0.06    -0.00   0.00   0.09
 110   1    -0.01  -0.01   0.00    -0.00  -0.01  -0.06    -0.00   0.00   0.03
 111   1    -0.00  -0.01   0.00    -0.00  -0.01  -0.03    -0.00   0.00   0.02
 112   1     0.00  -0.01  -0.01     0.00  -0.00   0.03     0.00  -0.00   0.01
 113   1     0.01  -0.02  -0.01     0.00   0.00   0.06     0.00  -0.00   0.01
 114   1     0.01  -0.02  -0.01     0.00  -0.00   0.05     0.00  -0.00   0.02
 115   1     0.01  -0.03  -0.01     0.00  -0.00   0.05     0.00  -0.00   0.02
 116   1     0.00  -0.03  -0.01     0.00  -0.01   0.03     0.00  -0.00   0.03
 117   1    -0.00  -0.03   0.00    -0.00  -0.01  -0.03    -0.00   0.00   0.04
 118   1    -0.01  -0.02   0.01    -0.00  -0.02  -0.05    -0.00   0.00   0.04
 119   1    -0.01  -0.02   0.00    -0.00  -0.01  -0.05    -0.00   0.00   0.03
 120  29     0.00  -0.11  -0.00     0.00  -0.05   0.02     0.00  -0.00   0.18
 121   6     0.03  -0.06   0.09     0.01  -0.02   0.10     0.00  -0.00   0.11
 122   6     0.02  -0.07   0.06     0.01  -0.02   0.07     0.00  -0.00   0.11
 123   6     0.01  -0.07   0.03     0.00  -0.03   0.04     0.00  -0.00   0.10
 124   6     0.00  -0.08  -0.00     0.00  -0.03   0.01    -0.00  -0.00   0.10
 125   6    -0.01  -0.08  -0.03    -0.00  -0.03  -0.02    -0.00  -0.00   0.10
 126   6    -0.02  -0.09  -0.07    -0.01  -0.04  -0.06    -0.00  -0.00   0.10
 127   6    -0.03  -0.08  -0.09    -0.01  -0.04  -0.08    -0.00  -0.00   0.09
 128   6    -0.02  -0.07  -0.08    -0.01  -0.04  -0.07    -0.00  -0.00   0.09
 129   7    -0.01  -0.07  -0.04    -0.00  -0.03  -0.03    -0.00  -0.00   0.09
 130   6    -0.03  -0.06  -0.09    -0.01  -0.03  -0.08    -0.00  -0.00   0.08
 131   6    -0.02  -0.05  -0.07    -0.01  -0.03  -0.07    -0.00  -0.00   0.07
 132   6    -0.03  -0.04  -0.09    -0.01  -0.03  -0.09    -0.00  -0.00   0.06
 133   6    -0.02  -0.03  -0.06    -0.01  -0.02  -0.06    -0.00  -0.00   0.05
 134   6    -0.01  -0.03  -0.03    -0.00  -0.02  -0.03    -0.00  -0.00   0.05
 135   7    -0.01  -0.04  -0.04    -0.00  -0.03  -0.04    -0.00  -0.00   0.07
 136   6     0.00  -0.02  -0.00    -0.00  -0.01   0.01     0.00  -0.00   0.04
 137   6     0.01  -0.02   0.03     0.00  -0.01   0.04     0.00  -0.00   0.05
 138   6     0.02  -0.01   0.06     0.01  -0.01   0.08     0.00  -0.00   0.05
 139   6     0.03  -0.02   0.09     0.01  -0.01   0.10     0.00  -0.00   0.06
 140   6     0.03  -0.03   0.07     0.01  -0.01   0.08     0.00  -0.00   0.07
 141   7     0.01  -0.04   0.04     0.00  -0.02   0.05     0.00  -0.00   0.07
 142   6     0.03  -0.04   0.09     0.01  -0.01   0.10     0.00   0.00   0.09
 143   6     0.03  -0.05   0.07     0.01  -0.02   0.08     0.00  -0.00   0.10
 144   7     0.01  -0.06   0.04     0.01  -0.02   0.05     0.00  -0.00   0.10
 145   1     0.01  -0.02   0.03     0.00  -0.00   0.04     0.00   0.00   0.03
 146   1     0.01  -0.02   0.02     0.00  -0.01   0.02     0.00  -0.00   0.03
 147   1    -0.01  -0.03  -0.02    -0.00  -0.01  -0.02    -0.00  -0.00   0.03
 148   1    -0.01  -0.03  -0.04    -0.00  -0.01  -0.03    -0.00  -0.00   0.03
 149   1    -0.01  -0.02  -0.03    -0.00  -0.01  -0.03    -0.00  -0.00   0.02
 150   1    -0.01  -0.01  -0.03    -0.00  -0.01  -0.03    -0.00  -0.00   0.02
 151   1    -0.01  -0.00  -0.02    -0.00  -0.01  -0.02    -0.00  -0.00   0.01
 152   1     0.01  -0.00   0.02     0.00  -0.00   0.02     0.00  -0.00   0.01
 153   1     0.01  -0.00   0.03     0.00  -0.00   0.04     0.00   0.00   0.02
 154   1     0.01  -0.01   0.03     0.00  -0.00   0.04     0.00   0.00   0.03
                      4                      5                      6
                        a                      a                      a 
 Frequencies --     2.4364                 2.5732                 2.8672
 Red. masses --    13.3171                11.4720                18.7827
 Frc consts  --     0.0000                 0.0000                 0.0000
 IR Inten    --    53.9137                65.3405                 0.0612
 Raman Activ --     0.0000                 0.0000                 0.0000
 Depolar     --     0.0000                 0.0000                 0.0000
 Atom AN      X      Y      Z        X      Y      Z        X      Y      Z
   1  29     0.00   0.09   0.01     0.00   0.01   0.01     0.00  -0.01   0.09
   2   6    -0.02   0.03   0.05     0.01   0.01  -0.19     0.00  -0.00  -0.04
   3   6    -0.01   0.02   0.04     0.01   0.01  -0.13     0.00  -0.00  -0.05
   4   6    -0.01   0.03   0.02     0.00   0.01  -0.06     0.00  -0.00  -0.03
   5   6     0.00   0.02  -0.00     0.00   0.01   0.01     0.00  -0.00  -0.03
   6   6     0.01   0.02  -0.02    -0.00   0.01   0.08     0.00  -0.00  -0.01
   7   6     0.01   0.02  -0.04    -0.01   0.01   0.15     0.00  -0.00  -0.02
   8   6     0.02   0.03  -0.06    -0.01   0.01   0.20     0.00  -0.00   0.01
   9   6     0.02   0.03  -0.04    -0.01   0.01   0.17     0.00  -0.00   0.03
  10   7     0.01   0.03  -0.02    -0.00   0.01   0.09     0.00  -0.00   0.02
  11   6     0.02   0.04  -0.05    -0.01   0.00   0.20     0.00  -0.00   0.06
  12   6     0.02   0.05  -0.04    -0.01   0.00   0.17     0.00  -0.00   0.08
  13   6     0.02   0.05  -0.05    -0.01  -0.00   0.21     0.00  -0.00   0.11
  14   6     0.01   0.06  -0.03    -0.01  -0.01   0.15     0.00  -0.00   0.12
  15   6     0.01   0.06  -0.01    -0.00  -0.00   0.07     0.00  -0.00   0.10
  16   7     0.01   0.05  -0.02    -0.00   0.00   0.09     0.00  -0.00   0.08
  17   6     0.00   0.06   0.01     0.00  -0.00   0.00    -0.00  -0.00   0.11
  18   6    -0.01   0.06   0.02     0.00  -0.00  -0.07    -0.00  -0.00   0.09
  19   6    -0.01   0.06   0.05     0.01  -0.00  -0.15    -0.00  -0.00   0.09
  20   6    -0.02   0.05   0.06     0.01  -0.00  -0.20    -0.00  -0.00   0.07
  21   6    -0.02   0.05   0.05     0.01   0.00  -0.16    -0.00  -0.00   0.04
  22   7    -0.01   0.05   0.03     0.01  -0.00  -0.09    -0.00  -0.00   0.06
  23   6    -0.02   0.04   0.06     0.01   0.00  -0.20    -0.00  -0.00   0.01
  24   6    -0.02   0.03   0.05     0.01   0.01  -0.15    -0.00  -0.00  -0.01
  25   7    -0.01   0.04   0.03     0.01   0.01  -0.08     0.00  -0.00  -0.00
  26   1    -0.01   0.01   0.02     0.00   0.00  -0.07     0.00  -0.00  -0.01
  27   1    -0.00   0.00   0.01     0.00   0.00  -0.04     0.00  -0.00  -0.02
  28   1     0.00   0.00  -0.01    -0.00   0.01   0.05     0.00  -0.00  -0.01
  29   1     0.01   0.01  -0.02    -0.00   0.00   0.08     0.00  -0.00   0.00
  30   1     0.01   0.01  -0.02    -0.00   0.00   0.08     0.00  -0.00   0.02
  31   1     0.01   0.02  -0.02    -0.00  -0.00   0.08     0.00  -0.00   0.03
  32   1     0.00   0.02  -0.01    -0.00  -0.00   0.04     0.00  -0.00   0.04
  33   1     0.00   0.02   0.00     0.00  -0.00  -0.00    -0.00  -0.00   0.04
  34   1    -0.00   0.02   0.01     0.00  -0.00  -0.05    -0.00  -0.00   0.03
  35   1    -0.01   0.02   0.02     0.00  -0.00  -0.08    -0.00  -0.00   0.02
  36   1    -0.01   0.01   0.02     0.00   0.00  -0.07    -0.00  -0.00   0.00
  37  29    -0.00   0.10  -0.01    -0.00   0.03   0.02    -0.00  -0.02  -0.09
  38   6    -0.03   0.04  -0.10    -0.02   0.00  -0.01     0.02  -0.01   0.02
  39   6    -0.03   0.02  -0.07    -0.02  -0.01  -0.01     0.01  -0.00   0.04
  40   6    -0.01   0.02  -0.03    -0.01  -0.00  -0.00     0.01  -0.00   0.02
  41   6    -0.00   0.01   0.00    -0.00  -0.01   0.00    -0.00  -0.00   0.03
  42   6     0.01   0.01   0.04     0.01  -0.00   0.01    -0.01  -0.00   0.01
  43   6     0.02  -0.00   0.07     0.01  -0.01   0.01    -0.01  -0.00   0.02
  44   6     0.03   0.00   0.10     0.02  -0.00   0.02    -0.02  -0.00   0.00
  45   6     0.03   0.02   0.08     0.01   0.00   0.02    -0.02  -0.01  -0.02
  46   7     0.01   0.02   0.04     0.01   0.00   0.01    -0.01  -0.01  -0.01
  47   6     0.03   0.03   0.10     0.02   0.01   0.02    -0.02  -0.01  -0.05
  48   6     0.03   0.04   0.07     0.02   0.02   0.02    -0.02  -0.01  -0.07
  49   6     0.03   0.05   0.09     0.02   0.02   0.03    -0.02  -0.01  -0.10
  50   6     0.02   0.07   0.06     0.01   0.03   0.02    -0.01  -0.01  -0.12
  51   6     0.01   0.07   0.02     0.01   0.03   0.02    -0.01  -0.01  -0.10
  52   7     0.01   0.06   0.03     0.01   0.02   0.02    -0.01  -0.01  -0.08
  53   6    -0.00   0.08  -0.02    -0.00   0.03   0.02    -0.00  -0.01  -0.11
  54   6    -0.01   0.08  -0.05    -0.01   0.03   0.01     0.01  -0.01  -0.09
  55   6    -0.03   0.10  -0.09    -0.01   0.03   0.01     0.01  -0.02  -0.10
  56   6    -0.03   0.09  -0.12    -0.02   0.03   0.00     0.02  -0.02  -0.08
  57   6    -0.03   0.07  -0.09    -0.02   0.02   0.00     0.02  -0.01  -0.05
  58   7    -0.02   0.07  -0.06    -0.01   0.02   0.01     0.01  -0.01  -0.07
  59   6    -0.03   0.06  -0.11    -0.02   0.01  -0.00     0.02  -0.01  -0.03
  60   6    -0.03   0.05  -0.08    -0.02   0.01  -0.00     0.02  -0.01  -0.00
  61   7    -0.02   0.04  -0.05    -0.01   0.01   0.00     0.01  -0.01  -0.00
  62   1    -0.01   0.01  -0.04    -0.01   0.00  -0.00     0.01  -0.00   0.01
  63   1    -0.01   0.00  -0.02    -0.00  -0.00  -0.00     0.00  -0.00   0.02
  64   1     0.01  -0.00   0.02     0.00  -0.00   0.00    -0.00   0.00   0.01
  65   1     0.01  -0.00   0.04     0.01  -0.00   0.01    -0.01  -0.00   0.00
  66   1     0.01   0.01   0.04     0.01   0.00   0.01    -0.01  -0.00  -0.01
  67   1     0.01   0.01   0.04     0.01   0.01   0.01    -0.01  -0.00  -0.03
  68   1     0.01   0.02   0.02     0.00   0.01   0.01    -0.00  -0.00  -0.04
  69   1    -0.00   0.03  -0.01    -0.00   0.01   0.01    -0.00  -0.00  -0.04
  70   1    -0.01   0.03  -0.03    -0.00   0.01   0.00     0.00  -0.01  -0.04
  71   1    -0.01   0.03  -0.04    -0.01   0.01  -0.00     0.01  -0.00  -0.02
  72   1    -0.01   0.02  -0.04    -0.01   0.00  -0.00     0.01  -0.00  -0.01
  73   6     0.00   0.01  -0.00     0.00   0.02   0.01     0.00  -0.00  -0.05
  74   6     0.00   0.01  -0.01     0.00   0.02   0.01     0.00  -0.01  -0.07
  75   6     0.00  -0.00  -0.01     0.00   0.02   0.01     0.00  -0.01  -0.09
  76   6     0.00  -0.01  -0.01     0.00   0.02   0.01     0.00  -0.01  -0.10
  77   6    -0.00  -0.05  -0.00    -0.00  -0.01  -0.01     0.00   0.00  -0.04
  78   6    -0.00  -0.06   0.00    -0.00  -0.01  -0.01     0.00   0.01  -0.01
  79   6    -0.00  -0.06   0.00    -0.00  -0.01  -0.01     0.00   0.01   0.01
  80   6    -0.00  -0.06   0.01    -0.00  -0.01  -0.01     0.00   0.01   0.04
  81   6    -0.00  -0.03   0.01    -0.00  -0.02  -0.01    -0.00   0.01   0.10
  82   6    -0.00  -0.02   0.01    -0.00  -0.02  -0.01    -0.00   0.01   0.09
  83   6    -0.00  -0.02   0.01    -0.00  -0.02  -0.00    -0.00   0.00   0.07
  84   6    -0.00  -0.01   0.01    -0.00  -0.01  -0.00    -0.00   0.00   0.05
  85  29     0.00  -0.07  -0.02     0.00   0.01   0.00     0.00  -0.01  -0.24
  86   6    -0.02  -0.01   0.03    -0.01   0.03   0.18     0.00  -0.01  -0.12
  87   6    -0.01  -0.01   0.02    -0.00   0.03   0.13     0.00  -0.01  -0.11
  88   6    -0.01  -0.02   0.00    -0.00   0.02   0.07     0.00  -0.01  -0.11
  89   6     0.00  -0.02  -0.01     0.00   0.01   0.01     0.00  -0.01  -0.11
  90   6     0.01  -0.02  -0.03     0.00   0.00  -0.06    -0.00  -0.01  -0.12
  91   6     0.01  -0.02  -0.04     0.01  -0.00  -0.12    -0.00  -0.01  -0.13
  92   6     0.02  -0.03  -0.05     0.01  -0.01  -0.17    -0.00  -0.01  -0.14
  93   6     0.01  -0.03  -0.04     0.01  -0.01  -0.14    -0.00  -0.01  -0.13
  94   7     0.01  -0.03  -0.03     0.00  -0.00  -0.08    -0.00  -0.01  -0.13
  95   6     0.02  -0.04  -0.05     0.01  -0.02  -0.18    -0.00  -0.01  -0.13
  96   6     0.01  -0.04  -0.04     0.00  -0.02  -0.15    -0.00  -0.01  -0.12
  97   6     0.02  -0.05  -0.04     0.01  -0.02  -0.19    -0.00  -0.00  -0.11
  98   6     0.01  -0.05  -0.03     0.00  -0.02  -0.14    -0.00  -0.00  -0.08
  99   6     0.01  -0.05  -0.02     0.00  -0.01  -0.07    -0.00  -0.00  -0.08
 100   7     0.01  -0.04  -0.03     0.00  -0.01  -0.08    -0.00  -0.00  -0.11
 101   6    -0.00  -0.05  -0.00    -0.00  -0.00  -0.00     0.00   0.00  -0.06
 102   6    -0.01  -0.04   0.01    -0.00   0.01   0.06     0.00  -0.00  -0.07
 103   6    -0.01  -0.05   0.02    -0.01   0.01   0.13     0.00   0.00  -0.06
 104   6    -0.02  -0.04   0.03    -0.01   0.02   0.18     0.00  -0.00  -0.08
 105   6    -0.01  -0.03   0.02    -0.01   0.02   0.15     0.00  -0.00  -0.10
 106   7    -0.01  -0.04   0.01    -0.00   0.01   0.08     0.00  -0.00  -0.10
 107   6    -0.02  -0.03   0.03    -0.01   0.03   0.18     0.00  -0.01  -0.11
 108   6    -0.01  -0.02   0.02    -0.00   0.02   0.15     0.00  -0.01  -0.11
 109   7    -0.01  -0.02   0.01    -0.00   0.02   0.08     0.00  -0.01  -0.12
 110   1    -0.01  -0.00   0.01    -0.00   0.01   0.07     0.00  -0.00  -0.03
 111   1    -0.00  -0.00   0.01    -0.00   0.01   0.04     0.00  -0.00  -0.03
 112   1     0.00  -0.00  -0.01     0.00  -0.00  -0.04    -0.00  -0.00  -0.04
 113   1     0.01  -0.01  -0.02     0.00  -0.01  -0.07    -0.00  -0.00  -0.04
 114   1     0.01  -0.01  -0.02     0.00  -0.01  -0.07    -0.00  -0.00  -0.04
 115   1     0.01  -0.01  -0.02     0.00  -0.01  -0.07    -0.00  -0.00  -0.03
 116   1     0.00  -0.02  -0.01     0.00  -0.01  -0.04    -0.00   0.00  -0.02
 117   1    -0.00  -0.01   0.01    -0.00   0.00   0.04     0.00   0.00  -0.01
 118   1    -0.01  -0.01   0.01    -0.00   0.01   0.07     0.00  -0.00  -0.02
 119   1    -0.01  -0.01   0.01    -0.00   0.01   0.07     0.00  -0.00  -0.03
 120  29     0.00  -0.10   0.03    -0.00  -0.04  -0.03    -0.00   0.04   0.24
 121   6     0.01  -0.08  -0.19    -0.00  -0.02  -0.01    -0.00   0.02   0.11
 122   6     0.01  -0.07  -0.13    -0.00  -0.01  -0.01    -0.00   0.02   0.08
 123   6     0.00  -0.06  -0.06    -0.00  -0.02  -0.01    -0.00   0.02   0.08
 124   6    -0.00  -0.05   0.01    -0.00  -0.01  -0.01     0.00   0.01   0.06
 125   6    -0.00  -0.04   0.08     0.00  -0.02  -0.02     0.00   0.01   0.07
 126   6    -0.01  -0.04   0.15     0.00  -0.02  -0.02     0.00   0.01   0.07
 127   6    -0.01  -0.03   0.21     0.00  -0.02  -0.02     0.00   0.02   0.08
 128   6    -0.01  -0.03   0.17     0.00  -0.02  -0.02     0.00   0.02   0.10
 129   7    -0.00  -0.04   0.10     0.00  -0.02  -0.02     0.00   0.02   0.10
 130   6    -0.01  -0.02   0.21     0.00  -0.02  -0.02     0.00   0.02   0.11
 131   6    -0.01  -0.02   0.17     0.00  -0.02  -0.02     0.00   0.02   0.11
 132   6    -0.01  -0.01   0.21     0.00  -0.02  -0.02     0.00   0.01   0.12
 133   6    -0.01  -0.02   0.16     0.00  -0.02  -0.01     0.00   0.01   0.11
 134   6    -0.00  -0.03   0.08     0.00  -0.02  -0.01     0.00   0.01   0.11
 135   7    -0.00  -0.03   0.10     0.00  -0.02  -0.02     0.00   0.02   0.12
 136   6     0.00  -0.03   0.01    -0.00  -0.02  -0.01    -0.00   0.01   0.11
 137   6     0.00  -0.04  -0.06    -0.00  -0.02  -0.01    -0.00   0.01   0.12
 138   6     0.01  -0.05  -0.13    -0.00  -0.02  -0.01    -0.00   0.02   0.13
 139   6     0.01  -0.06  -0.18    -0.00  -0.02  -0.01    -0.00   0.02   0.14
 140   6     0.01  -0.06  -0.14    -0.00  -0.02  -0.01    -0.00   0.02   0.13
 141   7     0.00  -0.05  -0.07    -0.00  -0.02  -0.01    -0.00   0.02   0.13
 142   6     0.01  -0.07  -0.18    -0.00  -0.02  -0.01    -0.00   0.02   0.13
 143   6     0.01  -0.07  -0.15    -0.00  -0.02  -0.01    -0.00   0.02   0.12
 144   7     0.00  -0.06  -0.08    -0.00  -0.02  -0.01    -0.00   0.02   0.11
 145   1     0.00  -0.02  -0.07    -0.00  -0.00  -0.00    -0.00   0.01   0.03
 146   1     0.00  -0.02  -0.04    -0.00  -0.00  -0.00    -0.00   0.00   0.02
 147   1    -0.00  -0.01   0.05     0.00  -0.00  -0.01     0.00   0.00   0.01
 148   1    -0.00  -0.01   0.08     0.00  -0.00  -0.01     0.00   0.00   0.02
 149   1    -0.00  -0.00   0.08     0.00  -0.01  -0.01     0.00   0.00   0.03
 150   1    -0.00  -0.00   0.08     0.00  -0.01  -0.01     0.00   0.00   0.03
 151   1    -0.00  -0.00   0.05     0.00  -0.01  -0.00     0.00   0.00   0.03
 152   1     0.00  -0.01  -0.04    -0.00  -0.01  -0.00    -0.00   0.00   0.04
 153   1     0.00  -0.02  -0.07    -0.00  -0.01  -0.00    -0.00   0.01   0.04
 154   1     0.00  -0.02  -0.07    -0.00  -0.01  -0.00    -0.00   0.01   0.04
                      7                      8                      9
                        a                      a                      a 
 Frequencies --     4.9782                 8.7655                 8.9200
 Red. masses --    15.2794                11.4948                11.5830
 Frc consts  --     0.0000                 0.0000                 0.0000
 IR Inten    --     5.7286                22.6747                 0.1038
 Raman Activ --     0.0000                 0.0000                 0.0000
 Depolar     --     0.0000                 0.0000                 0.0000
 Atom AN      X      Y      Z        X      Y      Z        X      Y      Z
   1  29     0.00  -0.06   0.01    -0.00   0.00   0.00     0.00   0.00   0.01
   2   6     0.08   0.04   0.02    -0.08  -0.06   0.05     0.03   0.03   0.11
   3   6     0.06   0.06   0.01    -0.06  -0.08   0.05     0.02   0.04   0.13
   4   6     0.03   0.04   0.00    -0.03  -0.07   0.04     0.01   0.03   0.10
   5   6     0.00   0.06  -0.01     0.00  -0.08   0.04     0.00   0.04   0.11
   6   6    -0.03   0.04  -0.01     0.03  -0.07   0.04    -0.01   0.03   0.10
   7   6    -0.06   0.06  -0.03     0.06  -0.08   0.05    -0.02   0.04   0.13
   8   6    -0.08   0.03  -0.03     0.08  -0.06   0.04    -0.03   0.03   0.11
   9   6    -0.06   0.00  -0.02     0.07  -0.03   0.02    -0.03   0.01   0.06
  10   7    -0.03   0.01  -0.01     0.04  -0.04   0.02    -0.01   0.02   0.07
  11   6    -0.08  -0.03  -0.02     0.08   0.00   0.01    -0.03   0.00   0.02
  12   6    -0.06  -0.05  -0.01     0.07   0.03  -0.02    -0.03  -0.01  -0.03
  13   6    -0.08  -0.09  -0.02     0.08   0.06  -0.04    -0.03  -0.02  -0.09
  14   6    -0.06  -0.11  -0.01     0.06   0.09  -0.06    -0.02  -0.03  -0.14
  15   6    -0.03  -0.09   0.00     0.03   0.07  -0.05    -0.01  -0.03  -0.12
  16   7    -0.03  -0.06  -0.00     0.04   0.04  -0.02    -0.01  -0.01  -0.06
  17   6     0.00  -0.11   0.01    -0.00   0.08  -0.06     0.00  -0.03  -0.15
  18   6     0.03  -0.09   0.02    -0.03   0.07  -0.04     0.02  -0.03  -0.12
  19   6     0.06  -0.11   0.03    -0.06   0.09  -0.05     0.03  -0.03  -0.14
  20   6     0.09  -0.08   0.04    -0.08   0.06  -0.03     0.04  -0.02  -0.09
  21   6     0.07  -0.05   0.03    -0.07   0.03  -0.01     0.03  -0.01  -0.03
  22   7     0.04  -0.06   0.02    -0.04   0.04  -0.02     0.02  -0.01  -0.06
  23   6     0.08  -0.02   0.03    -0.08   0.00   0.01     0.03   0.00   0.03
  24   6     0.07   0.01   0.02    -0.07  -0.03   0.03     0.03   0.01   0.07
  25   7     0.04   0.01   0.01    -0.04  -0.04   0.03     0.02   0.02   0.07
  26   1     0.03   0.01   0.01    -0.03  -0.02   0.02     0.01   0.01   0.04
  27   1     0.02   0.02   0.00    -0.02  -0.03   0.02     0.01   0.01   0.05
  28   1    -0.02   0.02  -0.01     0.02  -0.03   0.02    -0.01   0.01   0.05
  29   1    -0.03   0.01  -0.01     0.03  -0.02   0.01    -0.01   0.01   0.04
  30   1    -0.03  -0.01  -0.01     0.03   0.00   0.00    -0.01   0.00   0.01
  31   1    -0.03  -0.03  -0.01     0.03   0.02  -0.01    -0.01  -0.01  -0.03
  32   1    -0.02  -0.04  -0.00     0.02   0.03  -0.02    -0.01  -0.01  -0.06
  33   1     0.00  -0.04   0.01    -0.00   0.03  -0.02     0.00  -0.01  -0.06
  34   1     0.02  -0.04   0.01    -0.02   0.03  -0.02     0.01  -0.01  -0.06
  35   1     0.03  -0.02   0.01    -0.03   0.02  -0.01     0.01  -0.01  -0.02
  36   1     0.03  -0.01   0.01    -0.03   0.00   0.01     0.01   0.00   0.01
  37  29    -0.00   0.07  -0.01    -0.00   0.00   0.01     0.00   0.00   0.01
  38   6    -0.09  -0.04   0.03    -0.07  -0.07   0.06     0.05   0.02   0.10
  39   6    -0.06  -0.06   0.03    -0.05  -0.09   0.07     0.04   0.03   0.12
  40   6    -0.03  -0.04   0.02    -0.03  -0.07   0.05     0.02   0.02   0.09
  41   6    -0.00  -0.06   0.01    -0.00  -0.08   0.05     0.00   0.03   0.11
  42   6     0.03  -0.04  -0.00     0.02  -0.07   0.04    -0.02   0.02   0.09
  43   6     0.06  -0.06  -0.01     0.05  -0.08   0.05    -0.04   0.03   0.12
  44   6     0.08  -0.03  -0.02     0.07  -0.06   0.04    -0.05   0.02   0.10
  45   6     0.07   0.00  -0.02     0.06  -0.03   0.02    -0.04   0.01   0.06
  46   7     0.04  -0.01  -0.01     0.03  -0.04   0.03    -0.02   0.01   0.06
  47   6     0.08   0.04  -0.03     0.07   0.00   0.00    -0.05  -0.00   0.02
  48   6     0.07   0.07  -0.03     0.06   0.03  -0.02    -0.04  -0.01  -0.03
  49   6     0.08   0.10  -0.04     0.07   0.06  -0.05    -0.05  -0.02  -0.08
  50   6     0.06   0.13  -0.04     0.05   0.09  -0.08    -0.04  -0.02  -0.13
  51   6     0.03   0.11  -0.03     0.02   0.07  -0.06    -0.02  -0.02  -0.11
  52   7     0.04   0.08  -0.02     0.03   0.04  -0.03    -0.02  -0.01  -0.05
  53   6    -0.00   0.12  -0.02    -0.00   0.09  -0.07    -0.00  -0.02  -0.14
  54   6    -0.03   0.10  -0.01    -0.03   0.07  -0.05     0.02  -0.02  -0.11
  55   6    -0.06   0.12  -0.00    -0.06   0.09  -0.06     0.03  -0.02  -0.13
  56   6    -0.09   0.09   0.01    -0.07   0.06  -0.03     0.05  -0.02  -0.08
  57   6    -0.07   0.06   0.01    -0.06   0.03  -0.01     0.04  -0.01  -0.03
  58   7    -0.04   0.07  -0.00    -0.03   0.04  -0.02     0.02  -0.01  -0.05
  59   6    -0.09   0.02   0.02    -0.07  -0.00   0.03     0.05  -0.00   0.02
  60   6    -0.07  -0.01   0.02    -0.06  -0.03   0.04     0.04   0.01   0.06
  61   7    -0.04  -0.01   0.02    -0.03  -0.04   0.04     0.02   0.01   0.06
  62   1    -0.03  -0.01   0.01    -0.03  -0.02   0.02     0.02   0.01   0.03
  63   1    -0.02  -0.03   0.01    -0.02  -0.03   0.02     0.01   0.01   0.04
  64   1     0.02  -0.02  -0.00     0.02  -0.03   0.02    -0.01   0.01   0.04
  65   1     0.03  -0.01  -0.01     0.03  -0.02   0.01    -0.02   0.01   0.03
  66   1     0.03   0.01  -0.01     0.03   0.00   0.00    -0.02  -0.00   0.01
  67   1     0.03   0.03  -0.02     0.03   0.02  -0.02    -0.02  -0.01  -0.02
  68   1     0.02   0.04  -0.01     0.02   0.03  -0.03    -0.01  -0.01  -0.05
  69   1    -0.00   0.04  -0.01    -0.00   0.03  -0.03    -0.00  -0.01  -0.06
  70   1    -0.02   0.04  -0.00    -0.02   0.03  -0.02     0.01  -0.01  -0.05
  71   1    -0.03   0.03   0.01    -0.03   0.02  -0.01     0.02  -0.01  -0.02
  72   1    -0.03   0.01   0.01    -0.03  -0.00   0.01     0.02  -0.00   0.01
  73   6     0.00   0.09  -0.01     0.00  -0.11   0.05    -0.00   0.05   0.13
  74   6     0.00   0.11  -0.01     0.00  -0.12   0.05    -0.00   0.05   0.13
  75   6     0.00   0.12  -0.01     0.00  -0.12   0.05    -0.00   0.05   0.12
  76   6     0.00   0.12  -0.01     0.00  -0.11   0.04    -0.00   0.04   0.11
  77   6     0.00   0.02  -0.00     0.00   0.11  -0.04    -0.00  -0.05  -0.11
  78   6     0.00   0.01  -0.00     0.00   0.13  -0.05    -0.00  -0.06  -0.12
  79   6    -0.00  -0.01   0.00     0.00   0.13  -0.05    -0.00  -0.06  -0.12
  80   6    -0.00  -0.03   0.00     0.00   0.11  -0.05    -0.00  -0.05  -0.11
  81   6    -0.00  -0.12   0.01    -0.00  -0.10   0.04    -0.00   0.05   0.11
  82   6    -0.00  -0.12   0.01    -0.00  -0.11   0.05    -0.00   0.05   0.12
  83   6    -0.00  -0.11   0.01    -0.00  -0.12   0.05    -0.00   0.05   0.13
  84   6    -0.00  -0.09   0.01    -0.00  -0.11   0.06    -0.00   0.05   0.13
  85  29     0.00   0.17  -0.02     0.00   0.01  -0.01    -0.00  -0.01  -0.02
  86   6    -0.04   0.10  -0.04     0.08  -0.05   0.02    -0.03   0.02   0.05
  87   6    -0.03   0.11  -0.03     0.06  -0.08   0.03    -0.02   0.03   0.08
  88   6    -0.01   0.10  -0.02     0.03  -0.06   0.03    -0.01   0.03   0.06
  89   6     0.00   0.11  -0.01     0.00  -0.08   0.03    -0.00   0.03   0.08
  90   6     0.01   0.10   0.00    -0.03  -0.06   0.02     0.01   0.03   0.07
  91   6     0.03   0.11   0.01    -0.06  -0.08   0.03     0.02   0.03   0.08
  92   6     0.04   0.10   0.02    -0.08  -0.05   0.02     0.03   0.02   0.06
  93   6     0.03   0.09   0.02    -0.07  -0.03   0.01     0.02   0.01   0.02
  94   7     0.02   0.10   0.00    -0.04  -0.03   0.01     0.01   0.01   0.03
  95   6     0.04   0.08   0.02    -0.08   0.00  -0.01     0.02  -0.00  -0.01
  96   6     0.03   0.06   0.02    -0.07   0.03  -0.02     0.02  -0.02  -0.04
  97   6     0.04   0.05   0.03    -0.08   0.06  -0.03     0.02  -0.03  -0.08
  98   6     0.03   0.04   0.02    -0.06   0.08  -0.04     0.02  -0.04  -0.10
  99   6     0.01   0.05   0.01    -0.03   0.07  -0.03     0.01  -0.03  -0.08
 100   7     0.02   0.06   0.01    -0.04   0.04  -0.02     0.01  -0.02  -0.05
 101   6     0.00   0.04  -0.00     0.00   0.08  -0.04    -0.00  -0.04  -0.09
 102   6    -0.01   0.04  -0.02     0.03   0.07  -0.03    -0.01  -0.03  -0.08
 103   6    -0.03   0.04  -0.03     0.06   0.08  -0.04    -0.02  -0.04  -0.10
 104   6    -0.04   0.04  -0.04     0.08   0.06  -0.03    -0.03  -0.03  -0.08
 105   6    -0.03   0.06  -0.03     0.07   0.03  -0.01    -0.02  -0.02  -0.05
 106   7    -0.02   0.06  -0.02     0.04   0.04  -0.02    -0.01  -0.02  -0.05
 107   6    -0.03   0.07  -0.04     0.08   0.00  -0.00    -0.03  -0.01  -0.02
 108   6    -0.03   0.08  -0.03     0.07  -0.03   0.01    -0.02   0.01   0.02
 109   7    -0.02   0.09  -0.02     0.04  -0.03   0.01    -0.01   0.01   0.03
 110   1    -0.01   0.03  -0.01     0.03  -0.02   0.01    -0.01   0.01   0.01
 111   1    -0.01   0.03  -0.01     0.02  -0.03   0.01    -0.01   0.01   0.03
 112   1     0.01   0.04   0.00    -0.02  -0.03   0.01     0.01   0.01   0.03
 113   1     0.01   0.03   0.01    -0.03  -0.02   0.01     0.01   0.01   0.02
 114   1     0.01   0.02   0.01    -0.03   0.00  -0.00     0.01  -0.00  -0.00
 115   1     0.01   0.01   0.01    -0.03   0.02  -0.01     0.01  -0.01  -0.02
 116   1     0.01   0.01   0.01    -0.02   0.03  -0.01     0.01  -0.02  -0.04
 117   1    -0.01   0.01  -0.01     0.02   0.03  -0.01    -0.01  -0.02  -0.04
 118   1    -0.01   0.01  -0.01     0.03   0.02  -0.01    -0.01  -0.01  -0.03
 119   1    -0.01   0.02  -0.01     0.03   0.00  -0.00    -0.01  -0.00  -0.01
 120  29    -0.00  -0.18   0.02     0.00   0.02  -0.01    -0.00  -0.01  -0.02
 121   6    -0.04  -0.05   0.04    -0.08   0.07  -0.02     0.03  -0.03  -0.08
 122   6    -0.03  -0.04   0.03    -0.06   0.09  -0.03     0.02  -0.04  -0.10
 123   6    -0.01  -0.05   0.02    -0.03   0.07  -0.03     0.01  -0.03  -0.08
 124   6    -0.00  -0.04   0.01     0.00   0.09  -0.04    -0.00  -0.04  -0.09
 125   6     0.01  -0.05  -0.00     0.03   0.07  -0.04    -0.01  -0.03  -0.08
 126   6     0.03  -0.05  -0.02     0.06   0.09  -0.05    -0.02  -0.04  -0.10
 127   6     0.03  -0.06  -0.02     0.08   0.06  -0.04    -0.03  -0.03  -0.08
 128   6     0.03  -0.07  -0.02     0.07   0.03  -0.03    -0.02  -0.02  -0.05
 129   7     0.02  -0.07  -0.01     0.04   0.04  -0.03    -0.01  -0.02  -0.05
 130   6     0.03  -0.08  -0.02     0.08   0.01  -0.02    -0.03  -0.00  -0.02
 131   6     0.03  -0.09  -0.01     0.07  -0.02  -0.00    -0.02   0.01   0.02
 132   6     0.03  -0.11  -0.02     0.08  -0.05   0.01    -0.03   0.02   0.05
 133   6     0.02  -0.12  -0.01     0.06  -0.07   0.02    -0.02   0.03   0.08
 134   6     0.01  -0.11   0.00     0.03  -0.06   0.02    -0.01   0.03   0.06
 135   7     0.01  -0.10  -0.00     0.04  -0.03   0.01    -0.01   0.01   0.03
 136   6    -0.00  -0.11   0.01    -0.00  -0.07   0.03    -0.00   0.03   0.08
 137   6    -0.01  -0.10   0.02    -0.03  -0.06   0.03     0.01   0.03   0.06
 138   6    -0.03  -0.11   0.03    -0.06  -0.07   0.04     0.02   0.03   0.08
 139   6    -0.04  -0.10   0.04    -0.08  -0.05   0.03     0.03   0.02   0.05
 140   6    -0.03  -0.09   0.03    -0.07  -0.02   0.01     0.02   0.01   0.02
 141   7    -0.02  -0.10   0.02    -0.04  -0.03   0.01     0.01   0.01   0.03
 142   6    -0.03  -0.07   0.04    -0.08   0.01   0.00     0.03  -0.00  -0.01
 143   6    -0.03  -0.06   0.03    -0.06   0.04  -0.01     0.02  -0.02  -0.05
 144   7    -0.02  -0.07   0.02    -0.04   0.04  -0.02     0.01  -0.02  -0.05
 145   1    -0.01  -0.01   0.01    -0.03   0.02  -0.01     0.01  -0.01  -0.02
 146   1    -0.01  -0.01   0.01    -0.02   0.03  -0.01     0.01  -0.01  -0.04
 147   1     0.01  -0.01  -0.01     0.02   0.03  -0.02    -0.01  -0.01  -0.04
 148   1     0.01  -0.02  -0.01     0.03   0.02  -0.01    -0.01  -0.01  -0.02
 149   1     0.01  -0.02  -0.01     0.03   0.00  -0.01    -0.01  -0.00  -0.01
 150   1     0.01  -0.03  -0.01     0.03  -0.02   0.00    -0.01   0.01   0.02
 151   1     0.01  -0.04  -0.00     0.02  -0.03   0.01    -0.01   0.01   0.03
 152   1    -0.01  -0.03   0.01    -0.02  -0.03   0.01     0.01   0.01   0.03
 153   1    -0.01  -0.03   0.01    -0.03  -0.01   0.01     0.01   0.01   0.02
 154   1    -0.01  -0.02   0.01    -0.03   0.00   0.00     0.01  -0.00  -0.00
                     10                     11                     12
                        a                      a                      a 
 Frequencies --    11.1296                17.4257                23.6278
 Red. masses --    13.0632                12.3885                13.7351
 Frc consts  --     0.0000                 0.0000                 0.0000
 IR Inten    --     3.2302                 2.5943                10.0314
 Raman Activ --     0.0000                 0.0000                 0.0000
 Depolar     --     0.0000                 0.0000                 0.0000
 Atom AN      X      Y      Z        X      Y      Z        X      Y      Z
   1  29     0.00   0.00   0.04     0.00   0.01   0.06     0.01   0.04  -0.04
   2   6     0.00   0.01   0.15     0.01   0.01   0.12     0.05   0.05  -0.09
   3   6     0.00   0.01   0.16     0.00   0.01   0.10     0.04   0.06  -0.05
   4   6     0.00   0.01   0.12     0.00   0.01   0.07     0.02   0.05  -0.02
   5   6     0.00   0.01   0.13     0.00   0.01   0.05     0.00   0.06   0.00
   6   6    -0.00   0.01   0.12    -0.00   0.01   0.07    -0.01   0.05  -0.02
   7   6    -0.00   0.01   0.16    -0.00   0.01   0.10    -0.03   0.06  -0.05
   8   6    -0.00   0.01   0.14    -0.01   0.01   0.12    -0.04   0.05  -0.09
   9   6    -0.00   0.00   0.09    -0.00   0.00   0.09    -0.03   0.03  -0.08
  10   7    -0.00   0.00   0.09    -0.00   0.01   0.07    -0.02   0.04  -0.05
  11   6    -0.00   0.00   0.05    -0.01   0.00   0.08    -0.04   0.02  -0.08
  12   6    -0.00  -0.00  -0.02    -0.00  -0.00   0.02    -0.03   0.00  -0.04
  13   6    -0.00  -0.00  -0.09    -0.01  -0.00  -0.03    -0.04  -0.02  -0.00
  14   6    -0.00  -0.00  -0.16    -0.00  -0.00  -0.10    -0.03  -0.03   0.06
  15   6     0.00  -0.00  -0.13    -0.00  -0.00  -0.08    -0.01  -0.02   0.06
  16   7    -0.00  -0.00  -0.05    -0.00  -0.00  -0.02    -0.02  -0.00   0.00
  17   6     0.00  -0.00  -0.17     0.00  -0.00  -0.13     0.00  -0.03   0.10
  18   6     0.01  -0.00  -0.13     0.00  -0.00  -0.09     0.02  -0.02   0.06
  19   6     0.01  -0.00  -0.16     0.01  -0.00  -0.10     0.04  -0.03   0.07
  20   6     0.01  -0.00  -0.08     0.01  -0.00  -0.03     0.05  -0.02   0.00
  21   6     0.01   0.00  -0.02     0.01   0.00   0.02     0.04   0.00  -0.03
  22   7     0.00  -0.00  -0.05     0.00  -0.00  -0.02     0.02  -0.00   0.01
  23   6     0.01   0.00   0.06     0.01   0.00   0.08     0.05   0.02  -0.08
  24   6     0.00   0.00   0.10     0.00   0.01   0.09     0.04   0.03  -0.08
  25   7     0.00   0.01   0.09     0.00   0.01   0.07     0.02   0.04  -0.04
  26   1     0.00   0.00   0.05     0.00   0.00   0.04     0.02   0.01  -0.03
  27   1     0.00   0.00   0.06     0.00   0.00   0.03     0.01   0.02  -0.01
  28   1    -0.00   0.00   0.05    -0.00   0.00   0.03    -0.01   0.02  -0.01
  29   1    -0.00   0.00   0.05    -0.00   0.00   0.04    -0.02   0.01  -0.03
  30   1    -0.00   0.00   0.02    -0.00   0.00   0.03    -0.02   0.00  -0.03
  31   1    -0.00  -0.00  -0.02    -0.00  -0.00  -0.00    -0.02  -0.01  -0.01
  32   1    -0.00  -0.00  -0.06    -0.00  -0.00  -0.04    -0.01  -0.01   0.03
  33   1     0.00  -0.00  -0.07     0.00  -0.00  -0.05     0.00  -0.01   0.04
  34   1     0.00  -0.00  -0.06     0.00  -0.00  -0.04     0.01  -0.01   0.03
  35   1     0.00  -0.00  -0.02     0.00  -0.00  -0.00     0.02  -0.01  -0.00
  36   1     0.00   0.00   0.02     0.00   0.00   0.03     0.02   0.00  -0.03
  37  29    -0.00   0.00  -0.04    -0.00  -0.01   0.06    -0.01  -0.06   0.04
  38   6    -0.03   0.00  -0.14     0.01  -0.02   0.12    -0.06  -0.08   0.09
  39   6    -0.02  -0.00  -0.15     0.00  -0.01   0.10    -0.04  -0.09   0.04
  40   6    -0.01  -0.00  -0.12     0.00  -0.01   0.07    -0.02  -0.07   0.01
  41   6    -0.00  -0.01  -0.12    -0.00  -0.00   0.06    -0.00  -0.08  -0.02
  42   6     0.01  -0.00  -0.12    -0.00  -0.01   0.07     0.02  -0.07   0.01
  43   6     0.02  -0.00  -0.15    -0.00  -0.01   0.10     0.04  -0.09   0.04
  44   6     0.03   0.00  -0.14    -0.01  -0.02   0.12     0.05  -0.08   0.09
  45   6     0.02   0.01  -0.09    -0.00  -0.02   0.10     0.04  -0.06   0.08
  46   7     0.01   0.00  -0.09    -0.00  -0.01   0.07     0.02  -0.06   0.04
  47   6     0.03   0.01  -0.05    -0.00  -0.01   0.08     0.05  -0.04   0.09
  48   6     0.02   0.00   0.02    -0.00  -0.00   0.02     0.04  -0.01   0.04
  49   6     0.03   0.00   0.08    -0.01   0.00  -0.03     0.05   0.02   0.00
  50   6     0.02  -0.00   0.15    -0.00   0.01  -0.10     0.04   0.05  -0.07
  51   6     0.01  -0.00   0.13    -0.00   0.01  -0.09     0.01   0.04  -0.07
  52   7     0.01  -0.00   0.05    -0.00   0.00  -0.02     0.02   0.00  -0.01
  53   6     0.00  -0.01   0.17    -0.00   0.02  -0.13    -0.01   0.05  -0.10
  54   6    -0.01  -0.00   0.13     0.00   0.01  -0.09    -0.02   0.04  -0.06
  55   6    -0.02  -0.00   0.15     0.00   0.01  -0.10    -0.05   0.05  -0.06
  56   6    -0.03   0.00   0.09     0.00   0.00  -0.03    -0.06   0.02   0.01
  57   6    -0.02   0.00   0.02     0.00  -0.00   0.02    -0.05  -0.01   0.04
  58   7    -0.01  -0.00   0.05     0.00   0.00  -0.02    -0.03   0.00  -0.00
  59   6    -0.03   0.01  -0.05     0.01  -0.01   0.08    -0.06  -0.04   0.09
  60   6    -0.02   0.00  -0.09     0.00  -0.02   0.10    -0.05  -0.06   0.08
  61   7    -0.01   0.00  -0.09     0.00  -0.01   0.07    -0.03  -0.06   0.04
  62   1    -0.01   0.00  -0.05     0.00  -0.01   0.04    -0.02  -0.03   0.03
  63   1    -0.01  -0.00  -0.05     0.00  -0.00   0.03    -0.01  -0.03   0.01
  64   1     0.01  -0.00  -0.05    -0.00  -0.00   0.03     0.01  -0.03   0.01
  65   1     0.01   0.00  -0.05    -0.00  -0.01   0.04     0.02  -0.03   0.03
  66   1     0.01   0.00  -0.02    -0.00  -0.01   0.03     0.02  -0.01   0.03
  67   1     0.01   0.00   0.02    -0.00   0.00  -0.00     0.02   0.01   0.01
  68   1     0.01  -0.00   0.06    -0.00   0.01  -0.04     0.01   0.02  -0.03
  69   1     0.00  -0.00   0.07    -0.00   0.01  -0.05    -0.00   0.02  -0.04
  70   1    -0.01  -0.00   0.06     0.00   0.01  -0.04    -0.01   0.02  -0.03
  71   1    -0.01   0.00   0.02     0.00   0.00  -0.00    -0.02   0.00   0.01
  72   1    -0.01   0.00  -0.02     0.00  -0.01   0.03    -0.02  -0.01   0.03
  73   6     0.00   0.01   0.13     0.00   0.01   0.03     0.00   0.07   0.04
  74   6     0.00   0.01   0.12     0.00   0.01  -0.01     0.00   0.05   0.09
  75   6     0.00   0.01   0.10    -0.00   0.00  -0.05     0.00   0.03   0.12
  76   6     0.00   0.01   0.07    -0.00  -0.00  -0.08     0.00  -0.00   0.13
  77   6    -0.00   0.00  -0.04    -0.00   0.01   0.18     0.00  -0.07  -0.06
  78   6    -0.00   0.00  -0.01    -0.00   0.01   0.20     0.00  -0.03  -0.03
  79   6    -0.00   0.01   0.01     0.00   0.01   0.20     0.00   0.01  -0.00
  80   6    -0.00   0.01   0.04     0.00   0.01   0.17     0.00   0.05   0.03
  81   6    -0.00  -0.02  -0.07    -0.00   0.01  -0.08    -0.00   0.03  -0.14
  82   6    -0.00  -0.02  -0.10    -0.00   0.01  -0.05    -0.00  -0.01  -0.13
  83   6    -0.00  -0.02  -0.12    -0.00   0.01  -0.01    -0.00  -0.04  -0.11
  84   6    -0.00  -0.01  -0.13    -0.00   0.00   0.03    -0.00  -0.08  -0.06
  85  29    -0.00  -0.01  -0.12    -0.00  -0.01  -0.07     0.00  -0.12  -0.01
  86   6     0.00  -0.00  -0.03    -0.01  -0.01  -0.14    -0.02  -0.03   0.07
  87   6     0.00  -0.00   0.00    -0.01  -0.01  -0.14    -0.01  -0.02   0.12
  88   6     0.00  -0.00   0.00    -0.00  -0.01  -0.10    -0.00  -0.02   0.09
  89   6    -0.00   0.00   0.03    -0.00  -0.00  -0.10     0.00  -0.02   0.11
  90   6    -0.00  -0.00   0.00     0.00  -0.01  -0.10     0.01  -0.02   0.10
  91   6    -0.00  -0.00   0.01     0.01  -0.01  -0.14     0.02  -0.02   0.12
  92   6    -0.00  -0.00  -0.03     0.01  -0.01  -0.14     0.02  -0.03   0.08
  93   6    -0.00  -0.01  -0.05     0.01  -0.01  -0.10     0.02  -0.04   0.03
  94   7    -0.00  -0.00  -0.03     0.00  -0.01  -0.09     0.01  -0.04   0.05
  95   6    -0.00  -0.01  -0.08     0.01  -0.01  -0.07     0.02  -0.05  -0.02
  96   6    -0.00  -0.01  -0.08     0.01  -0.01  -0.01     0.02  -0.06  -0.06
  97   6    -0.00  -0.01  -0.09     0.01  -0.00   0.05     0.02  -0.08  -0.10
  98   6    -0.00  -0.01  -0.08     0.01   0.00   0.11     0.01  -0.08  -0.11
  99   6    -0.00  -0.00  -0.07     0.00   0.00   0.09     0.01  -0.08  -0.08
 100   7    -0.00  -0.01  -0.07     0.00  -0.00   0.03     0.01  -0.07  -0.06
 101   6    -0.00  -0.00  -0.06    -0.00   0.00   0.13     0.00  -0.08  -0.07
 102   6     0.00  -0.00  -0.07    -0.00   0.00   0.09    -0.01  -0.08  -0.08
 103   6     0.00  -0.01  -0.08    -0.01   0.00   0.11    -0.01  -0.08  -0.11
 104   6     0.00  -0.01  -0.10    -0.01  -0.00   0.04    -0.02  -0.08  -0.10
 105   6     0.00  -0.01  -0.09    -0.01  -0.01  -0.01    -0.01  -0.07  -0.06
 106   7     0.00  -0.01  -0.08    -0.00  -0.00   0.03    -0.01  -0.07  -0.06
 107   6     0.00  -0.01  -0.09    -0.01  -0.01  -0.07    -0.02  -0.05  -0.03
 108   6     0.00  -0.01  -0.06    -0.01  -0.01  -0.10    -0.01  -0.04   0.03
 109   7     0.00  -0.00  -0.04    -0.00  -0.01  -0.09    -0.01  -0.04   0.05
 110   1     0.00  -0.00  -0.01    -0.00  -0.00  -0.05    -0.01  -0.01   0.02
 111   1     0.00   0.00   0.01    -0.00  -0.00  -0.05    -0.00  -0.00   0.04
 112   1    -0.00   0.00   0.01     0.00  -0.00  -0.05     0.01  -0.00   0.05
 113   1    -0.00  -0.00  -0.01     0.00  -0.00  -0.05     0.01  -0.01   0.02
 114   1    -0.00  -0.00  -0.03     0.00  -0.00  -0.03     0.01  -0.02  -0.01
 115   1    -0.00  -0.00  -0.03     0.00  -0.00   0.01     0.01  -0.02  -0.03
 116   1    -0.00  -0.00  -0.02     0.00   0.00   0.05     0.00  -0.03  -0.04
 117   1     0.00  -0.00  -0.02    -0.00   0.00   0.05    -0.00  -0.03  -0.04
 118   1     0.00  -0.00  -0.03    -0.00  -0.00   0.01    -0.01  -0.02  -0.03
 119   1     0.00  -0.00  -0.03    -0.00  -0.00  -0.03    -0.01  -0.02  -0.01
 120  29    -0.00   0.01   0.12    -0.00   0.01  -0.07    -0.00   0.14   0.02
 121   6    -0.00   0.01   0.10     0.01   0.01   0.04    -0.00   0.07   0.10
 122   6    -0.00   0.01   0.09     0.01   0.01   0.11    -0.00   0.07   0.09
 123   6    -0.00   0.01   0.07     0.00   0.01   0.09     0.00   0.07   0.06
 124   6    -0.00   0.01   0.06     0.00   0.01   0.12     0.00   0.07   0.05
 125   6     0.00   0.01   0.07    -0.00   0.01   0.09    -0.00   0.07   0.06
 126   6     0.00   0.01   0.08    -0.01   0.01   0.11     0.00   0.07   0.09
 127   6     0.00   0.01   0.09    -0.01   0.01   0.04     0.00   0.07   0.10
 128   6     0.00   0.01   0.08    -0.01   0.00  -0.01     0.00   0.07   0.07
 129   7     0.00   0.01   0.07    -0.01   0.01   0.02     0.00   0.07   0.06
 130   6     0.00   0.01   0.08    -0.01  -0.00  -0.07     0.00   0.06   0.04
 131   6     0.00   0.00   0.05    -0.01   0.00  -0.11     0.00   0.06  -0.01
 132   6     0.00  -0.00   0.03    -0.01  -0.00  -0.14     0.00   0.05  -0.05
 133   6     0.00  -0.01  -0.01    -0.01   0.00  -0.14     0.00   0.04  -0.10
 134   6     0.00  -0.01  -0.01    -0.00   0.01  -0.11    -0.00   0.04  -0.09
 135   7     0.00  -0.00   0.03    -0.00   0.00  -0.09    -0.00   0.06  -0.04
 136   6    -0.00  -0.01  -0.03    -0.00   0.01  -0.10    -0.00   0.04  -0.11
 137   6    -0.00  -0.01  -0.00     0.00   0.01  -0.10    -0.00   0.05  -0.09
 138   6    -0.00  -0.01  -0.01     0.01   0.00  -0.14    -0.01   0.04  -0.10
 139   6    -0.00  -0.00   0.03     0.01  -0.00  -0.14    -0.01   0.05  -0.06
 140   6    -0.00   0.00   0.05     0.01   0.00  -0.10    -0.00   0.06  -0.01
 141   7    -0.00  -0.00   0.03     0.00   0.00  -0.09    -0.00   0.06  -0.04
 142   6    -0.00   0.01   0.09     0.01  -0.00  -0.07    -0.00   0.06   0.04
 143   6    -0.00   0.01   0.09     0.01   0.00  -0.01    -0.00   0.07   0.07
 144   7    -0.00   0.01   0.08     0.01   0.01   0.02    -0.00   0.07   0.06
 145   1    -0.00   0.00   0.03     0.00   0.00   0.01    -0.00   0.02   0.04
 146   1    -0.00   0.00   0.03     0.00   0.00   0.05    -0.00   0.02   0.03
 147   1     0.00   0.00   0.02    -0.00   0.00   0.05     0.00   0.02   0.03
 148   1     0.00   0.00   0.03    -0.00   0.00   0.01     0.00   0.02   0.04
 149   1     0.00   0.00   0.03    -0.00  -0.00  -0.03     0.00   0.02   0.02
 150   1     0.00  -0.00   0.01    -0.00  -0.00  -0.05     0.00   0.01  -0.01
 151   1     0.00  -0.00  -0.01    -0.00   0.00  -0.05     0.00   0.01  -0.04
 152   1    -0.00  -0.00  -0.01     0.00   0.00  -0.05    -0.00   0.01  -0.04
 153   1    -0.00  -0.00   0.01     0.00  -0.00  -0.05    -0.00   0.01  -0.01
 154   1    -0.00   0.00   0.03     0.00  -0.00  -0.03    -0.00   0.02   0.02
                     13                     14                     15
                        a                      a                      a 
 Frequencies --    26.5160                31.8413                32.5279
 Red. masses --    14.6135                12.5608                20.2492
 Frc consts  --     0.0000                 0.0000                 0.0000
 IR Inten    --     4.0687               138.5901                21.8517
 Raman Activ --     0.0000                 0.0000                 0.0000
 Depolar     --     0.0000                 0.0000                 0.0000
 Atom AN      X      Y      Z        X      Y      Z        X      Y      Z
   1  29     0.01   0.06   0.03    -0.02   0.06  -0.02     0.26   0.00  -0.00
   2   6     0.07   0.07   0.06     0.05   0.07  -0.07     0.11  -0.00  -0.01
   3   6     0.05   0.09   0.02     0.04   0.09  -0.01     0.11   0.00   0.00
   4   6     0.03   0.08   0.00     0.01   0.08   0.02     0.10  -0.00   0.00
   5   6     0.00   0.09  -0.02    -0.01   0.09   0.05     0.09   0.00   0.01
   6   6    -0.02   0.08   0.00    -0.03   0.08   0.02     0.10   0.00   0.00
   7   6    -0.04   0.09   0.02    -0.06   0.09  -0.01     0.11   0.00  -0.00
   8   6    -0.06   0.07   0.06    -0.07   0.07  -0.06     0.11   0.01  -0.01
   9   6    -0.05   0.05   0.05    -0.06   0.05  -0.07     0.11   0.01  -0.01
  10   7    -0.02   0.06   0.03    -0.04   0.06  -0.02     0.11   0.01  -0.00
  11   6    -0.06   0.02   0.06    -0.07   0.02  -0.09     0.11   0.01  -0.02
  12   6    -0.05   0.00   0.03    -0.06   0.00  -0.05     0.11   0.01  -0.01
  13   6    -0.06  -0.02   0.01    -0.07  -0.02  -0.02     0.11   0.00  -0.01
  14   6    -0.04  -0.04  -0.04    -0.06  -0.04   0.04     0.11   0.00   0.01
  15   6    -0.02  -0.03  -0.04    -0.03  -0.03   0.05     0.12   0.00   0.01
  16   7    -0.02  -0.00  -0.00    -0.04  -0.00  -0.00     0.13   0.01  -0.00
  17   6     0.01  -0.04  -0.07    -0.01  -0.04   0.09     0.12   0.00   0.01
  18   6     0.03  -0.03  -0.04     0.01  -0.03   0.05     0.12   0.00   0.01
  19   6     0.05  -0.04  -0.04     0.04  -0.04   0.04     0.11   0.00   0.01
  20   6     0.07  -0.02   0.01     0.05  -0.02  -0.02     0.11  -0.00  -0.00
  21   6     0.06   0.00   0.03     0.04   0.00  -0.05     0.11  -0.01  -0.01
  22   7     0.03  -0.00  -0.00     0.02  -0.00  -0.00     0.13  -0.01   0.00
  23   6     0.07   0.03   0.06     0.05   0.03  -0.09     0.11  -0.01  -0.01
  24   6     0.06   0.05   0.06     0.04   0.05  -0.07     0.11  -0.01  -0.01
  25   7     0.03   0.06   0.03     0.02   0.06  -0.02     0.11  -0.01  -0.00
  26   1     0.03   0.02   0.02     0.02   0.02  -0.03     0.03  -0.00  -0.00
  27   1     0.02   0.03   0.00     0.01   0.03   0.00     0.03   0.00   0.00
  28   1    -0.01   0.03   0.00    -0.02   0.03   0.00     0.03  -0.00  -0.00
  29   1    -0.02   0.02   0.02    -0.03   0.02  -0.03     0.03   0.00  -0.01
  30   1    -0.02   0.01   0.03    -0.03   0.01  -0.04     0.03   0.00  -0.01
  31   1    -0.02  -0.01   0.01    -0.03  -0.01  -0.02     0.03   0.00  -0.00
  32   1    -0.01  -0.02  -0.02    -0.02  -0.02   0.02     0.03  -0.00   0.00
  33   1     0.00  -0.02  -0.03    -0.00  -0.02   0.04     0.03   0.00   0.01
  34   1     0.02  -0.02  -0.02     0.01  -0.02   0.02     0.03   0.00   0.00
  35   1     0.03  -0.01   0.01     0.02  -0.01  -0.01     0.03  -0.00  -0.00
  36   1     0.03   0.01   0.03     0.02   0.01  -0.04     0.03  -0.00  -0.00
  37  29    -0.01  -0.05  -0.03     0.02   0.06  -0.01    -0.26   0.01  -0.00
  38   6    -0.06  -0.06  -0.06     0.07   0.08  -0.05    -0.10   0.02  -0.02
  39   6    -0.05  -0.08  -0.03     0.05   0.08   0.01    -0.10   0.02  -0.01
  40   6    -0.03  -0.07  -0.02     0.03   0.06   0.03    -0.10   0.02  -0.00
  41   6    -0.00  -0.09  -0.00     0.01   0.07   0.07    -0.09   0.01   0.01
  42   6     0.02  -0.07  -0.02    -0.01   0.07   0.03    -0.11   0.00   0.01
  43   6     0.04  -0.08  -0.03    -0.03   0.08   0.01    -0.12   0.01   0.01
  44   6     0.05  -0.06  -0.06    -0.05   0.08  -0.05    -0.12   0.00   0.00
  45   6     0.04  -0.04  -0.05    -0.03   0.06  -0.06    -0.12  -0.01  -0.00
  46   7     0.02  -0.05  -0.03    -0.01   0.06  -0.01    -0.12  -0.00   0.00
  47   6     0.05  -0.01  -0.05    -0.05   0.04  -0.08    -0.12  -0.01  -0.02
  48   6     0.04   0.00  -0.02    -0.04   0.01  -0.04    -0.12  -0.01  -0.02
  49   6     0.06   0.02  -0.00    -0.05  -0.02  -0.02    -0.12  -0.00  -0.02
  50   6     0.04   0.03   0.04    -0.03  -0.04   0.04    -0.12  -0.00  -0.01
  51   6     0.02   0.02   0.04    -0.01  -0.03   0.05    -0.12  -0.01  -0.00
  52   7     0.02   0.00   0.00    -0.01  -0.00  -0.00    -0.13  -0.01  -0.01
  53   6    -0.01   0.03   0.06     0.01  -0.05   0.08    -0.12  -0.01   0.01
  54   6    -0.03   0.02   0.04     0.03  -0.03   0.04    -0.11  -0.01   0.02
  55   6    -0.05   0.03   0.04     0.05  -0.04   0.03    -0.11  -0.01   0.02
  56   6    -0.07   0.02   0.00     0.07  -0.01  -0.03    -0.10  -0.00   0.02
  57   6    -0.05   0.00  -0.02     0.06   0.01  -0.05    -0.10   0.01   0.00
  58   7    -0.03   0.00   0.00     0.04  -0.00  -0.00    -0.12   0.01   0.01
  59   6    -0.06  -0.01  -0.05     0.07   0.04  -0.09    -0.10   0.02  -0.01
  60   6    -0.05  -0.04  -0.05     0.06   0.05  -0.06    -0.10   0.02  -0.01
  61   7    -0.03  -0.05  -0.03     0.04   0.05  -0.01    -0.11   0.02  -0.00
  62   1    -0.02  -0.02  -0.02     0.02   0.02  -0.02    -0.03   0.01  -0.01
  63   1    -0.01  -0.03  -0.01     0.02   0.03   0.01    -0.03   0.00  -0.00
  64   1     0.01  -0.03  -0.01    -0.01   0.03   0.01    -0.03   0.00   0.01
  65   1     0.02  -0.02  -0.02    -0.02   0.02  -0.02    -0.04   0.00   0.00
  66   1     0.02  -0.00  -0.02    -0.02   0.01  -0.03    -0.04  -0.00  -0.01
  67   1     0.02   0.01  -0.01    -0.02  -0.00  -0.01    -0.03  -0.00  -0.01
  68   1     0.01   0.01   0.02    -0.01  -0.02   0.02    -0.03  -0.00  -0.00
  69   1    -0.00   0.01   0.03     0.00  -0.02   0.03    -0.03  -0.00   0.01
  70   1    -0.01   0.01   0.02     0.02  -0.02   0.02    -0.03  -0.01   0.01
  71   1    -0.02   0.01  -0.00     0.02  -0.00  -0.02    -0.03  -0.00   0.01
  72   1    -0.02  -0.00  -0.02     0.02   0.01  -0.04    -0.03   0.01  -0.00
  73   6     0.00   0.10  -0.06    -0.01   0.10   0.10     0.09   0.00   0.01
  74   6     0.00   0.06  -0.09    -0.01   0.04   0.13     0.09  -0.00   0.02
  75   6     0.00   0.02  -0.11    -0.01  -0.01   0.14     0.09  -0.00   0.02
  76   6     0.00  -0.03  -0.11    -0.01  -0.07   0.13     0.08  -0.01   0.02
  77   6    -0.00  -0.08   0.05    -0.00   0.05   0.10     0.00   0.01   0.01
  78   6    -0.00  -0.02  -0.00    -0.00   0.08   0.13     0.00   0.01   0.02
  79   6    -0.00   0.03  -0.04     0.00   0.09   0.13    -0.00   0.00   0.02
  80   6     0.00   0.09  -0.08     0.00   0.09   0.12    -0.00  -0.00   0.02
  81   6    -0.00   0.02   0.09     0.01  -0.09   0.11    -0.08  -0.00   0.01
  82   6    -0.00  -0.03   0.08     0.01  -0.04   0.14    -0.09   0.00   0.02
  83   6    -0.00  -0.07   0.06     0.01   0.01   0.14    -0.09   0.01   0.02
  84   6    -0.00  -0.10   0.02     0.01   0.07   0.11    -0.09   0.01   0.01
  85  29     0.00  -0.16   0.04    -0.01  -0.09  -0.02     0.11   0.00  -0.00
  86   6    -0.03  -0.05  -0.05     0.04  -0.08  -0.04     0.05  -0.01  -0.00
  87   6    -0.02  -0.05  -0.09     0.03  -0.08   0.03     0.06  -0.00   0.00
  88   6    -0.01  -0.05  -0.07     0.01  -0.07   0.05     0.07  -0.01   0.01
  89   6     0.00  -0.05  -0.09    -0.01  -0.08   0.08     0.08  -0.01   0.01
  90   6     0.01  -0.05  -0.07    -0.02  -0.07   0.05     0.07  -0.00   0.00
  91   6     0.02  -0.05  -0.09    -0.04  -0.08   0.03     0.05  -0.01   0.00
  92   6     0.03  -0.05  -0.05    -0.05  -0.08  -0.03     0.04   0.00  -0.01
  93   6     0.02  -0.06  -0.01    -0.04  -0.06  -0.05     0.05   0.02  -0.01
  94   7     0.02  -0.07  -0.03    -0.03  -0.06  -0.00     0.07   0.01  -0.00
  95   6     0.03  -0.06   0.05    -0.05  -0.05  -0.09     0.04   0.03  -0.01
  96   6     0.02  -0.07   0.07    -0.04  -0.03  -0.07     0.04   0.02  -0.01
  97   6     0.03  -0.08   0.11    -0.05  -0.01  -0.06     0.04   0.01  -0.01
  98   6     0.02  -0.08   0.10    -0.04   0.01  -0.00     0.03   0.00   0.00
  99   6     0.01  -0.08   0.07    -0.02   0.00   0.02     0.02   0.01   0.00
 100   7     0.01  -0.08   0.06    -0.02  -0.02  -0.02     0.02   0.02  -0.00
 101   6     0.00  -0.09   0.07    -0.00   0.02   0.06     0.01   0.01   0.01
 102   6    -0.01  -0.08   0.07     0.01   0.01   0.02     0.02   0.00   0.00
 103   6    -0.02  -0.08   0.10     0.03   0.01  -0.00     0.04   0.01   0.00
 104   6    -0.02  -0.08   0.10     0.04  -0.01  -0.06     0.06  -0.00  -0.01
 105   6    -0.02  -0.07   0.07     0.03  -0.02  -0.07     0.05  -0.02  -0.01
 106   7    -0.01  -0.08   0.06     0.02  -0.02  -0.02     0.03  -0.02   0.00
 107   6    -0.02  -0.06   0.04     0.04  -0.04  -0.09     0.05  -0.03  -0.01
 108   6    -0.02  -0.06  -0.01     0.03  -0.06  -0.05     0.06  -0.02  -0.00
 109   7    -0.01  -0.06  -0.03     0.01  -0.06  -0.00     0.08  -0.02   0.00
 110   1    -0.01  -0.02  -0.01     0.02  -0.02  -0.02     0.01  -0.00  -0.00
 111   1    -0.01  -0.01  -0.04     0.01  -0.03   0.02     0.02   0.00   0.00
 112   1     0.01  -0.01  -0.04    -0.01  -0.03   0.02     0.01  -0.01   0.00
 113   1     0.01  -0.02  -0.01    -0.02  -0.02  -0.02     0.01  -0.00  -0.00
 114   1     0.01  -0.02   0.02    -0.02  -0.02  -0.04     0.01   0.01  -0.01
 115   1     0.01  -0.02   0.04    -0.02  -0.00  -0.03     0.01   0.00  -0.00
 116   1     0.01  -0.03   0.04    -0.01   0.01   0.01     0.01  -0.00   0.00
 117   1    -0.01  -0.03   0.03     0.01   0.01   0.01     0.01   0.01   0.00
 118   1    -0.01  -0.02   0.04     0.02  -0.00  -0.03     0.02  -0.00  -0.00
 119   1    -0.01  -0.02   0.02     0.02  -0.01  -0.04     0.02  -0.01  -0.00
 120  29    -0.00   0.15  -0.02     0.01  -0.05  -0.03    -0.11  -0.01  -0.00
 121   6    -0.04   0.08  -0.10    -0.07   0.03  -0.04    -0.05  -0.01  -0.00
 122   6    -0.03   0.09  -0.11    -0.05   0.05   0.02    -0.04  -0.00   0.00
 123   6    -0.01   0.08  -0.09    -0.02   0.04   0.04    -0.02  -0.01   0.01
 124   6    -0.00   0.09  -0.09     0.00   0.06   0.08    -0.01  -0.00   0.01
 125   6     0.01   0.08  -0.09     0.03   0.04   0.04    -0.02  -0.00   0.00
 126   6     0.02   0.09  -0.11     0.05   0.06   0.03    -0.04  -0.01   0.00
 127   6     0.03   0.08  -0.10     0.07   0.03  -0.04    -0.05   0.00  -0.01
 128   6     0.03   0.07  -0.06     0.06  -0.00  -0.05    -0.04   0.01  -0.01
 129   7     0.01   0.08  -0.06     0.03   0.01  -0.01    -0.03   0.01  -0.00
 130   6     0.03   0.06  -0.02     0.07  -0.03  -0.09    -0.05   0.02  -0.02
 131   6     0.03   0.06   0.03     0.06  -0.06  -0.07    -0.05   0.01  -0.01
 132   6     0.03   0.05   0.07     0.07  -0.08  -0.06    -0.05  -0.00  -0.01
 133   6     0.02   0.04   0.10     0.06  -0.09  -0.00    -0.06  -0.01   0.00
 134   6     0.01   0.04   0.08     0.03  -0.08   0.02    -0.07  -0.00   0.00
 135   7     0.01   0.06   0.04     0.04  -0.06  -0.02    -0.07   0.01  -0.01
 136   6    -0.00   0.04   0.09     0.01  -0.08   0.06    -0.08  -0.00   0.01
 137   6    -0.02   0.04   0.08    -0.02  -0.08   0.02    -0.07  -0.01   0.00
 138   6    -0.03   0.04   0.10    -0.04  -0.09   0.00    -0.06  -0.00  -0.00
 139   6    -0.04   0.05   0.07    -0.07  -0.08  -0.06    -0.05  -0.01  -0.01
 140   6    -0.03   0.06   0.03    -0.05  -0.05  -0.07    -0.05  -0.02  -0.01
 141   7    -0.02   0.06   0.04    -0.02  -0.06  -0.02    -0.07  -0.02   0.00
 142   6    -0.04   0.06  -0.02    -0.07  -0.03  -0.10    -0.05  -0.03  -0.01
 143   6    -0.03   0.07  -0.06    -0.05   0.00  -0.06    -0.04  -0.03  -0.00
 144   7    -0.01   0.08  -0.06    -0.03   0.01  -0.01    -0.03  -0.02   0.00
 145   1    -0.01   0.02  -0.03    -0.03   0.01  -0.02    -0.02  -0.00  -0.00
 146   1    -0.01   0.03  -0.04    -0.01   0.02   0.02    -0.01   0.00   0.00
 147   1     0.01   0.03  -0.04     0.02   0.02   0.02    -0.01  -0.01   0.00
 148   1     0.01   0.02  -0.03     0.03   0.01  -0.02    -0.02  -0.00  -0.00
 149   1     0.01   0.02  -0.01     0.03  -0.01  -0.04    -0.01   0.01  -0.01
 150   1     0.01   0.01   0.02     0.03  -0.02  -0.03    -0.01  -0.00  -0.00
 151   1     0.01   0.01   0.04     0.02  -0.03   0.01    -0.02  -0.01   0.00
 152   1    -0.01   0.01   0.04    -0.01  -0.03   0.01    -0.02   0.00  -0.00
 153   1    -0.01   0.01   0.02    -0.03  -0.02  -0.03    -0.01  -0.00  -0.00
 154   1    -0.01   0.02  -0.01    -0.03  -0.01  -0.04    -0.01  -0.01  -0.00
                     16                     17                     18
                        a                      a                      a 
 Frequencies --    36.4439                37.0762                37.6248
 Red. masses --    12.3067                10.9142                10.9067
 Frc consts  --     0.0000                 0.0000                 0.0000
 IR Inten    --   113.3124                 0.8674                 1.7152
 Raman Activ --     0.0000                 0.0000                 0.0000
 Depolar     --     0.0000                 0.0000                 0.0000
 Atom AN      X      Y      Z        X      Y      Z        X      Y      Z
   1  29    -0.01  -0.06  -0.01    -0.00   0.00   0.00     0.00  -0.00  -0.00
   2   6    -0.06  -0.07  -0.06     0.00   0.00   0.03    -0.00  -0.00   0.04
   3   6    -0.04  -0.09   0.01     0.00   0.00   0.03    -0.00  -0.00   0.04
   4   6    -0.02  -0.07   0.04    -0.00   0.00   0.01    -0.00  -0.00   0.02
   5   6    -0.00  -0.08   0.08    -0.00   0.00  -0.00     0.00  -0.00   0.00
   6   6     0.02  -0.07   0.04    -0.00   0.00  -0.02     0.00  -0.00  -0.02
   7   6     0.04  -0.09   0.02    -0.00   0.00  -0.03     0.00  -0.00  -0.04
   8   6     0.06  -0.07  -0.05    -0.00   0.00  -0.03     0.00  -0.00  -0.04
   9   6     0.04  -0.05  -0.06    -0.00   0.00  -0.01     0.00  -0.00  -0.02
  10   7     0.02  -0.06  -0.01    -0.00   0.00  -0.01     0.00  -0.00  -0.01
  11   6     0.06  -0.02  -0.10    -0.00   0.00   0.01     0.00  -0.00  -0.00
  12   6     0.05  -0.00  -0.06    -0.00   0.00   0.02     0.00  -0.00   0.02
  13   6     0.06   0.02  -0.04    -0.00  -0.00   0.03     0.00  -0.00   0.04
  14   6     0.04   0.04   0.03    -0.00  -0.00   0.03     0.00   0.00   0.05
  15   6     0.02   0.02   0.05    -0.00  -0.00   0.01     0.00   0.00   0.02
  16   7     0.02   0.00  -0.00    -0.00   0.00   0.01     0.00  -0.00   0.01
  17   6    -0.00   0.04   0.09    -0.00  -0.00  -0.00     0.00   0.00   0.00
  18   6    -0.02   0.02   0.05     0.00  -0.00  -0.02     0.00   0.00  -0.02
  19   6    -0.05   0.04   0.04     0.00  -0.00  -0.03     0.00   0.00  -0.04
  20   6    -0.06   0.02  -0.03     0.00  -0.00  -0.03     0.00   0.00  -0.05
  21   6    -0.05  -0.00  -0.05     0.00   0.00  -0.01     0.00   0.00  -0.02
  22   7    -0.03   0.00  -0.00     0.00   0.00  -0.01     0.00   0.00  -0.01
  23   6    -0.06  -0.03  -0.10     0.00   0.00   0.00    -0.00  -0.00  -0.01
  24   6    -0.05  -0.05  -0.06     0.00   0.00   0.02    -0.00  -0.00   0.02
  25   7    -0.03  -0.05  -0.01     0.00   0.00   0.01    -0.00  -0.00   0.01
  26   1    -0.02  -0.02  -0.03     0.00   0.00   0.01    -0.00  -0.00   0.02
  27   1    -0.01  -0.03   0.01     0.00   0.00   0.01    -0.00  -0.00   0.02
  28   1     0.01  -0.03   0.01    -0.00   0.00  -0.01     0.00  -0.00  -0.02
  29   1     0.02  -0.02  -0.03    -0.00   0.00  -0.01     0.00  -0.00  -0.02
  30   1     0.02  -0.01  -0.04    -0.00   0.00   0.00     0.00  -0.00  -0.00
  31   1     0.02   0.01  -0.02    -0.00  -0.00   0.01     0.00  -0.00   0.02
  32   1     0.01   0.02   0.02    -0.00  -0.00   0.01     0.00   0.00   0.02
  33   1    -0.00   0.02   0.04    -0.00  -0.00  -0.00     0.00   0.00   0.00
  34   1    -0.01   0.02   0.02     0.00  -0.00  -0.01     0.00   0.00  -0.02
  35   1    -0.02   0.01  -0.02     0.00  -0.00  -0.01     0.00   0.00  -0.02
  36   1    -0.02  -0.01  -0.04     0.00   0.00   0.00    -0.00  -0.00  -0.00
  37  29     0.01  -0.05  -0.02     0.00   0.00   0.00    -0.00  -0.00  -0.00
  38   6    -0.05  -0.05  -0.06     0.00   0.01  -0.03    -0.00  -0.01   0.04
  39   6    -0.04  -0.08  -0.01     0.00   0.01  -0.04    -0.00  -0.01   0.05
  40   6    -0.02  -0.07   0.02     0.00   0.01  -0.02    -0.00  -0.01   0.02
  41   6     0.00  -0.09   0.05     0.00   0.00  -0.00    -0.00  -0.00   0.00
  42   6     0.02  -0.08   0.02    -0.00  -0.00   0.02    -0.00   0.00  -0.02
  43   6     0.04  -0.08   0.00    -0.00  -0.00   0.04     0.00   0.01  -0.05
  44   6     0.06  -0.06  -0.06    -0.00  -0.01   0.04     0.00   0.01  -0.05
  45   6     0.05  -0.03  -0.06    -0.00  -0.00   0.02     0.00   0.00  -0.02
  46   7     0.03  -0.05  -0.02    -0.00  -0.00   0.01    -0.00   0.00  -0.01
  47   6     0.06  -0.01  -0.09    -0.00   0.00   0.00     0.00  -0.00  -0.00
  48   6     0.05   0.01  -0.05    -0.00   0.00  -0.02     0.00  -0.00   0.02
  49   6     0.06   0.02  -0.04    -0.00   0.01  -0.04     0.00  -0.01   0.05
  50   6     0.04   0.03   0.03    -0.00   0.01  -0.04     0.00  -0.01   0.05
  51   6     0.02   0.01   0.05     0.00   0.00  -0.02    -0.00  -0.00   0.02
  52   7     0.03   0.00  -0.00     0.00   0.00  -0.01    -0.00  -0.00   0.01
  53   6     0.00   0.02   0.09     0.00  -0.00  -0.00    -0.00   0.00   0.00
[...]
  62   1    -0.02   0.15   0.03     0.02  -0.17  -0.03     0.01  -0.06  -0.01
  63   1    -0.23   0.02   0.01     0.26  -0.03  -0.01     0.10  -0.01  -0.00
  64   1    -0.06  -0.01  -0.00     0.04   0.01   0.00     0.02   0.00   0.00
  65   1    -0.00  -0.04  -0.01     0.00   0.03   0.01     0.00   0.01   0.00
  66   1     0.00  -0.00  -0.00    -0.00   0.00   0.00    -0.00   0.00   0.00
  67   1     0.00  -0.01  -0.00    -0.00   0.00   0.00    -0.00   0.00   0.00
  68   1     0.01  -0.00  -0.00    -0.00   0.00   0.00    -0.00   0.00   0.00
  69   1     0.00   0.00  -0.00    -0.00  -0.00   0.00    -0.00  -0.00   0.00
  70   1     0.01   0.00   0.00    -0.01  -0.00  -0.00    -0.00  -0.00  -0.00
  71   1     0.00   0.01   0.00    -0.00  -0.01  -0.00    -0.00  -0.00  -0.00
  72   1     0.00   0.00   0.00    -0.00  -0.00  -0.00    -0.00  -0.00  -0.00
  73   6     0.00  -0.00   0.00    -0.00   0.00  -0.00    -0.00  -0.00  -0.00
  74   6    -0.00   0.00  -0.00     0.00  -0.00   0.00    -0.00   0.00  -0.00
  75   6     0.00   0.00  -0.00    -0.00  -0.00   0.00     0.00   0.00  -0.00
  76   6    -0.00  -0.00   0.00     0.00   0.00  -0.00    -0.00  -0.00   0.00
  77   6    -0.00   0.00  -0.00     0.00   0.00  -0.00     0.00   0.00  -0.00
  78   6     0.00  -0.00   0.00    -0.00  -0.00   0.00    -0.00  -0.00   0.00
  79   6     0.00  -0.00   0.00     0.00  -0.00   0.00    -0.00  -0.00   0.00
  80   6     0.00   0.00  -0.00    -0.00   0.00  -0.00     0.00   0.00  -0.00
  81   6     0.00  -0.00   0.00    -0.00   0.00  -0.00    -0.00   0.00  -0.00
  82   6    -0.00   0.00  -0.00     0.00  -0.00   0.00     0.00  -0.00   0.00
  83   6     0.00   0.00   0.00    -0.00  -0.00  -0.00    -0.00  -0.00  -0.00
  84   6    -0.00  -0.00  -0.00     0.00   0.00   0.00     0.00   0.00   0.00
  85  29    -0.00  -0.00   0.00     0.00  -0.00   0.00     0.00  -0.00   0.00
  86   6    -0.00  -0.02   0.00     0.00   0.03  -0.00    -0.00  -0.01   0.00
  87   6    -0.03  -0.00   0.00     0.04   0.00  -0.00    -0.01  -0.00   0.00
  88   6    -0.00   0.00  -0.00     0.00  -0.00   0.00    -0.00   0.00  -0.00
  89   6     0.00  -0.00   0.00    -0.00   0.00  -0.00    -0.00  -0.00   0.00
  90   6     0.00   0.00  -0.00    -0.00  -0.00   0.00     0.00  -0.00   0.00
  91   6     0.03  -0.00   0.00    -0.07   0.01  -0.00     0.00  -0.00   0.00
  92   6     0.00  -0.02   0.00    -0.00   0.05  -0.01     0.00  -0.00   0.00
  93   6    -0.00  -0.00   0.00     0.00   0.00  -0.00     0.00  -0.00  -0.00
  94   7    -0.00   0.00  -0.00     0.00  -0.00   0.00     0.00  -0.00   0.00
  95   6     0.00   0.00  -0.00    -0.00   0.00  -0.00    -0.00  -0.00   0.00
  96   6    -0.00   0.00  -0.00    -0.00   0.00  -0.00     0.00  -0.00   0.00
  97   6     0.01   0.10  -0.01     0.00   0.04  -0.00    -0.00  -0.05   0.01
  98   6     0.14   0.01  -0.00     0.05   0.00  -0.00    -0.06  -0.00   0.00
  99   6     0.00  -0.00   0.00     0.00  -0.00   0.00    -0.00   0.00  -0.00
 100   7    -0.00  -0.00   0.00    -0.00  -0.00   0.00     0.00   0.00  -0.00
 101   6     0.00   0.00  -0.00    -0.00   0.00  -0.00    -0.00   0.00  -0.00
 102   6    -0.00  -0.00   0.00    -0.00  -0.00   0.00    -0.00  -0.01   0.00
 103   6    -0.05   0.00  -0.00    -0.06   0.01  -0.00    -0.15   0.01  -0.00
 104   6    -0.00   0.04  -0.00    -0.00   0.05  -0.01    -0.01   0.11  -0.01
 105   6     0.00   0.00  -0.00     0.00   0.00  -0.00     0.00   0.00  -0.00
 106   7     0.00  -0.00   0.00     0.00  -0.00   0.00     0.00  -0.00   0.00
 107   6    -0.00   0.00  -0.00    -0.00   0.00  -0.00    -0.00   0.00  -0.00
 108   6     0.00  -0.00   0.00    -0.00   0.00  -0.00     0.00  -0.00   0.00
 109   7    -0.00  -0.00   0.00    -0.00  -0.00   0.00     0.00   0.00  -0.00
 110   1     0.01   0.06  -0.01    -0.01  -0.08   0.01     0.00   0.03  -0.00
 111   1     0.08   0.01  -0.00    -0.11  -0.01   0.00     0.04   0.00  -0.00
 112   1    -0.09   0.01  -0.00     0.24  -0.03   0.00    -0.00   0.00  -0.00
 113   1    -0.01   0.06  -0.01     0.02  -0.15   0.02    -0.00   0.00  -0.00
 114   1     0.00  -0.00   0.00    -0.00  -0.00   0.00    -0.00   0.00  -0.00
 115   1    -0.03  -0.31   0.04    -0.01  -0.11   0.01     0.02   0.14  -0.02
 116   1    -0.47  -0.05   0.01    -0.16  -0.02   0.00     0.21   0.02  -0.00
 117   1     0.18  -0.02   0.00     0.21  -0.02   0.00     0.50  -0.06   0.01
 118   1     0.01  -0.12   0.01     0.01  -0.14   0.02     0.03  -0.35   0.04
 119   1    -0.00  -0.00   0.00    -0.00  -0.00   0.00    -0.00  -0.01   0.00
 120  29    -0.00  -0.00   0.00    -0.00  -0.00   0.00     0.00  -0.00   0.00
 121   6     0.01   0.09  -0.01     0.00   0.07  -0.01    -0.00  -0.02   0.00
 122   6     0.13   0.01  -0.00     0.10   0.01  -0.00    -0.03  -0.00   0.00
 123   6     0.00  -0.00   0.00     0.00  -0.00   0.00    -0.00   0.00  -0.00
 124   6     0.00   0.00  -0.00     0.00   0.00  -0.00    -0.00   0.00  -0.00
 125   6    -0.00  -0.00   0.00     0.00   0.00  -0.00    -0.00  -0.01   0.00
 126   6    -0.03   0.00  -0.00     0.01  -0.00   0.00    -0.16   0.01  -0.00
 127   6    -0.00   0.02  -0.00     0.00  -0.01   0.00    -0.01   0.12  -0.01
 128   6     0.00   0.00  -0.00    -0.00  -0.00   0.00     0.00   0.00  -0.00
 129   7     0.00  -0.00   0.00     0.00  -0.00   0.00     0.00  -0.00   0.00
 130   6    -0.00   0.00  -0.00     0.00   0.00  -0.00    -0.00   0.00  -0.00
 131   6     0.00  -0.00   0.00    -0.00   0.00  -0.00    -0.00   0.00  -0.00
 132   6    -0.00  -0.01   0.00     0.00   0.03  -0.00     0.00   0.01  -0.00
 133   6    -0.01  -0.00   0.00     0.04   0.00  -0.00     0.01   0.00  -0.00
 134   6    -0.00   0.00  -0.00     0.00  -0.00   0.00     0.00  -0.00   0.00
 135   7     0.00   0.00  -0.00    -0.00  -0.00   0.00     0.00   0.00  -0.00
 136   6     0.00  -0.00   0.00     0.00   0.00  -0.00    -0.00   0.00  -0.00
 137   6     0.00   0.00  -0.00    -0.00  -0.00   0.00    -0.00  -0.00   0.00
 138   6     0.05  -0.00   0.00    -0.03   0.00  -0.00    -0.02   0.00  -0.00
 139   6     0.00  -0.03   0.00    -0.00   0.02  -0.00    -0.00   0.01  -0.00
 140   6    -0.00  -0.00   0.00     0.00   0.00  -0.00     0.00   0.00  -0.00
 141   7    -0.00   0.00  -0.00    -0.00   0.00  -0.00     0.00  -0.00   0.00
 142   6     0.00   0.00  -0.00     0.00   0.00  -0.00    -0.00  -0.00   0.00
 143   6    -0.00   0.00  -0.00    -0.00   0.00  -0.00     0.00  -0.00   0.00
 144   7    -0.00  -0.00   0.00    -0.00  -0.00   0.00     0.00  -0.00   0.00
 145   1    -0.03  -0.29   0.04    -0.02  -0.23   0.03     0.01   0.08  -0.01
 146   1    -0.43  -0.05   0.01    -0.33  -0.04   0.00     0.11   0.01  -0.00
 147   1     0.11  -0.01   0.00    -0.04   0.00  -0.00     0.53  -0.06   0.01
 148   1     0.01  -0.07   0.01    -0.00   0.03  -0.00     0.04  -0.36   0.04
 149   1    -0.00  -0.00   0.00     0.00  -0.00   0.00    -0.00  -0.01   0.00
 150   1     0.00   0.02  -0.00    -0.01  -0.08   0.01    -0.00  -0.03   0.00
 151   1     0.04   0.00  -0.00    -0.12  -0.01   0.00    -0.04  -0.00   0.00
 152   1    -0.15   0.02  -0.00     0.10  -0.01   0.00     0.06  -0.01   0.00
 153   1    -0.01   0.10  -0.01     0.01  -0.07   0.01     0.00  -0.04   0.00
 154   1     0.00  -0.00   0.00     0.00  -0.01   0.00    -0.00   0.00  -0.00
                    454                    455                    456
                        a                      a                      a 
 Frequencies --  3167.2841              3167.4550              3167.6679
 Red. masses --     1.9684                 1.9690                 1.9695
 Frc consts  --     0.0000                 0.0000                 0.0000
 IR Inten    --  2734.5348              2632.1030               903.0494
 Raman Activ --     0.0000                 0.0000                 0.0000
 Depolar     --     0.0000                 0.0000                 0.0000
 Atom AN      X      Y      Z        X      Y      Z        X      Y      Z
   1  29    -0.00  -0.00   0.00     0.00   0.00   0.00    -0.00   0.00  -0.00
   2   6     0.00  -0.00   0.00     0.00  -0.01   0.00     0.00  -0.03   0.00
   3   6     0.00  -0.00   0.00     0.01  -0.00   0.00     0.05  -0.00   0.00
   4   6     0.00   0.00  -0.00     0.00   0.00  -0.00     0.00   0.00  -0.00
   5   6    -0.00   0.00  -0.00     0.00  -0.00   0.00     0.00  -0.00   0.00
   6   6     0.00  -0.00   0.00    -0.00   0.00  -0.00     0.00  -0.00   0.00
   7   6     0.01   0.00  -0.00    -0.01  -0.00   0.00     0.03   0.00  -0.00
   8   6     0.00   0.01  -0.00    -0.00  -0.01   0.00     0.00   0.02  -0.00
   9   6    -0.00   0.00   0.00     0.00  -0.00  -0.00    -0.00   0.00   0.00
  10   7     0.00   0.00   0.00     0.00   0.00  -0.00    -0.00  -0.00   0.00
  11   6     0.00   0.00   0.00    -0.00  -0.00  -0.00     0.00   0.00   0.00
  12   6    -0.00   0.00   0.00    -0.00   0.00   0.00     0.00   0.00   0.00
  13   6    -0.00   0.00   0.00     0.00  -0.00  -0.00    -0.00   0.00   0.00
  14   6    -0.00   0.00  -0.00     0.00  -0.00   0.00    -0.00   0.00  -0.00
  15   6    -0.00   0.00   0.00    -0.00   0.00   0.00    -0.00  -0.00  -0.00
  16   7    -0.00   0.00  -0.00    -0.00   0.00  -0.00     0.00  -0.00   0.00
  17   6    -0.00   0.00  -0.00     0.00  -0.00   0.00    -0.00  -0.00  -0.00
  18   6    -0.00  -0.00  -0.00    -0.00  -0.00  -0.00    -0.00   0.00  -0.00
  19   6    -0.00  -0.00  -0.00     0.00   0.00   0.00    -0.00  -0.00  -0.00
  20   6    -0.00  -0.00  -0.00     0.00   0.00   0.00    -0.00  -0.00  -0.00
  21   6    -0.00  -0.00  -0.00    -0.00  -0.00  -0.00     0.00  -0.00   0.00
  22   7    -0.00  -0.00  -0.00    -0.00  -0.00  -0.00     0.00   0.00   0.00
  23   6     0.00  -0.00   0.00     0.00  -0.00   0.00     0.00  -0.00   0.00
  24   6    -0.00  -0.00  -0.00    -0.00  -0.00  -0.00    -0.00  -0.00  -0.00
  25   7     0.00  -0.00   0.00    -0.00   0.00   0.00    -0.00   0.00  -0.00
  26   1    -0.00   0.01  -0.00    -0.00   0.03  -0.00    -0.01   0.09  -0.00
  27   1    -0.02   0.00  -0.00    -0.05   0.00  -0.00    -0.15   0.01  -0.00
  28   1    -0.05  -0.01   0.00     0.05   0.01  -0.00    -0.10  -0.01   0.00
  29   1    -0.00  -0.03   0.00     0.00   0.04  -0.00    -0.01  -0.08   0.00
  30   1     0.00  -0.00  -0.00    -0.00   0.00   0.00     0.00  -0.00  -0.00
  31   1     0.00  -0.00  -0.00    -0.00   0.00   0.00     0.00  -0.01  -0.00
  32   1     0.00  -0.00   0.00    -0.00   0.00  -0.00     0.01  -0.00   0.00
  33   1     0.00   0.00   0.00    -0.00  -0.00  -0.00     0.00   0.00   0.00
  34   1     0.00   0.00   0.00    -0.00  -0.00  -0.00     0.01   0.00   0.00
  35   1     0.00   0.00   0.00    -0.00  -0.00  -0.00     0.00   0.01   0.00
  36   1     0.00   0.00  -0.00     0.00   0.00  -0.00     0.00   0.00  -0.00
  37  29    -0.00  -0.00  -0.00    -0.00   0.00   0.00     0.00  -0.00  -0.00
  38   6     0.00  -0.01  -0.00     0.00  -0.02  -0.00    -0.00   0.02   0.00
  39   6     0.02  -0.00  -0.00     0.03  -0.00  -0.00    -0.02   0.00   0.00
  40   6     0.00   0.00   0.00     0.00   0.00   0.00    -0.00  -0.00  -0.00
  41   6     0.00   0.00   0.00     0.00  -0.00  -0.00    -0.00   0.00   0.00
  42   6     0.00  -0.00  -0.00     0.00  -0.00  -0.00    -0.00   0.00   0.00
  43   6     0.03   0.00   0.00     0.02   0.00   0.00    -0.02  -0.00  -0.00
  44   6     0.00   0.02   0.00     0.00   0.02   0.00    -0.00  -0.01  -0.00
  45   6    -0.00   0.00   0.00    -0.00   0.00   0.00     0.00  -0.00  -0.00
  46   7    -0.00  -0.00  -0.00    -0.00  -0.00  -0.00     0.00   0.00   0.00
  47   6     0.00   0.00   0.00     0.00   0.00   0.00    -0.00  -0.00  -0.00
  48   6     0.00   0.00   0.00     0.00   0.00   0.00    -0.00  -0.00  -0.00
  49   6    -0.00   0.00   0.00    -0.00   0.00   0.00     0.00  -0.00  -0.00
  50   6    -0.00   0.00   0.00    -0.00   0.00   0.00     0.00  -0.00  -0.00
  51   6    -0.00  -0.00  -0.00    -0.00  -0.00  -0.00     0.00   0.00   0.00
  52   7     0.00  -0.00  -0.00     0.00  -0.00  -0.00    -0.00   0.00   0.00
  53   6    -0.00   0.00   0.00    -0.00  -0.00   0.00     0.00   0.00  -0.00
  54   6    -0.00   0.00   0.00    -0.00   0.00   0.00     0.00  -0.00  -0.00
  55   6    -0.00  -0.00   0.00    -0.00  -0.00  -0.00     0.00   0.00   0.00
  56   6    -0.00  -0.00  -0.00    -0.00  -0.00  -0.00     0.00   0.00   0.00
  57   6     0.00  -0.00  -0.00     0.00  -0.00  -0.00    -0.00   0.00   0.00
  58   7     0.00   0.00   0.00     0.00   0.00   0.00    -0.00  -0.00  -0.00
  59   6     0.00  -0.00  -0.00     0.00  -0.00  -0.00    -0.00   0.00   0.00
  60   6    -0.00  -0.00  -0.00    -0.00  -0.00  -0.00     0.00   0.00   0.00
  61   7    -0.00   0.00   0.00    -0.00   0.00   0.00     0.00  -0.00  -0.00
  62   1    -0.01   0.04   0.01    -0.01   0.07   0.01     0.01  -0.05  -0.01
  63   1    -0.07   0.01   0.00    -0.11   0.01   0.00     0.08  -0.01  -0.00
  64   1    -0.09  -0.01  -0.00    -0.07  -0.01  -0.00     0.05   0.01   0.00
  65   1    -0.01  -0.06  -0.01    -0.00  -0.05  -0.01     0.00   0.04   0.01
  66   1     0.00  -0.00  -0.00     0.00  -0.00  -0.00    -0.00   0.00   0.00
  67   1     0.00  -0.01  -0.00     0.00  -0.01  -0.00    -0.00   0.01   0.00
  68   1     0.00  -0.00  -0.00     0.01  -0.00  -0.00    -0.01   0.00   0.00
  69   1     0.00   0.00  -0.00     0.00   0.00  -0.00    -0.00  -0.00   0.00
  70   1     0.00   0.00   0.00     0.01   0.00   0.00    -0.01  -0.00  -0.00
  71   1     0.00   0.00   0.00     0.00   0.01   0.00    -0.00  -0.01  -0.00
  72   1     0.00   0.00   0.00     0.00   0.00   0.00    -0.00  -0.00  -0.00
  73   6     0.00   0.00  -0.00    -0.00  -0.00   0.00    -0.00  -0.00   0.00
  74   6     0.00  -0.00   0.00     0.00   0.00  -0.00     0.00   0.00  -0.00
  75   6     0.00  -0.00   0.00    -0.00   0.00  -0.00    -0.00   0.00  -0.00
  76   6     0.00   0.00  -0.00     0.00  -0.00   0.00     0.00  -0.00   0.00
  77   6    -0.00   0.00  -0.00     0.00  -0.00   0.00    -0.00   0.00  -0.00
  78   6     0.00  -0.00   0.00    -0.00   0.00  -0.00     0.00  -0.00   0.00
  79   6    -0.00  -0.00   0.00     0.00   0.00  -0.00    -0.00  -0.00   0.00
  80   6     0.00   0.00  -0.00    -0.00  -0.00   0.00     0.00   0.00  -0.00
  81   6     0.00   0.00  -0.00     0.00   0.00  -0.00    -0.00  -0.00   0.00
  82   6    -0.00  -0.00   0.00    -0.00  -0.00   0.00     0.00   0.00  -0.00
  83   6     0.00  -0.00   0.00     0.00   0.00   0.00    -0.00  -0.00  -0.00
  84   6    -0.00   0.00  -0.00    -0.00  -0.00  -0.00     0.00   0.00   0.00
  85  29    -0.00  -0.00   0.00     0.00   0.00  -0.00     0.00   0.00  -0.00
  86   6     0.00   0.01  -0.00    -0.01  -0.10   0.01    -0.01  -0.13   0.01
  87   6     0.01   0.00  -0.00    -0.14  -0.01   0.00    -0.18  -0.01   0.00
  88   6     0.00  -0.00   0.00    -0.00   0.00  -0.00    -0.00   0.01  -0.00
  89   6     0.00   0.00  -0.00    -0.00  -0.00   0.00    -0.00  -0.00   0.00
  90   6    -0.00  -0.00   0.00    -0.00  -0.00   0.00    -0.00  -0.00   0.00
  91   6    -0.00   0.00  -0.00    -0.02   0.00  -0.00    -0.06   0.01  -0.00
  92   6    -0.00   0.00  -0.00    -0.00   0.01  -0.00    -0.00   0.04  -0.00
  93   6     0.00  -0.00   0.00     0.00   0.00  -0.00     0.00   0.00  -0.00
  94   7    -0.00   0.00  -0.00     0.00   0.00  -0.00     0.00  -0.00   0.00
  95   6     0.00   0.00  -0.00    -0.00  -0.00   0.00     0.00   0.00  -0.00
  96   6    -0.00   0.00  -0.00     0.00  -0.00   0.00    -0.00   0.00  -0.00
  97   6     0.00   0.06  -0.01    -0.00  -0.06   0.01     0.00   0.04  -0.00
  98   6     0.08   0.01  -0.00    -0.09  -0.01   0.00     0.06   0.00  -0.00
  99   6     0.00  -0.00   0.00    -0.00   0.00  -0.00     0.00  -0.00   0.00
 100   7    -0.00  -0.00   0.00     0.00   0.00  -0.00    -0.00  -0.00   0.00
 101   6     0.00   0.00  -0.00    -0.00  -0.00   0.00     0.00   0.00  -0.00
 102   6     0.00   0.00  -0.00    -0.00  -0.00   0.00     0.00   0.00  -0.00
 103   6     0.06  -0.00   0.00    -0.07   0.01  -0.00     0.06  -0.00   0.00
 104   6     0.00  -0.04   0.00    -0.00   0.05  -0.01     0.00  -0.04   0.00
 105   6    -0.00  -0.00   0.00     0.00   0.00  -0.00    -0.00  -0.00   0.00
 106   7    -0.00   0.00  -0.00     0.00  -0.00   0.00    -0.00   0.00  -0.00
 107   6     0.00  -0.00   0.00    -0.00  -0.00   0.00    -0.00  -0.00   0.00
 108   6    -0.00   0.00  -0.00     0.00  -0.00   0.00     0.01  -0.00   0.00
 109   7    -0.00  -0.00   0.00     0.00   0.00  -0.00     0.00   0.00  -0.00
 110   1    -0.00  -0.03   0.00     0.03   0.31  -0.04     0.04   0.41  -0.05
 111   1    -0.04  -0.00   0.00     0.45   0.05  -0.01     0.58   0.07  -0.01
 112   1     0.01  -0.00   0.00     0.06  -0.01   0.00     0.20  -0.02   0.00
 113   1     0.00  -0.01   0.00     0.00  -0.04   0.00     0.01  -0.13   0.02
 114   1     0.00  -0.00   0.00    -0.00   0.00  -0.00    -0.00  -0.01   0.00
 115   1    -0.02  -0.18   0.02     0.02   0.19  -0.02    -0.01  -0.13   0.02
 116   1    -0.28  -0.03   0.00     0.28   0.03  -0.00    -0.20  -0.02   0.00
 117   1    -0.18   0.02  -0.00     0.23  -0.03   0.00    -0.19   0.02  -0.00
 118   1    -0.01   0.12  -0.01     0.02  -0.15   0.02    -0.01   0.13  -0.02
 119   1     0.00   0.00  -0.00    -0.00   0.00  -0.00    -0.00   0.01  -0.00
 120  29     0.00  -0.00   0.00    -0.00   0.00  -0.00     0.00   0.00  -0.00
 121   6    -0.00  -0.02   0.00     0.00   0.05  -0.01    -0.00  -0.04   0.00
 122   6    -0.03  -0.00   0.00     0.06   0.00  -0.00    -0.05  -0.00   0.00
 123   6    -0.00   0.00  -0.00     0.00  -0.00   0.00    -0.00   0.00  -0.00
 124   6    -0.00   0.00  -0.00     0.00  -0.00   0.00    -0.00   0.00  -0.00
 125   6    -0.00  -0.00   0.00     0.00   0.00  -0.00    -0.00  -0.00   0.00
 126   6    -0.07   0.01  -0.00     0.10  -0.01   0.00    -0.06   0.01  -0.00
 127   6    -0.00   0.05  -0.01     0.00  -0.07   0.01    -0.00   0.04  -0.01
 128   6     0.00   0.00  -0.00    -0.00  -0.00   0.00     0.00   0.00  -0.00
 129   7     0.00  -0.00   0.00    -0.00   0.00  -0.00     0.00  -0.00   0.00
 130   6    -0.00  -0.00   0.00     0.00  -0.00   0.00    -0.00   0.00  -0.00
 131   6     0.00  -0.00   0.00     0.00  -0.00   0.00    -0.00   0.00  -0.00
 132   6    -0.00  -0.06   0.01    -0.00  -0.04   0.00     0.00   0.03  -0.00
 133   6    -0.08  -0.01   0.00    -0.06  -0.00   0.00     0.04   0.00  -0.00
 134   6    -0.00   0.00  -0.00    -0.00   0.00  -0.00     0.00  -0.00   0.00
 135   7     0.00   0.00  -0.00     0.00   0.00  -0.00    -0.00  -0.00   0.00
 136   6    -0.00   0.00  -0.00    -0.00   0.00  -0.00     0.00  -0.00   0.00
 137   6    -0.00  -0.01   0.00    -0.00  -0.00   0.00     0.00   0.00  -0.00
 138   6    -0.18   0.02  -0.00    -0.09   0.01  -0.00     0.05  -0.00   0.00
 139   6    -0.01   0.13  -0.01    -0.00   0.06  -0.01     0.00  -0.04   0.00
 140   6     0.01   0.00  -0.00     0.00   0.00  -0.00    -0.00  -0.00   0.00
 141   7     0.00  -0.00   0.00     0.00  -0.00   0.00    -0.00   0.00  -0.00
 142   6    -0.00   0.00  -0.00    -0.00   0.00  -0.00    -0.00  -0.00   0.00
 143   6     0.00  -0.00   0.00    -0.00   0.00  -0.00     0.00  -0.00   0.00
 144   7     0.00   0.00  -0.00    -0.00  -0.00   0.00     0.00   0.00  -0.00
 145   1     0.01   0.07  -0.01    -0.02  -0.15   0.02     0.01   0.12  -0.01
 146   1     0.11   0.01  -0.00    -0.21  -0.02   0.00     0.17   0.02  -0.00
 147   1     0.24  -0.03   0.00    -0.31   0.04  -0.00     0.20  -0.02   0.00
 148   1     0.02  -0.16   0.02    -0.02   0.21  -0.03     0.01  -0.14   0.02
 149   1    -0.00   0.00  -0.00     0.00   0.01  -0.00    -0.00  -0.00   0.00
 150   1     0.02   0.17  -0.02     0.01   0.12  -0.01    -0.01  -0.08   0.01
 151   1     0.26   0.03  -0.00     0.18   0.02  -0.00    -0.12  -0.01   0.00
 152   1     0.60  -0.07   0.01     0.29  -0.03   0.00    -0.17   0.02  -0.00
 153   1     0.04  -0.40   0.05     0.02  -0.20   0.02    -0.01   0.12  -0.01
 154   1    -0.00  -0.01   0.00    -0.00  -0.01   0.00     0.00   0.00  -0.00
